 Entering Gaussian System, Link 0=g16
 Input=structure-2-Vc.gjf
 Output=structure-2-Vc.log
 Initial command:
 /scratch/scicomp/CentOS/7.3.1611/Haswell/software/Gaussian/g16/l1.exe "/scratch/bochen/test/xppcm/tmp/Gau-391028.inp" -scrdir="/scratch/bochen/test/xppcm/tmp/"
 Entering Link 1 = /scratch/scicomp/CentOS/7.3.1611/Haswell/software/Gaussian/g16/l1.exe PID=    391029.
  
 Copyright (c) 1988-2017, Gaussian, Inc.  All Rights Reserved.
  
 This is part of the Gaussian(R) 16 program.  It is based on
 the Gaussian(R) 09 system (copyright 2009, Gaussian, Inc.),
 the Gaussian(R) 03 system (copyright 2003, Gaussian, Inc.),
 the Gaussian(R) 98 system (copyright 1998, Gaussian, Inc.),
 the Gaussian(R) 94 system (copyright 1995, Gaussian, Inc.),
 the Gaussian 92(TM) system (copyright 1992, Gaussian, Inc.),
 the Gaussian 90(TM) system (copyright 1990, Gaussian, Inc.),
 the Gaussian 88(TM) system (copyright 1988, Gaussian, Inc.),
 the Gaussian 86(TM) system (copyright 1986, Carnegie Mellon
 University), and the Gaussian 82(TM) system (copyright 1983,
 Carnegie Mellon University). Gaussian is a federally registered
 trademark of Gaussian, Inc.
  
 This software contains proprietary and confidential information,
 including trade secrets, belonging to Gaussian, Inc.
  
 This software is provided under written license and may be
 used, copied, transmitted, or stored only in accord with that
 written license.
  
 The following legend is applicable only to US Government
 contracts under FAR:
  
                    RESTRICTED RIGHTS LEGEND
  
 Use, reproduction and disclosure by the US Government is
 subject to restrictions as set forth in subparagraphs (a)
 and (c) of the Commercial Computer Software - Restricted
 Rights clause in FAR 52.227-19.
  
 Gaussian, Inc.
 340 Quinnipiac St., Bldg. 40, Wallingford CT 06492
  
  
 ---------------------------------------------------------------
 Warning -- This program may not be used in any manner that
 competes with the business of Gaussian, Inc. or will provide
 assistance to any competitor of Gaussian, Inc.  The licensee
 of this program is prohibited from giving any competitor of
 Gaussian, Inc. access to this program.  By using this program,
 the user acknowledges that Gaussian, Inc. is engaged in the
 business of creating and licensing software in the field of
 computational chemistry and represents and warrants to the
 licensee that it is not a competitor of Gaussian, Inc. and that
 it will not use this program in any manner prohibited above.
 ---------------------------------------------------------------
  

 Cite this work as:
 Gaussian 16, Revision B.01,
 M. J. Frisch, G. W. Trucks, H. B. Schlegel, G. E. Scuseria, 
 M. A. Robb, J. R. Cheeseman, G. Scalmani, V. Barone, 
 G. A. Petersson, H. Nakatsuji, X. Li, M. Caricato, A. V. Marenich, 
 J. Bloino, B. G. Janesko, R. Gomperts, B. Mennucci, H. P. Hratchian, 
 J. V. Ortiz, A. F. Izmaylov, J. L. Sonnenberg, D. Williams-Young, 
 F. Ding, F. Lipparini, F. Egidi, J. Goings, B. Peng, A. Petrone, 
 T. Henderson, D. Ranasinghe, V. G. Zakrzewski, J. Gao, N. Rega, 
 G. Zheng, W. Liang, M. Hada, M. Ehara, K. Toyota, R. Fukuda, 
 J. Hasegawa, M. Ishida, T. Nakajima, Y. Honda, O. Kitao, H. Nakai, 
 T. Vreven, K. Throssell, J. A. Montgomery, Jr., J. E. Peralta, 
 F. Ogliaro, M. J. Bearpark, J. J. Heyd, E. N. Brothers, K. N. Kudin, 
 V. N. Staroverov, T. A. Keith, R. Kobayashi, J. Normand, 
 K. Raghavachari, A. P. Rendell, J. C. Burant, S. S. Iyengar, 
 J. Tomasi, M. Cossi, J. M. Millam, M. Klene, C. Adamo, R. Cammi, 
 J. W. Ochterski, R. L. Martin, K. Morokuma, O. Farkas, 
 J. B. Foresman, and D. J. Fox, Gaussian, Inc., Wallingford CT, 2016.
 
 ******************************************
 Gaussian 16:  ES64L-G16RevB.01 20-Dec-2017
                15-Sep-2020 
 ******************************************
 %kjob l301
 kjob at link  301 occurrence number     1
 %chk=structure-2-Vc.chk
 %nproc=1
 Will use up to    1 processors via shared memory.
 %mem=1000mb
 ----------------------------------------------------------------------
 #p b3lyp 6-31g* # scrf=(iefpcm,solvent=cyclohexane,read) nosym guess=o
 nly pop=none
 ----------------------------------------------------------------------
 1/38=1,40=2,172=1/1;
 2/12=2,15=1,17=6,18=5,40=1/2;
 3/5=1,6=6,7=1,11=2,25=1,30=1,70=2203,72=17,74=-5,89=1/1,2;
 4//1;
 99/5=2/99;
 Leave Link    1 at Tue Sep 15 22:32:48 2020, MaxMem=   131072000 cpu:               0.0 elap:               0.1
 (Enter /scratch/scicomp/CentOS/7.3.1611/Haswell/software/Gaussian/g16/l101.exe)
 -----
 title
 -----
 Symbolic Z-matrix:
 Charge =  0 Multiplicity = 1
 C                     2.46889   0.2841   -0.70896 
 C                     1.66725   1.33039   0.03125 
 C                     1.0876    1.07599   1.25692 
 C                     0.68925  -0.23474   1.57552 
 C                     0.88656  -1.22938   0.60904 
 C                     2.18507  -1.14836  -0.18595 
 H                     0.75487   1.90394   1.87856 
 H                     1.80447   2.36121  -0.29094 
 H                     2.28928   0.3581   -1.78937 
 H                     3.53869   0.50611  -0.58103 
 H                     0.05756  -0.41413   2.4412 
 H                     0.5593   -2.24138   0.84559 
 H                     2.9956   -1.45105   0.49025 
 H                     2.18753  -1.87143  -1.00964 
 C                    -0.42979   0.55327  -1.22838 
 C                    -0.46837  -0.81831  -0.9244 
 H                     0.1789    0.92091  -2.04595 
 H                     0.03944  -1.47837  -1.62678 
 C                    -1.7934   -1.38148  -0.41297 
 H                    -2.43371  -1.52573  -1.29682 
 H                    -1.65773  -2.37615   0.02784 
 C                    -1.41993   1.43514  -0.6446 
 H                    -1.36331   2.49552  -0.8844 
 C                    -2.35956   1.00005   0.22126 
 H                    -3.04068   1.71247   0.68353 
 C                    -2.53277  -0.45814   0.57431 
 H                    -3.60145  -0.71583   0.57595 
 H                    -2.19361  -0.63531   1.60368 
 
 ITRead=  0  0  0  0  0  0  0  0  0  0  0  0  0  0  0  0  0  0  0  0
 ITRead=  0  0  0  0  0  0  0  0
 MicOpt= -1 -1 -1 -1 -1 -1 -1 -1 -1 -1 -1 -1 -1 -1 -1 -1 -1 -1 -1 -1
 MicOpt= -1 -1 -1 -1 -1 -1 -1 -1
 NAtoms=     28 NQM=       28 NQMF=       0 NMMI=      0 NMMIF=      0
                NMic=       0 NMicF=      0.
                    Isotopes and Nuclear Properties:
 (Nuclear quadrupole moments (NQMom) in fm**2, nuclear magnetic moments (NMagM)
  in nuclear magnetons)

  Atom         1           2           3           4           5           6           7           8           9          10
 IAtWgt=          12          12          12          12          12          12           1           1           1           1
 AtmWgt=  12.0000000  12.0000000  12.0000000  12.0000000  12.0000000  12.0000000   1.0078250   1.0078250   1.0078250   1.0078250
 NucSpn=           0           0           0           0           0           0           1           1           1           1
 AtZEff=  -0.0000000  -0.0000000  -0.0000000  -0.0000000  -0.0000000  -0.0000000  -0.0000000  -0.0000000  -0.0000000  -0.0000000
 NQMom=    0.0000000   0.0000000   0.0000000   0.0000000   0.0000000   0.0000000   0.0000000   0.0000000   0.0000000   0.0000000
 NMagM=    0.0000000   0.0000000   0.0000000   0.0000000   0.0000000   0.0000000   2.7928460   2.7928460   2.7928460   2.7928460
 AtZNuc=   6.0000000   6.0000000   6.0000000   6.0000000   6.0000000   6.0000000   1.0000000   1.0000000   1.0000000   1.0000000

  Atom        11          12          13          14          15          16          17          18          19          20
 IAtWgt=           1           1           1           1          12          12           1           1          12           1
 AtmWgt=   1.0078250   1.0078250   1.0078250   1.0078250  12.0000000  12.0000000   1.0078250   1.0078250  12.0000000   1.0078250
 NucSpn=           1           1           1           1           0           0           1           1           0           1
 AtZEff=  -0.0000000  -0.0000000  -0.0000000  -0.0000000  -0.0000000  -0.0000000  -0.0000000  -0.0000000  -0.0000000  -0.0000000
 NQMom=    0.0000000   0.0000000   0.0000000   0.0000000   0.0000000   0.0000000   0.0000000   0.0000000   0.0000000   0.0000000
 NMagM=    2.7928460   2.7928460   2.7928460   2.7928460   0.0000000   0.0000000   2.7928460   2.7928460   0.0000000   2.7928460
 AtZNuc=   1.0000000   1.0000000   1.0000000   1.0000000   6.0000000   6.0000000   1.0000000   1.0000000   6.0000000   1.0000000

  Atom        21          22          23          24          25          26          27          28
 IAtWgt=           1          12           1          12           1          12           1           1
 AtmWgt=   1.0078250  12.0000000   1.0078250  12.0000000   1.0078250  12.0000000   1.0078250   1.0078250
 NucSpn=           1           0           1           0           1           0           1           1
 AtZEff=  -0.0000000  -0.0000000  -0.0000000  -0.0000000  -0.0000000  -0.0000000  -0.0000000  -0.0000000
 NQMom=    0.0000000   0.0000000   0.0000000   0.0000000   0.0000000   0.0000000   0.0000000   0.0000000
 NMagM=    2.7928460   0.0000000   2.7928460   0.0000000   2.7928460   0.0000000   2.7928460   2.7928460
 AtZNuc=   1.0000000   6.0000000   1.0000000   6.0000000   1.0000000   6.0000000   1.0000000   1.0000000
 Leave Link  101 at Tue Sep 15 22:32:49 2020, MaxMem=   131072000 cpu:               0.1 elap:               0.1
 (Enter /scratch/scicomp/CentOS/7.3.1611/Haswell/software/Gaussian/g16/l202.exe)
                          Input orientation:                          
 ---------------------------------------------------------------------
 Center     Atomic      Atomic             Coordinates (Angstroms)
 Number     Number       Type             X           Y           Z
 ---------------------------------------------------------------------
      1          6           0        2.468892    0.284095   -0.708957
      2          6           0        1.667254    1.330389    0.031252
      3          6           0        1.087601    1.075991    1.256922
      4          6           0        0.689250   -0.234741    1.575517
      5          6           0        0.886557   -1.229380    0.609039
      6          6           0        2.185072   -1.148363   -0.185946
      7          1           0        0.754870    1.903944    1.878564
      8          1           0        1.804474    2.361213   -0.290944
      9          1           0        2.289282    0.358101   -1.789365
     10          1           0        3.538694    0.506111   -0.581025
     11          1           0        0.057564   -0.414132    2.441200
     12          1           0        0.559304   -2.241378    0.845590
     13          1           0        2.995597   -1.451049    0.490252
     14          1           0        2.187529   -1.871427   -1.009641
     15          6           0       -0.429793    0.553269   -1.228382
     16          6           0       -0.468367   -0.818307   -0.924402
     17          1           0        0.178899    0.920914   -2.045953
     18          1           0        0.039438   -1.478372   -1.626777
     19          6           0       -1.793403   -1.381477   -0.412965
     20          1           0       -2.433705   -1.525729   -1.296815
     21          1           0       -1.657728   -2.376149    0.027843
     22          6           0       -1.419929    1.435138   -0.644601
     23          1           0       -1.363311    2.495516   -0.884397
     24          6           0       -2.359563    1.000047    0.221263
     25          1           0       -3.040678    1.712474    0.683525
     26          6           0       -2.532766   -0.458144    0.574312
     27          1           0       -3.601447   -0.715834    0.575953
     28          1           0       -2.193607   -0.635306    1.603677
 ---------------------------------------------------------------------
                    Distance matrix (angstroms):
                    1          2          3          4          5
     1  C    0.000000
     2  C    1.511709   0.000000
     3  C    2.529772   1.379486   0.000000
     4  C    2.941962   2.406424   1.406487   0.000000
     5  C    2.555681   2.737835   2.403104   1.400827   0.000000
     6  C    1.551138   2.541559   2.869505   2.484943   1.524699
     7  H    3.501007   2.138685   1.087499   2.161045   3.383305
     8  H    2.220497   1.088686   2.135788   3.386204   3.813778
     9  H    1.097733   2.155669   3.352502   3.772797   3.200012
    10  H    1.100061   2.134621   3.116195   3.649502   3.385559
    11  H    4.028090   3.382648   2.164245   1.086561   2.169948
    12  H    3.527202   3.827299   3.384262   2.139222   1.089583
    13  H    2.173993   3.116340   3.257938   2.824260   2.123981
    14  H    2.194505   3.406724   3.877425   3.406849   2.173678
    15  C    2.957132   2.566749   2.958455   3.120107   2.878668
    16  C    3.144709   3.176641   3.281398   2.816065   2.087161
    17  H    2.727117   2.587982   3.429107   3.835498   3.489058
    18  H    3.138619   3.645269   3.992385   3.496221   2.403847
    19  C    4.585728   4.419015   4.138581   3.381217   2.872248
    20  H    5.258945   5.170980   5.068542   4.435064   3.839823
    21  H    4.964752   4.979351   4.578727   3.534010   2.850659
    22  C    4.056103   3.162032   3.167410   3.487987   3.740474
    23  H    4.427973   3.373464   3.550671   4.209333   4.600772
    24  C    4.969092   4.044810   3.600180   3.557241   3.957020
    25  H    5.859576   4.768236   4.216228   4.301123   4.907467
    26  C    5.216731   4.597166   3.990812   3.381377   3.505393
    27  H    6.284892   5.678287   5.065721   4.431778   4.517411
    28  H    5.285118   4.608983   3.716867   2.910689   3.290842
                    6          7          8          9         10
     6  C    0.000000
     7  H    3.952753   0.000000
     8  H    3.531714   2.453065   0.000000
     9  H    2.202554   4.265883   2.548090   0.000000
    10  H    2.173859   3.969029   2.555987   1.744426   0.000000
    11  H    3.459376   2.485211   4.268354   4.845058   4.700953
    12  H    2.214017   4.276561   4.901633   4.085719   4.296591
    13  H    1.098095   4.266643   4.069691   2.994755   2.296315
    14  H    1.096039   4.964642   4.310278   2.364132   2.768040
    15  C    3.289338   3.588992   3.023144   2.783193   4.021217
    16  C    2.773985   4.094335   3.959346   3.120373   4.234209
    17  H    3.430199   4.086554   2.792313   2.199162   3.688672
    18  H    2.605503   4.923344   4.431954   2.908757   4.156508
    19  C    3.991759   4.747504   5.193008   4.646388   5.658842
    20  H    4.765452   5.657977   5.838001   5.108623   6.349038
    21  H    4.039836   5.250237   5.876314   5.133932   5.973353
    22  C    4.458797   3.363910   3.373346   4.028491   5.045302
    23  H    5.133879   3.531374   3.225691   4.327695   5.299002
    24  C    5.043331   3.641891   4.410707   5.105534   5.973029
    25  H    6.020700   3.983838   4.984571   6.029758   6.807535
    26  C    4.828291   4.253126   5.244911   5.431885   6.255175
    27  H    5.852467   5.247621   6.280423   6.438071   7.335759
    28  H    4.758026   3.900881   5.343535   5.709281   6.239794
                   11         12         13         14         15
    11  H    0.000000
    12  H    2.477205   0.000000
    13  H    3.676062   2.585809   0.000000
    14  H    4.309149   2.495969   1.754814   0.000000
    15  C    3.826123   3.617972   4.324846   3.574545   0.000000
    16  C    3.430341   2.492812   3.794819   2.858341   1.405387
    17  H    4.683120   4.301839   4.471279   3.592451   1.083555
    18  H    4.204922   2.639136   3.636129   2.269283   2.122843
    19  C    3.536678   2.803323   4.873927   4.055107   2.503513
    20  H    4.627616   3.749687   5.716337   4.643036   2.888352
    21  H    3.551905   2.366876   4.766872   4.014613   3.415760
    22  C    3.889081   4.433374   5.395817   4.907176   1.448745
    23  H    4.641609   5.396987   6.038635   5.629773   2.182225
    24  C    3.573587   4.406405   5.895589   5.516932   2.454607
    25  H    4.148612   5.349680   6.817760   6.560892   3.437421
    26  C    3.193277   3.579722   5.617448   5.175660   2.948755
    27  H    4.118074   4.439802   6.638439   6.112426   3.863371
    28  H    2.412081   3.276077   5.369636   5.248979   3.541795
                   16         17         18         19         20
    16  C    0.000000
    17  H    2.168345   0.000000
    18  H    1.089441   2.439617   0.000000
    19  C    1.527890   3.443491   2.200462   0.000000
    20  H    2.121719   3.656907   2.495507   1.100902   0.000000
    21  H    2.179041   4.306327   2.534589   1.096399   1.755014
    22  C    2.462067   2.187342   3.403375   2.850694   3.196851
    23  H    3.432776   2.491384   4.279091   3.929160   4.181656
    24  C    2.862793   3.404456   3.913185   2.528723   2.947813
    25  H    3.950578   4.294449   5.000611   3.511484   3.843972
    26  C    2.576355   4.015061   3.535801   1.540752   2.156541
    27  H    3.475307   4.883068   4.323139   2.165655   2.350917
    28  H    3.066126   4.622813   4.016601   2.187185   3.043576
                   21         22         23         24         25
    21  H    0.000000
    22  C    3.877453   0.000000
    23  H    4.965076   1.088627   0.000000
    24  C    3.453793   1.349791   2.109841   0.000000
    25  H    4.365697   2.113684   2.425921   1.088649   0.000000
    26  C    2.177857   2.511707   3.495649   1.510286   2.231924
    27  H    2.614405   3.297795   4.177876   2.147633   2.494537
    28  H    2.408517   3.152788   4.084354   2.147787   2.660128
                   26         27         28
    26  C    0.000000
    27  H    1.099312   0.000000
    28  H    1.098184   1.744911   0.000000
 Symmetry turned off by external request.
 Stoichiometry    C12H16
 Framework group  C1[X(C12H16)]
 Deg. of freedom    78
 Full point group                 C1      NOp   1
 Rotational constants (GHZ):           1.6113202           0.8340277           0.7600312
 Leave Link  202 at Tue Sep 15 22:32:49 2020, MaxMem=   131072000 cpu:               0.0 elap:               0.0
 (Enter /scratch/scicomp/CentOS/7.3.1611/Haswell/software/Gaussian/g16/l301.exe)
 Standard basis: 6-31G(d) (6D, 7F)
 Ernie: Thresh=  0.10000D-02 Tol=  0.10000D-05 Strict=F.
   212 basis functions,   400 primitive gaussians,   212 cartesian basis functions
    44 alpha electrons       44 beta electrons
       nuclear repulsion energy       714.9299030981 Hartrees.
 IExCor=  402 DFT=T Ex+Corr=B3LYP ExCW=0 ScaHFX=  0.200000
 ScaDFX=  0.800000  0.720000  1.000000  0.810000 ScalE2=  1.000000  1.000000
 IRadAn=      5 IRanWt=     -1 IRanGd=            0 ICorTp=0 IEmpDi=  4
 NAtoms=   28 NActive=   28 NUniq=   28 SFac= 1.00D+00 NAtFMM=   60 NAOKFM=F Big=F
 Integral buffers will be    131072 words long.
 Raffenetti 2 integral format.
 Two-electron integral symmetry is turned off.
 Using the following non-standard input for PCM:
 qrep pcmdoc geomview nodis nocav g03defaults tsare=0.075
 Warning! Using old PCM defaults because the g03defaults keyword was found.
 These settings can be overridden by following keywords.
 nsfe=28
 nvesolv=36 solvmw=84.1595 rsolv=2.815
 eps=2.0165 rhos=0.7781
 --- end of non-standard input.
 Reading user-defined spheres from input:
 ISph  on   Nord    Re0     Alpha      Xe            Ye            Ze
 --- end of user-defined spheres data.
 ------------------------------------------------------------------------------
 Polarizable Continuum Model (PCM)
 =================================
 Model                : PCM.
 Atomic radii         : UA0 (Simple United Atom Topological Model).
 Polarization charges : Total charges.
 Charge compensation  : None.
 Solution method      : On-the-fly selection.
 Cavity type          : SES (Solvent Excluding Surface) (Alpha=1.000).
 Cavity algorithm     : GePol (RMin=0.200 OFac=0.890).
                        User-defined sphere list used, NSphG=   28.
                        Tesserae with average area of 0.075 Ang**2.
                        Smoothing algorithm: None.
                        Polarization charges: point-like.
                        Self-potential: constant (ISelfS= 1).
                        Self-field    : global E.n sum rule (ISelfD= 3).
 Solvent              : CycloHexane, Eps=   2.016500 Eps(inf)=   2.035188
                        RSolv=   2.815000 Ang.
 ------------------------------------------------------------------------------
 GePol: Number of generator spheres                  =      28
 GePol: Total number of spheres                      =     312
 GePol: Number of exposed spheres                    =     170 ( 54.49%)
 GePol: Number of tesserae                           =    4671
 GePol: Average area of tesserae                     =       0.05 Ang**2
 GePol: Minimum area of tessera                      =   0.10D-02 Ang**2
 GePol: Maximum area of tessera                      =    0.12395 Ang**2
 GePol: Number of small tesserae                     =       0
 GePol: Fraction of small tesserae (<1% of avg)      =       0.00%
 GePol: Total count of vertices                      =   16479
 GePol: Maximum number of vertices in a tessera      =       9
 GePol: Cavity surface area                          =    239.565 Ang**2
 GePol: Cavity volume                                =    291.588 Ang**3
 Leave Link  301 at Tue Sep 15 22:32:49 2020, MaxMem=   131072000 cpu:               0.5 elap:               0.5
0******************
 *Kjob Termination*
 *  in Link    301*
 ******************
 Job cpu time:       0 days  0 hours  0 minutes  0.8 seconds.
 Elapsed time:       0 days  0 hours  0 minutes  0.8 seconds.
 File lengths (MBytes):  RWF=    383 Int=      0 D2E=      0 Chk=      1 Scr=      1
 Normal termination of Gaussian 16 at Tue Sep 15 22:32:49 2020.
 Initial command:
 /scratch/scicomp/CentOS/7.3.1611/Haswell/software/Gaussian/g16/l1.exe "/scratch/bochen/test/xppcm/tmp/Gau-391028.inp" -scrdir="/scratch/bochen/test/xppcm/tmp/"
 Entering Link 1 = /scratch/scicomp/CentOS/7.3.1611/Haswell/software/Gaussian/g16/l1.exe PID=    391031.
  
 Copyright (c) 1988-2017, Gaussian, Inc.  All Rights Reserved.
  
 This is part of the Gaussian(R) 16 program.  It is based on
 the Gaussian(R) 09 system (copyright 2009, Gaussian, Inc.),
 the Gaussian(R) 03 system (copyright 2003, Gaussian, Inc.),
 the Gaussian(R) 98 system (copyright 1998, Gaussian, Inc.),
 the Gaussian(R) 94 system (copyright 1995, Gaussian, Inc.),
 the Gaussian 92(TM) system (copyright 1992, Gaussian, Inc.),
 the Gaussian 90(TM) system (copyright 1990, Gaussian, Inc.),
 the Gaussian 88(TM) system (copyright 1988, Gaussian, Inc.),
 the Gaussian 86(TM) system (copyright 1986, Carnegie Mellon
 University), and the Gaussian 82(TM) system (copyright 1983,
 Carnegie Mellon University). Gaussian is a federally registered
 trademark of Gaussian, Inc.
  
 This software contains proprietary and confidential information,
 including trade secrets, belonging to Gaussian, Inc.
  
 This software is provided under written license and may be
 used, copied, transmitted, or stored only in accord with that
 written license.
  
 The following legend is applicable only to US Government
 contracts under FAR:
  
                    RESTRICTED RIGHTS LEGEND
  
 Use, reproduction and disclosure by the US Government is
 subject to restrictions as set forth in subparagraphs (a)
 and (c) of the Commercial Computer Software - Restricted
 Rights clause in FAR 52.227-19.
  
 Gaussian, Inc.
 340 Quinnipiac St., Bldg. 40, Wallingford CT 06492
  
  
 ---------------------------------------------------------------
 Warning -- This program may not be used in any manner that
 competes with the business of Gaussian, Inc. or will provide
 assistance to any competitor of Gaussian, Inc.  The licensee
 of this program is prohibited from giving any competitor of
 Gaussian, Inc. access to this program.  By using this program,
 the user acknowledges that Gaussian, Inc. is engaged in the
 business of creating and licensing software in the field of
 computational chemistry and represents and warrants to the
 licensee that it is not a competitor of Gaussian, Inc. and that
 it will not use this program in any manner prohibited above.
 ---------------------------------------------------------------
  

 Cite this work as:
 Gaussian 16, Revision B.01,
 M. J. Frisch, G. W. Trucks, H. B. Schlegel, G. E. Scuseria, 
 M. A. Robb, J. R. Cheeseman, G. Scalmani, V. Barone, 
 G. A. Petersson, H. Nakatsuji, X. Li, M. Caricato, A. V. Marenich, 
 J. Bloino, B. G. Janesko, R. Gomperts, B. Mennucci, H. P. Hratchian, 
 J. V. Ortiz, A. F. Izmaylov, J. L. Sonnenberg, D. Williams-Young, 
 F. Ding, F. Lipparini, F. Egidi, J. Goings, B. Peng, A. Petrone, 
 T. Henderson, D. Ranasinghe, V. G. Zakrzewski, J. Gao, N. Rega, 
 G. Zheng, W. Liang, M. Hada, M. Ehara, K. Toyota, R. Fukuda, 
 J. Hasegawa, M. Ishida, T. Nakajima, Y. Honda, O. Kitao, H. Nakai, 
 T. Vreven, K. Throssell, J. A. Montgomery, Jr., J. E. Peralta, 
 F. Ogliaro, M. J. Bearpark, J. J. Heyd, E. N. Brothers, K. N. Kudin, 
 V. N. Staroverov, T. A. Keith, R. Kobayashi, J. Normand, 
 K. Raghavachari, A. P. Rendell, J. C. Burant, S. S. Iyengar, 
 J. Tomasi, M. Cossi, J. M. Millam, M. Klene, C. Adamo, R. Cammi, 
 J. W. Ochterski, R. L. Martin, K. Morokuma, O. Farkas, 
 J. B. Foresman, and D. J. Fox, Gaussian, Inc., Wallingford CT, 2016.
 
 ******************************************
 Gaussian 16:  ES64L-G16RevB.01 20-Dec-2017
                15-Sep-2020 
 ******************************************
 %kjob l301
 kjob at link  301 occurrence number     1
 %chk=structure-2-Vc.chk
 %nproc=1
 Will use up to    1 processors via shared memory.
 %mem=1000mb
 ----------------------------------------------------------------------
 #p b3lyp 6-31g* # scrf=(iefpcm,solvent=cyclohexane,read) nosym guess=o
 nly pop=none
 ----------------------------------------------------------------------
 1/38=1,40=2,172=1/1;
 2/12=2,15=1,17=6,18=5,40=1/2;
 3/5=1,6=6,7=1,11=2,25=1,30=1,70=2203,72=17,74=-5,89=1/1,2;
 4//1;
 99/5=2/99;
 Leave Link    1 at Tue Sep 15 22:32:49 2020, MaxMem=   131072000 cpu:               0.0 elap:               0.1
 (Enter /scratch/scicomp/CentOS/7.3.1611/Haswell/software/Gaussian/g16/l101.exe)
 -----
 title
 -----
 Symbolic Z-matrix:
 Charge =  0 Multiplicity = 1
 C                     2.46889   0.2841   -0.70896 
 C                     1.66725   1.33039   0.03125 
 C                     1.0876    1.07599   1.25692 
 C                     0.68925  -0.23474   1.57552 
 C                     0.88656  -1.22938   0.60904 
 C                     2.18507  -1.14836  -0.18595 
 H                     0.75487   1.90394   1.87856 
 H                     1.80447   2.36121  -0.29094 
 H                     2.28928   0.3581   -1.78937 
 H                     3.53869   0.50611  -0.58103 
 H                     0.05756  -0.41413   2.4412 
 H                     0.5593   -2.24138   0.84559 
 H                     2.9956   -1.45105   0.49025 
 H                     2.18753  -1.87143  -1.00964 
 C                    -0.42979   0.55327  -1.22838 
 C                    -0.46837  -0.81831  -0.9244 
 H                     0.1789    0.92091  -2.04595 
 H                     0.03944  -1.47837  -1.62678 
 C                    -1.7934   -1.38148  -0.41297 
 H                    -2.43371  -1.52573  -1.29682 
 H                    -1.65773  -2.37615   0.02784 
 C                    -1.41993   1.43514  -0.6446 
 H                    -1.36331   2.49552  -0.8844 
 C                    -2.35956   1.00005   0.22126 
 H                    -3.04068   1.71247   0.68353 
 C                    -2.53277  -0.45814   0.57431 
 H                    -3.60145  -0.71583   0.57595 
 H                    -2.19361  -0.63531   1.60368 
 
 ITRead=  0  0  0  0  0  0  0  0  0  0  0  0  0  0  0  0  0  0  0  0
 ITRead=  0  0  0  0  0  0  0  0
 MicOpt= -1 -1 -1 -1 -1 -1 -1 -1 -1 -1 -1 -1 -1 -1 -1 -1 -1 -1 -1 -1
 MicOpt= -1 -1 -1 -1 -1 -1 -1 -1
 NAtoms=     28 NQM=       28 NQMF=       0 NMMI=      0 NMMIF=      0
                NMic=       0 NMicF=      0.
                    Isotopes and Nuclear Properties:
 (Nuclear quadrupole moments (NQMom) in fm**2, nuclear magnetic moments (NMagM)
  in nuclear magnetons)

  Atom         1           2           3           4           5           6           7           8           9          10
 IAtWgt=          12          12          12          12          12          12           1           1           1           1
 AtmWgt=  12.0000000  12.0000000  12.0000000  12.0000000  12.0000000  12.0000000   1.0078250   1.0078250   1.0078250   1.0078250
 NucSpn=           0           0           0           0           0           0           1           1           1           1
 AtZEff=  -0.0000000  -0.0000000  -0.0000000  -0.0000000  -0.0000000  -0.0000000  -0.0000000  -0.0000000  -0.0000000  -0.0000000
 NQMom=    0.0000000   0.0000000   0.0000000   0.0000000   0.0000000   0.0000000   0.0000000   0.0000000   0.0000000   0.0000000
 NMagM=    0.0000000   0.0000000   0.0000000   0.0000000   0.0000000   0.0000000   2.7928460   2.7928460   2.7928460   2.7928460
 AtZNuc=   6.0000000   6.0000000   6.0000000   6.0000000   6.0000000   6.0000000   1.0000000   1.0000000   1.0000000   1.0000000

  Atom        11          12          13          14          15          16          17          18          19          20
 IAtWgt=           1           1           1           1          12          12           1           1          12           1
 AtmWgt=   1.0078250   1.0078250   1.0078250   1.0078250  12.0000000  12.0000000   1.0078250   1.0078250  12.0000000   1.0078250
 NucSpn=           1           1           1           1           0           0           1           1           0           1
 AtZEff=  -0.0000000  -0.0000000  -0.0000000  -0.0000000  -0.0000000  -0.0000000  -0.0000000  -0.0000000  -0.0000000  -0.0000000
 NQMom=    0.0000000   0.0000000   0.0000000   0.0000000   0.0000000   0.0000000   0.0000000   0.0000000   0.0000000   0.0000000
 NMagM=    2.7928460   2.7928460   2.7928460   2.7928460   0.0000000   0.0000000   2.7928460   2.7928460   0.0000000   2.7928460
 AtZNuc=   1.0000000   1.0000000   1.0000000   1.0000000   6.0000000   6.0000000   1.0000000   1.0000000   6.0000000   1.0000000

  Atom        21          22          23          24          25          26          27          28
 IAtWgt=           1          12           1          12           1          12           1           1
 AtmWgt=   1.0078250  12.0000000   1.0078250  12.0000000   1.0078250  12.0000000   1.0078250   1.0078250
 NucSpn=           1           0           1           0           1           0           1           1
 AtZEff=  -0.0000000  -0.0000000  -0.0000000  -0.0000000  -0.0000000  -0.0000000  -0.0000000  -0.0000000
 NQMom=    0.0000000   0.0000000   0.0000000   0.0000000   0.0000000   0.0000000   0.0000000   0.0000000
 NMagM=    2.7928460   0.0000000   2.7928460   0.0000000   2.7928460   0.0000000   2.7928460   2.7928460
 AtZNuc=   1.0000000   6.0000000   1.0000000   6.0000000   1.0000000   6.0000000   1.0000000   1.0000000
 Leave Link  101 at Tue Sep 15 22:32:50 2020, MaxMem=   131072000 cpu:               0.1 elap:               0.1
 (Enter /scratch/scicomp/CentOS/7.3.1611/Haswell/software/Gaussian/g16/l202.exe)
                          Input orientation:                          
 ---------------------------------------------------------------------
 Center     Atomic      Atomic             Coordinates (Angstroms)
 Number     Number       Type             X           Y           Z
 ---------------------------------------------------------------------
      1          6           0        2.468892    0.284095   -0.708957
      2          6           0        1.667254    1.330389    0.031252
      3          6           0        1.087601    1.075991    1.256922
      4          6           0        0.689250   -0.234741    1.575517
      5          6           0        0.886557   -1.229380    0.609039
      6          6           0        2.185072   -1.148363   -0.185946
      7          1           0        0.754870    1.903944    1.878564
      8          1           0        1.804474    2.361213   -0.290944
      9          1           0        2.289282    0.358101   -1.789365
     10          1           0        3.538694    0.506111   -0.581025
     11          1           0        0.057564   -0.414132    2.441200
     12          1           0        0.559304   -2.241378    0.845590
     13          1           0        2.995597   -1.451049    0.490252
     14          1           0        2.187529   -1.871427   -1.009641
     15          6           0       -0.429793    0.553269   -1.228382
     16          6           0       -0.468367   -0.818307   -0.924402
     17          1           0        0.178899    0.920914   -2.045953
     18          1           0        0.039438   -1.478372   -1.626777
     19          6           0       -1.793403   -1.381477   -0.412965
     20          1           0       -2.433705   -1.525729   -1.296815
     21          1           0       -1.657728   -2.376149    0.027843
     22          6           0       -1.419929    1.435138   -0.644601
     23          1           0       -1.363311    2.495516   -0.884397
     24          6           0       -2.359563    1.000047    0.221263
     25          1           0       -3.040678    1.712474    0.683525
     26          6           0       -2.532766   -0.458144    0.574312
     27          1           0       -3.601447   -0.715834    0.575953
     28          1           0       -2.193607   -0.635306    1.603677
 ---------------------------------------------------------------------
                    Distance matrix (angstroms):
                    1          2          3          4          5
     1  C    0.000000
     2  C    1.511709   0.000000
     3  C    2.529772   1.379486   0.000000
     4  C    2.941962   2.406424   1.406487   0.000000
     5  C    2.555681   2.737835   2.403104   1.400827   0.000000
     6  C    1.551138   2.541559   2.869505   2.484943   1.524699
     7  H    3.501007   2.138685   1.087499   2.161045   3.383305
     8  H    2.220497   1.088686   2.135788   3.386204   3.813778
     9  H    1.097733   2.155669   3.352502   3.772797   3.200012
    10  H    1.100061   2.134621   3.116195   3.649502   3.385559
    11  H    4.028090   3.382648   2.164245   1.086561   2.169948
    12  H    3.527202   3.827299   3.384262   2.139222   1.089583
    13  H    2.173993   3.116340   3.257938   2.824260   2.123981
    14  H    2.194505   3.406724   3.877425   3.406849   2.173678
    15  C    2.957132   2.566749   2.958455   3.120107   2.878668
    16  C    3.144709   3.176641   3.281398   2.816065   2.087161
    17  H    2.727117   2.587982   3.429107   3.835498   3.489058
    18  H    3.138619   3.645269   3.992385   3.496221   2.403847
    19  C    4.585728   4.419015   4.138581   3.381217   2.872248
    20  H    5.258945   5.170980   5.068542   4.435064   3.839823
    21  H    4.964752   4.979351   4.578727   3.534010   2.850659
    22  C    4.056103   3.162032   3.167410   3.487987   3.740474
    23  H    4.427973   3.373464   3.550671   4.209333   4.600772
    24  C    4.969092   4.044810   3.600180   3.557241   3.957020
    25  H    5.859576   4.768236   4.216228   4.301123   4.907467
    26  C    5.216731   4.597166   3.990812   3.381377   3.505393
    27  H    6.284892   5.678287   5.065721   4.431778   4.517411
    28  H    5.285118   4.608983   3.716867   2.910689   3.290842
                    6          7          8          9         10
     6  C    0.000000
     7  H    3.952753   0.000000
     8  H    3.531714   2.453065   0.000000
     9  H    2.202554   4.265883   2.548090   0.000000
    10  H    2.173859   3.969029   2.555987   1.744426   0.000000
    11  H    3.459376   2.485211   4.268354   4.845058   4.700953
    12  H    2.214017   4.276561   4.901633   4.085719   4.296591
    13  H    1.098095   4.266643   4.069691   2.994755   2.296315
    14  H    1.096039   4.964642   4.310278   2.364132   2.768040
    15  C    3.289338   3.588992   3.023144   2.783193   4.021217
    16  C    2.773985   4.094335   3.959346   3.120373   4.234209
    17  H    3.430199   4.086554   2.792313   2.199162   3.688672
    18  H    2.605503   4.923344   4.431954   2.908757   4.156508
    19  C    3.991759   4.747504   5.193008   4.646388   5.658842
    20  H    4.765452   5.657977   5.838001   5.108623   6.349038
    21  H    4.039836   5.250237   5.876314   5.133932   5.973353
    22  C    4.458797   3.363910   3.373346   4.028491   5.045302
    23  H    5.133879   3.531374   3.225691   4.327695   5.299002
    24  C    5.043331   3.641891   4.410707   5.105534   5.973029
    25  H    6.020700   3.983838   4.984571   6.029758   6.807535
    26  C    4.828291   4.253126   5.244911   5.431885   6.255175
    27  H    5.852467   5.247621   6.280423   6.438071   7.335759
    28  H    4.758026   3.900881   5.343535   5.709281   6.239794
                   11         12         13         14         15
    11  H    0.000000
    12  H    2.477205   0.000000
    13  H    3.676062   2.585809   0.000000
    14  H    4.309149   2.495969   1.754814   0.000000
    15  C    3.826123   3.617972   4.324846   3.574545   0.000000
    16  C    3.430341   2.492812   3.794819   2.858341   1.405387
    17  H    4.683120   4.301839   4.471279   3.592451   1.083555
    18  H    4.204922   2.639136   3.636129   2.269283   2.122843
    19  C    3.536678   2.803323   4.873927   4.055107   2.503513
    20  H    4.627616   3.749687   5.716337   4.643036   2.888352
    21  H    3.551905   2.366876   4.766872   4.014613   3.415760
    22  C    3.889081   4.433374   5.395817   4.907176   1.448745
    23  H    4.641609   5.396987   6.038635   5.629773   2.182225
    24  C    3.573587   4.406405   5.895589   5.516932   2.454607
    25  H    4.148612   5.349680   6.817760   6.560892   3.437421
    26  C    3.193277   3.579722   5.617448   5.175660   2.948755
    27  H    4.118074   4.439802   6.638439   6.112426   3.863371
    28  H    2.412081   3.276077   5.369636   5.248979   3.541795
                   16         17         18         19         20
    16  C    0.000000
    17  H    2.168345   0.000000
    18  H    1.089441   2.439617   0.000000
    19  C    1.527890   3.443491   2.200462   0.000000
    20  H    2.121719   3.656907   2.495507   1.100902   0.000000
    21  H    2.179041   4.306327   2.534589   1.096399   1.755014
    22  C    2.462067   2.187342   3.403375   2.850694   3.196851
    23  H    3.432776   2.491384   4.279091   3.929160   4.181656
    24  C    2.862793   3.404456   3.913185   2.528723   2.947813
    25  H    3.950578   4.294449   5.000611   3.511484   3.843972
    26  C    2.576355   4.015061   3.535801   1.540752   2.156541
    27  H    3.475307   4.883068   4.323139   2.165655   2.350917
    28  H    3.066126   4.622813   4.016601   2.187185   3.043576
                   21         22         23         24         25
    21  H    0.000000
    22  C    3.877453   0.000000
    23  H    4.965076   1.088627   0.000000
    24  C    3.453793   1.349791   2.109841   0.000000
    25  H    4.365697   2.113684   2.425921   1.088649   0.000000
    26  C    2.177857   2.511707   3.495649   1.510286   2.231924
    27  H    2.614405   3.297795   4.177876   2.147633   2.494537
    28  H    2.408517   3.152788   4.084354   2.147787   2.660128
                   26         27         28
    26  C    0.000000
    27  H    1.099312   0.000000
    28  H    1.098184   1.744911   0.000000
 Symmetry turned off by external request.
 Stoichiometry    C12H16
 Framework group  C1[X(C12H16)]
 Deg. of freedom    78
 Full point group                 C1      NOp   1
 Rotational constants (GHZ):           1.6113202           0.8340277           0.7600312
 Leave Link  202 at Tue Sep 15 22:32:50 2020, MaxMem=   131072000 cpu:               0.0 elap:               0.0
 (Enter /scratch/scicomp/CentOS/7.3.1611/Haswell/software/Gaussian/g16/l301.exe)
 Standard basis: 6-31G(d) (6D, 7F)
 Ernie: Thresh=  0.10000D-02 Tol=  0.10000D-05 Strict=F.
   212 basis functions,   400 primitive gaussians,   212 cartesian basis functions
    44 alpha electrons       44 beta electrons
       nuclear repulsion energy       714.9299030981 Hartrees.
 IExCor=  402 DFT=T Ex+Corr=B3LYP ExCW=0 ScaHFX=  0.200000
 ScaDFX=  0.800000  0.720000  1.000000  0.810000 ScalE2=  1.000000  1.000000
 IRadAn=      5 IRanWt=     -1 IRanGd=            0 ICorTp=0 IEmpDi=  4
 NAtoms=   28 NActive=   28 NUniq=   28 SFac= 1.00D+00 NAtFMM=   60 NAOKFM=F Big=F
 Integral buffers will be    131072 words long.
 Raffenetti 2 integral format.
 Two-electron integral symmetry is turned off.
 Using the following non-standard input for PCM:
 qrep pcmdoc geomview nodis nocav g03defaults tsare=0.075
 Warning! Using old PCM defaults because the g03defaults keyword was found.
 These settings can be overridden by following keywords.
 nsfe=28
 nvesolv=36 solvmw=84.1595 rsolv=2.815
 eps=2.0165 rhos=0.7781
 --- end of non-standard input.
 Reading user-defined spheres from input:
 ISph  on   Nord    Re0     Alpha      Xe            Ye            Ze
 --- end of user-defined spheres data.
 ------------------------------------------------------------------------------
 Polarizable Continuum Model (PCM)
 =================================
 Model                : PCM.
 Atomic radii         : UA0 (Simple United Atom Topological Model).
 Polarization charges : Total charges.
 Charge compensation  : None.
 Solution method      : On-the-fly selection.
 Cavity type          : SES (Solvent Excluding Surface) (Alpha=1.000).
 Cavity algorithm     : GePol (RMin=0.200 OFac=0.890).
                        User-defined sphere list used, NSphG=   28.
                        Tesserae with average area of 0.075 Ang**2.
                        Smoothing algorithm: None.
                        Polarization charges: point-like.
                        Self-potential: constant (ISelfS= 1).
                        Self-field    : global E.n sum rule (ISelfD= 3).
 Solvent              : CycloHexane, Eps=   2.016500 Eps(inf)=   2.035188
                        RSolv=   2.815000 Ang.
 ------------------------------------------------------------------------------
 GePol: Number of generator spheres                  =      28
 GePol: Total number of spheres                      =     333
 GePol: Number of exposed spheres                    =     191 ( 57.36%)
 GePol: Number of tesserae                           =    4791
 GePol: Average area of tesserae                     =       0.05 Ang**2
 GePol: Minimum area of tessera                      =   0.10D-02 Ang**2
 GePol: Maximum area of tessera                      =    0.12332 Ang**2
 GePol: Number of small tesserae                     =       0
 GePol: Fraction of small tesserae (<1% of avg)      =       0.00%
 GePol: Total count of vertices                      =   16962
 GePol: Maximum number of vertices in a tessera      =       7
 GePol: Cavity surface area                          =    231.212 Ang**2
 GePol: Cavity volume                                =    273.605 Ang**3
 Leave Link  301 at Tue Sep 15 22:32:50 2020, MaxMem=   131072000 cpu:               0.5 elap:               0.6
0******************
 *Kjob Termination*
 *  in Link    301*
 ******************
 Job cpu time:       0 days  0 hours  0 minutes  0.8 seconds.
 Elapsed time:       0 days  0 hours  0 minutes  0.8 seconds.
 File lengths (MBytes):  RWF=    402 Int=      0 D2E=      0 Chk=      1 Scr=      1
 Normal termination of Gaussian 16 at Tue Sep 15 22:32:50 2020.
 Initial command:
 /scratch/scicomp/CentOS/7.3.1611/Haswell/software/Gaussian/g16/l1.exe "/scratch/bochen/test/xppcm/tmp/Gau-391028.inp" -scrdir="/scratch/bochen/test/xppcm/tmp/"
 Entering Link 1 = /scratch/scicomp/CentOS/7.3.1611/Haswell/software/Gaussian/g16/l1.exe PID=    391032.
  
 Copyright (c) 1988-2017, Gaussian, Inc.  All Rights Reserved.
  
 This is part of the Gaussian(R) 16 program.  It is based on
 the Gaussian(R) 09 system (copyright 2009, Gaussian, Inc.),
 the Gaussian(R) 03 system (copyright 2003, Gaussian, Inc.),
 the Gaussian(R) 98 system (copyright 1998, Gaussian, Inc.),
 the Gaussian(R) 94 system (copyright 1995, Gaussian, Inc.),
 the Gaussian 92(TM) system (copyright 1992, Gaussian, Inc.),
 the Gaussian 90(TM) system (copyright 1990, Gaussian, Inc.),
 the Gaussian 88(TM) system (copyright 1988, Gaussian, Inc.),
 the Gaussian 86(TM) system (copyright 1986, Carnegie Mellon
 University), and the Gaussian 82(TM) system (copyright 1983,
 Carnegie Mellon University). Gaussian is a federally registered
 trademark of Gaussian, Inc.
  
 This software contains proprietary and confidential information,
 including trade secrets, belonging to Gaussian, Inc.
  
 This software is provided under written license and may be
 used, copied, transmitted, or stored only in accord with that
 written license.
  
 The following legend is applicable only to US Government
 contracts under FAR:
  
                    RESTRICTED RIGHTS LEGEND
  
 Use, reproduction and disclosure by the US Government is
 subject to restrictions as set forth in subparagraphs (a)
 and (c) of the Commercial Computer Software - Restricted
 Rights clause in FAR 52.227-19.
  
 Gaussian, Inc.
 340 Quinnipiac St., Bldg. 40, Wallingford CT 06492
  
  
 ---------------------------------------------------------------
 Warning -- This program may not be used in any manner that
 competes with the business of Gaussian, Inc. or will provide
 assistance to any competitor of Gaussian, Inc.  The licensee
 of this program is prohibited from giving any competitor of
 Gaussian, Inc. access to this program.  By using this program,
 the user acknowledges that Gaussian, Inc. is engaged in the
 business of creating and licensing software in the field of
 computational chemistry and represents and warrants to the
 licensee that it is not a competitor of Gaussian, Inc. and that
 it will not use this program in any manner prohibited above.
 ---------------------------------------------------------------
  

 Cite this work as:
 Gaussian 16, Revision B.01,
 M. J. Frisch, G. W. Trucks, H. B. Schlegel, G. E. Scuseria, 
 M. A. Robb, J. R. Cheeseman, G. Scalmani, V. Barone, 
 G. A. Petersson, H. Nakatsuji, X. Li, M. Caricato, A. V. Marenich, 
 J. Bloino, B. G. Janesko, R. Gomperts, B. Mennucci, H. P. Hratchian, 
 J. V. Ortiz, A. F. Izmaylov, J. L. Sonnenberg, D. Williams-Young, 
 F. Ding, F. Lipparini, F. Egidi, J. Goings, B. Peng, A. Petrone, 
 T. Henderson, D. Ranasinghe, V. G. Zakrzewski, J. Gao, N. Rega, 
 G. Zheng, W. Liang, M. Hada, M. Ehara, K. Toyota, R. Fukuda, 
 J. Hasegawa, M. Ishida, T. Nakajima, Y. Honda, O. Kitao, H. Nakai, 
 T. Vreven, K. Throssell, J. A. Montgomery, Jr., J. E. Peralta, 
 F. Ogliaro, M. J. Bearpark, J. J. Heyd, E. N. Brothers, K. N. Kudin, 
 V. N. Staroverov, T. A. Keith, R. Kobayashi, J. Normand, 
 K. Raghavachari, A. P. Rendell, J. C. Burant, S. S. Iyengar, 
 J. Tomasi, M. Cossi, J. M. Millam, M. Klene, C. Adamo, R. Cammi, 
 J. W. Ochterski, R. L. Martin, K. Morokuma, O. Farkas, 
 J. B. Foresman, and D. J. Fox, Gaussian, Inc., Wallingford CT, 2016.
 
 ******************************************
 Gaussian 16:  ES64L-G16RevB.01 20-Dec-2017
                15-Sep-2020 
 ******************************************
 %kjob l301
 kjob at link  301 occurrence number     1
 %chk=structure-2-Vc.chk
 %nproc=1
 Will use up to    1 processors via shared memory.
 %mem=1000mb
 ----------------------------------------------------------------------
 #p b3lyp 6-31g* # scrf=(iefpcm,solvent=cyclohexane,read) nosym guess=o
 nly pop=none
 ----------------------------------------------------------------------
 1/38=1,40=2,172=1/1;
 2/12=2,15=1,17=6,18=5,40=1/2;
 3/5=1,6=6,7=1,11=2,25=1,30=1,70=2203,72=17,74=-5,89=1/1,2;
 4//1;
 99/5=2/99;
 Leave Link    1 at Tue Sep 15 22:32:50 2020, MaxMem=   131072000 cpu:               0.0 elap:               0.1
 (Enter /scratch/scicomp/CentOS/7.3.1611/Haswell/software/Gaussian/g16/l101.exe)
 -----
 title
 -----
 Symbolic Z-matrix:
 Charge =  0 Multiplicity = 1
 C                     2.46889   0.2841   -0.70896 
 C                     1.66725   1.33039   0.03125 
 C                     1.0876    1.07599   1.25692 
 C                     0.68925  -0.23474   1.57552 
 C                     0.88656  -1.22938   0.60904 
 C                     2.18507  -1.14836  -0.18595 
 H                     0.75487   1.90394   1.87856 
 H                     1.80447   2.36121  -0.29094 
 H                     2.28928   0.3581   -1.78937 
 H                     3.53869   0.50611  -0.58103 
 H                     0.05756  -0.41413   2.4412 
 H                     0.5593   -2.24138   0.84559 
 H                     2.9956   -1.45105   0.49025 
 H                     2.18753  -1.87143  -1.00964 
 C                    -0.42979   0.55327  -1.22838 
 C                    -0.46837  -0.81831  -0.9244 
 H                     0.1789    0.92091  -2.04595 
 H                     0.03944  -1.47837  -1.62678 
 C                    -1.7934   -1.38148  -0.41297 
 H                    -2.43371  -1.52573  -1.29682 
 H                    -1.65773  -2.37615   0.02784 
 C                    -1.41993   1.43514  -0.6446 
 H                    -1.36331   2.49552  -0.8844 
 C                    -2.35956   1.00005   0.22126 
 H                    -3.04068   1.71247   0.68353 
 C                    -2.53277  -0.45814   0.57431 
 H                    -3.60145  -0.71583   0.57595 
 H                    -2.19361  -0.63531   1.60368 
 
 ITRead=  0  0  0  0  0  0  0  0  0  0  0  0  0  0  0  0  0  0  0  0
 ITRead=  0  0  0  0  0  0  0  0
 MicOpt= -1 -1 -1 -1 -1 -1 -1 -1 -1 -1 -1 -1 -1 -1 -1 -1 -1 -1 -1 -1
 MicOpt= -1 -1 -1 -1 -1 -1 -1 -1
 NAtoms=     28 NQM=       28 NQMF=       0 NMMI=      0 NMMIF=      0
                NMic=       0 NMicF=      0.
                    Isotopes and Nuclear Properties:
 (Nuclear quadrupole moments (NQMom) in fm**2, nuclear magnetic moments (NMagM)
  in nuclear magnetons)

  Atom         1           2           3           4           5           6           7           8           9          10
 IAtWgt=          12          12          12          12          12          12           1           1           1           1
 AtmWgt=  12.0000000  12.0000000  12.0000000  12.0000000  12.0000000  12.0000000   1.0078250   1.0078250   1.0078250   1.0078250
 NucSpn=           0           0           0           0           0           0           1           1           1           1
 AtZEff=  -0.0000000  -0.0000000  -0.0000000  -0.0000000  -0.0000000  -0.0000000  -0.0000000  -0.0000000  -0.0000000  -0.0000000
 NQMom=    0.0000000   0.0000000   0.0000000   0.0000000   0.0000000   0.0000000   0.0000000   0.0000000   0.0000000   0.0000000
 NMagM=    0.0000000   0.0000000   0.0000000   0.0000000   0.0000000   0.0000000   2.7928460   2.7928460   2.7928460   2.7928460
 AtZNuc=   6.0000000   6.0000000   6.0000000   6.0000000   6.0000000   6.0000000   1.0000000   1.0000000   1.0000000   1.0000000

  Atom        11          12          13          14          15          16          17          18          19          20
 IAtWgt=           1           1           1           1          12          12           1           1          12           1
 AtmWgt=   1.0078250   1.0078250   1.0078250   1.0078250  12.0000000  12.0000000   1.0078250   1.0078250  12.0000000   1.0078250
 NucSpn=           1           1           1           1           0           0           1           1           0           1
 AtZEff=  -0.0000000  -0.0000000  -0.0000000  -0.0000000  -0.0000000  -0.0000000  -0.0000000  -0.0000000  -0.0000000  -0.0000000
 NQMom=    0.0000000   0.0000000   0.0000000   0.0000000   0.0000000   0.0000000   0.0000000   0.0000000   0.0000000   0.0000000
 NMagM=    2.7928460   2.7928460   2.7928460   2.7928460   0.0000000   0.0000000   2.7928460   2.7928460   0.0000000   2.7928460
 AtZNuc=   1.0000000   1.0000000   1.0000000   1.0000000   6.0000000   6.0000000   1.0000000   1.0000000   6.0000000   1.0000000

  Atom        21          22          23          24          25          26          27          28
 IAtWgt=           1          12           1          12           1          12           1           1
 AtmWgt=   1.0078250  12.0000000   1.0078250  12.0000000   1.0078250  12.0000000   1.0078250   1.0078250
 NucSpn=           1           0           1           0           1           0           1           1
 AtZEff=  -0.0000000  -0.0000000  -0.0000000  -0.0000000  -0.0000000  -0.0000000  -0.0000000  -0.0000000
 NQMom=    0.0000000   0.0000000   0.0000000   0.0000000   0.0000000   0.0000000   0.0000000   0.0000000
 NMagM=    2.7928460   0.0000000   2.7928460   0.0000000   2.7928460   0.0000000   2.7928460   2.7928460
 AtZNuc=   1.0000000   6.0000000   1.0000000   6.0000000   1.0000000   6.0000000   1.0000000   1.0000000
 Leave Link  101 at Tue Sep 15 22:32:51 2020, MaxMem=   131072000 cpu:               0.1 elap:               0.1
 (Enter /scratch/scicomp/CentOS/7.3.1611/Haswell/software/Gaussian/g16/l202.exe)
                          Input orientation:                          
 ---------------------------------------------------------------------
 Center     Atomic      Atomic             Coordinates (Angstroms)
 Number     Number       Type             X           Y           Z
 ---------------------------------------------------------------------
      1          6           0        2.468892    0.284095   -0.708957
      2          6           0        1.667254    1.330389    0.031252
      3          6           0        1.087601    1.075991    1.256922
      4          6           0        0.689250   -0.234741    1.575517
      5          6           0        0.886557   -1.229380    0.609039
      6          6           0        2.185072   -1.148363   -0.185946
      7          1           0        0.754870    1.903944    1.878564
      8          1           0        1.804474    2.361213   -0.290944
      9          1           0        2.289282    0.358101   -1.789365
     10          1           0        3.538694    0.506111   -0.581025
     11          1           0        0.057564   -0.414132    2.441200
     12          1           0        0.559304   -2.241378    0.845590
     13          1           0        2.995597   -1.451049    0.490252
     14          1           0        2.187529   -1.871427   -1.009641
     15          6           0       -0.429793    0.553269   -1.228382
     16          6           0       -0.468367   -0.818307   -0.924402
     17          1           0        0.178899    0.920914   -2.045953
     18          1           0        0.039438   -1.478372   -1.626777
     19          6           0       -1.793403   -1.381477   -0.412965
     20          1           0       -2.433705   -1.525729   -1.296815
     21          1           0       -1.657728   -2.376149    0.027843
     22          6           0       -1.419929    1.435138   -0.644601
     23          1           0       -1.363311    2.495516   -0.884397
     24          6           0       -2.359563    1.000047    0.221263
     25          1           0       -3.040678    1.712474    0.683525
     26          6           0       -2.532766   -0.458144    0.574312
     27          1           0       -3.601447   -0.715834    0.575953
     28          1           0       -2.193607   -0.635306    1.603677
 ---------------------------------------------------------------------
                    Distance matrix (angstroms):
                    1          2          3          4          5
     1  C    0.000000
     2  C    1.511709   0.000000
     3  C    2.529772   1.379486   0.000000
     4  C    2.941962   2.406424   1.406487   0.000000
     5  C    2.555681   2.737835   2.403104   1.400827   0.000000
     6  C    1.551138   2.541559   2.869505   2.484943   1.524699
     7  H    3.501007   2.138685   1.087499   2.161045   3.383305
     8  H    2.220497   1.088686   2.135788   3.386204   3.813778
     9  H    1.097733   2.155669   3.352502   3.772797   3.200012
    10  H    1.100061   2.134621   3.116195   3.649502   3.385559
    11  H    4.028090   3.382648   2.164245   1.086561   2.169948
    12  H    3.527202   3.827299   3.384262   2.139222   1.089583
    13  H    2.173993   3.116340   3.257938   2.824260   2.123981
    14  H    2.194505   3.406724   3.877425   3.406849   2.173678
    15  C    2.957132   2.566749   2.958455   3.120107   2.878668
    16  C    3.144709   3.176641   3.281398   2.816065   2.087161
    17  H    2.727117   2.587982   3.429107   3.835498   3.489058
    18  H    3.138619   3.645269   3.992385   3.496221   2.403847
    19  C    4.585728   4.419015   4.138581   3.381217   2.872248
    20  H    5.258945   5.170980   5.068542   4.435064   3.839823
    21  H    4.964752   4.979351   4.578727   3.534010   2.850659
    22  C    4.056103   3.162032   3.167410   3.487987   3.740474
    23  H    4.427973   3.373464   3.550671   4.209333   4.600772
    24  C    4.969092   4.044810   3.600180   3.557241   3.957020
    25  H    5.859576   4.768236   4.216228   4.301123   4.907467
    26  C    5.216731   4.597166   3.990812   3.381377   3.505393
    27  H    6.284892   5.678287   5.065721   4.431778   4.517411
    28  H    5.285118   4.608983   3.716867   2.910689   3.290842
                    6          7          8          9         10
     6  C    0.000000
     7  H    3.952753   0.000000
     8  H    3.531714   2.453065   0.000000
     9  H    2.202554   4.265883   2.548090   0.000000
    10  H    2.173859   3.969029   2.555987   1.744426   0.000000
    11  H    3.459376   2.485211   4.268354   4.845058   4.700953
    12  H    2.214017   4.276561   4.901633   4.085719   4.296591
    13  H    1.098095   4.266643   4.069691   2.994755   2.296315
    14  H    1.096039   4.964642   4.310278   2.364132   2.768040
    15  C    3.289338   3.588992   3.023144   2.783193   4.021217
    16  C    2.773985   4.094335   3.959346   3.120373   4.234209
    17  H    3.430199   4.086554   2.792313   2.199162   3.688672
    18  H    2.605503   4.923344   4.431954   2.908757   4.156508
    19  C    3.991759   4.747504   5.193008   4.646388   5.658842
    20  H    4.765452   5.657977   5.838001   5.108623   6.349038
    21  H    4.039836   5.250237   5.876314   5.133932   5.973353
    22  C    4.458797   3.363910   3.373346   4.028491   5.045302
    23  H    5.133879   3.531374   3.225691   4.327695   5.299002
    24  C    5.043331   3.641891   4.410707   5.105534   5.973029
    25  H    6.020700   3.983838   4.984571   6.029758   6.807535
    26  C    4.828291   4.253126   5.244911   5.431885   6.255175
    27  H    5.852467   5.247621   6.280423   6.438071   7.335759
    28  H    4.758026   3.900881   5.343535   5.709281   6.239794
                   11         12         13         14         15
    11  H    0.000000
    12  H    2.477205   0.000000
    13  H    3.676062   2.585809   0.000000
    14  H    4.309149   2.495969   1.754814   0.000000
    15  C    3.826123   3.617972   4.324846   3.574545   0.000000
    16  C    3.430341   2.492812   3.794819   2.858341   1.405387
    17  H    4.683120   4.301839   4.471279   3.592451   1.083555
    18  H    4.204922   2.639136   3.636129   2.269283   2.122843
    19  C    3.536678   2.803323   4.873927   4.055107   2.503513
    20  H    4.627616   3.749687   5.716337   4.643036   2.888352
    21  H    3.551905   2.366876   4.766872   4.014613   3.415760
    22  C    3.889081   4.433374   5.395817   4.907176   1.448745
    23  H    4.641609   5.396987   6.038635   5.629773   2.182225
    24  C    3.573587   4.406405   5.895589   5.516932   2.454607
    25  H    4.148612   5.349680   6.817760   6.560892   3.437421
    26  C    3.193277   3.579722   5.617448   5.175660   2.948755
    27  H    4.118074   4.439802   6.638439   6.112426   3.863371
    28  H    2.412081   3.276077   5.369636   5.248979   3.541795
                   16         17         18         19         20
    16  C    0.000000
    17  H    2.168345   0.000000
    18  H    1.089441   2.439617   0.000000
    19  C    1.527890   3.443491   2.200462   0.000000
    20  H    2.121719   3.656907   2.495507   1.100902   0.000000
    21  H    2.179041   4.306327   2.534589   1.096399   1.755014
    22  C    2.462067   2.187342   3.403375   2.850694   3.196851
    23  H    3.432776   2.491384   4.279091   3.929160   4.181656
    24  C    2.862793   3.404456   3.913185   2.528723   2.947813
    25  H    3.950578   4.294449   5.000611   3.511484   3.843972
    26  C    2.576355   4.015061   3.535801   1.540752   2.156541
    27  H    3.475307   4.883068   4.323139   2.165655   2.350917
    28  H    3.066126   4.622813   4.016601   2.187185   3.043576
                   21         22         23         24         25
    21  H    0.000000
    22  C    3.877453   0.000000
    23  H    4.965076   1.088627   0.000000
    24  C    3.453793   1.349791   2.109841   0.000000
    25  H    4.365697   2.113684   2.425921   1.088649   0.000000
    26  C    2.177857   2.511707   3.495649   1.510286   2.231924
    27  H    2.614405   3.297795   4.177876   2.147633   2.494537
    28  H    2.408517   3.152788   4.084354   2.147787   2.660128
                   26         27         28
    26  C    0.000000
    27  H    1.099312   0.000000
    28  H    1.098184   1.744911   0.000000
 Symmetry turned off by external request.
 Stoichiometry    C12H16
 Framework group  C1[X(C12H16)]
 Deg. of freedom    78
 Full point group                 C1      NOp   1
 Rotational constants (GHZ):           1.6113202           0.8340277           0.7600312
 Leave Link  202 at Tue Sep 15 22:32:51 2020, MaxMem=   131072000 cpu:               0.0 elap:               0.0
 (Enter /scratch/scicomp/CentOS/7.3.1611/Haswell/software/Gaussian/g16/l301.exe)
 Standard basis: 6-31G(d) (6D, 7F)
 Ernie: Thresh=  0.10000D-02 Tol=  0.10000D-05 Strict=F.
   212 basis functions,   400 primitive gaussians,   212 cartesian basis functions
    44 alpha electrons       44 beta electrons
       nuclear repulsion energy       714.9299030981 Hartrees.
 IExCor=  402 DFT=T Ex+Corr=B3LYP ExCW=0 ScaHFX=  0.200000
 ScaDFX=  0.800000  0.720000  1.000000  0.810000 ScalE2=  1.000000  1.000000
 IRadAn=      5 IRanWt=     -1 IRanGd=            0 ICorTp=0 IEmpDi=  4
 NAtoms=   28 NActive=   28 NUniq=   28 SFac= 1.00D+00 NAtFMM=   60 NAOKFM=F Big=F
 Integral buffers will be    131072 words long.
 Raffenetti 2 integral format.
 Two-electron integral symmetry is turned off.
 Using the following non-standard input for PCM:
 qrep pcmdoc geomview nodis nocav g03defaults tsare=0.075
 Warning! Using old PCM defaults because the g03defaults keyword was found.
 These settings can be overridden by following keywords.
 nsfe=28
 nvesolv=36 solvmw=84.1595 rsolv=2.815
 eps=2.0165 rhos=0.7781
 --- end of non-standard input.
 Reading user-defined spheres from input:
 ISph  on   Nord    Re0     Alpha      Xe            Ye            Ze
 --- end of user-defined spheres data.
 ------------------------------------------------------------------------------
 Polarizable Continuum Model (PCM)
 =================================
 Model                : PCM.
 Atomic radii         : UA0 (Simple United Atom Topological Model).
 Polarization charges : Total charges.
 Charge compensation  : None.
 Solution method      : On-the-fly selection.
 Cavity type          : SES (Solvent Excluding Surface) (Alpha=1.000).
 Cavity algorithm     : GePol (RMin=0.200 OFac=0.890).
                        User-defined sphere list used, NSphG=   28.
                        Tesserae with average area of 0.075 Ang**2.
                        Smoothing algorithm: None.
                        Polarization charges: point-like.
                        Self-potential: constant (ISelfS= 1).
                        Self-field    : global E.n sum rule (ISelfD= 3).
 Solvent              : CycloHexane, Eps=   2.016500 Eps(inf)=   2.035188
                        RSolv=   2.815000 Ang.
 ------------------------------------------------------------------------------
 GePol: Number of generator spheres                  =      28
 GePol: Total number of spheres                      =     416
 GePol: Number of exposed spheres                    =     231 ( 55.53%)
 GePol: Number of tesserae                           =    4759
 GePol: Average area of tesserae                     =       0.05 Ang**2
 GePol: Minimum area of tessera                      =   0.10D-02 Ang**2
 GePol: Maximum area of tessera                      =    0.11641 Ang**2
 GePol: Number of small tesserae                     =       0
 GePol: Fraction of small tesserae (<1% of avg)      =       0.00%
 GePol: Total count of vertices                      =   17089
 GePol: Maximum number of vertices in a tessera      =       8
 GePol: Cavity surface area                          =    222.568 Ang**2
 GePol: Cavity volume                                =    257.610 Ang**3
 Leave Link  301 at Tue Sep 15 22:32:51 2020, MaxMem=   131072000 cpu:               0.6 elap:               0.6
0******************
 *Kjob Termination*
 *  in Link    301*
 ******************
 Job cpu time:       0 days  0 hours  0 minutes  0.8 seconds.
 Elapsed time:       0 days  0 hours  0 minutes  0.9 seconds.
 File lengths (MBytes):  RWF=    397 Int=      0 D2E=      0 Chk=      1 Scr=      1
 Normal termination of Gaussian 16 at Tue Sep 15 22:32:51 2020.
 Initial command:
 /scratch/scicomp/CentOS/7.3.1611/Haswell/software/Gaussian/g16/l1.exe "/scratch/bochen/test/xppcm/tmp/Gau-391028.inp" -scrdir="/scratch/bochen/test/xppcm/tmp/"
 Entering Link 1 = /scratch/scicomp/CentOS/7.3.1611/Haswell/software/Gaussian/g16/l1.exe PID=    391033.
  
 Copyright (c) 1988-2017, Gaussian, Inc.  All Rights Reserved.
  
 This is part of the Gaussian(R) 16 program.  It is based on
 the Gaussian(R) 09 system (copyright 2009, Gaussian, Inc.),
 the Gaussian(R) 03 system (copyright 2003, Gaussian, Inc.),
 the Gaussian(R) 98 system (copyright 1998, Gaussian, Inc.),
 the Gaussian(R) 94 system (copyright 1995, Gaussian, Inc.),
 the Gaussian 92(TM) system (copyright 1992, Gaussian, Inc.),
 the Gaussian 90(TM) system (copyright 1990, Gaussian, Inc.),
 the Gaussian 88(TM) system (copyright 1988, Gaussian, Inc.),
 the Gaussian 86(TM) system (copyright 1986, Carnegie Mellon
 University), and the Gaussian 82(TM) system (copyright 1983,
 Carnegie Mellon University). Gaussian is a federally registered
 trademark of Gaussian, Inc.
  
 This software contains proprietary and confidential information,
 including trade secrets, belonging to Gaussian, Inc.
  
 This software is provided under written license and may be
 used, copied, transmitted, or stored only in accord with that
 written license.
  
 The following legend is applicable only to US Government
 contracts under FAR:
  
                    RESTRICTED RIGHTS LEGEND
  
 Use, reproduction and disclosure by the US Government is
 subject to restrictions as set forth in subparagraphs (a)
 and (c) of the Commercial Computer Software - Restricted
 Rights clause in FAR 52.227-19.
  
 Gaussian, Inc.
 340 Quinnipiac St., Bldg. 40, Wallingford CT 06492
  
  
 ---------------------------------------------------------------
 Warning -- This program may not be used in any manner that
 competes with the business of Gaussian, Inc. or will provide
 assistance to any competitor of Gaussian, Inc.  The licensee
 of this program is prohibited from giving any competitor of
 Gaussian, Inc. access to this program.  By using this program,
 the user acknowledges that Gaussian, Inc. is engaged in the
 business of creating and licensing software in the field of
 computational chemistry and represents and warrants to the
 licensee that it is not a competitor of Gaussian, Inc. and that
 it will not use this program in any manner prohibited above.
 ---------------------------------------------------------------
  

 Cite this work as:
 Gaussian 16, Revision B.01,
 M. J. Frisch, G. W. Trucks, H. B. Schlegel, G. E. Scuseria, 
 M. A. Robb, J. R. Cheeseman, G. Scalmani, V. Barone, 
 G. A. Petersson, H. Nakatsuji, X. Li, M. Caricato, A. V. Marenich, 
 J. Bloino, B. G. Janesko, R. Gomperts, B. Mennucci, H. P. Hratchian, 
 J. V. Ortiz, A. F. Izmaylov, J. L. Sonnenberg, D. Williams-Young, 
 F. Ding, F. Lipparini, F. Egidi, J. Goings, B. Peng, A. Petrone, 
 T. Henderson, D. Ranasinghe, V. G. Zakrzewski, J. Gao, N. Rega, 
 G. Zheng, W. Liang, M. Hada, M. Ehara, K. Toyota, R. Fukuda, 
 J. Hasegawa, M. Ishida, T. Nakajima, Y. Honda, O. Kitao, H. Nakai, 
 T. Vreven, K. Throssell, J. A. Montgomery, Jr., J. E. Peralta, 
 F. Ogliaro, M. J. Bearpark, J. J. Heyd, E. N. Brothers, K. N. Kudin, 
 V. N. Staroverov, T. A. Keith, R. Kobayashi, J. Normand, 
 K. Raghavachari, A. P. Rendell, J. C. Burant, S. S. Iyengar, 
 J. Tomasi, M. Cossi, J. M. Millam, M. Klene, C. Adamo, R. Cammi, 
 J. W. Ochterski, R. L. Martin, K. Morokuma, O. Farkas, 
 J. B. Foresman, and D. J. Fox, Gaussian, Inc., Wallingford CT, 2016.
 
 ******************************************
 Gaussian 16:  ES64L-G16RevB.01 20-Dec-2017
                15-Sep-2020 
 ******************************************
 %kjob l301
 kjob at link  301 occurrence number     1
 %chk=structure-2-Vc.chk
 %nproc=1
 Will use up to    1 processors via shared memory.
 %mem=1000mb
 ----------------------------------------------------------------------
 #p b3lyp 6-31g* # scrf=(iefpcm,solvent=cyclohexane,read) nosym guess=o
 nly pop=none
 ----------------------------------------------------------------------
 1/38=1,40=2,172=1/1;
 2/12=2,15=1,17=6,18=5,40=1/2;
 3/5=1,6=6,7=1,11=2,25=1,30=1,70=2203,72=17,74=-5,89=1/1,2;
 4//1;
 99/5=2/99;
 Leave Link    1 at Tue Sep 15 22:32:51 2020, MaxMem=   131072000 cpu:               0.0 elap:               0.1
 (Enter /scratch/scicomp/CentOS/7.3.1611/Haswell/software/Gaussian/g16/l101.exe)
 -----
 title
 -----
 Symbolic Z-matrix:
 Charge =  0 Multiplicity = 1
 C                     2.46889   0.2841   -0.70896 
 C                     1.66725   1.33039   0.03125 
 C                     1.0876    1.07599   1.25692 
 C                     0.68925  -0.23474   1.57552 
 C                     0.88656  -1.22938   0.60904 
 C                     2.18507  -1.14836  -0.18595 
 H                     0.75487   1.90394   1.87856 
 H                     1.80447   2.36121  -0.29094 
 H                     2.28928   0.3581   -1.78937 
 H                     3.53869   0.50611  -0.58103 
 H                     0.05756  -0.41413   2.4412 
 H                     0.5593   -2.24138   0.84559 
 H                     2.9956   -1.45105   0.49025 
 H                     2.18753  -1.87143  -1.00964 
 C                    -0.42979   0.55327  -1.22838 
 C                    -0.46837  -0.81831  -0.9244 
 H                     0.1789    0.92091  -2.04595 
 H                     0.03944  -1.47837  -1.62678 
 C                    -1.7934   -1.38148  -0.41297 
 H                    -2.43371  -1.52573  -1.29682 
 H                    -1.65773  -2.37615   0.02784 
 C                    -1.41993   1.43514  -0.6446 
 H                    -1.36331   2.49552  -0.8844 
 C                    -2.35956   1.00005   0.22126 
 H                    -3.04068   1.71247   0.68353 
 C                    -2.53277  -0.45814   0.57431 
 H                    -3.60145  -0.71583   0.57595 
 H                    -2.19361  -0.63531   1.60368 
 
 ITRead=  0  0  0  0  0  0  0  0  0  0  0  0  0  0  0  0  0  0  0  0
 ITRead=  0  0  0  0  0  0  0  0
 MicOpt= -1 -1 -1 -1 -1 -1 -1 -1 -1 -1 -1 -1 -1 -1 -1 -1 -1 -1 -1 -1
 MicOpt= -1 -1 -1 -1 -1 -1 -1 -1
 NAtoms=     28 NQM=       28 NQMF=       0 NMMI=      0 NMMIF=      0
                NMic=       0 NMicF=      0.
                    Isotopes and Nuclear Properties:
 (Nuclear quadrupole moments (NQMom) in fm**2, nuclear magnetic moments (NMagM)
  in nuclear magnetons)

  Atom         1           2           3           4           5           6           7           8           9          10
 IAtWgt=          12          12          12          12          12          12           1           1           1           1
 AtmWgt=  12.0000000  12.0000000  12.0000000  12.0000000  12.0000000  12.0000000   1.0078250   1.0078250   1.0078250   1.0078250
 NucSpn=           0           0           0           0           0           0           1           1           1           1
 AtZEff=  -0.0000000  -0.0000000  -0.0000000  -0.0000000  -0.0000000  -0.0000000  -0.0000000  -0.0000000  -0.0000000  -0.0000000
 NQMom=    0.0000000   0.0000000   0.0000000   0.0000000   0.0000000   0.0000000   0.0000000   0.0000000   0.0000000   0.0000000
 NMagM=    0.0000000   0.0000000   0.0000000   0.0000000   0.0000000   0.0000000   2.7928460   2.7928460   2.7928460   2.7928460
 AtZNuc=   6.0000000   6.0000000   6.0000000   6.0000000   6.0000000   6.0000000   1.0000000   1.0000000   1.0000000   1.0000000

  Atom        11          12          13          14          15          16          17          18          19          20
 IAtWgt=           1           1           1           1          12          12           1           1          12           1
 AtmWgt=   1.0078250   1.0078250   1.0078250   1.0078250  12.0000000  12.0000000   1.0078250   1.0078250  12.0000000   1.0078250
 NucSpn=           1           1           1           1           0           0           1           1           0           1
 AtZEff=  -0.0000000  -0.0000000  -0.0000000  -0.0000000  -0.0000000  -0.0000000  -0.0000000  -0.0000000  -0.0000000  -0.0000000
 NQMom=    0.0000000   0.0000000   0.0000000   0.0000000   0.0000000   0.0000000   0.0000000   0.0000000   0.0000000   0.0000000
 NMagM=    2.7928460   2.7928460   2.7928460   2.7928460   0.0000000   0.0000000   2.7928460   2.7928460   0.0000000   2.7928460
 AtZNuc=   1.0000000   1.0000000   1.0000000   1.0000000   6.0000000   6.0000000   1.0000000   1.0000000   6.0000000   1.0000000

  Atom        21          22          23          24          25          26          27          28
 IAtWgt=           1          12           1          12           1          12           1           1
 AtmWgt=   1.0078250  12.0000000   1.0078250  12.0000000   1.0078250  12.0000000   1.0078250   1.0078250
 NucSpn=           1           0           1           0           1           0           1           1
 AtZEff=  -0.0000000  -0.0000000  -0.0000000  -0.0000000  -0.0000000  -0.0000000  -0.0000000  -0.0000000
 NQMom=    0.0000000   0.0000000   0.0000000   0.0000000   0.0000000   0.0000000   0.0000000   0.0000000
 NMagM=    2.7928460   0.0000000   2.7928460   0.0000000   2.7928460   0.0000000   2.7928460   2.7928460
 AtZNuc=   1.0000000   6.0000000   1.0000000   6.0000000   1.0000000   6.0000000   1.0000000   1.0000000
 Leave Link  101 at Tue Sep 15 22:32:52 2020, MaxMem=   131072000 cpu:               0.1 elap:               0.1
 (Enter /scratch/scicomp/CentOS/7.3.1611/Haswell/software/Gaussian/g16/l202.exe)
                          Input orientation:                          
 ---------------------------------------------------------------------
 Center     Atomic      Atomic             Coordinates (Angstroms)
 Number     Number       Type             X           Y           Z
 ---------------------------------------------------------------------
      1          6           0        2.468892    0.284095   -0.708957
      2          6           0        1.667254    1.330389    0.031252
      3          6           0        1.087601    1.075991    1.256922
      4          6           0        0.689250   -0.234741    1.575517
      5          6           0        0.886557   -1.229380    0.609039
      6          6           0        2.185072   -1.148363   -0.185946
      7          1           0        0.754870    1.903944    1.878564
      8          1           0        1.804474    2.361213   -0.290944
      9          1           0        2.289282    0.358101   -1.789365
     10          1           0        3.538694    0.506111   -0.581025
     11          1           0        0.057564   -0.414132    2.441200
     12          1           0        0.559304   -2.241378    0.845590
     13          1           0        2.995597   -1.451049    0.490252
     14          1           0        2.187529   -1.871427   -1.009641
     15          6           0       -0.429793    0.553269   -1.228382
     16          6           0       -0.468367   -0.818307   -0.924402
     17          1           0        0.178899    0.920914   -2.045953
     18          1           0        0.039438   -1.478372   -1.626777
     19          6           0       -1.793403   -1.381477   -0.412965
     20          1           0       -2.433705   -1.525729   -1.296815
     21          1           0       -1.657728   -2.376149    0.027843
     22          6           0       -1.419929    1.435138   -0.644601
     23          1           0       -1.363311    2.495516   -0.884397
     24          6           0       -2.359563    1.000047    0.221263
     25          1           0       -3.040678    1.712474    0.683525
     26          6           0       -2.532766   -0.458144    0.574312
     27          1           0       -3.601447   -0.715834    0.575953
     28          1           0       -2.193607   -0.635306    1.603677
 ---------------------------------------------------------------------
                    Distance matrix (angstroms):
                    1          2          3          4          5
     1  C    0.000000
     2  C    1.511709   0.000000
     3  C    2.529772   1.379486   0.000000
     4  C    2.941962   2.406424   1.406487   0.000000
     5  C    2.555681   2.737835   2.403104   1.400827   0.000000
     6  C    1.551138   2.541559   2.869505   2.484943   1.524699
     7  H    3.501007   2.138685   1.087499   2.161045   3.383305
     8  H    2.220497   1.088686   2.135788   3.386204   3.813778
     9  H    1.097733   2.155669   3.352502   3.772797   3.200012
    10  H    1.100061   2.134621   3.116195   3.649502   3.385559
    11  H    4.028090   3.382648   2.164245   1.086561   2.169948
    12  H    3.527202   3.827299   3.384262   2.139222   1.089583
    13  H    2.173993   3.116340   3.257938   2.824260   2.123981
    14  H    2.194505   3.406724   3.877425   3.406849   2.173678
    15  C    2.957132   2.566749   2.958455   3.120107   2.878668
    16  C    3.144709   3.176641   3.281398   2.816065   2.087161
    17  H    2.727117   2.587982   3.429107   3.835498   3.489058
    18  H    3.138619   3.645269   3.992385   3.496221   2.403847
    19  C    4.585728   4.419015   4.138581   3.381217   2.872248
    20  H    5.258945   5.170980   5.068542   4.435064   3.839823
    21  H    4.964752   4.979351   4.578727   3.534010   2.850659
    22  C    4.056103   3.162032   3.167410   3.487987   3.740474
    23  H    4.427973   3.373464   3.550671   4.209333   4.600772
    24  C    4.969092   4.044810   3.600180   3.557241   3.957020
    25  H    5.859576   4.768236   4.216228   4.301123   4.907467
    26  C    5.216731   4.597166   3.990812   3.381377   3.505393
    27  H    6.284892   5.678287   5.065721   4.431778   4.517411
    28  H    5.285118   4.608983   3.716867   2.910689   3.290842
                    6          7          8          9         10
     6  C    0.000000
     7  H    3.952753   0.000000
     8  H    3.531714   2.453065   0.000000
     9  H    2.202554   4.265883   2.548090   0.000000
[...]
 of this program is prohibited from giving any competitor of
 Gaussian, Inc. access to this program.  By using this program,
 the user acknowledges that Gaussian, Inc. is engaged in the
 business of creating and licensing software in the field of
 computational chemistry and represents and warrants to the
 licensee that it is not a competitor of Gaussian, Inc. and that
 it will not use this program in any manner prohibited above.
 ---------------------------------------------------------------
  

 Cite this work as:
 Gaussian 16, Revision B.01,
 M. J. Frisch, G. W. Trucks, H. B. Schlegel, G. E. Scuseria, 
 M. A. Robb, J. R. Cheeseman, G. Scalmani, V. Barone, 
 G. A. Petersson, H. Nakatsuji, X. Li, M. Caricato, A. V. Marenich, 
 J. Bloino, B. G. Janesko, R. Gomperts, B. Mennucci, H. P. Hratchian, 
 J. V. Ortiz, A. F. Izmaylov, J. L. Sonnenberg, D. Williams-Young, 
 F. Ding, F. Lipparini, F. Egidi, J. Goings, B. Peng, A. Petrone, 
 T. Henderson, D. Ranasinghe, V. G. Zakrzewski, J. Gao, N. Rega, 
 G. Zheng, W. Liang, M. Hada, M. Ehara, K. Toyota, R. Fukuda, 
 J. Hasegawa, M. Ishida, T. Nakajima, Y. Honda, O. Kitao, H. Nakai, 
 T. Vreven, K. Throssell, J. A. Montgomery, Jr., J. E. Peralta, 
 F. Ogliaro, M. J. Bearpark, J. J. Heyd, E. N. Brothers, K. N. Kudin, 
 V. N. Staroverov, T. A. Keith, R. Kobayashi, J. Normand, 
 K. Raghavachari, A. P. Rendell, J. C. Burant, S. S. Iyengar, 
 J. Tomasi, M. Cossi, J. M. Millam, M. Klene, C. Adamo, R. Cammi, 
 J. W. Ochterski, R. L. Martin, K. Morokuma, O. Farkas, 
 J. B. Foresman, and D. J. Fox, Gaussian, Inc., Wallingford CT, 2016.
 
 ******************************************
 Gaussian 16:  ES64L-G16RevB.01 20-Dec-2017
                15-Sep-2020 
 ******************************************
 %kjob l301
 kjob at link  301 occurrence number     1
 %chk=structure-2-Vc.chk
 %nproc=1
 Will use up to    1 processors via shared memory.
 %mem=1000mb
 ----------------------------------------------------------------------
 #p b3lyp 6-31g* # scrf=(iefpcm,solvent=cyclohexane,read) nosym guess=o
 nly pop=none
 ----------------------------------------------------------------------
 1/38=1,40=2,172=1/1;
 2/12=2,15=1,17=6,18=5,40=1/2;
 3/5=1,6=6,7=1,11=2,25=1,30=1,70=2203,72=17,74=-5,89=1/1,2;
 4//1;
 99/5=2/99;
 Leave Link    1 at Tue Sep 15 22:32:55 2020, MaxMem=   131072000 cpu:               0.0 elap:               0.1
 (Enter /scratch/scicomp/CentOS/7.3.1611/Haswell/software/Gaussian/g16/l101.exe)
 -----
 title
 -----
 Symbolic Z-matrix:
 Charge =  0 Multiplicity = 1
 C                     2.46889   0.2841   -0.70896 
 C                     1.66725   1.33039   0.03125 
 C                     1.0876    1.07599   1.25692 
 C                     0.68925  -0.23474   1.57552 
 C                     0.88656  -1.22938   0.60904 
 C                     2.18507  -1.14836  -0.18595 
 H                     0.75487   1.90394   1.87856 
 H                     1.80447   2.36121  -0.29094 
 H                     2.28928   0.3581   -1.78937 
 H                     3.53869   0.50611  -0.58103 
 H                     0.05756  -0.41413   2.4412 
 H                     0.5593   -2.24138   0.84559 
 H                     2.9956   -1.45105   0.49025 
 H                     2.18753  -1.87143  -1.00964 
 C                    -0.42979   0.55327  -1.22838 
 C                    -0.46837  -0.81831  -0.9244 
 H                     0.1789    0.92091  -2.04595 
 H                     0.03944  -1.47837  -1.62678 
 C                    -1.7934   -1.38148  -0.41297 
 H                    -2.43371  -1.52573  -1.29682 
 H                    -1.65773  -2.37615   0.02784 
 C                    -1.41993   1.43514  -0.6446 
 H                    -1.36331   2.49552  -0.8844 
 C                    -2.35956   1.00005   0.22126 
 H                    -3.04068   1.71247   0.68353 
 C                    -2.53277  -0.45814   0.57431 
 H                    -3.60145  -0.71583   0.57595 
 H                    -2.19361  -0.63531   1.60368 
 
 ITRead=  0  0  0  0  0  0  0  0  0  0  0  0  0  0  0  0  0  0  0  0
 ITRead=  0  0  0  0  0  0  0  0
 MicOpt= -1 -1 -1 -1 -1 -1 -1 -1 -1 -1 -1 -1 -1 -1 -1 -1 -1 -1 -1 -1
 MicOpt= -1 -1 -1 -1 -1 -1 -1 -1
 NAtoms=     28 NQM=       28 NQMF=       0 NMMI=      0 NMMIF=      0
                NMic=       0 NMicF=      0.
                    Isotopes and Nuclear Properties:
 (Nuclear quadrupole moments (NQMom) in fm**2, nuclear magnetic moments (NMagM)
  in nuclear magnetons)

  Atom         1           2           3           4           5           6           7           8           9          10
 IAtWgt=          12          12          12          12          12          12           1           1           1           1
 AtmWgt=  12.0000000  12.0000000  12.0000000  12.0000000  12.0000000  12.0000000   1.0078250   1.0078250   1.0078250   1.0078250
 NucSpn=           0           0           0           0           0           0           1           1           1           1
 AtZEff=  -0.0000000  -0.0000000  -0.0000000  -0.0000000  -0.0000000  -0.0000000  -0.0000000  -0.0000000  -0.0000000  -0.0000000
 NQMom=    0.0000000   0.0000000   0.0000000   0.0000000   0.0000000   0.0000000   0.0000000   0.0000000   0.0000000   0.0000000
 NMagM=    0.0000000   0.0000000   0.0000000   0.0000000   0.0000000   0.0000000   2.7928460   2.7928460   2.7928460   2.7928460
 AtZNuc=   6.0000000   6.0000000   6.0000000   6.0000000   6.0000000   6.0000000   1.0000000   1.0000000   1.0000000   1.0000000

  Atom        11          12          13          14          15          16          17          18          19          20
 IAtWgt=           1           1           1           1          12          12           1           1          12           1
 AtmWgt=   1.0078250   1.0078250   1.0078250   1.0078250  12.0000000  12.0000000   1.0078250   1.0078250  12.0000000   1.0078250
 NucSpn=           1           1           1           1           0           0           1           1           0           1
 AtZEff=  -0.0000000  -0.0000000  -0.0000000  -0.0000000  -0.0000000  -0.0000000  -0.0000000  -0.0000000  -0.0000000  -0.0000000
 NQMom=    0.0000000   0.0000000   0.0000000   0.0000000   0.0000000   0.0000000   0.0000000   0.0000000   0.0000000   0.0000000
 NMagM=    2.7928460   2.7928460   2.7928460   2.7928460   0.0000000   0.0000000   2.7928460   2.7928460   0.0000000   2.7928460
 AtZNuc=   1.0000000   1.0000000   1.0000000   1.0000000   6.0000000   6.0000000   1.0000000   1.0000000   6.0000000   1.0000000

  Atom        21          22          23          24          25          26          27          28
 IAtWgt=           1          12           1          12           1          12           1           1
 AtmWgt=   1.0078250  12.0000000   1.0078250  12.0000000   1.0078250  12.0000000   1.0078250   1.0078250
 NucSpn=           1           0           1           0           1           0           1           1
 AtZEff=  -0.0000000  -0.0000000  -0.0000000  -0.0000000  -0.0000000  -0.0000000  -0.0000000  -0.0000000
 NQMom=    0.0000000   0.0000000   0.0000000   0.0000000   0.0000000   0.0000000   0.0000000   0.0000000
 NMagM=    2.7928460   0.0000000   2.7928460   0.0000000   2.7928460   0.0000000   2.7928460   2.7928460
 AtZNuc=   1.0000000   6.0000000   1.0000000   6.0000000   1.0000000   6.0000000   1.0000000   1.0000000
 Leave Link  101 at Tue Sep 15 22:32:55 2020, MaxMem=   131072000 cpu:               0.1 elap:               0.1
 (Enter /scratch/scicomp/CentOS/7.3.1611/Haswell/software/Gaussian/g16/l202.exe)
                          Input orientation:                          
 ---------------------------------------------------------------------
 Center     Atomic      Atomic             Coordinates (Angstroms)
 Number     Number       Type             X           Y           Z
 ---------------------------------------------------------------------
      1          6           0        2.468892    0.284095   -0.708957
      2          6           0        1.667254    1.330389    0.031252
      3          6           0        1.087601    1.075991    1.256922
      4          6           0        0.689250   -0.234741    1.575517
      5          6           0        0.886557   -1.229380    0.609039
      6          6           0        2.185072   -1.148363   -0.185946
      7          1           0        0.754870    1.903944    1.878564
      8          1           0        1.804474    2.361213   -0.290944
      9          1           0        2.289282    0.358101   -1.789365
     10          1           0        3.538694    0.506111   -0.581025
     11          1           0        0.057564   -0.414132    2.441200
     12          1           0        0.559304   -2.241378    0.845590
     13          1           0        2.995597   -1.451049    0.490252
     14          1           0        2.187529   -1.871427   -1.009641
     15          6           0       -0.429793    0.553269   -1.228382
     16          6           0       -0.468367   -0.818307   -0.924402
     17          1           0        0.178899    0.920914   -2.045953
     18          1           0        0.039438   -1.478372   -1.626777
     19          6           0       -1.793403   -1.381477   -0.412965
     20          1           0       -2.433705   -1.525729   -1.296815
     21          1           0       -1.657728   -2.376149    0.027843
     22          6           0       -1.419929    1.435138   -0.644601
     23          1           0       -1.363311    2.495516   -0.884397
     24          6           0       -2.359563    1.000047    0.221263
     25          1           0       -3.040678    1.712474    0.683525
     26          6           0       -2.532766   -0.458144    0.574312
     27          1           0       -3.601447   -0.715834    0.575953
     28          1           0       -2.193607   -0.635306    1.603677
 ---------------------------------------------------------------------
                    Distance matrix (angstroms):
                    1          2          3          4          5
     1  C    0.000000
     2  C    1.511709   0.000000
     3  C    2.529772   1.379486   0.000000
     4  C    2.941962   2.406424   1.406487   0.000000
     5  C    2.555681   2.737835   2.403104   1.400827   0.000000
     6  C    1.551138   2.541559   2.869505   2.484943   1.524699
     7  H    3.501007   2.138685   1.087499   2.161045   3.383305
     8  H    2.220497   1.088686   2.135788   3.386204   3.813778
     9  H    1.097733   2.155669   3.352502   3.772797   3.200012
    10  H    1.100061   2.134621   3.116195   3.649502   3.385559
    11  H    4.028090   3.382648   2.164245   1.086561   2.169948
    12  H    3.527202   3.827299   3.384262   2.139222   1.089583
    13  H    2.173993   3.116340   3.257938   2.824260   2.123981
    14  H    2.194505   3.406724   3.877425   3.406849   2.173678
    15  C    2.957132   2.566749   2.958455   3.120107   2.878668
    16  C    3.144709   3.176641   3.281398   2.816065   2.087161
    17  H    2.727117   2.587982   3.429107   3.835498   3.489058
    18  H    3.138619   3.645269   3.992385   3.496221   2.403847
    19  C    4.585728   4.419015   4.138581   3.381217   2.872248
    20  H    5.258945   5.170980   5.068542   4.435064   3.839823
    21  H    4.964752   4.979351   4.578727   3.534010   2.850659
    22  C    4.056103   3.162032   3.167410   3.487987   3.740474
    23  H    4.427973   3.373464   3.550671   4.209333   4.600772
    24  C    4.969092   4.044810   3.600180   3.557241   3.957020
    25  H    5.859576   4.768236   4.216228   4.301123   4.907467
    26  C    5.216731   4.597166   3.990812   3.381377   3.505393
    27  H    6.284892   5.678287   5.065721   4.431778   4.517411
    28  H    5.285118   4.608983   3.716867   2.910689   3.290842
                    6          7          8          9         10
     6  C    0.000000
     7  H    3.952753   0.000000
     8  H    3.531714   2.453065   0.000000
     9  H    2.202554   4.265883   2.548090   0.000000
    10  H    2.173859   3.969029   2.555987   1.744426   0.000000
    11  H    3.459376   2.485211   4.268354   4.845058   4.700953
    12  H    2.214017   4.276561   4.901633   4.085719   4.296591
    13  H    1.098095   4.266643   4.069691   2.994755   2.296315
    14  H    1.096039   4.964642   4.310278   2.364132   2.768040
    15  C    3.289338   3.588992   3.023144   2.783193   4.021217
    16  C    2.773985   4.094335   3.959346   3.120373   4.234209
    17  H    3.430199   4.086554   2.792313   2.199162   3.688672
    18  H    2.605503   4.923344   4.431954   2.908757   4.156508
    19  C    3.991759   4.747504   5.193008   4.646388   5.658842
    20  H    4.765452   5.657977   5.838001   5.108623   6.349038
    21  H    4.039836   5.250237   5.876314   5.133932   5.973353
    22  C    4.458797   3.363910   3.373346   4.028491   5.045302
    23  H    5.133879   3.531374   3.225691   4.327695   5.299002
    24  C    5.043331   3.641891   4.410707   5.105534   5.973029
    25  H    6.020700   3.983838   4.984571   6.029758   6.807535
    26  C    4.828291   4.253126   5.244911   5.431885   6.255175
    27  H    5.852467   5.247621   6.280423   6.438071   7.335759
    28  H    4.758026   3.900881   5.343535   5.709281   6.239794
                   11         12         13         14         15
    11  H    0.000000
    12  H    2.477205   0.000000
    13  H    3.676062   2.585809   0.000000
    14  H    4.309149   2.495969   1.754814   0.000000
    15  C    3.826123   3.617972   4.324846   3.574545   0.000000
    16  C    3.430341   2.492812   3.794819   2.858341   1.405387
    17  H    4.683120   4.301839   4.471279   3.592451   1.083555
    18  H    4.204922   2.639136   3.636129   2.269283   2.122843
    19  C    3.536678   2.803323   4.873927   4.055107   2.503513
    20  H    4.627616   3.749687   5.716337   4.643036   2.888352
    21  H    3.551905   2.366876   4.766872   4.014613   3.415760
    22  C    3.889081   4.433374   5.395817   4.907176   1.448745
    23  H    4.641609   5.396987   6.038635   5.629773   2.182225
    24  C    3.573587   4.406405   5.895589   5.516932   2.454607
    25  H    4.148612   5.349680   6.817760   6.560892   3.437421
    26  C    3.193277   3.579722   5.617448   5.175660   2.948755
    27  H    4.118074   4.439802   6.638439   6.112426   3.863371
    28  H    2.412081   3.276077   5.369636   5.248979   3.541795
                   16         17         18         19         20
    16  C    0.000000
    17  H    2.168345   0.000000
    18  H    1.089441   2.439617   0.000000
    19  C    1.527890   3.443491   2.200462   0.000000
    20  H    2.121719   3.656907   2.495507   1.100902   0.000000
    21  H    2.179041   4.306327   2.534589   1.096399   1.755014
    22  C    2.462067   2.187342   3.403375   2.850694   3.196851
    23  H    3.432776   2.491384   4.279091   3.929160   4.181656
    24  C    2.862793   3.404456   3.913185   2.528723   2.947813
    25  H    3.950578   4.294449   5.000611   3.511484   3.843972
    26  C    2.576355   4.015061   3.535801   1.540752   2.156541
    27  H    3.475307   4.883068   4.323139   2.165655   2.350917
    28  H    3.066126   4.622813   4.016601   2.187185   3.043576
                   21         22         23         24         25
    21  H    0.000000
    22  C    3.877453   0.000000
    23  H    4.965076   1.088627   0.000000
    24  C    3.453793   1.349791   2.109841   0.000000
    25  H    4.365697   2.113684   2.425921   1.088649   0.000000
    26  C    2.177857   2.511707   3.495649   1.510286   2.231924
    27  H    2.614405   3.297795   4.177876   2.147633   2.494537
    28  H    2.408517   3.152788   4.084354   2.147787   2.660128
                   26         27         28
    26  C    0.000000
    27  H    1.099312   0.000000
    28  H    1.098184   1.744911   0.000000
 Symmetry turned off by external request.
 Stoichiometry    C12H16
 Framework group  C1[X(C12H16)]
 Deg. of freedom    78
 Full point group                 C1      NOp   1
 Rotational constants (GHZ):           1.6113202           0.8340277           0.7600312
 Leave Link  202 at Tue Sep 15 22:32:55 2020, MaxMem=   131072000 cpu:               0.0 elap:               0.0
 (Enter /scratch/scicomp/CentOS/7.3.1611/Haswell/software/Gaussian/g16/l301.exe)
 Standard basis: 6-31G(d) (6D, 7F)
 Ernie: Thresh=  0.10000D-02 Tol=  0.10000D-05 Strict=F.
   212 basis functions,   400 primitive gaussians,   212 cartesian basis functions
    44 alpha electrons       44 beta electrons
       nuclear repulsion energy       714.9299030981 Hartrees.
 IExCor=  402 DFT=T Ex+Corr=B3LYP ExCW=0 ScaHFX=  0.200000
 ScaDFX=  0.800000  0.720000  1.000000  0.810000 ScalE2=  1.000000  1.000000
 IRadAn=      5 IRanWt=     -1 IRanGd=            0 ICorTp=0 IEmpDi=  4
 NAtoms=   28 NActive=   28 NUniq=   28 SFac= 1.00D+00 NAtFMM=   60 NAOKFM=F Big=F
 Integral buffers will be    131072 words long.
 Raffenetti 2 integral format.
 Two-electron integral symmetry is turned off.
 Using the following non-standard input for PCM:
 qrep pcmdoc geomview nodis nocav g03defaults tsare=0.075
 Warning! Using old PCM defaults because the g03defaults keyword was found.
 These settings can be overridden by following keywords.
 nsfe=28
 nvesolv=36 solvmw=84.1595 rsolv=2.815
 eps=2.0165 rhos=0.7781
 --- end of non-standard input.
 Reading user-defined spheres from input:
 ISph  on   Nord    Re0     Alpha      Xe            Ye            Ze
 --- end of user-defined spheres data.
 ------------------------------------------------------------------------------
 Polarizable Continuum Model (PCM)
 =================================
 Model                : PCM.
 Atomic radii         : UA0 (Simple United Atom Topological Model).
 Polarization charges : Total charges.
 Charge compensation  : None.
 Solution method      : On-the-fly selection.
 Cavity type          : SES (Solvent Excluding Surface) (Alpha=1.000).
 Cavity algorithm     : GePol (RMin=0.200 OFac=0.890).
                        User-defined sphere list used, NSphG=   28.
                        Tesserae with average area of 0.075 Ang**2.
                        Smoothing algorithm: None.
                        Polarization charges: point-like.
                        Self-potential: constant (ISelfS= 1).
                        Self-field    : global E.n sum rule (ISelfD= 3).
 Solvent              : CycloHexane, Eps=   2.016500 Eps(inf)=   2.035188
                        RSolv=   2.815000 Ang.
 ------------------------------------------------------------------------------
 GePol: Number of generator spheres                  =      28
 GePol: Total number of spheres                      =     640
 GePol: Number of exposed spheres                    =     317 ( 49.53%)
 GePol: Number of tesserae                           =    4514
 GePol: Average area of tesserae                     =       0.04 Ang**2
 GePol: Minimum area of tessera                      =   0.10D-02 Ang**2
 GePol: Maximum area of tessera                      =    0.12513 Ang**2
 GePol: Number of small tesserae                     =       0
 GePol: Fraction of small tesserae (<1% of avg)      =       0.00%
 GePol: Total count of vertices                      =   16838
 GePol: Maximum number of vertices in a tessera      =       8
 GePol: Cavity surface area                          =    198.249 Ang**2
 GePol: Cavity volume                                =    211.622 Ang**3
 Leave Link  301 at Tue Sep 15 22:32:56 2020, MaxMem=   131072000 cpu:               0.7 elap:               0.8
0******************
 *Kjob Termination*
 *  in Link    301*
 ******************
 Job cpu time:       0 days  0 hours  0 minutes  1.0 seconds.
 Elapsed time:       0 days  0 hours  0 minutes  1.1 seconds.
 File lengths (MBytes):  RWF=    360 Int=      0 D2E=      0 Chk=      1 Scr=      1
 Normal termination of Gaussian 16 at Tue Sep 15 22:32:56 2020.
