 Entering Gaussian System, Link 0=g16
 Input=structure-3-Ger.gjf
 Output=structure-3-Ger.log
 Initial command:
 /scratch/scicomp/CentOS/7.3.1611/Haswell/software/Gaussian/g16/l1.exe "/scratch/bochen/test/xppcm/tmp/Gau-395631.inp" -scrdir="/scratch/bochen/test/xppcm/tmp/"
 Entering Link 1 = /scratch/scicomp/CentOS/7.3.1611/Haswell/software/Gaussian/g16/l1.exe PID=    395632.
  
 Copyright (c) 1988-2017, Gaussian, Inc.  All Rights Reserved.
  
 This is part of the Gaussian(R) 16 program.  It is based on
 the Gaussian(R) 09 system (copyright 2009, Gaussian, Inc.),
 the Gaussian(R) 03 system (copyright 2003, Gaussian, Inc.),
 the Gaussian(R) 98 system (copyright 1998, Gaussian, Inc.),
 the Gaussian(R) 94 system (copyright 1995, Gaussian, Inc.),
 the Gaussian 92(TM) system (copyright 1992, Gaussian, Inc.),
 the Gaussian 90(TM) system (copyright 1990, Gaussian, Inc.),
 the Gaussian 88(TM) system (copyright 1988, Gaussian, Inc.),
 the Gaussian 86(TM) system (copyright 1986, Carnegie Mellon
 University), and the Gaussian 82(TM) system (copyright 1983,
 Carnegie Mellon University). Gaussian is a federally registered
 trademark of Gaussian, Inc.
  
 This software contains proprietary and confidential information,
 including trade secrets, belonging to Gaussian, Inc.
  
 This software is provided under written license and may be
 used, copied, transmitted, or stored only in accord with that
 written license.
  
 The following legend is applicable only to US Government
 contracts under FAR:
  
                    RESTRICTED RIGHTS LEGEND
  
 Use, reproduction and disclosure by the US Government is
 subject to restrictions as set forth in subparagraphs (a)
 and (c) of the Commercial Computer Software - Restricted
 Rights clause in FAR 52.227-19.
  
 Gaussian, Inc.
 340 Quinnipiac St., Bldg. 40, Wallingford CT 06492
  
  
 ---------------------------------------------------------------
 Warning -- This program may not be used in any manner that
 competes with the business of Gaussian, Inc. or will provide
 assistance to any competitor of Gaussian, Inc.  The licensee
 of this program is prohibited from giving any competitor of
 Gaussian, Inc. access to this program.  By using this program,
 the user acknowledges that Gaussian, Inc. is engaged in the
 business of creating and licensing software in the field of
 computational chemistry and represents and warrants to the
 licensee that it is not a competitor of Gaussian, Inc. and that
 it will not use this program in any manner prohibited above.
 ---------------------------------------------------------------
  

 Cite this work as:
 Gaussian 16, Revision B.01,
 M. J. Frisch, G. W. Trucks, H. B. Schlegel, G. E. Scuseria, 
 M. A. Robb, J. R. Cheeseman, G. Scalmani, V. Barone, 
 G. A. Petersson, H. Nakatsuji, X. Li, M. Caricato, A. V. Marenich, 
 J. Bloino, B. G. Janesko, R. Gomperts, B. Mennucci, H. P. Hratchian, 
 J. V. Ortiz, A. F. Izmaylov, J. L. Sonnenberg, D. Williams-Young, 
 F. Ding, F. Lipparini, F. Egidi, J. Goings, B. Peng, A. Petrone, 
 T. Henderson, D. Ranasinghe, V. G. Zakrzewski, J. Gao, N. Rega, 
 G. Zheng, W. Liang, M. Hada, M. Ehara, K. Toyota, R. Fukuda, 
 J. Hasegawa, M. Ishida, T. Nakajima, Y. Honda, O. Kitao, H. Nakai, 
 T. Vreven, K. Throssell, J. A. Montgomery, Jr., J. E. Peralta, 
 F. Ogliaro, M. J. Bearpark, J. J. Heyd, E. N. Brothers, K. N. Kudin, 
 V. N. Staroverov, T. A. Keith, R. Kobayashi, J. Normand, 
 K. Raghavachari, A. P. Rendell, J. C. Burant, S. S. Iyengar, 
 J. Tomasi, M. Cossi, J. M. Millam, M. Klene, C. Adamo, R. Cammi, 
 J. W. Ochterski, R. L. Martin, K. Morokuma, O. Farkas, 
 J. B. Foresman, and D. J. Fox, Gaussian, Inc., Wallingford CT, 2016.
 
 ******************************************
 Gaussian 16:  ES64L-G16RevB.01 20-Dec-2017
                15-Sep-2020 
 ******************************************
 %kjob l502
 kjob at link  502 occurrence number     1
 %chk=structure-3-Ger.chk
 %nproc=24
 Will use up to   24 processors via shared memory.
 %mem=48gb
 ---------------------------------------------------------------------
 #p b3lyp 6-31g* # scrf=(iefpcm,solvent=cyclohexane,read) nosym 6d 10f
 ---------------------------------------------------------------------
 1/38=1,40=2,172=1/1;
 2/12=2,15=1,17=6,18=5,40=1/2;
 3/5=1,6=6,7=1,8=22,11=2,25=1,30=1,70=2203,72=17,74=-5/1,2,3;
 4//1;
 5/5=2,38=5,53=17/2;
 6/7=2,8=2,9=2,10=2,28=1/1;
 99/5=1,9=1/99;
 Leave Link    1 at Tue Sep 15 22:47:47 2020, MaxMem=  6442450944 cpu:               1.8 elap:               0.1
 (Enter /scratch/scicomp/CentOS/7.3.1611/Haswell/software/Gaussian/g16/l101.exe)
 -----
 title
 -----
 Symbolic Z-matrix:
 Charge =  0 Multiplicity = 1
 C                    -2.45453  -0.62092   0.45008 
 C                    -2.42912   0.86019   0.1779 
 C                    -1.41169   1.4535   -0.45201 
 C                    -0.14415   0.76155  -0.89234 
 C                    -0.18563  -0.80161  -0.78974 
 C                    -1.60418  -1.37095  -0.58512 
 H                    -1.44621   2.52885  -0.63209 
 H                    -3.28202   1.45434   0.50376 
 H                    -2.09265  -0.82207   1.46908 
 H                    -3.48692  -0.9942    0.41876 
 H                     0.05753   1.04783  -1.93573 
 H                     0.16923  -1.20768  -1.74683 
 H                    -2.1324   -1.31836  -1.54632 
 H                    -1.53453  -2.43626  -0.32713 
 C                     0.71664  -0.47071   1.55197 
 C                     0.8629   -1.26498   0.27443 
 H                     0.54992  -0.9551    2.51117 
 H                     0.76631  -2.34332   0.4439 
 C                     2.26764  -0.93522  -0.30752 
 H                     3.03946  -1.25934   0.39855 
 H                     2.42424  -1.49829  -1.23615 
 C                     0.84359   0.852     1.39279 
 H                     0.78015   1.57224   2.20412 
 C                     1.06814   1.28106  -0.03906 
 H                     1.14698   2.36935  -0.13676 
 C                     2.35954   0.59461  -0.56352 
 H                     3.23326   1.02347  -0.06134 
 H                     2.47277   0.80746  -1.63414 
 
 ITRead=  0  0  0  0  0  0  0  0  0  0  0  0  0  0  0  0  0  0  0  0
 ITRead=  0  0  0  0  0  0  0  0
 MicOpt= -1 -1 -1 -1 -1 -1 -1 -1 -1 -1 -1 -1 -1 -1 -1 -1 -1 -1 -1 -1
 MicOpt= -1 -1 -1 -1 -1 -1 -1 -1
 NAtoms=     28 NQM=       28 NQMF=       0 NMMI=      0 NMMIF=      0
                NMic=       0 NMicF=      0.
                    Isotopes and Nuclear Properties:
 (Nuclear quadrupole moments (NQMom) in fm**2, nuclear magnetic moments (NMagM)
  in nuclear magnetons)

  Atom         1           2           3           4           5           6           7           8           9          10
 IAtWgt=          12          12          12          12          12          12           1           1           1           1
 AtmWgt=  12.0000000  12.0000000  12.0000000  12.0000000  12.0000000  12.0000000   1.0078250   1.0078250   1.0078250   1.0078250
 NucSpn=           0           0           0           0           0           0           1           1           1           1
 AtZEff=  -0.0000000  -0.0000000  -0.0000000  -0.0000000  -0.0000000  -0.0000000  -0.0000000  -0.0000000  -0.0000000  -0.0000000
 NQMom=    0.0000000   0.0000000   0.0000000   0.0000000   0.0000000   0.0000000   0.0000000   0.0000000   0.0000000   0.0000000
 NMagM=    0.0000000   0.0000000   0.0000000   0.0000000   0.0000000   0.0000000   2.7928460   2.7928460   2.7928460   2.7928460
 AtZNuc=   6.0000000   6.0000000   6.0000000   6.0000000   6.0000000   6.0000000   1.0000000   1.0000000   1.0000000   1.0000000

  Atom        11          12          13          14          15          16          17          18          19          20
 IAtWgt=           1           1           1           1          12          12           1           1          12           1
 AtmWgt=   1.0078250   1.0078250   1.0078250   1.0078250  12.0000000  12.0000000   1.0078250   1.0078250  12.0000000   1.0078250
 NucSpn=           1           1           1           1           0           0           1           1           0           1
 AtZEff=  -0.0000000  -0.0000000  -0.0000000  -0.0000000  -0.0000000  -0.0000000  -0.0000000  -0.0000000  -0.0000000  -0.0000000
 NQMom=    0.0000000   0.0000000   0.0000000   0.0000000   0.0000000   0.0000000   0.0000000   0.0000000   0.0000000   0.0000000
 NMagM=    2.7928460   2.7928460   2.7928460   2.7928460   0.0000000   0.0000000   2.7928460   2.7928460   0.0000000   2.7928460
 AtZNuc=   1.0000000   1.0000000   1.0000000   1.0000000   6.0000000   6.0000000   1.0000000   1.0000000   6.0000000   1.0000000

  Atom        21          22          23          24          25          26          27          28
 IAtWgt=           1          12           1          12           1          12           1           1
 AtmWgt=   1.0078250  12.0000000   1.0078250  12.0000000   1.0078250  12.0000000   1.0078250   1.0078250
 NucSpn=           1           0           1           0           1           0           1           1
 AtZEff=  -0.0000000  -0.0000000  -0.0000000  -0.0000000  -0.0000000  -0.0000000  -0.0000000  -0.0000000
 NQMom=    0.0000000   0.0000000   0.0000000   0.0000000   0.0000000   0.0000000   0.0000000   0.0000000
 NMagM=    2.7928460   0.0000000   2.7928460   0.0000000   2.7928460   0.0000000   2.7928460   2.7928460
 AtZNuc=   1.0000000   6.0000000   1.0000000   6.0000000   1.0000000   6.0000000   1.0000000   1.0000000
 Leave Link  101 at Tue Sep 15 22:47:47 2020, MaxMem=  6442450944 cpu:               2.8 elap:               0.2
 (Enter /scratch/scicomp/CentOS/7.3.1611/Haswell/software/Gaussian/g16/l202.exe)
                          Input orientation:                          
 ---------------------------------------------------------------------
 Center     Atomic      Atomic             Coordinates (Angstroms)
 Number     Number       Type             X           Y           Z
 ---------------------------------------------------------------------
      1          6           0       -2.454531   -0.620920    0.450078
      2          6           0       -2.429115    0.860192    0.177901
      3          6           0       -1.411688    1.453495   -0.452012
      4          6           0       -0.144149    0.761548   -0.892337
      5          6           0       -0.185628   -0.801613   -0.789740
      6          6           0       -1.604183   -1.370946   -0.585116
      7          1           0       -1.446210    2.528854   -0.632087
      8          1           0       -3.282020    1.454343    0.503764
      9          1           0       -2.092649   -0.822074    1.469083
     10          1           0       -3.486923   -0.994204    0.418758
     11          1           0        0.057528    1.047828   -1.935726
     12          1           0        0.169231   -1.207683   -1.746829
     13          1           0       -2.132404   -1.318363   -1.546324
     14          1           0       -1.534534   -2.436262   -0.327132
     15          6           0        0.716641   -0.470708    1.551966
     16          6           0        0.862900   -1.264979    0.274427
     17          1           0        0.549920   -0.955102    2.511169
     18          1           0        0.766306   -2.343321    0.443899
     19          6           0        2.267636   -0.935217   -0.307517
     20          1           0        3.039458   -1.259338    0.398554
     21          1           0        2.424242   -1.498287   -1.236154
     22          6           0        0.843594    0.852001    1.392785
     23          1           0        0.780145    1.572240    2.204115
     24          6           0        1.068138    1.281056   -0.039061
     25          1           0        1.146978    2.369349   -0.136763
     26          6           0        2.359537    0.594607   -0.563515
     27          1           0        3.233257    1.023470   -0.061341
     28          1           0        2.472773    0.807458   -1.634143
 ---------------------------------------------------------------------
                    Distance matrix (angstroms):
                    1          2          3          4          5
     1  C    0.000000
     2  C    1.506127   0.000000
     3  C    2.490880   1.335648   0.000000
     4  C    3.008515   2.525116   1.509746   0.000000
     5  C    2.591856   2.954853   2.588976   1.567073   0.000000
     6  C    1.535336   2.498136   2.834120   2.602617   1.542177
     7  H    3.479780   2.099194   1.090878   2.210535   3.564538
     8  H    2.234801   1.089334   2.100393   3.503612   4.043530
     9  H    1.099906   2.147179   3.054919   3.446856   2.956253
    10  H    1.098251   2.148431   3.325067   3.996971   3.520811
    11  H    3.845416   3.268948   2.127103   1.100586   2.189256
    12  H    3.472005   3.838241   3.355253   2.169386   1.098561
    13  H    2.139115   2.794117   3.065966   2.950743   2.151601
    14  H    2.178512   3.452817   3.893699   3.532508   2.169247
    15  C    3.360514   3.681729   3.499753   2.869500   2.531240
    16  C    3.383935   3.919570   3.618227   2.546036   1.564152
    17  H    3.658757   4.196913   4.292981   3.874593   3.385349
    18  H    3.652464   4.532545   4.467900   3.500667   2.192010
    19  C    4.792869   5.051593   4.389106   3.006282   2.503776
    20  H    5.531198   5.869104   5.281631   3.985691   3.467382
    21  H    5.235989   5.578266   4.903290   3.438269   2.737894
    22  C    3.733071   3.490936   2.975125   2.491104   2.925261
    23  H    4.283658   3.861594   3.445757   3.331600   3.940947
    24  C    4.033109   3.529161   2.519881   1.570862   2.544201
    25  H    4.717728   3.894228   2.735862   2.196116   3.501031
    26  C    5.067556   4.852981   3.869400   2.530699   2.911782
    27  H    5.942769   5.669775   4.681139   3.487983   3.943383
    28  H    5.537379   5.226355   4.111427   2.720416   3.220128
                    6          7          8          9         10
     6  C    0.000000
     7  H    3.903281   0.000000
     8  H    3.461655   2.411417   0.000000
     9  H    2.181649   4.007682   2.743815   0.000000
    10  H    2.166658   4.204845   2.458576   1.754084   0.000000
    11  H    3.230464   2.480754   4.155592   4.439878   4.719812
    12  H    2.126318   4.220664   4.905373   3.950555   4.254739
    13  H    1.098045   4.013449   3.634883   3.056233   2.408599
    14  H    1.098319   4.975256   4.345216   2.478605   2.539233
    15  C    3.280819   4.294809   4.560026   2.832391   4.384992
    16  C    2.614678   4.532872   4.962627   3.218484   4.360632
    17  H    3.794742   5.099269   4.951653   2.843732   4.547067
    18  H    2.761087   5.458119   5.551106   3.396884   4.462141
    19  C    3.906137   5.088987   6.096463   4.709692   5.800509
    20  H    4.747996   5.961026   6.880132   5.260775   6.531796
    21  H    4.082680   5.618110   6.656333   5.308284   6.159116
    22  C    3.852947   3.486423   4.263082   3.380809   4.807346
    23  H    4.703953   3.730390   4.405256   3.811293   5.289802
    24  C    3.804286   2.868907   4.387318   4.085123   5.112239
    25  H    4.664731   2.644884   4.567662   4.822769   5.752837
    26  C    4.424358   4.269628   5.805635   5.095135   6.137612
    27  H    5.422951   4.948671   6.553917   5.840677   7.032946
    28  H    4.739986   4.396106   6.173066   5.755733   6.555789
                   11         12         13         14         15
    11  H    0.000000
    12  H    2.266162   0.000000
    13  H    3.247506   2.313002   0.000000
    14  H    4.154650   2.535303   1.758856   0.000000
    15  C    3.860619   3.424155   4.293597   3.530184   0.000000
    16  C    3.298860   2.137741   3.505685   2.735227   1.511411
    17  H    4.901944   4.282437   4.877507   3.820306   1.087430
    18  H    4.202960   2.538791   3.662519   2.428372   2.176455
    19  C    3.386460   2.559133   4.587134   4.087789   2.465569
    20  H    4.434387   3.583788   5.525775   4.778407   2.710678
    21  H    3.545904   2.330303   4.570733   4.168696   3.427161
    22  C    3.425673   3.815002   4.712261   4.407525   1.338288
    23  H    4.235029   4.869409   5.559165   5.275703   2.145453
    24  C    2.161728   3.149338   4.390022   4.547014   2.392403
    25  H    2.483865   4.042704   5.132293   5.506418   3.332104
    26  C    2.718017   3.073422   4.980251   4.940226   2.882579
    27  H    3.687705   4.148152   6.039841   5.896798   3.341958
    28  H    2.445841   3.062645   5.072917   5.318694   3.856034
                   16         17         18         19         20
    16  C    0.000000
    17  H    2.279692   0.000000
    18  H    1.095843   2.499516   0.000000
    19  C    1.555855   3.300899   2.191204   0.000000
    20  H    2.180102   3.279253   2.518788   1.095126   0.000000
    21  H    2.184966   4.224993   2.507072   1.097242   1.762912
    22  C    2.394306   2.145378   3.334133   2.848345   3.204382
    23  H    3.432252   2.556314   4.293037   3.848151   4.047515
    24  C    2.573459   3.431126   3.668850   2.534311   3.245183
    25  H    3.668531   4.291852   4.763543   3.493592   4.127398
    26  C    2.529848   3.889729   3.490657   1.553815   2.196584
    27  H    3.311847   4.211039   4.204331   2.197608   2.336723
    28  H    3.244892   4.897713   4.142185   2.199758   2.953749
                   21         22         23         24         25
    21  H    0.000000
    22  C    3.864404   0.000000
    23  H    4.895574   1.086750   0.000000
    24  C    3.316142   1.511519   2.280256   0.000000
    25  H    4.218847   2.175754   2.499932   1.095510   0.000000
    26  C    2.199281   2.488261   3.333170   1.553697   2.191375
    27  H    2.897231   2.802565   3.383962   2.180502   2.483876
    28  H    2.340344   3.437805   4.264048   2.177517   2.537594
                   26         27         28
    26  C    0.000000
    27  H    1.095212   0.000000
    28  H    1.097439   1.760313   0.000000
 Symmetry turned off by external request.
 Stoichiometry    C12H16
 Framework group  C1[X(C12H16)]
 Deg. of freedom    78
 Full point group                 C1      NOp   1
 Rotational constants (GHZ):           1.7166404           0.9213692           0.8182222
 Leave Link  202 at Tue Sep 15 22:47:47 2020, MaxMem=  6442450944 cpu:               1.3 elap:               0.1
 (Enter /scratch/scicomp/CentOS/7.3.1611/Haswell/software/Gaussian/g16/l301.exe)
 Standard basis: 6-31G(d) (6D, 10F)
 Ernie: Thresh=  0.10000D-02 Tol=  0.10000D-05 Strict=F.
   212 basis functions,   400 primitive gaussians,   212 cartesian basis functions
    44 alpha electrons       44 beta electrons
       nuclear repulsion energy       737.1159722346 Hartrees.
 IExCor=  402 DFT=T Ex+Corr=B3LYP ExCW=0 ScaHFX=  0.200000
 ScaDFX=  0.800000  0.720000  1.000000  0.810000 ScalE2=  1.000000  1.000000
 IRadAn=      5 IRanWt=     -1 IRanGd=            0 ICorTp=0 IEmpDi=  4
 NAtoms=   28 NActive=   28 NUniq=   28 SFac= 1.00D+00 NAtFMM=   60 NAOKFM=F Big=F
 Integral buffers will be    131072 words long.
 Raffenetti 2 integral format.
 Two-electron integral symmetry is turned off.
 Using the following non-standard input for PCM:
 qrep pcmdoc geomview nodis nocav g03defaults tsare=0.075
 Warning! Using old PCM defaults because the g03defaults keyword was found.
 These settings can be overridden by following keywords.
 nsfe=28
 nvesolv=36 solvmw=84.1595 rsolv=2.815
 eps=2.0165 rhos=0.7781
 --- end of non-standard input.
 Reading user-defined spheres from input:
 ISph  on   Nord    Re0     Alpha      Xe            Ye            Ze
 --- end of user-defined spheres data.
 ------------------------------------------------------------------------------
 Polarizable Continuum Model (PCM)
 =================================
 Model                : PCM.
 Atomic radii         : UA0 (Simple United Atom Topological Model).
 Polarization charges : Total charges.
 Charge compensation  : None.
 Solution method      : On-the-fly selection.
 Cavity type          : SES (Solvent Excluding Surface) (Alpha=1.000).
 Cavity algorithm     : GePol (RMin=0.200 OFac=0.890).
                        User-defined sphere list used, NSphG=   28.
                        Tesserae with average area of 0.075 Ang**2.
                        Smoothing algorithm: None.
                        Polarization charges: point-like.
                        Self-potential: constant (ISelfS= 1).
                        Self-field    : global E.n sum rule (ISelfD= 3).
 Solvent              : CycloHexane, Eps=   2.016500 Eps(inf)=   2.035188
                        RSolv=   2.815000 Ang.
 ------------------------------------------------------------------------------
 GePol: Number of generator spheres                  =      28
 GePol: Total number of spheres                      =     280
 GePol: Number of exposed spheres                    =     141 ( 50.36%)
 GePol: Number of tesserae                           =    4622
 GePol: Average area of tesserae                     =       0.05 Ang**2
 GePol: Minimum area of tessera                      =   0.10D-02 Ang**2
 GePol: Maximum area of tessera                      =    0.12395 Ang**2
 GePol: Number of small tesserae                     =       0
 GePol: Fraction of small tesserae (<1% of avg)      =       0.00%
 GePol: Total count of vertices                      =   16086
 GePol: Maximum number of vertices in a tessera      =       7
 GePol: Cavity surface area                          =    242.106 Ang**2
 GePol: Cavity volume                                =    294.616 Ang**3
 Leave Link  301 at Tue Sep 15 22:47:48 2020, MaxMem=  6442450944 cpu:              10.8 elap:               0.5
 (Enter /scratch/scicomp/CentOS/7.3.1611/Haswell/software/Gaussian/g16/l302.exe)
 NPDir=0 NMtPBC=     1 NCelOv=     1 NCel=       1 NClECP=     1 NCelD=      1
         NCelK=      1 NCelE2=     1 NClLst=     1 CellRange=     0.0.
 One-electron integrals computed using PRISM.
 NBasis=   212 RedAO= T EigKep=  9.65D-04  NBF=   212
 NBsUse=   212 1.00D-06 EigRej= -1.00D+00 NBFU=   212
 Precomputing XC quadrature grid using
 IXCGrd= 4 IRadAn=           5 IRanWt=          -1 IRanGd=           0 AccXCQ= 0.00D+00.
 Generated NRdTot=       0 NPtTot=           0 NUsed=           0 NTot=          32
 NSgBfM=   212   212   212   212   212 MxSgAt=    28 MxSgA2=    28.
 Leave Link  302 at Tue Sep 15 22:47:48 2020, MaxMem=  6442450944 cpu:               6.4 elap:               0.3
 (Enter /scratch/scicomp/CentOS/7.3.1611/Haswell/software/Gaussian/g16/l303.exe)
 DipDrv:  MaxL=1.
 Leave Link  303 at Tue Sep 15 22:47:49 2020, MaxMem=  6442450944 cpu:               2.5 elap:               0.1
 (Enter /scratch/scicomp/CentOS/7.3.1611/Haswell/software/Gaussian/g16/l401.exe)
 ExpMin= 1.61D-01 ExpMax= 3.05D+03 ExpMxC= 4.57D+02 IAcc=3 IRadAn=         5 AccDes= 0.00D+00
 Harris functional with IExCor=  402 and IRadAn=       5 diagonalized for initial guess.
 HarFok:  IExCor=  402 AccDes= 0.00D+00 IRadAn=         5 IDoV= 1 UseB2=F ITyADJ=14
 ICtDFT=  3500011 ScaDFX=  1.000000  1.000000  1.000000  1.000000
 FoFCou: FMM=F IPFlag=           0 FMFlag=      100000 FMFlg1=           0
         NFxFlg=           0 DoJE=T BraDBF=F KetDBF=T FulRan=T
         wScrn=  0.000000 ICntrl=       500 IOpCl=  0 I1Cent=   200000004 NGrid=           0
         NMat0=    1 NMatS0=      1 NMatT0=    0 NMatD0=    1 NMtDS0=    0 NMtDT0=    0
 Symmetry not used in FoFCou.
 Harris En= -466.914939552471    
 JPrj=0 DoOrth=F DoCkMO=F.
 Leave Link  401 at Tue Sep 15 22:47:49 2020, MaxMem=  6442450944 cpu:              14.5 elap:               0.7
 (Enter /scratch/scicomp/CentOS/7.3.1611/Haswell/software/Gaussian/g16/l502.exe)
 Two-electron integral symmetry not used.
 Closed shell SCF:
 Using DIIS extrapolation, IDIIS=  1040.
 NGot=  6442450944 LenX=  6442353874 LenY=  6442308489
 Requested convergence on RMS density matrix=1.00D-08 within 128 cycles.
 Requested convergence on MAX density matrix=1.00D-06.
 Requested convergence on             energy=1.00D-06.
 No special actions if energy rises.
 Fock matrices will be formed incrementally for  20 cycles.

 Cycle   1  Pass 1  IDiag  1:
 FoFJK:  IHMeth= 1 ICntrl=       0 DoSepK=F KAlg= 0 I1Cent=           0 FoldK=F
 IRaf= 960000000 NMat=       1 IRICut=       1 DoRegI=T DoRafI=F ISym2E= 0 IDoP0=0 IntGTp=1.
 FoFCou: FMM=F IPFlag=           0 FMFlag=      100000 FMFlg1=           0
         NFxFlg=           0 DoJE=F BraDBF=F KetDBF=F FulRan=T
         wScrn=  0.000000 ICntrl=         0 IOpCl=  0 I1Cent=           0 NGrid=           0
         NMat0=    1 NMatS0=      1 NMatT0=    0 NMatD0=    1 NMtDS0=    0 NMtDT0=    0
 Symmetry not used in FoFCou.
 Inv3:  Mode=1 IEnd=    64088652.
 Iteration    1 A*A^-1 deviation from unit magnitude is 4.00D-15 for    383.
 Iteration    1 A*A^-1 deviation from orthogonality  is 2.04D-15 for    568    187.
 Iteration    1 A^-1*A deviation from unit magnitude is 3.77D-15 for    383.
 Iteration    1 A^-1*A deviation from orthogonality  is 1.79D-15 for   3043   2988.
 E= -466.526698581205    
 DIIS: error= 2.19D-02 at cycle   1 NSaved=   1.
 NSaved= 1 IEnMin= 1 EnMin= -466.526698581205     IErMin= 1 ErrMin= 2.19D-02
 ErrMax= 2.19D-02  0.00D+00 EMaxC= 1.00D-01 BMatC= 3.03D-01 BMatP= 3.03D-01
 IDIUse=3 WtCom= 7.81D-01 WtEn= 2.19D-01
 Coeff-Com:  0.100D+01
 Coeff-En:   0.100D+01
 Coeff:      0.100D+01
 Gap=     0.262 Goal=   None    Shift=    0.000
 GapD=    0.262 DampG=1.000 DampE=0.500 DampFc=0.5000 IDamp=-1.
 Damping current iteration by 5.00D-01
 RMSDP=7.07D-03 MaxDP=1.61D-01              OVMax= 1.63D-01

 Cycle   2  Pass 1  IDiag  1:
 RMSU=  3.49D-03    CP:  9.74D-01
 E= -466.666834827083     Delta-E=       -0.140136245878 Rises=F Damp=T
 DIIS: error= 7.82D-03 at cycle   2 NSaved=   2.
 NSaved= 2 IEnMin= 2 EnMin= -466.666834827083     IErMin= 2 ErrMin= 7.82D-03
 ErrMax= 7.82D-03  0.00D+00 EMaxC= 1.00D-01 BMatC= 2.40D-02 BMatP= 3.03D-01
 IDIUse=3 WtCom= 9.22D-01 WtEn= 7.82D-02
 Coeff-Com:  0.952D-01 0.905D+00
 Coeff-En:   0.162D+00 0.838D+00
 Coeff:      0.100D+00 0.900D+00
 Gap=     0.294 Goal=   None    Shift=    0.000
 RMSDP=2.08D-03 MaxDP=3.57D-02 DE=-1.40D-01 OVMax= 1.01D-01

 Cycle   3  Pass 1  IDiag  1:
 RMSU=  1.77D-03    CP:  9.70D-01  6.89D-01
 E= -466.858834577258     Delta-E=       -0.191999750174 Rises=F Damp=F
 DIIS: error= 3.85D-03 at cycle   3 NSaved=   3.
 NSaved= 3 IEnMin= 3 EnMin= -466.858834577258     IErMin= 3 ErrMin= 3.85D-03
 ErrMax= 3.85D-03  0.00D+00 EMaxC= 1.00D-01 BMatC= 8.15D-03 BMatP= 2.40D-02
 IDIUse=3 WtCom= 9.62D-01 WtEn= 3.85D-02
 Coeff-Com: -0.137D-01 0.346D+00 0.667D+00
 Coeff-En:   0.000D+00 0.000D+00 0.100D+01
 Coeff:     -0.132D-01 0.333D+00 0.680D+00
 Gap=     0.260 Goal=   None    Shift=    0.000
 RMSDP=7.64D-04 MaxDP=1.56D-02 DE=-1.92D-01 OVMax= 1.64D-02

 Cycle   4  Pass 1  IDiag  1:
 RMSU=  4.42D-04    CP:  9.70D-01  7.84D-01  7.02D-01
 E= -466.865105519285     Delta-E=       -0.006270942027 Rises=F Damp=F
 DIIS: error= 1.57D-03 at cycle   4 NSaved=   4.
 NSaved= 4 IEnMin= 4 EnMin= -466.865105519285     IErMin= 4 ErrMin= 1.57D-03
 ErrMax= 1.57D-03  0.00D+00 EMaxC= 1.00D-01 BMatC= 1.26D-03 BMatP= 8.15D-03
 IDIUse=3 WtCom= 9.84D-01 WtEn= 1.57D-02
 Coeff-Com: -0.130D-01 0.936D-01 0.322D+00 0.597D+00
 Coeff-En:   0.000D+00 0.000D+00 0.643D-01 0.936D+00
 Coeff:     -0.128D-01 0.922D-01 0.318D+00 0.603D+00
 Gap=     0.258 Goal=   None    Shift=    0.000
 RMSDP=2.45D-04 MaxDP=6.03D-03 DE=-6.27D-03 OVMax= 1.21D-02

 Cycle   5  Pass 1  IDiag  1:
 RMSU=  1.43D-04    CP:  9.70D-01  7.70D-01  7.61D-01  6.33D-01
 E= -466.866174311921     Delta-E=       -0.001068792636 Rises=F Damp=F
 DIIS: error= 6.16D-04 at cycle   5 NSaved=   5.
 NSaved= 5 IEnMin= 5 EnMin= -466.866174311921     IErMin= 5 ErrMin= 6.16D-04
 ErrMax= 6.16D-04  0.00D+00 EMaxC= 1.00D-01 BMatC= 1.67D-04 BMatP= 1.26D-03
 IDIUse=3 WtCom= 9.94D-01 WtEn= 6.16D-03
 Coeff-Com: -0.526D-02 0.131D-01 0.915D-01 0.321D+00 0.580D+00
 Coeff-En:   0.000D+00 0.000D+00 0.000D+00 0.856D-01 0.914D+00
 Coeff:     -0.523D-02 0.130D-01 0.910D-01 0.320D+00 0.582D+00
 Gap=     0.256 Goal=   None    Shift=    0.000
 RMSDP=7.60D-05 MaxDP=2.78D-03 DE=-1.07D-03 OVMax= 6.44D-03

 Cycle   6  Pass 1  IDiag  1:
 RMSU=  3.20D-05    CP:  9.70D-01  7.73D-01  7.61D-01  7.06D-01  5.78D-01
 E= -466.866328463178     Delta-E=       -0.000154151257 Rises=F Damp=F
 DIIS: error= 2.14D-04 at cycle   6 NSaved=   6.
 NSaved= 6 IEnMin= 6 EnMin= -466.866328463178     IErMin= 6 ErrMin= 2.14D-04
 ErrMax= 2.14D-04  0.00D+00 EMaxC= 1.00D-01 BMatC= 1.67D-05 BMatP= 1.67D-04
 IDIUse=3 WtCom= 9.98D-01 WtEn= 2.14D-03
 Coeff-Com: -0.274D-02 0.440D-02 0.440D-01 0.177D+00 0.366D+00 0.411D+00
 Coeff-En:   0.000D+00 0.000D+00 0.000D+00 0.000D+00 0.000D+00 0.100D+01
 Coeff:     -0.274D-02 0.439D-02 0.439D-01 0.177D+00 0.365D+00 0.413D+00
 Gap=     0.256 Goal=   None    Shift=    0.000
 RMSDP=1.89D-05 MaxDP=1.06D-03 DE=-1.54D-04 OVMax= 2.08D-03

 Cycle   7  Pass 1  IDiag  1:
 RMSU=  7.87D-06    CP:  9.69D-01  7.73D-01  7.61D-01  7.07D-01  6.09D-01
                    CP:  4.83D-01
 E= -466.866345376949     Delta-E=       -0.000016913771 Rises=F Damp=F
 DIIS: error= 1.79D-05 at cycle   7 NSaved=   7.
 NSaved= 7 IEnMin= 7 EnMin= -466.866345376949     IErMin= 7 ErrMin= 1.79D-05
 ErrMax= 1.79D-05  0.00D+00 EMaxC= 1.00D-01 BMatC= 2.07D-07 BMatP= 1.67D-05
 IDIUse=1 WtCom= 1.00D+00 WtEn= 0.00D+00
 Coeff-Com: -0.594D-03 0.552D-03 0.919D-02 0.417D-01 0.922D-01 0.150D+00
 Coeff-Com:  0.707D+00
 Coeff:     -0.594D-03 0.552D-03 0.919D-02 0.417D-01 0.922D-01 0.150D+00
 Coeff:      0.707D+00
 Gap=     0.256 Goal=   None    Shift=    0.000
 RMSDP=3.35D-06 MaxDP=1.10D-04 DE=-1.69D-05 OVMax= 2.29D-04

 Cycle   8  Pass 1  IDiag  1:
 RMSU=  2.36D-06    CP:  9.69D-01  7.72D-01  7.62D-01  7.07D-01  6.14D-01
                    CP:  4.99D-01  7.36D-01
 E= -466.866345523094     Delta-E=       -0.000000146145 Rises=F Damp=F
 DIIS: error= 1.14D-05 at cycle   8 NSaved=   8.
 NSaved= 8 IEnMin= 8 EnMin= -466.866345523094     IErMin= 8 ErrMin= 1.14D-05
 ErrMax= 1.14D-05  0.00D+00 EMaxC= 1.00D-01 BMatC= 5.96D-08 BMatP= 2.07D-07
 IDIUse=1 WtCom= 1.00D+00 WtEn= 0.00D+00
 Coeff-Com: -0.112D-03-0.656D-04 0.158D-02 0.937D-02 0.227D-01 0.524D-01
 Coeff-Com:  0.408D+00 0.506D+00
 Coeff:     -0.112D-03-0.656D-04 0.158D-02 0.937D-02 0.227D-01 0.524D-01
 Coeff:      0.408D+00 0.506D+00
 Gap=     0.256 Goal=   None    Shift=    0.000
 RMSDP=1.35D-06 MaxDP=7.68D-05 DE=-1.46D-07 OVMax= 1.49D-04

 Cycle   9  Pass 1  IDiag  1:
 RMSU=  8.75D-07    CP:  9.69D-01  7.72D-01  7.62D-01  7.07D-01  6.14D-01
                    CP:  4.98D-01  7.84D-01  5.96D-01
 E= -466.866345577167     Delta-E=       -0.000000054074 Rises=F Damp=F
 DIIS: error= 4.06D-06 at cycle   9 NSaved=   9.
 NSaved= 9 IEnMin= 9 EnMin= -466.866345577167     IErMin= 9 ErrMin= 4.06D-06
 ErrMax= 4.06D-06  0.00D+00 EMaxC= 1.00D-01 BMatC= 6.31D-09 BMatP= 5.96D-08
 IDIUse=1 WtCom= 1.00D+00 WtEn= 0.00D+00
 Coeff-Com:  0.104D-04-0.109D-03-0.286D-03 0.869D-04 0.114D-02 0.110D-01
 Coeff-Com:  0.140D+00 0.290D+00 0.558D+00
 Coeff:      0.104D-04-0.109D-03-0.286D-03 0.869D-04 0.114D-02 0.110D-01
 Coeff:      0.140D+00 0.290D+00 0.558D+00
 Gap=     0.256 Goal=   None    Shift=    0.000
 RMSDP=4.80D-07 MaxDP=2.11D-05 DE=-5.41D-08 OVMax= 4.53D-05

 Cycle  10  Pass 1  IDiag  1:
 RMSU=  2.65D-07    CP:  9.69D-01  7.72D-01  7.62D-01  7.07D-01  6.13D-01
                    CP:  5.02D-01  7.94D-01  6.31D-01  5.93D-01
 E= -466.866345583423     Delta-E=       -0.000000006256 Rises=F Damp=F
 DIIS: error= 7.79D-07 at cycle  10 NSaved=  10.
 NSaved=10 IEnMin=10 EnMin= -466.866345583423     IErMin=10 ErrMin= 7.79D-07
 ErrMax= 7.79D-07  0.00D+00 EMaxC= 1.00D-01 BMatC= 4.14D-10 BMatP= 6.31D-09
 IDIUse=1 WtCom= 1.00D+00 WtEn= 0.00D+00
 Coeff-Com:  0.125D-04-0.459D-04-0.266D-03-0.668D-03-0.120D-02 0.137D-02
 Coeff-Com:  0.368D-01 0.103D+00 0.281D+00 0.580D+00
 Coeff:      0.125D-04-0.459D-04-0.266D-03-0.668D-03-0.120D-02 0.137D-02
 Coeff:      0.368D-01 0.103D+00 0.281D+00 0.580D+00
 Gap=     0.256 Goal=   None    Shift=    0.000
 RMSDP=1.14D-07 MaxDP=4.33D-06 DE=-6.26D-09 OVMax= 6.58D-06

 Cycle  11  Pass 1  IDiag  1:
 RMSU=  6.75D-08    CP:  9.69D-01  7.72D-01  7.62D-01  7.07D-01  6.13D-01
                    CP:  5.02D-01  7.94D-01  6.36D-01  6.41D-01  7.06D-01
 E= -466.866345583825     Delta-E=       -0.000000000402 Rises=F Damp=F
 DIIS: error= 1.28D-07 at cycle  11 NSaved=  11.
 NSaved=11 IEnMin=11 EnMin= -466.866345583825     IErMin=11 ErrMin= 1.28D-07
 ErrMax= 1.28D-07  0.00D+00 EMaxC= 1.00D-01 BMatC= 1.55D-11 BMatP= 4.14D-10
 IDIUse=1 WtCom= 1.00D+00 WtEn= 0.00D+00
 Coeff-Com:  0.299D-05-0.759D-05-0.731D-04-0.226D-03-0.476D-03-0.187D-03
 Coeff-Com:  0.380D-02 0.171D-01 0.652D-01 0.222D+00 0.693D+00
 Coeff:      0.299D-05-0.759D-05-0.731D-04-0.226D-03-0.476D-03-0.187D-03
 Coeff:      0.380D-02 0.171D-01 0.652D-01 0.222D+00 0.693D+00
 Gap=     0.256 Goal=   None    Shift=    0.000
 RMSDP=2.45D-08 MaxDP=7.12D-07 DE=-4.02D-10 OVMax= 8.01D-07

 Cycle  12  Pass 1  IDiag  1:
 RMSU=  1.61D-08    CP:  9.69D-01  7.72D-01  7.62D-01  7.07D-01  6.13D-01
                    CP:  5.01D-01  7.94D-01  6.38D-01  6.47D-01  7.32D-01
                    CP:  7.74D-01
 E= -466.866345583845     Delta-E=       -0.000000000020 Rises=F Damp=F
 DIIS: error= 3.66D-08 at cycle  12 NSaved=  12.
 NSaved=12 IEnMin=12 EnMin= -466.866345583845     IErMin=12 ErrMin= 3.66D-08
 ErrMax= 3.66D-08  0.00D+00 EMaxC= 1.00D-01 BMatC= 1.23D-12 BMatP= 1.55D-11
 IDIUse=1 WtCom= 1.00D+00 WtEn= 0.00D+00
 Coeff-Com:  0.618D-06-0.106D-05-0.192D-04-0.654D-04-0.150D-03-0.137D-03
 Coeff-Com: -0.684D-04 0.254D-02 0.154D-01 0.694D-01 0.307D+00 0.606D+00
 Coeff:      0.618D-06-0.106D-05-0.192D-04-0.654D-04-0.150D-03-0.137D-03
 Coeff:     -0.684D-04 0.254D-02 0.154D-01 0.694D-01 0.307D+00 0.606D+00
 Gap=     0.256 Goal=   None    Shift=    0.000
 RMSDP=7.58D-09 MaxDP=1.67D-07 DE=-2.03D-11 OVMax= 2.01D-07

 Error on total polarization charges =  0.00420
 SCF Done:  E(RB3LYP) =  -466.866345584     A.U. after   12 cycles
            NFock= 12  Conv=0.76D-08     -V/T= 2.0099
 KE= 4.622700447052D+02 PE=-2.554420653079D+03 EE= 8.881682905555D+02
 --------------------------------------------------------------------
 Variational PCM results
 =======================
 <psi(f)|   H    |psi(f)>                     (a.u.) =    -466.872686
 <psi(f)|H+V(f)/2|psi(f)>                     (a.u.) =    -466.873156
 Total free energy in solution:
 - with all non electrostatic terms           (a.u.) =    -466.866346
 --------------------------------------------------------------------
 (Polarized solute)-Solvent               (kcal/mol) =      -0.29
 --------------------------------------------------------------------
 Quantum repulsion energy                 (kcal/mol) =       4.27
 Total non electrostatic                  (kcal/mol) =       4.27
 --------------------------------------------------------------------
 Partition over spheres:
 Sphere  on Atom  Surface  Charge   GEl     GCav    GDR
    1               0.00   0.000    0.00    0.00    0.00
    2               1.23   0.004   -0.04    0.00    0.00
    3               0.00   0.000    0.00    0.00    0.00
    4               0.00   0.000    0.00    0.00    0.00
    5               0.00   0.000    0.00    0.00    0.00
    6               0.00   0.000    0.00    0.00    0.00
    7               5.74  -0.005   -0.01    0.00    0.00
    8              22.56   0.001   -0.01    0.00    0.00
    9               2.95  -0.002   -0.00    0.00    0.00
   10              21.02   0.000   -0.00    0.00    0.00
   11               4.10  -0.003   -0.01    0.00    0.00
   12              12.80  -0.000   -0.00    0.00    0.00
   13               4.88  -0.003   -0.00    0.00    0.00
   14               4.02  -0.003   -0.01    0.00    0.00
   15               0.00   0.000    0.00    0.00    0.00
   16               0.00   0.000    0.00    0.00    0.00
   17              18.39  -0.003   -0.01    0.00    0.00
   18              13.42  -0.002   -0.00    0.00    0.00
   19               0.47   0.000   -0.00    0.00    0.00
   20              19.21   0.003   -0.00    0.00    0.00
   21               4.80  -0.004   -0.01    0.00    0.00
   22               0.00   0.000    0.00    0.00    0.00
   23               6.81  -0.008   -0.02    0.00    0.00
   24               0.00   0.000    0.00    0.00    0.00
   25               6.06  -0.005   -0.01    0.00    0.00
   26               0.00   0.000    0.00    0.00    0.00
   27               7.14  -0.003   -0.01    0.00    0.00
   28               7.32  -0.003   -0.01    0.00    0.00
 Added spheres:    79.20   0.031   -0.15    0.00    0.00
 --------------------------------------------------------------------
 After PCM corrections, the energy is  -466.866345584     a.u.
 --------------------------------------------------------------------
 Leave Link  502 at Tue Sep 15 22:48:19 2020, MaxMem=  6442450944 cpu:             638.8 elap:              29.4
0******************
 *Kjob Termination*
 *  in Link    502*
 ******************
 Job cpu time:       0 days  0 hours 11 minutes 19.0 seconds.
 Elapsed time:       0 days  0 hours  0 minutes 31.4 seconds.
 File lengths (MBytes):  RWF=    394 Int=      0 D2E=      0 Chk=      2 Scr=      1
 Normal termination of Gaussian 16 at Tue Sep 15 22:48:19 2020.
 Initial command:
 /scratch/scicomp/CentOS/7.3.1611/Haswell/software/Gaussian/g16/l1.exe "/scratch/bochen/test/xppcm/tmp/Gau-395631.inp" -scrdir="/scratch/bochen/test/xppcm/tmp/"
 Entering Link 1 = /scratch/scicomp/CentOS/7.3.1611/Haswell/software/Gaussian/g16/l1.exe PID=    396170.
  
 Copyright (c) 1988-2017, Gaussian, Inc.  All Rights Reserved.
  
 This is part of the Gaussian(R) 16 program.  It is based on
 the Gaussian(R) 09 system (copyright 2009, Gaussian, Inc.),
 the Gaussian(R) 03 system (copyright 2003, Gaussian, Inc.),
 the Gaussian(R) 98 system (copyright 1998, Gaussian, Inc.),
 the Gaussian(R) 94 system (copyright 1995, Gaussian, Inc.),
 the Gaussian 92(TM) system (copyright 1992, Gaussian, Inc.),
 the Gaussian 90(TM) system (copyright 1990, Gaussian, Inc.),
 the Gaussian 88(TM) system (copyright 1988, Gaussian, Inc.),
 the Gaussian 86(TM) system (copyright 1986, Carnegie Mellon
 University), and the Gaussian 82(TM) system (copyright 1983,
 Carnegie Mellon University). Gaussian is a federally registered
 trademark of Gaussian, Inc.
  
 This software contains proprietary and confidential information,
 including trade secrets, belonging to Gaussian, Inc.
  
 This software is provided under written license and may be
 used, copied, transmitted, or stored only in accord with that
 written license.
  
 The following legend is applicable only to US Government
 contracts under FAR:
  
                    RESTRICTED RIGHTS LEGEND
  
 Use, reproduction and disclosure by the US Government is
 subject to restrictions as set forth in subparagraphs (a)
 and (c) of the Commercial Computer Software - Restricted
 Rights clause in FAR 52.227-19.
  
 Gaussian, Inc.
 340 Quinnipiac St., Bldg. 40, Wallingford CT 06492
  
  
 ---------------------------------------------------------------
 Warning -- This program may not be used in any manner that
 competes with the business of Gaussian, Inc. or will provide
 assistance to any competitor of Gaussian, Inc.  The licensee
 of this program is prohibited from giving any competitor of
 Gaussian, Inc. access to this program.  By using this program,
 the user acknowledges that Gaussian, Inc. is engaged in the
 business of creating and licensing software in the field of
 computational chemistry and represents and warrants to the
 licensee that it is not a competitor of Gaussian, Inc. and that
 it will not use this program in any manner prohibited above.
 ---------------------------------------------------------------
  

 Cite this work as:
 Gaussian 16, Revision B.01,
 M. J. Frisch, G. W. Trucks, H. B. Schlegel, G. E. Scuseria, 
 M. A. Robb, J. R. Cheeseman, G. Scalmani, V. Barone, 
 G. A. Petersson, H. Nakatsuji, X. Li, M. Caricato, A. V. Marenich, 
 J. Bloino, B. G. Janesko, R. Gomperts, B. Mennucci, H. P. Hratchian, 
 J. V. Ortiz, A. F. Izmaylov, J. L. Sonnenberg, D. Williams-Young, 
 F. Ding, F. Lipparini, F. Egidi, J. Goings, B. Peng, A. Petrone, 
 T. Henderson, D. Ranasinghe, V. G. Zakrzewski, J. Gao, N. Rega, 
 G. Zheng, W. Liang, M. Hada, M. Ehara, K. Toyota, R. Fukuda, 
 J. Hasegawa, M. Ishida, T. Nakajima, Y. Honda, O. Kitao, H. Nakai, 
 T. Vreven, K. Throssell, J. A. Montgomery, Jr., J. E. Peralta, 
 F. Ogliaro, M. J. Bearpark, J. J. Heyd, E. N. Brothers, K. N. Kudin, 
 V. N. Staroverov, T. A. Keith, R. Kobayashi, J. Normand, 
 K. Raghavachari, A. P. Rendell, J. C. Burant, S. S. Iyengar, 
 J. Tomasi, M. Cossi, J. M. Millam, M. Klene, C. Adamo, R. Cammi, 
 J. W. Ochterski, R. L. Martin, K. Morokuma, O. Farkas, 
 J. B. Foresman, and D. J. Fox, Gaussian, Inc., Wallingford CT, 2016.
 
 ******************************************
 Gaussian 16:  ES64L-G16RevB.01 20-Dec-2017
                15-Sep-2020 
 ******************************************
 %kjob l502
 kjob at link  502 occurrence number     1
 %chk=structure-3-Ger.chk
 %nproc=24
 Will use up to   24 processors via shared memory.
 %mem=48gb
 ---------------------------------------------------------------------
 #p b3lyp 6-31g* # scrf=(iefpcm,solvent=cyclohexane,read) nosym 6d 10f
 ---------------------------------------------------------------------
 1/38=1,40=2,172=1/1;
 2/12=2,15=1,17=6,18=5,40=1/2;
 3/5=1,6=6,7=1,8=22,11=2,25=1,30=1,70=2203,72=17,74=-5/1,2,3;
 4//1;
 5/5=2,38=5,53=17/2;
 6/7=2,8=2,9=2,10=2,28=1/1;
 99/5=1,9=1/99;
 Leave Link    1 at Tue Sep 15 22:48:19 2020, MaxMem=  6442450944 cpu:               1.5 elap:               0.1
 (Enter /scratch/scicomp/CentOS/7.3.1611/Haswell/software/Gaussian/g16/l101.exe)
 -----
 title
 -----
 Symbolic Z-matrix:
 Charge =  0 Multiplicity = 1
 C                    -2.45453  -0.62092   0.45008 
 C                    -2.42912   0.86019   0.1779 
 C                    -1.41169   1.4535   -0.45201 
 C                    -0.14415   0.76155  -0.89234 
 C                    -0.18563  -0.80161  -0.78974 
 C                    -1.60418  -1.37095  -0.58512 
 H                    -1.44621   2.52885  -0.63209 
 H                    -3.28202   1.45434   0.50376 
 H                    -2.09265  -0.82207   1.46908 
 H                    -3.48692  -0.9942    0.41876 
 H                     0.05753   1.04783  -1.93573 
 H                     0.16923  -1.20768  -1.74683 
 H                    -2.1324   -1.31836  -1.54632 
 H                    -1.53453  -2.43626  -0.32713 
 C                     0.71664  -0.47071   1.55197 
 C                     0.8629   -1.26498   0.27443 
 H                     0.54992  -0.9551    2.51117 
 H                     0.76631  -2.34332   0.4439 
 C                     2.26764  -0.93522  -0.30752 
 H                     3.03946  -1.25934   0.39855 
 H                     2.42424  -1.49829  -1.23615 
 C                     0.84359   0.852     1.39279 
 H                     0.78015   1.57224   2.20412 
 C                     1.06814   1.28106  -0.03906 
 H                     1.14698   2.36935  -0.13676 
 C                     2.35954   0.59461  -0.56352 
 H                     3.23326   1.02347  -0.06134 
 H                     2.47277   0.80746  -1.63414 
 
 ITRead=  0  0  0  0  0  0  0  0  0  0  0  0  0  0  0  0  0  0  0  0
 ITRead=  0  0  0  0  0  0  0  0
 MicOpt= -1 -1 -1 -1 -1 -1 -1 -1 -1 -1 -1 -1 -1 -1 -1 -1 -1 -1 -1 -1
 MicOpt= -1 -1 -1 -1 -1 -1 -1 -1
 NAtoms=     28 NQM=       28 NQMF=       0 NMMI=      0 NMMIF=      0
                NMic=       0 NMicF=      0.
                    Isotopes and Nuclear Properties:
 (Nuclear quadrupole moments (NQMom) in fm**2, nuclear magnetic moments (NMagM)
  in nuclear magnetons)

  Atom         1           2           3           4           5           6           7           8           9          10
 IAtWgt=          12          12          12          12          12          12           1           1           1           1
 AtmWgt=  12.0000000  12.0000000  12.0000000  12.0000000  12.0000000  12.0000000   1.0078250   1.0078250   1.0078250   1.0078250
 NucSpn=           0           0           0           0           0           0           1           1           1           1
 AtZEff=  -0.0000000  -0.0000000  -0.0000000  -0.0000000  -0.0000000  -0.0000000  -0.0000000  -0.0000000  -0.0000000  -0.0000000
 NQMom=    0.0000000   0.0000000   0.0000000   0.0000000   0.0000000   0.0000000   0.0000000   0.0000000   0.0000000   0.0000000
 NMagM=    0.0000000   0.0000000   0.0000000   0.0000000   0.0000000   0.0000000   2.7928460   2.7928460   2.7928460   2.7928460
 AtZNuc=   6.0000000   6.0000000   6.0000000   6.0000000   6.0000000   6.0000000   1.0000000   1.0000000   1.0000000   1.0000000

  Atom        11          12          13          14          15          16          17          18          19          20
 IAtWgt=           1           1           1           1          12          12           1           1          12           1
 AtmWgt=   1.0078250   1.0078250   1.0078250   1.0078250  12.0000000  12.0000000   1.0078250   1.0078250  12.0000000   1.0078250
 NucSpn=           1           1           1           1           0           0           1           1           0           1
 AtZEff=  -0.0000000  -0.0000000  -0.0000000  -0.0000000  -0.0000000  -0.0000000  -0.0000000  -0.0000000  -0.0000000  -0.0000000
 NQMom=    0.0000000   0.0000000   0.0000000   0.0000000   0.0000000   0.0000000   0.0000000   0.0000000   0.0000000   0.0000000
 NMagM=    2.7928460   2.7928460   2.7928460   2.7928460   0.0000000   0.0000000   2.7928460   2.7928460   0.0000000   2.7928460
 AtZNuc=   1.0000000   1.0000000   1.0000000   1.0000000   6.0000000   6.0000000   1.0000000   1.0000000   6.0000000   1.0000000

  Atom        21          22          23          24          25          26          27          28
 IAtWgt=           1          12           1          12           1          12           1           1
 AtmWgt=   1.0078250  12.0000000   1.0078250  12.0000000   1.0078250  12.0000000   1.0078250   1.0078250
 NucSpn=           1           0           1           0           1           0           1           1
 AtZEff=  -0.0000000  -0.0000000  -0.0000000  -0.0000000  -0.0000000  -0.0000000  -0.0000000  -0.0000000
 NQMom=    0.0000000   0.0000000   0.0000000   0.0000000   0.0000000   0.0000000   0.0000000   0.0000000
 NMagM=    2.7928460   0.0000000   2.7928460   0.0000000   2.7928460   0.0000000   2.7928460   2.7928460
 AtZNuc=   1.0000000   6.0000000   1.0000000   6.0000000   1.0000000   6.0000000   1.0000000   1.0000000
 Leave Link  101 at Tue Sep 15 22:48:19 2020, MaxMem=  6442450944 cpu:               2.8 elap:               0.2
 (Enter /scratch/scicomp/CentOS/7.3.1611/Haswell/software/Gaussian/g16/l202.exe)
                          Input orientation:                          
 ---------------------------------------------------------------------
 Center     Atomic      Atomic             Coordinates (Angstroms)
 Number     Number       Type             X           Y           Z
 ---------------------------------------------------------------------
      1          6           0       -2.454531   -0.620920    0.450078
      2          6           0       -2.429115    0.860192    0.177901
      3          6           0       -1.411688    1.453495   -0.452012
      4          6           0       -0.144149    0.761548   -0.892337
      5          6           0       -0.185628   -0.801613   -0.789740
      6          6           0       -1.604183   -1.370946   -0.585116
      7          1           0       -1.446210    2.528854   -0.632087
      8          1           0       -3.282020    1.454343    0.503764
      9          1           0       -2.092649   -0.822074    1.469083
     10          1           0       -3.486923   -0.994204    0.418758
     11          1           0        0.057528    1.047828   -1.935726
     12          1           0        0.169231   -1.207683   -1.746829
     13          1           0       -2.132404   -1.318363   -1.546324
     14          1           0       -1.534534   -2.436262   -0.327132
     15          6           0        0.716641   -0.470708    1.551966
     16          6           0        0.862900   -1.264979    0.274427
     17          1           0        0.549920   -0.955102    2.511169
     18          1           0        0.766306   -2.343321    0.443899
     19          6           0        2.267636   -0.935217   -0.307517
     20          1           0        3.039458   -1.259338    0.398554
     21          1           0        2.424242   -1.498287   -1.236154
     22          6           0        0.843594    0.852001    1.392785
     23          1           0        0.780145    1.572240    2.204115
     24          6           0        1.068138    1.281056   -0.039061
     25          1           0        1.146978    2.369349   -0.136763
     26          6           0        2.359537    0.594607   -0.563515
     27          1           0        3.233257    1.023470   -0.061341
     28          1           0        2.472773    0.807458   -1.634143
 ---------------------------------------------------------------------
                    Distance matrix (angstroms):
                    1          2          3          4          5
     1  C    0.000000
     2  C    1.506127   0.000000
     3  C    2.490880   1.335648   0.000000
     4  C    3.008515   2.525116   1.509746   0.000000
     5  C    2.591856   2.954853   2.588976   1.567073   0.000000
     6  C    1.535336   2.498136   2.834120   2.602617   1.542177
     7  H    3.479780   2.099194   1.090878   2.210535   3.564538
     8  H    2.234801   1.089334   2.100393   3.503612   4.043530
     9  H    1.099906   2.147179   3.054919   3.446856   2.956253
    10  H    1.098251   2.148431   3.325067   3.996971   3.520811
    11  H    3.845416   3.268948   2.127103   1.100586   2.189256
    12  H    3.472005   3.838241   3.355253   2.169386   1.098561
    13  H    2.139115   2.794117   3.065966   2.950743   2.151601
    14  H    2.178512   3.452817   3.893699   3.532508   2.169247
    15  C    3.360514   3.681729   3.499753   2.869500   2.531240
    16  C    3.383935   3.919570   3.618227   2.546036   1.564152
    17  H    3.658757   4.196913   4.292981   3.874593   3.385349
    18  H    3.652464   4.532545   4.467900   3.500667   2.192010
    19  C    4.792869   5.051593   4.389106   3.006282   2.503776
    20  H    5.531198   5.869104   5.281631   3.985691   3.467382
    21  H    5.235989   5.578266   4.903290   3.438269   2.737894
    22  C    3.733071   3.490936   2.975125   2.491104   2.925261
    23  H    4.283658   3.861594   3.445757   3.331600   3.940947
    24  C    4.033109   3.529161   2.519881   1.570862   2.544201
    25  H    4.717728   3.894228   2.735862   2.196116   3.501031
    26  C    5.067556   4.852981   3.869400   2.530699   2.911782
    27  H    5.942769   5.669775   4.681139   3.487983   3.943383
    28  H    5.537379   5.226355   4.111427   2.720416   3.220128
                    6          7          8          9         10
     6  C    0.000000
     7  H    3.903281   0.000000
     8  H    3.461655   2.411417   0.000000
     9  H    2.181649   4.007682   2.743815   0.000000
    10  H    2.166658   4.204845   2.458576   1.754084   0.000000
    11  H    3.230464   2.480754   4.155592   4.439878   4.719812
    12  H    2.126318   4.220664   4.905373   3.950555   4.254739
    13  H    1.098045   4.013449   3.634883   3.056233   2.408599
    14  H    1.098319   4.975256   4.345216   2.478605   2.539233
    15  C    3.280819   4.294809   4.560026   2.832391   4.384992
    16  C    2.614678   4.532872   4.962627   3.218484   4.360632
    17  H    3.794742   5.099269   4.951653   2.843732   4.547067
    18  H    2.761087   5.458119   5.551106   3.396884   4.462141
    19  C    3.906137   5.088987   6.096463   4.709692   5.800509
    20  H    4.747996   5.961026   6.880132   5.260775   6.531796
    21  H    4.082680   5.618110   6.656333   5.308284   6.159116
    22  C    3.852947   3.486423   4.263082   3.380809   4.807346
    23  H    4.703953   3.730390   4.405256   3.811293   5.289802
    24  C    3.804286   2.868907   4.387318   4.085123   5.112239
    25  H    4.664731   2.644884   4.567662   4.822769   5.752837
    26  C    4.424358   4.269628   5.805635   5.095135   6.137612
    27  H    5.422951   4.948671   6.553917   5.840677   7.032946
    28  H    4.739986   4.396106   6.173066   5.755733   6.555789
                   11         12         13         14         15
    11  H    0.000000
    12  H    2.266162   0.000000
    13  H    3.247506   2.313002   0.000000
    14  H    4.154650   2.535303   1.758856   0.000000
    15  C    3.860619   3.424155   4.293597   3.530184   0.000000
    16  C    3.298860   2.137741   3.505685   2.735227   1.511411
    17  H    4.901944   4.282437   4.877507   3.820306   1.087430
    18  H    4.202960   2.538791   3.662519   2.428372   2.176455
    19  C    3.386460   2.559133   4.587134   4.087789   2.465569
    20  H    4.434387   3.583788   5.525775   4.778407   2.710678
    21  H    3.545904   2.330303   4.570733   4.168696   3.427161
    22  C    3.425673   3.815002   4.712261   4.407525   1.338288
    23  H    4.235029   4.869409   5.559165   5.275703   2.145453
    24  C    2.161728   3.149338   4.390022   4.547014   2.392403
    25  H    2.483865   4.042704   5.132293   5.506418   3.332104
    26  C    2.718017   3.073422   4.980251   4.940226   2.882579
    27  H    3.687705   4.148152   6.039841   5.896798   3.341958
    28  H    2.445841   3.062645   5.072917   5.318694   3.856034
                   16         17         18         19         20
    16  C    0.000000
    17  H    2.279692   0.000000
    18  H    1.095843   2.499516   0.000000
    19  C    1.555855   3.300899   2.191204   0.000000
    20  H    2.180102   3.279253   2.518788   1.095126   0.000000
    21  H    2.184966   4.224993   2.507072   1.097242   1.762912
    22  C    2.394306   2.145378   3.334133   2.848345   3.204382
    23  H    3.432252   2.556314   4.293037   3.848151   4.047515
    24  C    2.573459   3.431126   3.668850   2.534311   3.245183
    25  H    3.668531   4.291852   4.763543   3.493592   4.127398
    26  C    2.529848   3.889729   3.490657   1.553815   2.196584
    27  H    3.311847   4.211039   4.204331   2.197608   2.336723
    28  H    3.244892   4.897713   4.142185   2.199758   2.953749
                   21         22         23         24         25
    21  H    0.000000
    22  C    3.864404   0.000000
    23  H    4.895574   1.086750   0.000000
    24  C    3.316142   1.511519   2.280256   0.000000
    25  H    4.218847   2.175754   2.499932   1.095510   0.000000
    26  C    2.199281   2.488261   3.333170   1.553697   2.191375
    27  H    2.897231   2.802565   3.383962   2.180502   2.483876
    28  H    2.340344   3.437805   4.264048   2.177517   2.537594
                   26         27         28
    26  C    0.000000
    27  H    1.095212   0.000000
    28  H    1.097439   1.760313   0.000000
 Symmetry turned off by external request.
 Stoichiometry    C12H16
 Framework group  C1[X(C12H16)]
 Deg. of freedom    78
 Full point group                 C1      NOp   1
 Rotational constants (GHZ):           1.7166404           0.9213692           0.8182222
 Leave Link  202 at Tue Sep 15 22:48:19 2020, MaxMem=  6442450944 cpu:               1.3 elap:               0.1
 (Enter /scratch/scicomp/CentOS/7.3.1611/Haswell/software/Gaussian/g16/l301.exe)
 Standard basis: 6-31G(d) (6D, 10F)
 Ernie: Thresh=  0.10000D-02 Tol=  0.10000D-05 Strict=F.
   212 basis functions,   400 primitive gaussians,   212 cartesian basis functions
    44 alpha electrons       44 beta electrons
       nuclear repulsion energy       737.1159722346 Hartrees.
 IExCor=  402 DFT=T Ex+Corr=B3LYP ExCW=0 ScaHFX=  0.200000
 ScaDFX=  0.800000  0.720000  1.000000  0.810000 ScalE2=  1.000000  1.000000
 IRadAn=      5 IRanWt=     -1 IRanGd=            0 ICorTp=0 IEmpDi=  4
 NAtoms=   28 NActive=   28 NUniq=   28 SFac= 1.00D+00 NAtFMM=   60 NAOKFM=F Big=F
 Integral buffers will be    131072 words long.
 Raffenetti 2 integral format.
 Two-electron integral symmetry is turned off.
 Using the following non-standard input for PCM:
 qrep pcmdoc geomview nodis nocav g03defaults tsare=0.075
 Warning! Using old PCM defaults because the g03defaults keyword was found.
 These settings can be overridden by following keywords.
 nsfe=28
 nvesolv=36 solvmw=84.1595 rsolv=2.815
 eps=2.080846813330181 rhos=0.8797290682554403
 --- end of non-standard input.
 Reading user-defined spheres from input:
 ISph  on   Nord    Re0     Alpha      Xe            Ye            Ze
 --- end of user-defined spheres data.
 ------------------------------------------------------------------------------
 Polarizable Continuum Model (PCM)
 =================================
 Model                : PCM.
 Atomic radii         : UA0 (Simple United Atom Topological Model).
 Polarization charges : Total charges.
 Charge compensation  : None.
 Solution method      : On-the-fly selection.
 Cavity type          : SES (Solvent Excluding Surface) (Alpha=1.000).
 Cavity algorithm     : GePol (RMin=0.200 OFac=0.890).
                        User-defined sphere list used, NSphG=   28.
                        Tesserae with average area of 0.075 Ang**2.
                        Smoothing algorithm: None.
                        Polarization charges: point-like.
                        Self-potential: constant (ISelfS= 1).
                        Self-field    : global E.n sum rule (ISelfD= 3).
 Solvent              : CycloHexane, Eps=   2.080847 Eps(inf)=   2.035188
                        RSolv=   2.815000 Ang.
 ------------------------------------------------------------------------------
 GePol: Number of generator spheres                  =      28
 GePol: Total number of spheres                      =     326
 GePol: Number of exposed spheres                    =     163 ( 50.00%)
 GePol: Number of tesserae                           =    4747
 GePol: Average area of tesserae                     =       0.05 Ang**2
 GePol: Minimum area of tessera                      =   0.10D-02 Ang**2
 GePol: Maximum area of tessera                      =    0.12572 Ang**2
 GePol: Number of small tesserae                     =       0
 GePol: Fraction of small tesserae (<1% of avg)      =       0.00%
 GePol: Total count of vertices                      =   16611
 GePol: Maximum number of vertices in a tessera      =       7
 GePol: Cavity surface area                          =    233.484 Ang**2
 GePol: Cavity volume                                =    276.775 Ang**3
 Leave Link  301 at Tue Sep 15 22:48:20 2020, MaxMem=  6442450944 cpu:              12.0 elap:               0.6
 (Enter /scratch/scicomp/CentOS/7.3.1611/Haswell/software/Gaussian/g16/l302.exe)
 NPDir=0 NMtPBC=     1 NCelOv=     1 NCel=       1 NClECP=     1 NCelD=      1
         NCelK=      1 NCelE2=     1 NClLst=     1 CellRange=     0.0.
 One-electron integrals computed using PRISM.
 NBasis=   212 RedAO= T EigKep=  9.65D-04  NBF=   212
 NBsUse=   212 1.00D-06 EigRej= -1.00D+00 NBFU=   212
 Precomputing XC quadrature grid using
 IXCGrd= 4 IRadAn=           5 IRanWt=          -1 IRanGd=           0 AccXCQ= 0.00D+00.
 Generated NRdTot=       0 NPtTot=           0 NUsed=           0 NTot=          32
 NSgBfM=   212   212   212   212   212 MxSgAt=    28 MxSgA2=    28.
 Leave Link  302 at Tue Sep 15 22:48:21 2020, MaxMem=  6442450944 cpu:              23.9 elap:               1.1
 (Enter /scratch/scicomp/CentOS/7.3.1611/Haswell/software/Gaussian/g16/l303.exe)
 DipDrv:  MaxL=1.
 Leave Link  303 at Tue Sep 15 22:48:21 2020, MaxMem=  6442450944 cpu:               2.5 elap:               0.1
 (Enter /scratch/scicomp/CentOS/7.3.1611/Haswell/software/Gaussian/g16/l401.exe)
 ExpMin= 1.61D-01 ExpMax= 3.05D+03 ExpMxC= 4.57D+02 IAcc=3 IRadAn=         5 AccDes= 0.00D+00
 Harris functional with IExCor=  402 and IRadAn=       5 diagonalized for initial guess.
 HarFok:  IExCor=  402 AccDes= 0.00D+00 IRadAn=         5 IDoV= 1 UseB2=F ITyADJ=14
 ICtDFT=  3500011 ScaDFX=  1.000000  1.000000  1.000000  1.000000
 FoFCou: FMM=F IPFlag=           0 FMFlag=      100000 FMFlg1=           0
         NFxFlg=           0 DoJE=T BraDBF=F KetDBF=T FulRan=T
         wScrn=  0.000000 ICntrl=       500 IOpCl=  0 I1Cent=   200000004 NGrid=           0
         NMat0=    1 NMatS0=      1 NMatT0=    0 NMatD0=    1 NMtDS0=    0 NMtDT0=    0
 Symmetry not used in FoFCou.
 Harris En= -466.914939552471    
 JPrj=0 DoOrth=F DoCkMO=F.
 Leave Link  401 at Tue Sep 15 22:48:22 2020, MaxMem=  6442450944 cpu:              14.0 elap:               0.6
 (Enter /scratch/scicomp/CentOS/7.3.1611/Haswell/software/Gaussian/g16/l502.exe)
 Two-electron integral symmetry not used.
 Closed shell SCF:
 Using DIIS extrapolation, IDIIS=  1040.
 NGot=  6442450944 LenX=  6442353874 LenY=  6442308489
 Requested convergence on RMS density matrix=1.00D-08 within 128 cycles.
 Requested convergence on MAX density matrix=1.00D-06.
 Requested convergence on             energy=1.00D-06.
 No special actions if energy rises.
 Fock matrices will be formed incrementally for  20 cycles.

 Cycle   1  Pass 1  IDiag  1:
 FoFJK:  IHMeth= 1 ICntrl=       0 DoSepK=F KAlg= 0 I1Cent=           0 FoldK=F
 IRaf= 960000000 NMat=       1 IRICut=       1 DoRegI=T DoRafI=F ISym2E= 0 IDoP0=0 IntGTp=1.
 FoFCou: FMM=F IPFlag=           0 FMFlag=      100000 FMFlg1=           0
         NFxFlg=           0 DoJE=F BraDBF=F KetDBF=F FulRan=T
         wScrn=  0.000000 ICntrl=         0 IOpCl=  0 I1Cent=           0 NGrid=           0
         NMat0=    1 NMatS0=      1 NMatT0=    0 NMatD0=    1 NMtDS0=    0 NMtDT0=    0
 Symmetry not used in FoFCou.
 Inv3:  Mode=1 IEnd=    67602027.
 Iteration    1 A*A^-1 deviation from unit magnitude is 3.44D-15 for   1114.
 Iteration    1 A*A^-1 deviation from orthogonality  is 2.00D-15 for   2437   1878.
 Iteration    1 A^-1*A deviation from unit magnitude is 3.89D-15 for   1114.
 Iteration    1 A^-1*A deviation from orthogonality  is 2.18D-15 for   1317    475.
 E= -466.526370559872    
 DIIS: error= 2.19D-02 at cycle   1 NSaved=   1.
 NSaved= 1 IEnMin= 1 EnMin= -466.526370559872     IErMin= 1 ErrMin= 2.19D-02
 ErrMax= 2.19D-02  0.00D+00 EMaxC= 1.00D-01 BMatC= 3.02D-01 BMatP= 3.02D-01
 IDIUse=3 WtCom= 7.81D-01 WtEn= 2.19D-01
 Coeff-Com:  0.100D+01
 Coeff-En:   0.100D+01
 Coeff:      0.100D+01
 Gap=     0.263 Goal=   None    Shift=    0.000
 GapD=    0.263 DampG=1.000 DampE=0.500 DampFc=0.5000 IDamp=-1.
 Damping current iteration by 5.00D-01
 RMSDP=7.01D-03 MaxDP=1.60D-01              OVMax= 1.62D-01

 Cycle   2  Pass 1  IDiag  1:
 RMSU=  3.46D-03    CP:  9.74D-01
 E= -466.666442412244     Delta-E=       -0.140071852372 Rises=F Damp=T
 DIIS: error= 7.81D-03 at cycle   2 NSaved=   2.
 NSaved= 2 IEnMin= 2 EnMin= -466.666442412244     IErMin= 2 ErrMin= 7.81D-03
 ErrMax= 7.81D-03  0.00D+00 EMaxC= 1.00D-01 BMatC= 2.39D-02 BMatP= 3.02D-01
 IDIUse=3 WtCom= 9.22D-01 WtEn= 7.81D-02
 Coeff-Com:  0.937D-01 0.906D+00
 Coeff-En:   0.160D+00 0.840D+00
 Coeff:      0.989D-01 0.901D+00
 Gap=     0.293 Goal=   None    Shift=    0.000
 RMSDP=2.07D-03 MaxDP=3.54D-02 DE=-1.40D-01 OVMax= 1.01D-01

 Cycle   3  Pass 1  IDiag  1:
 RMSU=  1.77D-03    CP:  9.70D-01  6.90D-01
 E= -466.857426226837     Delta-E=       -0.190983814593 Rises=F Damp=F
 DIIS: error= 3.85D-03 at cycle   3 NSaved=   3.
 NSaved= 3 IEnMin= 3 EnMin= -466.857426226837     IErMin= 3 ErrMin= 3.85D-03
 ErrMax= 3.85D-03  0.00D+00 EMaxC= 1.00D-01 BMatC= 8.12D-03 BMatP= 2.39D-02
 IDIUse=3 WtCom= 9.62D-01 WtEn= 3.85D-02
 Coeff-Com: -0.143D-01 0.347D+00 0.668D+00
 Coeff-En:   0.000D+00 0.000D+00 0.100D+01
 Coeff:     -0.138D-01 0.333D+00 0.680D+00
 Gap=     0.261 Goal=   None    Shift=    0.000
 RMSDP=7.61D-04 MaxDP=1.55D-02 DE=-1.91D-01 OVMax= 1.63D-02

 Cycle   4  Pass 1  IDiag  1:
 RMSU=  4.39D-04    CP:  9.70D-01  7.86D-01  7.02D-01
 E= -466.863683753985     Delta-E=       -0.006257527148 Rises=F Damp=F
 DIIS: error= 1.55D-03 at cycle   4 NSaved=   4.
 NSaved= 4 IEnMin= 4 EnMin= -466.863683753985     IErMin= 4 ErrMin= 1.55D-03
 ErrMax= 1.55D-03  0.00D+00 EMaxC= 1.00D-01 BMatC= 1.25D-03 BMatP= 8.12D-03
 IDIUse=3 WtCom= 9.85D-01 WtEn= 1.55D-02
 Coeff-Com: -0.131D-01 0.935D-01 0.321D+00 0.598D+00
 Coeff-En:   0.000D+00 0.000D+00 0.631D-01 0.937D+00
 Coeff:     -0.129D-01 0.921D-01 0.317D+00 0.603D+00
 Gap=     0.258 Goal=   None    Shift=    0.000
 RMSDP=2.43D-04 MaxDP=5.94D-03 DE=-6.26D-03 OVMax= 1.18D-02

 Cycle   5  Pass 1  IDiag  1:
 RMSU=  1.41D-04    CP:  9.70D-01  7.71D-01  7.61D-01  6.34D-01
 E= -466.864745652185     Delta-E=       -0.001061898200 Rises=F Damp=F
 DIIS: error= 6.02D-04 at cycle   5 NSaved=   5.
 NSaved= 5 IEnMin= 5 EnMin= -466.864745652185     IErMin= 5 ErrMin= 6.02D-04
 ErrMax= 6.02D-04  0.00D+00 EMaxC= 1.00D-01 BMatC= 1.63D-04 BMatP= 1.25D-03
 IDIUse=3 WtCom= 9.94D-01 WtEn= 6.02D-03
 Coeff-Com: -0.527D-02 0.129D-01 0.909D-01 0.320D+00 0.581D+00
 Coeff-En:   0.000D+00 0.000D+00 0.000D+00 0.826D-01 0.917D+00
 Coeff:     -0.523D-02 0.129D-01 0.904D-01 0.319D+00 0.583D+00
 Gap=     0.256 Goal=   None    Shift=    0.000
 RMSDP=7.48D-05 MaxDP=2.71D-03 DE=-1.06D-03 OVMax= 6.23D-03

 Cycle   6  Pass 1  IDiag  1:
 RMSU=  3.11D-05    CP:  9.69D-01  7.74D-01  7.61D-01  7.07D-01  5.80D-01
 E= -466.864896715226     Delta-E=       -0.000151063040 Rises=F Damp=F
 DIIS: error= 2.08D-04 at cycle   6 NSaved=   6.
 NSaved= 6 IEnMin= 6 EnMin= -466.864896715226     IErMin= 6 ErrMin= 2.08D-04
 ErrMax= 2.08D-04  0.00D+00 EMaxC= 1.00D-01 BMatC= 1.59D-05 BMatP= 1.63D-04
 IDIUse=3 WtCom= 9.98D-01 WtEn= 2.08D-03
 Coeff-Com: -0.274D-02 0.439D-02 0.438D-01 0.176D+00 0.365D+00 0.413D+00
 Coeff-En:   0.000D+00 0.000D+00 0.000D+00 0.000D+00 0.000D+00 0.100D+01
 Coeff:     -0.274D-02 0.438D-02 0.437D-01 0.176D+00 0.365D+00 0.414D+00
 Gap=     0.257 Goal=   None    Shift=    0.000
 RMSDP=1.83D-05 MaxDP=1.03D-03 DE=-1.51D-04 OVMax= 2.01D-03

 Cycle   7  Pass 1  IDiag  1:
 RMSU=  7.77D-06    CP:  9.69D-01  7.74D-01  7.61D-01  7.08D-01  6.11D-01
                    CP:  4.86D-01
 E= -466.864912755099     Delta-E=       -0.000016039873 Rises=F Damp=F
 DIIS: error= 1.80D-05 at cycle   7 NSaved=   7.
 NSaved= 7 IEnMin= 7 EnMin= -466.864912755099     IErMin= 7 ErrMin= 1.80D-05
 ErrMax= 1.80D-05  0.00D+00 EMaxC= 1.00D-01 BMatC= 2.00D-07 BMatP= 1.59D-05
 IDIUse=1 WtCom= 1.00D+00 WtEn= 0.00D+00
 Coeff-Com: -0.582D-03 0.534D-03 0.893D-02 0.407D-01 0.903D-01 0.149D+00
 Coeff-Com:  0.711D+00
 Coeff:     -0.582D-03 0.534D-03 0.893D-02 0.407D-01 0.903D-01 0.149D+00
 Coeff:      0.711D+00
 Gap=     0.257 Goal=   None    Shift=    0.000
 RMSDP=3.26D-06 MaxDP=1.00D-04 DE=-1.60D-05 OVMax= 2.12D-04

 Cycle   8  Pass 1  IDiag  1:
 RMSU=  2.29D-06    CP:  9.69D-01  7.74D-01  7.61D-01  7.08D-01  6.16D-01
                    CP:  5.02D-01  7.40D-01
 E= -466.864912899327     Delta-E=       -0.000000144228 Rises=F Damp=F
 DIIS: error= 1.06D-05 at cycle   8 NSaved=   8.
 NSaved= 8 IEnMin= 8 EnMin= -466.864912899327     IErMin= 8 ErrMin= 1.06D-05
 ErrMax= 1.06D-05  0.00D+00 EMaxC= 1.00D-01 BMatC= 5.43D-08 BMatP= 2.00D-07
 IDIUse=1 WtCom= 1.00D+00 WtEn= 0.00D+00
 Coeff-Com: -0.108D-03-0.677D-04 0.149D-02 0.895D-02 0.218D-01 0.520D-01
 Coeff-Com:  0.404D+00 0.512D+00
 Coeff:     -0.108D-03-0.677D-04 0.149D-02 0.895D-02 0.218D-01 0.520D-01
 Coeff:      0.404D+00 0.512D+00
 Gap=     0.257 Goal=   None    Shift=    0.000
 RMSDP=1.30D-06 MaxDP=7.32D-05 DE=-1.44D-07 OVMax= 1.41D-04

 Cycle   9  Pass 1  IDiag  1:
 RMSU=  8.52D-07    CP:  9.69D-01  7.74D-01  7.62D-01  7.08D-01  6.16D-01
                    CP:  5.02D-01  7.86D-01  6.03D-01
 E= -466.864912947956     Delta-E=       -0.000000048629 Rises=F Damp=F
 DIIS: error= 4.05D-06 at cycle   9 NSaved=   9.
 NSaved= 9 IEnMin= 9 EnMin= -466.864912947956     IErMin= 9 ErrMin= 4.05D-06
 ErrMax= 4.05D-06  0.00D+00 EMaxC= 1.00D-01 BMatC= 6.20D-09 BMatP= 5.43D-08
 IDIUse=1 WtCom= 1.00D+00 WtEn= 0.00D+00
 Coeff-Com:  0.105D-04-0.108D-03-0.294D-03 0.354D-04 0.104D-02 0.110D-01
 Coeff-Com:  0.140D+00 0.296D+00 0.553D+00
 Coeff:      0.105D-04-0.108D-03-0.294D-03 0.354D-04 0.104D-02 0.110D-01
 Coeff:      0.140D+00 0.296D+00 0.553D+00
 Gap=     0.257 Goal=   None    Shift=    0.000
 RMSDP=4.70D-07 MaxDP=2.10D-05 DE=-4.86D-08 OVMax= 4.52D-05

 Cycle  10  Pass 1  IDiag  1:
 RMSU=  2.61D-07    CP:  9.69D-01  7.74D-01  7.62D-01  7.08D-01  6.15D-01
                    CP:  5.05D-01  7.96D-01  6.38D-01  5.88D-01
 E= -466.864912954078     Delta-E=       -0.000000006122 Rises=F Damp=F
 DIIS: error= 7.76D-07 at cycle  10 NSaved=  10.
 NSaved=10 IEnMin=10 EnMin= -466.864912954078     IErMin=10 ErrMin= 7.76D-07
 ErrMax= 7.76D-07  0.00D+00 EMaxC= 1.00D-01 BMatC= 4.11D-10 BMatP= 6.20D-09
 IDIUse=1 WtCom= 1.00D+00 WtEn= 0.00D+00
 Coeff-Com:  0.124D-04-0.455D-04-0.266D-03-0.674D-03-0.122D-02 0.141D-02
 Coeff-Com:  0.369D-01 0.106D+00 0.281D+00 0.577D+00
 Coeff:      0.124D-04-0.455D-04-0.266D-03-0.674D-03-0.122D-02 0.141D-02
 Coeff:      0.369D-01 0.106D+00 0.281D+00 0.577D+00
 Gap=     0.257 Goal=   None    Shift=    0.000
 RMSDP=1.13D-07 MaxDP=4.42D-06 DE=-6.12D-09 OVMax= 6.77D-06

 Cycle  11  Pass 1  IDiag  1:
 RMSU=  6.65D-08    CP:  9.69D-01  7.74D-01  7.62D-01  7.08D-01  6.15D-01
                    CP:  5.05D-01  7.96D-01  6.43D-01  6.37D-01  7.02D-01
 E= -466.864912954485     Delta-E=       -0.000000000407 Rises=F Damp=F
 DIIS: error= 1.26D-07 at cycle  11 NSaved=  11.
 NSaved=11 IEnMin=11 EnMin= -466.864912954485     IErMin=11 ErrMin= 1.26D-07
 ErrMax= 1.26D-07  0.00D+00 EMaxC= 1.00D-01 BMatC= 1.50D-11 BMatP= 4.11D-10
 IDIUse=1 WtCom= 1.00D+00 WtEn= 0.00D+00
 Coeff-Com:  0.296D-05-0.748D-05-0.725D-04-0.224D-03-0.474D-03-0.183D-03
 Coeff-Com:  0.380D-02 0.176D-01 0.652D-01 0.220D+00 0.695D+00
 Coeff:      0.296D-05-0.748D-05-0.725D-04-0.224D-03-0.474D-03-0.183D-03
 Coeff:      0.380D-02 0.176D-01 0.652D-01 0.220D+00 0.695D+00
 Gap=     0.257 Goal=   None    Shift=    0.000
 RMSDP=2.40D-08 MaxDP=6.93D-07 DE=-4.07D-10 OVMax= 8.06D-07

 Cycle  12  Pass 1  IDiag  1:
 RMSU=  1.57D-08    CP:  9.69D-01  7.74D-01  7.62D-01  7.08D-01  6.15D-01
                    CP:  5.05D-01  7.96D-01  6.46D-01  6.42D-01  7.29D-01
                    CP:  7.74D-01
 E= -466.864912954497     Delta-E=       -0.000000000012 Rises=F Damp=F
 DIIS: error= 3.59D-08 at cycle  12 NSaved=  12.
 NSaved=12 IEnMin=12 EnMin= -466.864912954497     IErMin=12 ErrMin= 3.59D-08
 ErrMax= 3.59D-08  0.00D+00 EMaxC= 1.00D-01 BMatC= 1.18D-12 BMatP= 1.50D-11
 IDIUse=1 WtCom= 1.00D+00 WtEn= 0.00D+00
 Coeff-Com:  0.614D-06-0.104D-05-0.189D-04-0.645D-04-0.148D-03-0.137D-03
 Coeff-Com: -0.683D-04 0.263D-02 0.154D-01 0.685D-01 0.307D+00 0.607D+00
 Coeff:      0.614D-06-0.104D-05-0.189D-04-0.645D-04-0.148D-03-0.137D-03
 Coeff:     -0.683D-04 0.263D-02 0.154D-01 0.685D-01 0.307D+00 0.607D+00
 Gap=     0.257 Goal=   None    Shift=    0.000
 RMSDP=7.39D-09 MaxDP=1.64D-07 DE=-1.23D-11 OVMax= 1.96D-07

 Error on total polarization charges =  0.00581
 SCF Done:  E(RB3LYP) =  -466.864912954     A.U. after   12 cycles
            NFock= 12  Conv=0.74D-08     -V/T= 2.0099
 KE= 4.622755523061D+02 PE=-2.554456425023D+03 EE= 8.881999875281D+02
 --------------------------------------------------------------------
 Variational PCM results
 =======================
 <psi(f)|   H    |psi(f)>                     (a.u.) =    -466.872653
 <psi(f)|H+V(f)/2|psi(f)>                     (a.u.) =    -466.873250
 Total free energy in solution:
 - with all non electrostatic terms           (a.u.) =    -466.864913
 --------------------------------------------------------------------
 (Polarized solute)-Solvent               (kcal/mol) =      -0.37
 --------------------------------------------------------------------
 Quantum repulsion energy                 (kcal/mol) =       5.23
 Total non electrostatic                  (kcal/mol) =       5.23
 --------------------------------------------------------------------
 Partition over spheres:
 Sphere  on Atom  Surface  Charge   GEl     GCav    GDR
    1               0.00   0.000    0.00    0.00    0.00
    2               1.03   0.004   -0.04    0.00    0.00
    3               0.00   0.000    0.00    0.00    0.00
    4               0.00   0.000    0.00    0.00    0.00
    5               0.00   0.000    0.00    0.00    0.00
    6               0.00   0.000    0.00    0.00    0.00
    7               5.38  -0.006   -0.02    0.00    0.00
    8              21.60   0.001   -0.02    0.00    0.00
    9               2.05  -0.002   -0.00    0.00    0.00
   10              20.12   0.001   -0.00    0.00    0.00
   11               4.09  -0.004   -0.01    0.00    0.00
   12              12.48   0.000   -0.00    0.00    0.00
   13               5.54  -0.005   -0.01    0.00    0.00
   14               3.76  -0.003   -0.01    0.00    0.00
   15               0.00   0.000    0.00    0.00    0.00
   16               0.00   0.000    0.00    0.00    0.00
   17              16.46  -0.003   -0.01    0.00    0.00
   18              12.73  -0.002   -0.00    0.00    0.00
   19               0.25   0.000   -0.00    0.00    0.00
   20              16.54   0.003   -0.00    0.00    0.00
   21               4.79  -0.004   -0.01    0.00    0.00
   22               0.00   0.000    0.00    0.00    0.00
   23               7.11  -0.010   -0.03    0.00    0.00
   24               0.00   0.000    0.00    0.00    0.00
   25               5.30  -0.005   -0.02    0.00    0.00
   26               0.00   0.000    0.00    0.00    0.00
   27               6.85  -0.005   -0.01    0.00    0.00
   28               6.31  -0.004   -0.01    0.00    0.00
 Added spheres:    81.11   0.038   -0.19    0.00    0.00
 --------------------------------------------------------------------
 After PCM corrections, the energy is  -466.864912954     a.u.
 --------------------------------------------------------------------
 Leave Link  502 at Tue Sep 15 22:48:51 2020, MaxMem=  6442450944 cpu:             631.9 elap:              29.2
0******************
 *Kjob Termination*
 *  in Link    502*
 ******************
 Job cpu time:       0 days  0 hours 11 minutes 29.9 seconds.
 Elapsed time:       0 days  0 hours  0 minutes 32.0 seconds.
 File lengths (MBytes):  RWF=    414 Int=      0 D2E=      0 Chk=      2 Scr=      1
 Normal termination of Gaussian 16 at Tue Sep 15 22:48:51 2020.
 Initial command:
 /scratch/scicomp/CentOS/7.3.1611/Haswell/software/Gaussian/g16/l1.exe "/scratch/bochen/test/xppcm/tmp/Gau-395631.inp" -scrdir="/scratch/bochen/test/xppcm/tmp/"
 Entering Link 1 = /scratch/scicomp/CentOS/7.3.1611/Haswell/software/Gaussian/g16/l1.exe PID=    396355.
  
 Copyright (c) 1988-2017, Gaussian, Inc.  All Rights Reserved.
  
 This is part of the Gaussian(R) 16 program.  It is based on
 the Gaussian(R) 09 system (copyright 2009, Gaussian, Inc.),
 the Gaussian(R) 03 system (copyright 2003, Gaussian, Inc.),
 the Gaussian(R) 98 system (copyright 1998, Gaussian, Inc.),
 the Gaussian(R) 94 system (copyright 1995, Gaussian, Inc.),
 the Gaussian 92(TM) system (copyright 1992, Gaussian, Inc.),
 the Gaussian 90(TM) system (copyright 1990, Gaussian, Inc.),
 the Gaussian 88(TM) system (copyright 1988, Gaussian, Inc.),
 the Gaussian 86(TM) system (copyright 1986, Carnegie Mellon
 University), and the Gaussian 82(TM) system (copyright 1983,
 Carnegie Mellon University). Gaussian is a federally registered
 trademark of Gaussian, Inc.
  
 This software contains proprietary and confidential information,
 including trade secrets, belonging to Gaussian, Inc.
  
 This software is provided under written license and may be
 used, copied, transmitted, or stored only in accord with that
 written license.
  
 The following legend is applicable only to US Government
 contracts under FAR:
  
                    RESTRICTED RIGHTS LEGEND
  
 Use, reproduction and disclosure by the US Government is
 subject to restrictions as set forth in subparagraphs (a)
 and (c) of the Commercial Computer Software - Restricted
 Rights clause in FAR 52.227-19.
  
 Gaussian, Inc.
 340 Quinnipiac St., Bldg. 40, Wallingford CT 06492
  
  
 ---------------------------------------------------------------
 Warning -- This program may not be used in any manner that
 competes with the business of Gaussian, Inc. or will provide
 assistance to any competitor of Gaussian, Inc.  The licensee
 of this program is prohibited from giving any competitor of
 Gaussian, Inc. access to this program.  By using this program,
 the user acknowledges that Gaussian, Inc. is engaged in the
 business of creating and licensing software in the field of
 computational chemistry and represents and warrants to the
 licensee that it is not a competitor of Gaussian, Inc. and that
 it will not use this program in any manner prohibited above.
 ---------------------------------------------------------------
  

 Cite this work as:
 Gaussian 16, Revision B.01,
 M. J. Frisch, G. W. Trucks, H. B. Schlegel, G. E. Scuseria, 
 M. A. Robb, J. R. Cheeseman, G. Scalmani, V. Barone, 
 G. A. Petersson, H. Nakatsuji, X. Li, M. Caricato, A. V. Marenich, 
 J. Bloino, B. G. Janesko, R. Gomperts, B. Mennucci, H. P. Hratchian, 
 J. V. Ortiz, A. F. Izmaylov, J. L. Sonnenberg, D. Williams-Young, 
 F. Ding, F. Lipparini, F. Egidi, J. Goings, B. Peng, A. Petrone, 
 T. Henderson, D. Ranasinghe, V. G. Zakrzewski, J. Gao, N. Rega, 
 G. Zheng, W. Liang, M. Hada, M. Ehara, K. Toyota, R. Fukuda, 
 J. Hasegawa, M. Ishida, T. Nakajima, Y. Honda, O. Kitao, H. Nakai, 
 T. Vreven, K. Throssell, J. A. Montgomery, Jr., J. E. Peralta, 
 F. Ogliaro, M. J. Bearpark, J. J. Heyd, E. N. Brothers, K. N. Kudin, 
 V. N. Staroverov, T. A. Keith, R. Kobayashi, J. Normand, 
 K. Raghavachari, A. P. Rendell, J. C. Burant, S. S. Iyengar, 
 J. Tomasi, M. Cossi, J. M. Millam, M. Klene, C. Adamo, R. Cammi, 
 J. W. Ochterski, R. L. Martin, K. Morokuma, O. Farkas, 
 J. B. Foresman, and D. J. Fox, Gaussian, Inc., Wallingford CT, 2016.
 
 ******************************************
 Gaussian 16:  ES64L-G16RevB.01 20-Dec-2017
                15-Sep-2020 
 ******************************************
 %kjob l502
 kjob at link  502 occurrence number     1
 %chk=structure-3-Ger.chk
 %nproc=24
 Will use up to   24 processors via shared memory.
 %mem=48gb
 ---------------------------------------------------------------------
 #p b3lyp 6-31g* # scrf=(iefpcm,solvent=cyclohexane,read) nosym 6d 10f
 ---------------------------------------------------------------------
 1/38=1,40=2,172=1/1;
 2/12=2,15=1,17=6,18=5,40=1/2;
 3/5=1,6=6,7=1,8=22,11=2,25=1,30=1,70=2203,72=17,74=-5/1,2,3;
 4//1;
 5/5=2,38=5,53=17/2;
 6/7=2,8=2,9=2,10=2,28=1/1;
 99/5=1,9=1/99;
 Leave Link    1 at Tue Sep 15 22:48:51 2020, MaxMem=  6442450944 cpu:               1.8 elap:               0.1
 (Enter /scratch/scicomp/CentOS/7.3.1611/Haswell/software/Gaussian/g16/l101.exe)
 -----
 title
 -----
 Symbolic Z-matrix:
 Charge =  0 Multiplicity = 1
 C                    -2.45453  -0.62092   0.45008 
 C                    -2.42912   0.86019   0.1779 
 C                    -1.41169   1.4535   -0.45201 
 C                    -0.14415   0.76155  -0.89234 
 C                    -0.18563  -0.80161  -0.78974 
 C                    -1.60418  -1.37095  -0.58512 
 H                    -1.44621   2.52885  -0.63209 
 H                    -3.28202   1.45434   0.50376 
 H                    -2.09265  -0.82207   1.46908 
 H                    -3.48692  -0.9942    0.41876 
 H                     0.05753   1.04783  -1.93573 
 H                     0.16923  -1.20768  -1.74683 
 H                    -2.1324   -1.31836  -1.54632 
 H                    -1.53453  -2.43626  -0.32713 
[...]
    21  H    0.000000
    22  C    3.864404   0.000000
    23  H    4.895574   1.086750   0.000000
    24  C    3.316142   1.511519   2.280256   0.000000
    25  H    4.218847   2.175754   2.499932   1.095510   0.000000
    26  C    2.199281   2.488261   3.333170   1.553697   2.191375
    27  H    2.897231   2.802565   3.383962   2.180502   2.483876
    28  H    2.340344   3.437805   4.264048   2.177517   2.537594
                   26         27         28
    26  C    0.000000
    27  H    1.095212   0.000000
    28  H    1.097439   1.760313   0.000000
 Symmetry turned off by external request.
 Stoichiometry    C12H16
 Framework group  C1[X(C12H16)]
 Deg. of freedom    78
 Full point group                 C1      NOp   1
 Rotational constants (GHZ):           1.7166404           0.9213692           0.8182222
 Leave Link  202 at Tue Sep 15 22:51:18 2020, MaxMem=  6442450944 cpu:               1.3 elap:               0.1
 (Enter /scratch/scicomp/CentOS/7.3.1611/Haswell/software/Gaussian/g16/l301.exe)
 Standard basis: 6-31G(d) (6D, 10F)
 Ernie: Thresh=  0.10000D-02 Tol=  0.10000D-05 Strict=F.
   212 basis functions,   400 primitive gaussians,   212 cartesian basis functions
    44 alpha electrons       44 beta electrons
       nuclear repulsion energy       737.1159722346 Hartrees.
 IExCor=  402 DFT=T Ex+Corr=B3LYP ExCW=0 ScaHFX=  0.200000
 ScaDFX=  0.800000  0.720000  1.000000  0.810000 ScalE2=  1.000000  1.000000
 IRadAn=      5 IRanWt=     -1 IRanGd=            0 ICorTp=0 IEmpDi=  4
 NAtoms=   28 NActive=   28 NUniq=   28 SFac= 1.00D+00 NAtFMM=   60 NAOKFM=F Big=F
 Integral buffers will be    131072 words long.
 Raffenetti 2 integral format.
 Two-electron integral symmetry is turned off.
 Using the following non-standard input for PCM:
 qrep pcmdoc geomview nodis nocav g03defaults tsare=0.075
 Warning! Using old PCM defaults because the g03defaults keyword was found.
 These settings can be overridden by following keywords.
 nsfe=28
 nvesolv=36 solvmw=84.1595 rsolv=2.815
 eps=2.387393701544771 rhos=1.449506230685373
 --- end of non-standard input.
 Reading user-defined spheres from input:
 ISph  on   Nord    Re0     Alpha      Xe            Ye            Ze
 --- end of user-defined spheres data.
 ------------------------------------------------------------------------------
 Polarizable Continuum Model (PCM)
 =================================
 Model                : PCM.
 Atomic radii         : UA0 (Simple United Atom Topological Model).
 Polarization charges : Total charges.
 Charge compensation  : None.
 Solution method      : On-the-fly selection.
 Cavity type          : SES (Solvent Excluding Surface) (Alpha=1.000).
 Cavity algorithm     : GePol (RMin=0.200 OFac=0.890).
                        User-defined sphere list used, NSphG=   28.
                        Tesserae with average area of 0.075 Ang**2.
                        Smoothing algorithm: None.
                        Polarization charges: point-like.
                        Self-potential: constant (ISelfS= 1).
                        Self-field    : global E.n sum rule (ISelfD= 3).
 Solvent              : CycloHexane, Eps=   2.387394 Eps(inf)=   2.035188
                        RSolv=   2.815000 Ang.
 ------------------------------------------------------------------------------
 GePol: Number of generator spheres                  =      28
 GePol: Total number of spheres                      =     562
 GePol: Number of exposed spheres                    =     266 ( 47.33%)
 GePol: Number of tesserae                           =    4444
 GePol: Average area of tesserae                     =       0.04 Ang**2
 GePol: Minimum area of tessera                      =   0.10D-02 Ang**2
 GePol: Maximum area of tessera                      =    0.12513 Ang**2
 GePol: Number of small tesserae                     =       0
 GePol: Fraction of small tesserae (<1% of avg)      =       0.00%
 GePol: Total count of vertices                      =   16393
 GePol: Maximum number of vertices in a tessera      =       8
 GePol: Cavity surface area                          =    199.977 Ang**2
 GePol: Cavity volume                                =    213.226 Ang**3
 Leave Link  301 at Tue Sep 15 22:51:19 2020, MaxMem=  6442450944 cpu:              15.2 elap:               0.7
 (Enter /scratch/scicomp/CentOS/7.3.1611/Haswell/software/Gaussian/g16/l302.exe)
 NPDir=0 NMtPBC=     1 NCelOv=     1 NCel=       1 NClECP=     1 NCelD=      1
         NCelK=      1 NCelE2=     1 NClLst=     1 CellRange=     0.0.
 One-electron integrals computed using PRISM.
 NBasis=   212 RedAO= T EigKep=  9.65D-04  NBF=   212
 NBsUse=   212 1.00D-06 EigRej= -1.00D+00 NBFU=   212
 Precomputing XC quadrature grid using
 IXCGrd= 4 IRadAn=           5 IRanWt=          -1 IRanGd=           0 AccXCQ= 0.00D+00.
 Generated NRdTot=       0 NPtTot=           0 NUsed=           0 NTot=          32
 NSgBfM=   212   212   212   212   212 MxSgAt=    28 MxSgA2=    28.
 Leave Link  302 at Tue Sep 15 22:51:19 2020, MaxMem=  6442450944 cpu:               6.7 elap:               0.3
 (Enter /scratch/scicomp/CentOS/7.3.1611/Haswell/software/Gaussian/g16/l303.exe)
 DipDrv:  MaxL=1.
 Leave Link  303 at Tue Sep 15 22:51:20 2020, MaxMem=  6442450944 cpu:               2.4 elap:               0.1
 (Enter /scratch/scicomp/CentOS/7.3.1611/Haswell/software/Gaussian/g16/l401.exe)
 ExpMin= 1.61D-01 ExpMax= 3.05D+03 ExpMxC= 4.57D+02 IAcc=3 IRadAn=         5 AccDes= 0.00D+00
 Harris functional with IExCor=  402 and IRadAn=       5 diagonalized for initial guess.
 HarFok:  IExCor=  402 AccDes= 0.00D+00 IRadAn=         5 IDoV= 1 UseB2=F ITyADJ=14
 ICtDFT=  3500011 ScaDFX=  1.000000  1.000000  1.000000  1.000000
 FoFCou: FMM=F IPFlag=           0 FMFlag=      100000 FMFlg1=           0
         NFxFlg=           0 DoJE=T BraDBF=F KetDBF=T FulRan=T
         wScrn=  0.000000 ICntrl=       500 IOpCl=  0 I1Cent=   200000004 NGrid=           0
         NMat0=    1 NMatS0=      1 NMatT0=    0 NMatD0=    1 NMtDS0=    0 NMtDT0=    0
 Symmetry not used in FoFCou.
 Harris En= -466.914939552471    
 JPrj=0 DoOrth=F DoCkMO=F.
 Leave Link  401 at Tue Sep 15 22:51:20 2020, MaxMem=  6442450944 cpu:              14.6 elap:               0.7
 (Enter /scratch/scicomp/CentOS/7.3.1611/Haswell/software/Gaussian/g16/l502.exe)
 Two-electron integral symmetry not used.
 Closed shell SCF:
 Using DIIS extrapolation, IDIIS=  1040.
 NGot=  6442450944 LenX=  6442353874 LenY=  6442308489
 Requested convergence on RMS density matrix=1.00D-08 within 128 cycles.
 Requested convergence on MAX density matrix=1.00D-06.
 Requested convergence on             energy=1.00D-06.
 No special actions if energy rises.
 Fock matrices will be formed incrementally for  20 cycles.

 Cycle   1  Pass 1  IDiag  1:
 FoFJK:  IHMeth= 1 ICntrl=       0 DoSepK=F KAlg= 0 I1Cent=           0 FoldK=F
 IRaf= 960000000 NMat=       1 IRICut=       1 DoRegI=T DoRafI=F ISym2E= 0 IDoP0=0 IntGTp=1.
 FoFCou: FMM=F IPFlag=           0 FMFlag=      100000 FMFlg1=           0
         NFxFlg=           0 DoJE=F BraDBF=F KetDBF=F FulRan=T
         wScrn=  0.000000 ICntrl=         0 IOpCl=  0 I1Cent=           0 NGrid=           0
         NMat0=    1 NMatS0=      1 NMatT0=    0 NMatD0=    1 NMtDS0=    0 NMtDT0=    0
 Symmetry not used in FoFCou.
 Inv3:  Mode=1 IEnd=    59247408.
 Iteration    1 A*A^-1 deviation from unit magnitude is 3.44D-15 for   1263.
 Iteration    1 A*A^-1 deviation from orthogonality  is 1.57D-15 for   2837   2502.
 Iteration    1 A^-1*A deviation from unit magnitude is 3.33D-15 for    218.
 Iteration    1 A^-1*A deviation from orthogonality  is 1.58D-15 for   1865    807.
 E= -466.515558209278    
 DIIS: error= 2.20D-02 at cycle   1 NSaved=   1.
 NSaved= 1 IEnMin= 1 EnMin= -466.515558209278     IErMin= 1 ErrMin= 2.20D-02
 ErrMax= 2.20D-02  0.00D+00 EMaxC= 1.00D-01 BMatC= 2.97D-01 BMatP= 2.97D-01
 IDIUse=3 WtCom= 7.80D-01 WtEn= 2.20D-01
 Coeff-Com:  0.100D+01
 Coeff-En:   0.100D+01
 Coeff:      0.100D+01
 Gap=     0.263 Goal=   None    Shift=    0.000
 GapD=    0.263 DampG=1.000 DampE=0.500 DampFc=0.5000 IDamp=-1.
 Damping current iteration by 5.00D-01
 RMSDP=6.59D-03 MaxDP=1.53D-01              OVMax= 1.56D-01

 Cycle   2  Pass 1  IDiag  1:
 RMSU=  3.25D-03    CP:  9.74D-01
 E= -466.654392686141     Delta-E=       -0.138834476863 Rises=F Damp=T
 DIIS: error= 7.72D-03 at cycle   2 NSaved=   2.
 NSaved= 2 IEnMin= 2 EnMin= -466.654392686141     IErMin= 2 ErrMin= 7.72D-03
 ErrMax= 7.72D-03  0.00D+00 EMaxC= 1.00D-01 BMatC= 2.25D-02 BMatP= 2.97D-01
 IDIUse=3 WtCom= 9.23D-01 WtEn= 7.72D-02
 Coeff-Com:  0.826D-01 0.917D+00
 Coeff-En:   0.143D+00 0.857D+00
 Coeff:      0.873D-01 0.913D+00
 Gap=     0.286 Goal=   None    Shift=    0.000
 RMSDP=2.00D-03 MaxDP=3.28D-02 DE=-1.39D-01 OVMax= 9.69D-02

 Cycle   3  Pass 1  IDiag  1:
 RMSU=  1.75D-03    CP:  9.70D-01  7.00D-01
 E= -466.837179734738     Delta-E=       -0.182787048597 Rises=F Damp=F
 DIIS: error= 3.81D-03 at cycle   3 NSaved=   3.
 NSaved= 3 IEnMin= 3 EnMin= -466.837179734738     IErMin= 3 ErrMin= 3.81D-03
 ErrMax= 3.81D-03  0.00D+00 EMaxC= 1.00D-01 BMatC= 7.91D-03 BMatP= 2.25D-02
 IDIUse=3 WtCom= 9.62D-01 WtEn= 3.81D-02
 Coeff-Com: -0.191D-01 0.351D+00 0.668D+00
 Coeff-En:   0.000D+00 0.000D+00 0.100D+01
 Coeff:     -0.183D-01 0.338D+00 0.681D+00
 Gap=     0.261 Goal=   None    Shift=    0.000
 RMSDP=7.42D-04 MaxDP=1.51D-02 DE=-1.83D-01 OVMax= 1.54D-02

 Cycle   4  Pass 1  IDiag  1:
 RMSU=  4.23D-04    CP:  9.69D-01  7.98D-01  7.03D-01
 E= -466.843321311984     Delta-E=       -0.006141577246 Rises=F Damp=F
 DIIS: error= 1.42D-03 at cycle   4 NSaved=   4.
 NSaved= 4 IEnMin= 4 EnMin= -466.843321311984     IErMin= 4 ErrMin= 1.42D-03
 ErrMax= 1.42D-03  0.00D+00 EMaxC= 1.00D-01 BMatC= 1.18D-03 BMatP= 7.91D-03
 IDIUse=3 WtCom= 9.86D-01 WtEn= 1.42D-02
 Coeff-Com: -0.144D-01 0.934D-01 0.319D+00 0.602D+00
 Coeff-En:   0.000D+00 0.000D+00 0.550D-01 0.945D+00
 Coeff:     -0.142D-01 0.921D-01 0.315D+00 0.607D+00
 Gap=     0.259 Goal=   None    Shift=    0.000
 RMSDP=2.31D-04 MaxDP=5.34D-03 DE=-6.14D-03 OVMax= 1.01D-02

 Cycle   5  Pass 1  IDiag  1:
 RMSU=  1.34D-04    CP:  9.69D-01  7.84D-01  7.62D-01  6.44D-01
 E= -466.844330276386     Delta-E=       -0.001008964402 Rises=F Damp=F
 DIIS: error= 5.14D-04 at cycle   5 NSaved=   5.
 NSaved= 5 IEnMin= 5 EnMin= -466.844330276386     IErMin= 5 ErrMin= 5.14D-04
 ErrMax= 5.14D-04  0.00D+00 EMaxC= 1.00D-01 BMatC= 1.43D-04 BMatP= 1.18D-03
 IDIUse=3 WtCom= 9.95D-01 WtEn= 5.14D-03
 Coeff-Com: -0.536D-02 0.123D-01 0.877D-01 0.315D+00 0.591D+00
 Coeff-En:   0.000D+00 0.000D+00 0.000D+00 0.669D-01 0.933D+00
 Coeff:     -0.533D-02 0.122D-01 0.872D-01 0.313D+00 0.593D+00
 Gap=     0.257 Goal=   None    Shift=    0.000
 RMSDP=6.78D-05 MaxDP=2.29D-03 DE=-1.01D-03 OVMax= 5.10D-03

 Cycle   6  Pass 1  IDiag  1:
 RMSU=  2.66D-05    CP:  9.69D-01  7.86D-01  7.61D-01  7.13D-01  5.95D-01
 E= -466.844464229944     Delta-E=       -0.000133953559 Rises=F Damp=F
 DIIS: error= 1.66D-04 at cycle   6 NSaved=   6.
 NSaved= 6 IEnMin= 6 EnMin= -466.844464229944     IErMin= 6 ErrMin= 1.66D-04
 ErrMax= 1.66D-04  0.00D+00 EMaxC= 1.00D-01 BMatC= 1.16D-05 BMatP= 1.43D-04
 IDIUse=3 WtCom= 9.98D-01 WtEn= 1.66D-03
 Coeff-Com: -0.277D-02 0.437D-02 0.425D-01 0.172D+00 0.362D+00 0.423D+00
 Coeff-En:   0.000D+00 0.000D+00 0.000D+00 0.000D+00 0.000D+00 0.100D+01
 Coeff:     -0.276D-02 0.437D-02 0.424D-01 0.171D+00 0.361D+00 0.423D+00
 Gap=     0.257 Goal=   None    Shift=    0.000
 RMSDP=1.53D-05 MaxDP=8.72D-04 DE=-1.34D-04 OVMax= 1.64D-03

 Cycle   7  Pass 1  IDiag  1:
 RMSU=  7.20D-06    CP:  9.69D-01  7.86D-01  7.62D-01  7.14D-01  6.20D-01
                    CP:  5.09D-01
 E= -466.844475819459     Delta-E=       -0.000011589515 Rises=F Damp=F
 DIIS: error= 1.71D-05 at cycle   7 NSaved=   7.
 NSaved= 7 IEnMin= 7 EnMin= -466.844475819459     IErMin= 7 ErrMin= 1.71D-05
 ErrMax= 1.71D-05  0.00D+00 EMaxC= 1.00D-01 BMatC= 1.63D-07 BMatP= 1.16D-05
 IDIUse=1 WtCom= 1.00D+00 WtEn= 0.00D+00
 Coeff-Com: -0.524D-03 0.453D-03 0.760D-02 0.351D-01 0.803D-01 0.149D+00
 Coeff-Com:  0.728D+00
 Coeff:     -0.524D-03 0.453D-03 0.760D-02 0.351D-01 0.803D-01 0.149D+00
 Coeff:      0.728D+00
 Gap=     0.257 Goal=   None    Shift=    0.000
 RMSDP=2.76D-06 MaxDP=9.11D-05 DE=-1.16D-05 OVMax= 1.58D-04

 Cycle   8  Pass 1  IDiag  1:
 RMSU=  1.88D-06    CP:  9.69D-01  7.86D-01  7.62D-01  7.14D-01  6.25D-01
                    CP:  5.24D-01  7.58D-01
 E= -466.844475954415     Delta-E=       -0.000000134956 Rises=F Damp=F
 DIIS: error= 6.23D-06 at cycle   8 NSaved=   8.
 NSaved= 8 IEnMin= 8 EnMin= -466.844475954415     IErMin= 8 ErrMin= 6.23D-06
 ErrMax= 6.23D-06  0.00D+00 EMaxC= 1.00D-01 BMatC= 2.64D-08 BMatP= 1.63D-07
 IDIUse=1 WtCom= 1.00D+00 WtEn= 0.00D+00
 Coeff-Com: -0.704D-04-0.904D-04 0.798D-03 0.569D-02 0.149D-01 0.450D-01
 Coeff-Com:  0.359D+00 0.575D+00
 Coeff:     -0.704D-04-0.904D-04 0.798D-03 0.569D-02 0.149D-01 0.450D-01
 Coeff:      0.359D+00 0.575D+00
 Gap=     0.257 Goal=   None    Shift=    0.000
 RMSDP=9.62D-07 MaxDP=4.44D-05 DE=-1.35D-07 OVMax= 8.06D-05

 Cycle   9  Pass 1  IDiag  1:
 RMSU=  6.60D-07    CP:  9.69D-01  7.86D-01  7.62D-01  7.14D-01  6.25D-01
                    CP:  5.27D-01  8.00D-01  6.69D-01
 E= -466.844475976350     Delta-E=       -0.000000021934 Rises=F Damp=F
 DIIS: error= 3.22D-06 at cycle   9 NSaved=   9.
 NSaved= 9 IEnMin= 9 EnMin= -466.844475976350     IErMin= 9 ErrMin= 3.22D-06
 ErrMax= 3.22D-06  0.00D+00 EMaxC= 1.00D-01 BMatC= 4.21D-09 BMatP= 2.64D-08
 IDIUse=1 WtCom= 1.00D+00 WtEn= 0.00D+00
 Coeff-Com:  0.126D-04-0.973D-04-0.345D-03-0.359D-03 0.168D-03 0.102D-01
 Coeff-Com:  0.128D+00 0.331D+00 0.531D+00
 Coeff:      0.126D-04-0.973D-04-0.345D-03-0.359D-03 0.168D-03 0.102D-01
 Coeff:      0.128D+00 0.331D+00 0.531D+00
 Gap=     0.257 Goal=   None    Shift=    0.000
 RMSDP=3.76D-07 MaxDP=1.90D-05 DE=-2.19D-08 OVMax= 3.95D-05

 Cycle  10  Pass 1  IDiag  1:
 RMSU=  2.26D-07    CP:  9.69D-01  7.86D-01  7.62D-01  7.14D-01  6.24D-01
                    CP:  5.29D-01  8.07D-01  6.94D-01  5.73D-01
 E= -466.844475980320     Delta-E=       -0.000000003970 Rises=F Damp=F
 DIIS: error= 8.70D-07 at cycle  10 NSaved=  10.
 NSaved=10 IEnMin=10 EnMin= -466.844475980320     IErMin=10 ErrMin= 8.70D-07
 ErrMax= 8.70D-07  0.00D+00 EMaxC= 1.00D-01 BMatC= 4.29D-10 BMatP= 4.21D-09
 IDIUse=1 WtCom= 1.00D+00 WtEn= 0.00D+00
 Coeff-Com:  0.126D-04-0.436D-04-0.270D-03-0.724D-03-0.131D-02 0.147D-02
 Coeff-Com:  0.375D-01 0.130D+00 0.305D+00 0.529D+00
 Coeff:      0.126D-04-0.436D-04-0.270D-03-0.724D-03-0.131D-02 0.147D-02
 Coeff:      0.375D-01 0.130D+00 0.305D+00 0.529D+00
 Gap=     0.257 Goal=   None    Shift=    0.000
 RMSDP=1.10D-07 MaxDP=5.23D-06 DE=-3.97D-09 OVMax= 8.94D-06

 Cycle  11  Pass 1  IDiag  1:
 RMSU=  6.01D-08    CP:  9.69D-01  7.86D-01  7.62D-01  7.15D-01  6.24D-01
                    CP:  5.29D-01  8.07D-01  7.02D-01  6.36D-01  6.51D-01
 E= -466.844475980760     Delta-E=       -0.000000000440 Rises=F Damp=F
 DIIS: error= 1.15D-07 at cycle  11 NSaved=  11.
 NSaved=11 IEnMin=11 EnMin= -466.844475980760     IErMin=11 ErrMin= 1.15D-07
 ErrMax= 1.15D-07  0.00D+00 EMaxC= 1.00D-01 BMatC= 1.19D-11 BMatP= 4.29D-10
 IDIUse=1 WtCom= 1.00D+00 WtEn= 0.00D+00
 Coeff-Com:  0.286D-05-0.692D-05-0.684D-04-0.215D-03-0.455D-03-0.201D-03
 Coeff-Com:  0.382D-02 0.211D-01 0.728D-01 0.200D+00 0.703D+00
 Coeff:      0.286D-05-0.692D-05-0.684D-04-0.215D-03-0.455D-03-0.201D-03
 Coeff:      0.382D-02 0.211D-01 0.728D-01 0.200D+00 0.703D+00
 Gap=     0.257 Goal=   None    Shift=    0.000
 RMSDP=2.10D-08 MaxDP=5.74D-07 DE=-4.40D-10 OVMax= 9.92D-07

 Cycle  12  Pass 1  IDiag  1:
 RMSU=  1.34D-08    CP:  9.69D-01  7.86D-01  7.62D-01  7.15D-01  6.24D-01
                    CP:  5.29D-01  8.07D-01  7.04D-01  6.41D-01  6.79D-01
                    CP:  7.79D-01
 E= -466.844475980767     Delta-E=       -0.000000000007 Rises=F Damp=F
 DIIS: error= 3.18D-08 at cycle  12 NSaved=  12.
 NSaved=12 IEnMin=12 EnMin= -466.844475980767     IErMin=12 ErrMin= 3.18D-08
 ErrMax= 3.18D-08  0.00D+00 EMaxC= 1.00D-01 BMatC= 9.06D-13 BMatP= 1.19D-11
 IDIUse=1 WtCom= 1.00D+00 WtEn= 0.00D+00
 Coeff-Com:  0.588D-06-0.911D-06-0.170D-04-0.585D-04-0.135D-03-0.149D-03
 Coeff-Com: -0.568D-04 0.303D-02 0.177D-01 0.606D-01 0.305D+00 0.614D+00
 Coeff:      0.588D-06-0.911D-06-0.170D-04-0.585D-04-0.135D-03-0.149D-03
 Coeff:     -0.568D-04 0.303D-02 0.177D-01 0.606D-01 0.305D+00 0.614D+00
 Gap=     0.257 Goal=   None    Shift=    0.000
 RMSDP=6.30D-09 MaxDP=1.44D-07 DE=-6.82D-12 OVMax= 1.79D-07

 Error on total polarization charges =  0.01979
 SCF Done:  E(RB3LYP) =  -466.844475981     A.U. after   12 cycles
            NFock= 12  Conv=0.63D-08     -V/T= 2.0098
 KE= 4.623324401540D+02 PE=-2.554775996389D+03 EE= 8.884831080194D+02
 --------------------------------------------------------------------
 Variational PCM results
 =======================
 <psi(f)|   H    |psi(f)>                     (a.u.) =    -466.872079
 <psi(f)|H+V(f)/2|psi(f)>                     (a.u.) =    -466.873845
 Total free energy in solution:
 - with all non electrostatic terms           (a.u.) =    -466.844476
 --------------------------------------------------------------------
 (Polarized solute)-Solvent               (kcal/mol) =      -1.11
 --------------------------------------------------------------------
 Quantum repulsion energy                 (kcal/mol) =      18.43
 Total non electrostatic                  (kcal/mol) =      18.43
 --------------------------------------------------------------------
 Partition over spheres:
 Sphere  on Atom  Surface  Charge   GEl     GCav    GDR
    1               0.00   0.000    0.00    0.00    0.00
    2               0.93   0.006   -0.06    0.00    0.00
    3               0.00   0.000    0.00    0.00    0.00
    4               0.00   0.000    0.00    0.00    0.00
    5               0.00   0.000    0.00    0.00    0.00
    6               0.00   0.000    0.00    0.00    0.00
    7               4.47  -0.014   -0.09    0.00    0.00
    8              14.33   0.001   -0.02    0.00    0.00
    9               1.56  -0.005   -0.02    0.00    0.00
   10              12.84   0.002   -0.00    0.00    0.00
   11               3.62  -0.009   -0.06    0.00    0.00
   12               8.16   0.002    0.00    0.00    0.00
   13               4.12  -0.010   -0.04    0.00    0.00
   14               3.24  -0.008   -0.04    0.00    0.00
   15               0.00   0.000    0.00    0.00    0.00
   16               0.00   0.000    0.00    0.00    0.00
   17              11.24  -0.004   -0.01    0.00    0.00
   18               7.52  -0.002   -0.00    0.00    0.00
   19               0.01  -0.000   -0.00    0.00    0.00
   20              12.27   0.004   -0.00    0.00    0.00
   21               3.06  -0.009   -0.05    0.00    0.00
   22               0.00   0.000    0.00    0.00    0.00
   23               5.53  -0.020   -0.11    0.00    0.00
   24               0.00   0.000    0.00    0.00    0.00
   25               4.32  -0.012   -0.08    0.00    0.00
   26               0.00   0.000    0.00    0.00    0.00
   27               4.93  -0.011   -0.05    0.00    0.00
   28               4.77  -0.009   -0.06    0.00    0.00
 Added spheres:    93.05   0.080   -0.40    0.00    0.00
 --------------------------------------------------------------------
 After PCM corrections, the energy is  -466.844475981     a.u.
 --------------------------------------------------------------------
 Leave Link  502 at Tue Sep 15 22:51:53 2020, MaxMem=  6442450944 cpu:             702.9 elap:              32.3
0******************
 *Kjob Termination*
 *  in Link    502*
 ******************
 Job cpu time:       0 days  0 hours 12 minutes 27.8 seconds.
 Elapsed time:       0 days  0 hours  0 minutes 34.5 seconds.
 File lengths (MBytes):  RWF=    368 Int=      0 D2E=      0 Chk=      2 Scr=      1
 Normal termination of Gaussian 16 at Tue Sep 15 22:51:53 2020.
