 Entering Gaussian System, Link 0=g16
 Input=structure-1-Gcav.gjf
 Output=structure-1-Gcav.log
 Initial command:
 /scratch/scicomp/CentOS/7.3.1611/Haswell/software/Gaussian/g16/l1.exe "/scratch/bochen/test/xppcm/tmp/Gau-397774.inp" -scrdir="/scratch/bochen/test/xppcm/tmp/"
 Entering Link 1 = /scratch/scicomp/CentOS/7.3.1611/Haswell/software/Gaussian/g16/l1.exe PID=    397775.
  
 Copyright (c) 1988-2017, Gaussian, Inc.  All Rights Reserved.
  
 This is part of the Gaussian(R) 16 program.  It is based on
 the Gaussian(R) 09 system (copyright 2009, Gaussian, Inc.),
 the Gaussian(R) 03 system (copyright 2003, Gaussian, Inc.),
 the Gaussian(R) 98 system (copyright 1998, Gaussian, Inc.),
 the Gaussian(R) 94 system (copyright 1995, Gaussian, Inc.),
 the Gaussian 92(TM) system (copyright 1992, Gaussian, Inc.),
 the Gaussian 90(TM) system (copyright 1990, Gaussian, Inc.),
 the Gaussian 88(TM) system (copyright 1988, Gaussian, Inc.),
 the Gaussian 86(TM) system (copyright 1986, Carnegie Mellon
 University), and the Gaussian 82(TM) system (copyright 1983,
 Carnegie Mellon University). Gaussian is a federally registered
 trademark of Gaussian, Inc.
  
 This software contains proprietary and confidential information,
 including trade secrets, belonging to Gaussian, Inc.
  
 This software is provided under written license and may be
 used, copied, transmitted, or stored only in accord with that
 written license.
  
 The following legend is applicable only to US Government
 contracts under FAR:
  
                    RESTRICTED RIGHTS LEGEND
  
 Use, reproduction and disclosure by the US Government is
 subject to restrictions as set forth in subparagraphs (a)
 and (c) of the Commercial Computer Software - Restricted
 Rights clause in FAR 52.227-19.
  
 Gaussian, Inc.
 340 Quinnipiac St., Bldg. 40, Wallingford CT 06492
  
  
 ---------------------------------------------------------------
 Warning -- This program may not be used in any manner that
 competes with the business of Gaussian, Inc. or will provide
 assistance to any competitor of Gaussian, Inc.  The licensee
 of this program is prohibited from giving any competitor of
 Gaussian, Inc. access to this program.  By using this program,
 the user acknowledges that Gaussian, Inc. is engaged in the
 business of creating and licensing software in the field of
 computational chemistry and represents and warrants to the
 licensee that it is not a competitor of Gaussian, Inc. and that
 it will not use this program in any manner prohibited above.
 ---------------------------------------------------------------
  

 Cite this work as:
 Gaussian 16, Revision B.01,
 M. J. Frisch, G. W. Trucks, H. B. Schlegel, G. E. Scuseria, 
 M. A. Robb, J. R. Cheeseman, G. Scalmani, V. Barone, 
 G. A. Petersson, H. Nakatsuji, X. Li, M. Caricato, A. V. Marenich, 
 J. Bloino, B. G. Janesko, R. Gomperts, B. Mennucci, H. P. Hratchian, 
 J. V. Ortiz, A. F. Izmaylov, J. L. Sonnenberg, D. Williams-Young, 
 F. Ding, F. Lipparini, F. Egidi, J. Goings, B. Peng, A. Petrone, 
 T. Henderson, D. Ranasinghe, V. G. Zakrzewski, J. Gao, N. Rega, 
 G. Zheng, W. Liang, M. Hada, M. Ehara, K. Toyota, R. Fukuda, 
 J. Hasegawa, M. Ishida, T. Nakajima, Y. Honda, O. Kitao, H. Nakai, 
 T. Vreven, K. Throssell, J. A. Montgomery, Jr., J. E. Peralta, 
 F. Ogliaro, M. J. Bearpark, J. J. Heyd, E. N. Brothers, K. N. Kudin, 
 V. N. Staroverov, T. A. Keith, R. Kobayashi, J. Normand, 
 K. Raghavachari, A. P. Rendell, J. C. Burant, S. S. Iyengar, 
 J. Tomasi, M. Cossi, J. M. Millam, M. Klene, C. Adamo, R. Cammi, 
 J. W. Ochterski, R. L. Martin, K. Morokuma, O. Farkas, 
 J. B. Foresman, and D. J. Fox, Gaussian, Inc., Wallingford CT, 2016.
 
 ******************************************
 Gaussian 16:  ES64L-G16RevB.01 20-Dec-2017
                15-Sep-2020 
 ******************************************
 %kjob l301
 kjob at link  301 occurrence number     1
 %chk=structure-1-Gcav.chk
 %nproc=24
 Will use up to   24 processors via shared memory.
 %mem=48gb
 ----------------------------------------------------------------------
 #p b3lyp 6-31g* # scrf=(iefpcm,solvent=cyclohexane,read) nosym guess=o
 nly pop=none
 ----------------------------------------------------------------------
 1/38=1,40=2,172=1/1;
 2/12=2,15=1,17=6,18=5,40=1/2;
 3/5=1,6=6,7=1,11=2,25=1,30=1,70=2203,72=17,74=-5,89=1/1,2;
 4//1;
 99/5=2/99;
 Leave Link    1 at Tue Sep 15 22:51:53 2020, MaxMem=  6442450944 cpu:               1.7 elap:               0.1
 (Enter /scratch/scicomp/CentOS/7.3.1611/Haswell/software/Gaussian/g16/l101.exe)
 -----
 title
 -----
 Symbolic Z-matrix:
 Charge =  0 Multiplicity = 1
 C                    -0.94124   0.70908  -1.4475 
 C                    -1.13014  -0.58644  -1.68876 
 H                    -0.18738   1.27001  -1.98589 
 H                    -0.54648  -1.09783  -2.44561 
 C                    -2.21372  -1.34936  -0.97802 
 H                    -3.12368  -1.30166  -1.59142 
 H                    -1.95315  -2.40636  -0.90133 
 C                    -1.7532    1.40646  -0.45097 
 H                    -1.71848   2.4886   -0.41654 
 C                    -2.49877   0.72317   0.4162 
 H                    -3.07235   1.24066   1.17649 
 C                    -2.49825  -0.78022   0.41217 
 H                    -3.44748  -1.16681   0.78712 
 H                    -1.72467  -1.12206   1.11127 
 C                     2.57601  -0.05843  -0.6248 
 C                     2.2592    1.24552   0.05234 
 C                     1.44333   1.28353   1.10478 
 C                     0.86446   0.05338   1.64254 
 C                     1.34311  -1.13538   1.28108 
 C                     2.51895  -1.23548   0.34881 
 H                     1.1756    2.2279    1.56276 
 H                     2.65828   2.16115  -0.36856 
 H                     1.84141  -0.21171  -1.4257 
 H                     3.55518  -0.01674  -1.10484 
 H                     0.04304   0.13194   2.3441 
 H                     0.93188  -2.04682   1.69955 
 H                     3.43502  -1.25998   0.95447 
 H                     2.49356  -2.17599  -0.20413 
 
 ITRead=  0  0  0  0  0  0  0  0  0  0  0  0  0  0  0  0  0  0  0  0
 ITRead=  0  0  0  0  0  0  0  0
 MicOpt= -1 -1 -1 -1 -1 -1 -1 -1 -1 -1 -1 -1 -1 -1 -1 -1 -1 -1 -1 -1
 MicOpt= -1 -1 -1 -1 -1 -1 -1 -1
 NAtoms=     28 NQM=       28 NQMF=       0 NMMI=      0 NMMIF=      0
                NMic=       0 NMicF=      0.
                    Isotopes and Nuclear Properties:
 (Nuclear quadrupole moments (NQMom) in fm**2, nuclear magnetic moments (NMagM)
  in nuclear magnetons)

  Atom         1           2           3           4           5           6           7           8           9          10
 IAtWgt=          12          12           1           1          12           1           1          12           1          12
 AtmWgt=  12.0000000  12.0000000   1.0078250   1.0078250  12.0000000   1.0078250   1.0078250  12.0000000   1.0078250  12.0000000
 NucSpn=           0           0           1           1           0           1           1           0           1           0
 AtZEff=  -0.0000000  -0.0000000  -0.0000000  -0.0000000  -0.0000000  -0.0000000  -0.0000000  -0.0000000  -0.0000000  -0.0000000
 NQMom=    0.0000000   0.0000000   0.0000000   0.0000000   0.0000000   0.0000000   0.0000000   0.0000000   0.0000000   0.0000000
 NMagM=    0.0000000   0.0000000   2.7928460   2.7928460   0.0000000   2.7928460   2.7928460   0.0000000   2.7928460   0.0000000
 AtZNuc=   6.0000000   6.0000000   1.0000000   1.0000000   6.0000000   1.0000000   1.0000000   6.0000000   1.0000000   6.0000000

  Atom        11          12          13          14          15          16          17          18          19          20
 IAtWgt=           1          12           1           1          12          12          12          12          12          12
 AtmWgt=   1.0078250  12.0000000   1.0078250   1.0078250  12.0000000  12.0000000  12.0000000  12.0000000  12.0000000  12.0000000
 NucSpn=           1           0           1           1           0           0           0           0           0           0
 AtZEff=  -0.0000000  -0.0000000  -0.0000000  -0.0000000  -0.0000000  -0.0000000  -0.0000000  -0.0000000  -0.0000000  -0.0000000
 NQMom=    0.0000000   0.0000000   0.0000000   0.0000000   0.0000000   0.0000000   0.0000000   0.0000000   0.0000000   0.0000000
 NMagM=    2.7928460   0.0000000   2.7928460   2.7928460   0.0000000   0.0000000   0.0000000   0.0000000   0.0000000   0.0000000
 AtZNuc=   1.0000000   6.0000000   1.0000000   1.0000000   6.0000000   6.0000000   6.0000000   6.0000000   6.0000000   6.0000000

  Atom        21          22          23          24          25          26          27          28
 IAtWgt=           1           1           1           1           1           1           1           1
 AtmWgt=   1.0078250   1.0078250   1.0078250   1.0078250   1.0078250   1.0078250   1.0078250   1.0078250
 NucSpn=           1           1           1           1           1           1           1           1
 AtZEff=  -0.0000000  -0.0000000  -0.0000000  -0.0000000  -0.0000000  -0.0000000  -0.0000000  -0.0000000
 NQMom=    0.0000000   0.0000000   0.0000000   0.0000000   0.0000000   0.0000000   0.0000000   0.0000000
 NMagM=    2.7928460   2.7928460   2.7928460   2.7928460   2.7928460   2.7928460   2.7928460   2.7928460
 AtZNuc=   1.0000000   1.0000000   1.0000000   1.0000000   1.0000000   1.0000000   1.0000000   1.0000000
 Leave Link  101 at Tue Sep 15 22:51:53 2020, MaxMem=  6442450944 cpu:               2.8 elap:               0.2
 (Enter /scratch/scicomp/CentOS/7.3.1611/Haswell/software/Gaussian/g16/l202.exe)
                          Input orientation:                          
 ---------------------------------------------------------------------
 Center     Atomic      Atomic             Coordinates (Angstroms)
 Number     Number       Type             X           Y           Z
 ---------------------------------------------------------------------
      1          6           0       -0.941240    0.709078   -1.447500
      2          6           0       -1.130144   -0.586439   -1.688764
      3          1           0       -0.187383    1.270013   -1.985885
      4          1           0       -0.546479   -1.097826   -2.445614
      5          6           0       -2.213721   -1.349362   -0.978023
      6          1           0       -3.123677   -1.301662   -1.591424
      7          1           0       -1.953148   -2.406359   -0.901332
      8          6           0       -1.753199    1.406457   -0.450967
      9          1           0       -1.718481    2.488604   -0.416537
     10          6           0       -2.498772    0.723169    0.416199
     11          1           0       -3.072350    1.240660    1.176490
     12          6           0       -2.498247   -0.780221    0.412174
     13          1           0       -3.447477   -1.166814    0.787115
     14          1           0       -1.724665   -1.122064    1.111268
     15          6           0        2.576005   -0.058432   -0.624796
     16          6           0        2.259201    1.245519    0.052337
     17          6           0        1.443331    1.283534    1.104783
     18          6           0        0.864455    0.053379    1.642538
     19          6           0        1.343111   -1.135379    1.281075
     20          6           0        2.518953   -1.235476    0.348814
     21          1           0        1.175601    2.227900    1.562761
     22          1           0        2.658280    2.161148   -0.368562
     23          1           0        1.841411   -0.211714   -1.425701
     24          1           0        3.555179   -0.016744   -1.104840
     25          1           0        0.043038    0.131938    2.344097
     26          1           0        0.931882   -2.046820    1.699547
     27          1           0        3.435020   -1.259975    0.954472
     28          1           0        2.493558   -2.175989   -0.204125
 ---------------------------------------------------------------------
                    Distance matrix (angstroms):
                    1          2          3          4          5
     1  C    0.000000
     2  C    1.331262   0.000000
     3  H    1.082962   2.103210   0.000000
     4  H    2.101659   1.083976   2.438639   0.000000
     5  C    2.465115   1.503776   3.461641   2.235350   0.000000
     6  H    2.970997   2.120187   3.923128   2.722708   1.098433
     7  H    3.320874   2.146973   4.220177   2.464910   1.091340
     8  C    1.462427   2.427339   2.196900   3.421436   2.843309
     9  H    2.198568   3.379437   2.508402   4.284066   3.910308
    10  C    2.428884   2.831799   3.378101   3.913751   2.514059
    11  H    3.421919   3.914094   4.280714   4.996817   3.476692
    12  C    2.846168   2.514597   3.910785   3.475230   1.528896
    13  H    3.846258   3.440472   4.925025   4.344086   2.161294
    14  H    3.242550   2.912135   4.204477   3.747015   2.157771
    15  C    3.692821   3.891832   3.354645   3.761067   4.973203
    16  C    3.574927   4.227903   3.184450   4.427512   5.272768
    17  C    3.539820   4.233613   3.494516   4.715457   4.964298
    18  C    3.638518   3.935145   3.968881   4.475376   4.279041
    19  C    4.008167   3.903623   4.336052   4.178537   4.219048
    20  C    4.356715   4.229525   4.364923   4.150259   4.916469
    21  H    3.981144   4.879486   3.920225   5.485716   5.544357
    22  H    4.028543   4.862543   3.392293   5.020512   6.035853
    23  H    2.931123   3.006619   2.573971   2.743617   4.235417
    24  H    4.567496   4.755814   4.054473   4.448597   5.922175
    25  H    3.959558   4.261031   4.482974   4.980078   4.280618
    26  H    4.583390   4.226738   5.082966   4.502055   4.189349
    27  H    5.366404   5.317995   5.307386   5.238245   5.970829
    28  H    4.654829   4.226350   4.715617   3.927917   4.841560
                    6          7          8          9         10
     6  H    0.000000
     7  H    1.751205   0.000000
     8  C    3.242339   3.844525   0.000000
     9  H    4.209638   4.924506   1.083251   0.000000
    10  C    2.919075   3.439119   1.332193   2.102157   0.000000
    11  H    3.758641   4.344042   2.101491   2.434761   1.083896
    12  C    2.162746   2.160268   2.466104   3.461216   1.503395
    13  H    2.404263   2.573003   3.320414   4.219039   2.147011
    14  H    3.048612   2.398370   2.972341   3.920606   2.118312
    15  C    5.913236   5.109057   4.573634   4.997337   5.239077
    16  C    6.177820   5.655933   4.047045   4.193693   4.800370
    17  C    5.900028   5.401470   3.557144   3.709941   4.040833
    18  C    5.310352   4.523325   3.614650   4.103860   3.641953
    19  C    5.313294   4.152543   4.364405   5.038699   4.354570
    20  C    5.967259   4.788895   5.086329   5.693012   5.386872
    21  H    6.394567   6.110416   3.647977   3.515864   4.132776
    22  H    6.849633   6.512391   4.476326   4.389256   5.410991
    23  H    5.086015   4.414760   4.060764   4.580716   4.806640
    24  H    6.818717   6.007773   5.534612   5.878947   6.285806
    25  H    5.250868   4.578266   3.558546   4.034591   3.244556
    26  H    5.275728   3.900928   4.874371   5.663242   4.592299
    27  H    7.035612   5.812965   6.000228   6.518442   6.279529
    28  H    5.851698   4.506924   5.561456   6.288467   5.806314
                   11         12         13         14         15
    11  H    0.000000
    12  C    2.235561   0.000000
    13  H    2.467441   1.091363   0.000000
    14  H    2.720841   1.097278   1.753613   0.000000
    15  C    6.069282   5.229180   6.285248   4.758255   0.000000
    16  C    5.448778   5.183282   6.239024   4.753732   1.503051
    17  C    4.516454   4.502758   5.479518   3.977831   2.464806
    18  C    4.138269   3.676472   4.562168   2.892656   2.843010
    19  C    5.015256   3.954385   4.816089   3.072501   2.512407
    20  C    6.170816   5.038211   5.982901   4.313061   1.528595
    21  H    4.378234   4.885673   5.787794   4.453947   3.460325
    22  H    6.006214   5.987568   7.049198   5.672705   2.235836
    23  H    5.746811   4.746959   5.812152   4.470106   1.097530
    24  H    7.121072   6.287145   7.344341   5.831777   1.091312
    25  H    3.506881   3.320014   4.036663   2.493424   3.907235
    26  H    5.207205   3.876517   4.559137   2.873758   3.472664
    27  H    6.974836   5.977283   6.885162   5.163909   2.162337
    28  H    6.675247   5.219781   6.107118   4.542513   2.160511
                   16         17         18         19         20
    16  C    0.000000
    17  C    1.332191   0.000000
    18  C    2.428014   1.462039   0.000000
    19  C    2.831553   2.427398   1.331508   0.000000
    20  C    2.512112   2.841454   2.464190   1.503906   0.000000
    21  H    2.102532   1.083167   2.198117   3.379209   3.908099
    22  H    1.083880   2.101679   3.421260   3.913830   3.474348
    23  H    2.117232   2.966072   3.230914   2.903118   2.157789
    24  H    2.147539   3.321605   3.846167   3.440520   2.161523
    25  H    3.376922   2.196109   1.083089   2.103877   3.461377
    26  H    3.913384   3.421488   2.102054   1.083952   2.236415
    27  H    2.910996   3.234016   2.967514   2.120914   1.098454
    28  H    3.439101   3.845064   3.321780   2.147607   1.091307
                   21         22         23         24         25
    21  H    0.000000
    22  H    2.435734   0.000000
    23  H    3.914834   2.723103   0.000000
    24  H    4.221009   2.467741   1.754413   0.000000
    25  H    2.507238   4.279685   4.190897   4.924673   0.000000
    26  H    4.283846   4.996451   3.736580   4.343672   2.439769
    27  H    4.200031   3.749377   3.050191   2.408491   3.920972
    28  H    4.924747   4.343378   2.403314   2.569176   4.221968
                   26         27         28
    26  H    0.000000
    27  H    2.727629   0.000000
    28  H    2.465661   1.751508   0.000000
 Symmetry turned off by external request.
 Stoichiometry    C12H16
 Framework group  C1[X(C12H16)]
 Deg. of freedom    78
 Full point group                 C1      NOp   1
 Rotational constants (GHZ):           1.4694618           0.6229074           0.6062348
 Leave Link  202 at Tue Sep 15 22:51:53 2020, MaxMem=  6442450944 cpu:               1.3 elap:               0.1
 (Enter /scratch/scicomp/CentOS/7.3.1611/Haswell/software/Gaussian/g16/l301.exe)
 Standard basis: 6-31G(d) (6D, 7F)
 Ernie: Thresh=  0.10000D-02 Tol=  0.10000D-05 Strict=F.
   212 basis functions,   400 primitive gaussians,   212 cartesian basis functions
    44 alpha electrons       44 beta electrons
       nuclear repulsion energy       674.0431799455 Hartrees.
 IExCor=  402 DFT=T Ex+Corr=B3LYP ExCW=0 ScaHFX=  0.200000
 ScaDFX=  0.800000  0.720000  1.000000  0.810000 ScalE2=  1.000000  1.000000
 IRadAn=      5 IRanWt=     -1 IRanGd=            0 ICorTp=0 IEmpDi=  4
 NAtoms=   28 NActive=   28 NUniq=   28 SFac= 1.00D+00 NAtFMM=   60 NAOKFM=F Big=F
 Integral buffers will be    131072 words long.
 Raffenetti 2 integral format.
 Two-electron integral symmetry is turned off.
 Using the following non-standard input for PCM:
 norep pcmdoc geomview nodis cav g03defaults noaddsph tsare=0.075
 Warning! Using old PCM defaults because the g03defaults keyword was found.
 These settings can be overridden by following keywords.
 nsfe=28
 Vmol=108.16026217709805 rsolv=2.815
 --- end of non-standard input.
 Reading user-defined spheres from input:
 ISph  on   Nord    Re0     Alpha      Xe            Ye            Ze
 --- end of user-defined spheres data.
 ------------------------------------------------------------------------------
 Polarizable Continuum Model (PCM)
 =================================
 Model                : PCM.
 Atomic radii         : UA0 (Simple United Atom Topological Model).
 Polarization charges : Total charges.
 Charge compensation  : None.
 Solution method      : On-the-fly selection.
 Cavity type          : VdW (van der Waals Surface) (Alpha=1.000).
 Cavity algorithm     : GePol (No added spheres)
                        User-defined sphere list used, NSphG=   28.
                        Tesserae with average area of 0.075 Ang**2.
                        Smoothing algorithm: None.
                        Polarization charges: point-like.
                        Self-potential: constant (ISelfS= 1).
                        Self-field    : global E.n sum rule (ISelfD= 3).
 Solvent              : CycloHexane, Eps=   2.016500 Eps(inf)=   2.035188
 ------------------------------------------------------------------------------
 GePol: Number of generator spheres                  =      28
 GePol: Total number of spheres                      =      28
 GePol: Number of exposed spheres                    =      28 (100.00%)
 GePol: Number of tesserae                           =    3992
 GePol: Average area of tesserae                     =       0.06 Ang**2
 GePol: Minimum area of tessera                      =   0.10D-02 Ang**2
 GePol: Maximum area of tessera                      =    0.12395 Ang**2
 GePol: Number of small tesserae                     =       0
 GePol: Fraction of small tesserae (<1% of avg)      =       0.00%
 GePol: Total count of vertices                      =   13244
 GePol: Maximum number of vertices in a tessera      =       6
 GePol: Cavity surface area                          =    243.032 Ang**2
 GePol: Cavity volume                                =    247.011 Ang**3
 PCM non-electrostatic energy =         0.0375842239 Hartrees.
 Nuclear repulsion after PCM non-electrostatic terms =      674.0807641694 Hartrees.
 Leave Link  301 at Tue Sep 15 22:51:54 2020, MaxMem=  6442450944 cpu:               3.6 elap:               0.2
0******************
 *Kjob Termination*
 *  in Link    301*
 ******************
 Job cpu time:       0 days  0 hours  0 minutes  9.5 seconds.
 Elapsed time:       0 days  0 hours  0 minutes  0.5 seconds.
 File lengths (MBytes):  RWF=    283 Int=      0 D2E=      0 Chk=      1 Scr=      1
 Normal termination of Gaussian 16 at Tue Sep 15 22:51:54 2020.
 Initial command:
 /scratch/scicomp/CentOS/7.3.1611/Haswell/software/Gaussian/g16/l1.exe "/scratch/bochen/test/xppcm/tmp/Gau-397774.inp" -scrdir="/scratch/bochen/test/xppcm/tmp/"
 Entering Link 1 = /scratch/scicomp/CentOS/7.3.1611/Haswell/software/Gaussian/g16/l1.exe PID=    397869.
  
 Copyright (c) 1988-2017, Gaussian, Inc.  All Rights Reserved.
  
 This is part of the Gaussian(R) 16 program.  It is based on
 the Gaussian(R) 09 system (copyright 2009, Gaussian, Inc.),
 the Gaussian(R) 03 system (copyright 2003, Gaussian, Inc.),
 the Gaussian(R) 98 system (copyright 1998, Gaussian, Inc.),
 the Gaussian(R) 94 system (copyright 1995, Gaussian, Inc.),
 the Gaussian 92(TM) system (copyright 1992, Gaussian, Inc.),
 the Gaussian 90(TM) system (copyright 1990, Gaussian, Inc.),
 the Gaussian 88(TM) system (copyright 1988, Gaussian, Inc.),
 the Gaussian 86(TM) system (copyright 1986, Carnegie Mellon
 University), and the Gaussian 82(TM) system (copyright 1983,
 Carnegie Mellon University). Gaussian is a federally registered
 trademark of Gaussian, Inc.
  
 This software contains proprietary and confidential information,
 including trade secrets, belonging to Gaussian, Inc.
  
 This software is provided under written license and may be
 used, copied, transmitted, or stored only in accord with that
 written license.
  
 The following legend is applicable only to US Government
 contracts under FAR:
  
                    RESTRICTED RIGHTS LEGEND
  
 Use, reproduction and disclosure by the US Government is
 subject to restrictions as set forth in subparagraphs (a)
 and (c) of the Commercial Computer Software - Restricted
 Rights clause in FAR 52.227-19.
  
 Gaussian, Inc.
 340 Quinnipiac St., Bldg. 40, Wallingford CT 06492
  
  
 ---------------------------------------------------------------
 Warning -- This program may not be used in any manner that
 competes with the business of Gaussian, Inc. or will provide
 assistance to any competitor of Gaussian, Inc.  The licensee
 of this program is prohibited from giving any competitor of
 Gaussian, Inc. access to this program.  By using this program,
 the user acknowledges that Gaussian, Inc. is engaged in the
 business of creating and licensing software in the field of
 computational chemistry and represents and warrants to the
 licensee that it is not a competitor of Gaussian, Inc. and that
 it will not use this program in any manner prohibited above.
 ---------------------------------------------------------------
  

 Cite this work as:
 Gaussian 16, Revision B.01,
 M. J. Frisch, G. W. Trucks, H. B. Schlegel, G. E. Scuseria, 
 M. A. Robb, J. R. Cheeseman, G. Scalmani, V. Barone, 
 G. A. Petersson, H. Nakatsuji, X. Li, M. Caricato, A. V. Marenich, 
 J. Bloino, B. G. Janesko, R. Gomperts, B. Mennucci, H. P. Hratchian, 
 J. V. Ortiz, A. F. Izmaylov, J. L. Sonnenberg, D. Williams-Young, 
 F. Ding, F. Lipparini, F. Egidi, J. Goings, B. Peng, A. Petrone, 
 T. Henderson, D. Ranasinghe, V. G. Zakrzewski, J. Gao, N. Rega, 
 G. Zheng, W. Liang, M. Hada, M. Ehara, K. Toyota, R. Fukuda, 
 J. Hasegawa, M. Ishida, T. Nakajima, Y. Honda, O. Kitao, H. Nakai, 
 T. Vreven, K. Throssell, J. A. Montgomery, Jr., J. E. Peralta, 
 F. Ogliaro, M. J. Bearpark, J. J. Heyd, E. N. Brothers, K. N. Kudin, 
 V. N. Staroverov, T. A. Keith, R. Kobayashi, J. Normand, 
 K. Raghavachari, A. P. Rendell, J. C. Burant, S. S. Iyengar, 
 J. Tomasi, M. Cossi, J. M. Millam, M. Klene, C. Adamo, R. Cammi, 
 J. W. Ochterski, R. L. Martin, K. Morokuma, O. Farkas, 
 J. B. Foresman, and D. J. Fox, Gaussian, Inc., Wallingford CT, 2016.
 
 ******************************************
 Gaussian 16:  ES64L-G16RevB.01 20-Dec-2017
                15-Sep-2020 
 ******************************************
 %kjob l301
 kjob at link  301 occurrence number     1
 %chk=structure-1-Gcav.chk
 %nproc=24
 Will use up to   24 processors via shared memory.
 %mem=48gb
 ----------------------------------------------------------------------
 #p b3lyp 6-31g* # scrf=(iefpcm,solvent=cyclohexane,read) nosym guess=o
 nly pop=none
 ----------------------------------------------------------------------
 1/38=1,40=2,172=1/1;
 2/12=2,15=1,17=6,18=5,40=1/2;
 3/5=1,6=6,7=1,11=2,25=1,30=1,70=2203,72=17,74=-5,89=1/1,2;
 4//1;
 99/5=2/99;
 Leave Link    1 at Tue Sep 15 22:51:54 2020, MaxMem=  6442450944 cpu:               1.7 elap:               0.1
 (Enter /scratch/scicomp/CentOS/7.3.1611/Haswell/software/Gaussian/g16/l101.exe)
 -----
 title
 -----
 Symbolic Z-matrix:
 Charge =  0 Multiplicity = 1
 C                    -0.94124   0.70908  -1.4475 
 C                    -1.13014  -0.58644  -1.68876 
 H                    -0.18738   1.27001  -1.98589 
 H                    -0.54648  -1.09783  -2.44561 
 C                    -2.21372  -1.34936  -0.97802 
 H                    -3.12368  -1.30166  -1.59142 
 H                    -1.95315  -2.40636  -0.90133 
 C                    -1.7532    1.40646  -0.45097 
 H                    -1.71848   2.4886   -0.41654 
 C                    -2.49877   0.72317   0.4162 
 H                    -3.07235   1.24066   1.17649 
 C                    -2.49825  -0.78022   0.41217 
 H                    -3.44748  -1.16681   0.78712 
 H                    -1.72467  -1.12206   1.11127 
 C                     2.57601  -0.05843  -0.6248 
 C                     2.2592    1.24552   0.05234 
 C                     1.44333   1.28353   1.10478 
 C                     0.86446   0.05338   1.64254 
 C                     1.34311  -1.13538   1.28108 
 C                     2.51895  -1.23548   0.34881 
 H                     1.1756    2.2279    1.56276 
 H                     2.65828   2.16115  -0.36856 
 H                     1.84141  -0.21171  -1.4257 
 H                     3.55518  -0.01674  -1.10484 
 H                     0.04304   0.13194   2.3441 
 H                     0.93188  -2.04682   1.69955 
 H                     3.43502  -1.25998   0.95447 
 H                     2.49356  -2.17599  -0.20413 
 
 ITRead=  0  0  0  0  0  0  0  0  0  0  0  0  0  0  0  0  0  0  0  0
 ITRead=  0  0  0  0  0  0  0  0
 MicOpt= -1 -1 -1 -1 -1 -1 -1 -1 -1 -1 -1 -1 -1 -1 -1 -1 -1 -1 -1 -1
 MicOpt= -1 -1 -1 -1 -1 -1 -1 -1
 NAtoms=     28 NQM=       28 NQMF=       0 NMMI=      0 NMMIF=      0
                NMic=       0 NMicF=      0.
                    Isotopes and Nuclear Properties:
 (Nuclear quadrupole moments (NQMom) in fm**2, nuclear magnetic moments (NMagM)
  in nuclear magnetons)

  Atom         1           2           3           4           5           6           7           8           9          10
 IAtWgt=          12          12           1           1          12           1           1          12           1          12
 AtmWgt=  12.0000000  12.0000000   1.0078250   1.0078250  12.0000000   1.0078250   1.0078250  12.0000000   1.0078250  12.0000000
 NucSpn=           0           0           1           1           0           1           1           0           1           0
 AtZEff=  -0.0000000  -0.0000000  -0.0000000  -0.0000000  -0.0000000  -0.0000000  -0.0000000  -0.0000000  -0.0000000  -0.0000000
 NQMom=    0.0000000   0.0000000   0.0000000   0.0000000   0.0000000   0.0000000   0.0000000   0.0000000   0.0000000   0.0000000
 NMagM=    0.0000000   0.0000000   2.7928460   2.7928460   0.0000000   2.7928460   2.7928460   0.0000000   2.7928460   0.0000000
 AtZNuc=   6.0000000   6.0000000   1.0000000   1.0000000   6.0000000   1.0000000   1.0000000   6.0000000   1.0000000   6.0000000

  Atom        11          12          13          14          15          16          17          18          19          20
 IAtWgt=           1          12           1           1          12          12          12          12          12          12
 AtmWgt=   1.0078250  12.0000000   1.0078250   1.0078250  12.0000000  12.0000000  12.0000000  12.0000000  12.0000000  12.0000000
 NucSpn=           1           0           1           1           0           0           0           0           0           0
 AtZEff=  -0.0000000  -0.0000000  -0.0000000  -0.0000000  -0.0000000  -0.0000000  -0.0000000  -0.0000000  -0.0000000  -0.0000000
 NQMom=    0.0000000   0.0000000   0.0000000   0.0000000   0.0000000   0.0000000   0.0000000   0.0000000   0.0000000   0.0000000
 NMagM=    2.7928460   0.0000000   2.7928460   2.7928460   0.0000000   0.0000000   0.0000000   0.0000000   0.0000000   0.0000000
 AtZNuc=   1.0000000   6.0000000   1.0000000   1.0000000   6.0000000   6.0000000   6.0000000   6.0000000   6.0000000   6.0000000

  Atom        21          22          23          24          25          26          27          28
 IAtWgt=           1           1           1           1           1           1           1           1
 AtmWgt=   1.0078250   1.0078250   1.0078250   1.0078250   1.0078250   1.0078250   1.0078250   1.0078250
 NucSpn=           1           1           1           1           1           1           1           1
 AtZEff=  -0.0000000  -0.0000000  -0.0000000  -0.0000000  -0.0000000  -0.0000000  -0.0000000  -0.0000000
 NQMom=    0.0000000   0.0000000   0.0000000   0.0000000   0.0000000   0.0000000   0.0000000   0.0000000
 NMagM=    2.7928460   2.7928460   2.7928460   2.7928460   2.7928460   2.7928460   2.7928460   2.7928460
 AtZNuc=   1.0000000   1.0000000   1.0000000   1.0000000   1.0000000   1.0000000   1.0000000   1.0000000
 Leave Link  101 at Tue Sep 15 22:51:54 2020, MaxMem=  6442450944 cpu:               2.8 elap:               0.2
 (Enter /scratch/scicomp/CentOS/7.3.1611/Haswell/software/Gaussian/g16/l202.exe)
                          Input orientation:                          
 ---------------------------------------------------------------------
 Center     Atomic      Atomic             Coordinates (Angstroms)
 Number     Number       Type             X           Y           Z
 ---------------------------------------------------------------------
      1          6           0       -0.941240    0.709078   -1.447500
      2          6           0       -1.130144   -0.586439   -1.688764
      3          1           0       -0.187383    1.270013   -1.985885
      4          1           0       -0.546479   -1.097826   -2.445614
      5          6           0       -2.213721   -1.349362   -0.978023
      6          1           0       -3.123677   -1.301662   -1.591424
      7          1           0       -1.953148   -2.406359   -0.901332
      8          6           0       -1.753199    1.406457   -0.450967
      9          1           0       -1.718481    2.488604   -0.416537
     10          6           0       -2.498772    0.723169    0.416199
     11          1           0       -3.072350    1.240660    1.176490
     12          6           0       -2.498247   -0.780221    0.412174
     13          1           0       -3.447477   -1.166814    0.787115
     14          1           0       -1.724665   -1.122064    1.111268
     15          6           0        2.576005   -0.058432   -0.624796
     16          6           0        2.259201    1.245519    0.052337
     17          6           0        1.443331    1.283534    1.104783
     18          6           0        0.864455    0.053379    1.642538
     19          6           0        1.343111   -1.135379    1.281075
     20          6           0        2.518953   -1.235476    0.348814
     21          1           0        1.175601    2.227900    1.562761
     22          1           0        2.658280    2.161148   -0.368562
     23          1           0        1.841411   -0.211714   -1.425701
     24          1           0        3.555179   -0.016744   -1.104840
     25          1           0        0.043038    0.131938    2.344097
     26          1           0        0.931882   -2.046820    1.699547
     27          1           0        3.435020   -1.259975    0.954472
     28          1           0        2.493558   -2.175989   -0.204125
 ---------------------------------------------------------------------
                    Distance matrix (angstroms):
                    1          2          3          4          5
     1  C    0.000000
     2  C    1.331262   0.000000
     3  H    1.082962   2.103210   0.000000
     4  H    2.101659   1.083976   2.438639   0.000000
     5  C    2.465115   1.503776   3.461641   2.235350   0.000000
     6  H    2.970997   2.120187   3.923128   2.722708   1.098433
     7  H    3.320874   2.146973   4.220177   2.464910   1.091340
     8  C    1.462427   2.427339   2.196900   3.421436   2.843309
     9  H    2.198568   3.379437   2.508402   4.284066   3.910308
    10  C    2.428884   2.831799   3.378101   3.913751   2.514059
    11  H    3.421919   3.914094   4.280714   4.996817   3.476692
    12  C    2.846168   2.514597   3.910785   3.475230   1.528896
    13  H    3.846258   3.440472   4.925025   4.344086   2.161294
    14  H    3.242550   2.912135   4.204477   3.747015   2.157771
    15  C    3.692821   3.891832   3.354645   3.761067   4.973203
    16  C    3.574927   4.227903   3.184450   4.427512   5.272768
    17  C    3.539820   4.233613   3.494516   4.715457   4.964298
    18  C    3.638518   3.935145   3.968881   4.475376   4.279041
    19  C    4.008167   3.903623   4.336052   4.178537   4.219048
    20  C    4.356715   4.229525   4.364923   4.150259   4.916469
    21  H    3.981144   4.879486   3.920225   5.485716   5.544357
    22  H    4.028543   4.862543   3.392293   5.020512   6.035853
    23  H    2.931123   3.006619   2.573971   2.743617   4.235417
    24  H    4.567496   4.755814   4.054473   4.448597   5.922175
    25  H    3.959558   4.261031   4.482974   4.980078   4.280618
    26  H    4.583390   4.226738   5.082966   4.502055   4.189349
    27  H    5.366404   5.317995   5.307386   5.238245   5.970829
    28  H    4.654829   4.226350   4.715617   3.927917   4.841560
                    6          7          8          9         10
     6  H    0.000000
     7  H    1.751205   0.000000
     8  C    3.242339   3.844525   0.000000
     9  H    4.209638   4.924506   1.083251   0.000000
    10  C    2.919075   3.439119   1.332193   2.102157   0.000000
    11  H    3.758641   4.344042   2.101491   2.434761   1.083896
    12  C    2.162746   2.160268   2.466104   3.461216   1.503395
    13  H    2.404263   2.573003   3.320414   4.219039   2.147011
    14  H    3.048612   2.398370   2.972341   3.920606   2.118312
    15  C    5.913236   5.109057   4.573634   4.997337   5.239077
    16  C    6.177820   5.655933   4.047045   4.193693   4.800370
    17  C    5.900028   5.401470   3.557144   3.709941   4.040833
    18  C    5.310352   4.523325   3.614650   4.103860   3.641953
    19  C    5.313294   4.152543   4.364405   5.038699   4.354570
    20  C    5.967259   4.788895   5.086329   5.693012   5.386872
    21  H    6.394567   6.110416   3.647977   3.515864   4.132776
    22  H    6.849633   6.512391   4.476326   4.389256   5.410991
    23  H    5.086015   4.414760   4.060764   4.580716   4.806640
    24  H    6.818717   6.007773   5.534612   5.878947   6.285806
    25  H    5.250868   4.578266   3.558546   4.034591   3.244556
    26  H    5.275728   3.900928   4.874371   5.663242   4.592299
    27  H    7.035612   5.812965   6.000228   6.518442   6.279529
    28  H    5.851698   4.506924   5.561456   6.288467   5.806314
                   11         12         13         14         15
    11  H    0.000000
    12  C    2.235561   0.000000
    13  H    2.467441   1.091363   0.000000
    14  H    2.720841   1.097278   1.753613   0.000000
    15  C    6.069282   5.229180   6.285248   4.758255   0.000000
    16  C    5.448778   5.183282   6.239024   4.753732   1.503051
    17  C    4.516454   4.502758   5.479518   3.977831   2.464806
    18  C    4.138269   3.676472   4.562168   2.892656   2.843010
    19  C    5.015256   3.954385   4.816089   3.072501   2.512407
    20  C    6.170816   5.038211   5.982901   4.313061   1.528595
    21  H    4.378234   4.885673   5.787794   4.453947   3.460325
    22  H    6.006214   5.987568   7.049198   5.672705   2.235836
    23  H    5.746811   4.746959   5.812152   4.470106   1.097530
    24  H    7.121072   6.287145   7.344341   5.831777   1.091312
    25  H    3.506881   3.320014   4.036663   2.493424   3.907235
    26  H    5.207205   3.876517   4.559137   2.873758   3.472664
    27  H    6.974836   5.977283   6.885162   5.163909   2.162337
    28  H    6.675247   5.219781   6.107118   4.542513   2.160511
                   16         17         18         19         20
    16  C    0.000000
    17  C    1.332191   0.000000
    18  C    2.428014   1.462039   0.000000
    19  C    2.831553   2.427398   1.331508   0.000000
    20  C    2.512112   2.841454   2.464190   1.503906   0.000000
    21  H    2.102532   1.083167   2.198117   3.379209   3.908099
    22  H    1.083880   2.101679   3.421260   3.913830   3.474348
    23  H    2.117232   2.966072   3.230914   2.903118   2.157789
    24  H    2.147539   3.321605   3.846167   3.440520   2.161523
    25  H    3.376922   2.196109   1.083089   2.103877   3.461377
    26  H    3.913384   3.421488   2.102054   1.083952   2.236415
    27  H    2.910996   3.234016   2.967514   2.120914   1.098454
    28  H    3.439101   3.845064   3.321780   2.147607   1.091307
                   21         22         23         24         25
    21  H    0.000000
    22  H    2.435734   0.000000
    23  H    3.914834   2.723103   0.000000
    24  H    4.221009   2.467741   1.754413   0.000000
    25  H    2.507238   4.279685   4.190897   4.924673   0.000000
    26  H    4.283846   4.996451   3.736580   4.343672   2.439769
    27  H    4.200031   3.749377   3.050191   2.408491   3.920972
    28  H    4.924747   4.343378   2.403314   2.569176   4.221968
                   26         27         28
    26  H    0.000000
    27  H    2.727629   0.000000
    28  H    2.465661   1.751508   0.000000
 Symmetry turned off by external request.
 Stoichiometry    C12H16
 Framework group  C1[X(C12H16)]
 Deg. of freedom    78
 Full point group                 C1      NOp   1
 Rotational constants (GHZ):           1.4694618           0.6229074           0.6062348
 Leave Link  202 at Tue Sep 15 22:51:54 2020, MaxMem=  6442450944 cpu:               1.3 elap:               0.1
 (Enter /scratch/scicomp/CentOS/7.3.1611/Haswell/software/Gaussian/g16/l301.exe)
 Standard basis: 6-31G(d) (6D, 7F)
 Ernie: Thresh=  0.10000D-02 Tol=  0.10000D-05 Strict=F.
   212 basis functions,   400 primitive gaussians,   212 cartesian basis functions
    44 alpha electrons       44 beta electrons
       nuclear repulsion energy       674.0431799455 Hartrees.
 IExCor=  402 DFT=T Ex+Corr=B3LYP ExCW=0 ScaHFX=  0.200000
 ScaDFX=  0.800000  0.720000  1.000000  0.810000 ScalE2=  1.000000  1.000000
 IRadAn=      5 IRanWt=     -1 IRanGd=            0 ICorTp=0 IEmpDi=  4
 NAtoms=   28 NActive=   28 NUniq=   28 SFac= 1.00D+00 NAtFMM=   60 NAOKFM=F Big=F
 Integral buffers will be    131072 words long.
 Raffenetti 2 integral format.
 Two-electron integral symmetry is turned off.
 Using the following non-standard input for PCM:
 norep pcmdoc geomview nodis cav g03defaults noaddsph tsare=0.075
 Warning! Using old PCM defaults because the g03defaults keyword was found.
 These settings can be overridden by following keywords.
 nsfe=28
 Vmol=101.72108123654503 rsolv=2.815
 --- end of non-standard input.
 Reading user-defined spheres from input:
 ISph  on   Nord    Re0     Alpha      Xe            Ye            Ze
 --- end of user-defined spheres data.
 ------------------------------------------------------------------------------
 Polarizable Continuum Model (PCM)
 =================================
 Model                : PCM.
 Atomic radii         : UA0 (Simple United Atom Topological Model).
 Polarization charges : Total charges.
 Charge compensation  : None.
 Solution method      : On-the-fly selection.
 Cavity type          : VdW (van der Waals Surface) (Alpha=1.000).
 Cavity algorithm     : GePol (No added spheres)
                        User-defined sphere list used, NSphG=   28.
                        Tesserae with average area of 0.075 Ang**2.
                        Smoothing algorithm: None.
                        Polarization charges: point-like.
                        Self-potential: constant (ISelfS= 1).
                        Self-field    : global E.n sum rule (ISelfD= 3).
 Solvent              : CycloHexane, Eps=   2.016500 Eps(inf)=   2.035188
 ------------------------------------------------------------------------------
 GePol: Number of generator spheres                  =      28
 GePol: Total number of spheres                      =      28
 GePol: Number of exposed spheres                    =      28 (100.00%)
 GePol: Number of tesserae                           =    3992
 GePol: Average area of tesserae                     =       0.06 Ang**2
 GePol: Minimum area of tessera                      =   0.10D-02 Ang**2
 GePol: Maximum area of tessera                      =    0.12395 Ang**2
 GePol: Number of small tesserae                     =       0
 GePol: Fraction of small tesserae (<1% of avg)      =       0.00%
 GePol: Total count of vertices                      =   13244
 GePol: Maximum number of vertices in a tessera      =       6
 GePol: Cavity surface area                          =    243.032 Ang**2
 GePol: Cavity volume                                =    247.011 Ang**3
 PCM non-electrostatic energy =         0.0446541322 Hartrees.
 Nuclear repulsion after PCM non-electrostatic terms =      674.0878340777 Hartrees.
 Leave Link  301 at Tue Sep 15 22:51:54 2020, MaxMem=  6442450944 cpu:               3.6 elap:               0.2
0******************
 *Kjob Termination*
 *  in Link    301*
 ******************
 Job cpu time:       0 days  0 hours  0 minutes  9.4 seconds.
 Elapsed time:       0 days  0 hours  0 minutes  0.5 seconds.
 File lengths (MBytes):  RWF=    283 Int=      0 D2E=      0 Chk=      1 Scr=      1
 Normal termination of Gaussian 16 at Tue Sep 15 22:51:54 2020.
 Initial command:
 /scratch/scicomp/CentOS/7.3.1611/Haswell/software/Gaussian/g16/l1.exe "/scratch/bochen/test/xppcm/tmp/Gau-397774.inp" -scrdir="/scratch/bochen/test/xppcm/tmp/"
 Entering Link 1 = /scratch/scicomp/CentOS/7.3.1611/Haswell/software/Gaussian/g16/l1.exe PID=    397962.
  
 Copyright (c) 1988-2017, Gaussian, Inc.  All Rights Reserved.
  
 This is part of the Gaussian(R) 16 program.  It is based on
 the Gaussian(R) 09 system (copyright 2009, Gaussian, Inc.),
 the Gaussian(R) 03 system (copyright 2003, Gaussian, Inc.),
 the Gaussian(R) 98 system (copyright 1998, Gaussian, Inc.),
 the Gaussian(R) 94 system (copyright 1995, Gaussian, Inc.),
 the Gaussian 92(TM) system (copyright 1992, Gaussian, Inc.),
 the Gaussian 90(TM) system (copyright 1990, Gaussian, Inc.),
 the Gaussian 88(TM) system (copyright 1988, Gaussian, Inc.),
 the Gaussian 86(TM) system (copyright 1986, Carnegie Mellon
 University), and the Gaussian 82(TM) system (copyright 1983,
 Carnegie Mellon University). Gaussian is a federally registered
 trademark of Gaussian, Inc.
  
 This software contains proprietary and confidential information,
 including trade secrets, belonging to Gaussian, Inc.
  
 This software is provided under written license and may be
 used, copied, transmitted, or stored only in accord with that
 written license.
  
 The following legend is applicable only to US Government
 contracts under FAR:
  
                    RESTRICTED RIGHTS LEGEND
  
 Use, reproduction and disclosure by the US Government is
 subject to restrictions as set forth in subparagraphs (a)
 and (c) of the Commercial Computer Software - Restricted
 Rights clause in FAR 52.227-19.
  
 Gaussian, Inc.
 340 Quinnipiac St., Bldg. 40, Wallingford CT 06492
  
  
 ---------------------------------------------------------------
 Warning -- This program may not be used in any manner that
 competes with the business of Gaussian, Inc. or will provide
 assistance to any competitor of Gaussian, Inc.  The licensee
 of this program is prohibited from giving any competitor of
 Gaussian, Inc. access to this program.  By using this program,
 the user acknowledges that Gaussian, Inc. is engaged in the
 business of creating and licensing software in the field of
 computational chemistry and represents and warrants to the
 licensee that it is not a competitor of Gaussian, Inc. and that
 it will not use this program in any manner prohibited above.
 ---------------------------------------------------------------
  

 Cite this work as:
 Gaussian 16, Revision B.01,
 M. J. Frisch, G. W. Trucks, H. B. Schlegel, G. E. Scuseria, 
 M. A. Robb, J. R. Cheeseman, G. Scalmani, V. Barone, 
 G. A. Petersson, H. Nakatsuji, X. Li, M. Caricato, A. V. Marenich, 
 J. Bloino, B. G. Janesko, R. Gomperts, B. Mennucci, H. P. Hratchian, 
 J. V. Ortiz, A. F. Izmaylov, J. L. Sonnenberg, D. Williams-Young, 
 F. Ding, F. Lipparini, F. Egidi, J. Goings, B. Peng, A. Petrone, 
 T. Henderson, D. Ranasinghe, V. G. Zakrzewski, J. Gao, N. Rega, 
 G. Zheng, W. Liang, M. Hada, M. Ehara, K. Toyota, R. Fukuda, 
 J. Hasegawa, M. Ishida, T. Nakajima, Y. Honda, O. Kitao, H. Nakai, 
 T. Vreven, K. Throssell, J. A. Montgomery, Jr., J. E. Peralta, 
 F. Ogliaro, M. J. Bearpark, J. J. Heyd, E. N. Brothers, K. N. Kudin, 
 V. N. Staroverov, T. A. Keith, R. Kobayashi, J. Normand, 
 K. Raghavachari, A. P. Rendell, J. C. Burant, S. S. Iyengar, 
 J. Tomasi, M. Cossi, J. M. Millam, M. Klene, C. Adamo, R. Cammi, 
 J. W. Ochterski, R. L. Martin, K. Morokuma, O. Farkas, 
 J. B. Foresman, and D. J. Fox, Gaussian, Inc., Wallingford CT, 2016.
 
 ******************************************
 Gaussian 16:  ES64L-G16RevB.01 20-Dec-2017
                15-Sep-2020 
 ******************************************
 %kjob l301
 kjob at link  301 occurrence number     1
 %chk=structure-1-Gcav.chk
 %nproc=24
 Will use up to   24 processors via shared memory.
 %mem=48gb
 ----------------------------------------------------------------------
 #p b3lyp 6-31g* # scrf=(iefpcm,solvent=cyclohexane,read) nosym guess=o
 nly pop=none
 ----------------------------------------------------------------------
 1/38=1,40=2,172=1/1;
 2/12=2,15=1,17=6,18=5,40=1/2;
 3/5=1,6=6,7=1,11=2,25=1,30=1,70=2203,72=17,74=-5,89=1/1,2;
 4//1;
 99/5=2/99;
 Leave Link    1 at Tue Sep 15 22:51:55 2020, MaxMem=  6442450944 cpu:               1.7 elap:               0.1
 (Enter /scratch/scicomp/CentOS/7.3.1611/Haswell/software/Gaussian/g16/l101.exe)
 -----
 title
 -----
 Symbolic Z-matrix:
 Charge =  0 Multiplicity = 1
 C                    -0.94124   0.70908  -1.4475 
 C                    -1.13014  -0.58644  -1.68876 
 H                    -0.18738   1.27001  -1.98589 
 H                    -0.54648  -1.09783  -2.44561 
 C                    -2.21372  -1.34936  -0.97802 
 H                    -3.12368  -1.30166  -1.59142 
 H                    -1.95315  -2.40636  -0.90133 
 C                    -1.7532    1.40646  -0.45097 
 H                    -1.71848   2.4886   -0.41654 
 C                    -2.49877   0.72317   0.4162 
 H                    -3.07235   1.24066   1.17649 
 C                    -2.49825  -0.78022   0.41217 
 H                    -3.44748  -1.16681   0.78712 
 H                    -1.72467  -1.12206   1.11127 
 C                     2.57601  -0.05843  -0.6248 
 C                     2.2592    1.24552   0.05234 
 C                     1.44333   1.28353   1.10478 
 C                     0.86446   0.05338   1.64254 
 C                     1.34311  -1.13538   1.28108 
 C                     2.51895  -1.23548   0.34881 
 H                     1.1756    2.2279    1.56276 
 H                     2.65828   2.16115  -0.36856 
 H                     1.84141  -0.21171  -1.4257 
 H                     3.55518  -0.01674  -1.10484 
 H                     0.04304   0.13194   2.3441 
 H                     0.93188  -2.04682   1.69955 
 H                     3.43502  -1.25998   0.95447 
 H                     2.49356  -2.17599  -0.20413 
 
 ITRead=  0  0  0  0  0  0  0  0  0  0  0  0  0  0  0  0  0  0  0  0
 ITRead=  0  0  0  0  0  0  0  0
 MicOpt= -1 -1 -1 -1 -1 -1 -1 -1 -1 -1 -1 -1 -1 -1 -1 -1 -1 -1 -1 -1
 MicOpt= -1 -1 -1 -1 -1 -1 -1 -1
 NAtoms=     28 NQM=       28 NQMF=       0 NMMI=      0 NMMIF=      0
                NMic=       0 NMicF=      0.
                    Isotopes and Nuclear Properties:
 (Nuclear quadrupole moments (NQMom) in fm**2, nuclear magnetic moments (NMagM)
  in nuclear magnetons)

  Atom         1           2           3           4           5           6           7           8           9          10
 IAtWgt=          12          12           1           1          12           1           1          12           1          12
 AtmWgt=  12.0000000  12.0000000   1.0078250   1.0078250  12.0000000   1.0078250   1.0078250  12.0000000   1.0078250  12.0000000
 NucSpn=           0           0           1           1           0           1           1           0           1           0
 AtZEff=  -0.0000000  -0.0000000  -0.0000000  -0.0000000  -0.0000000  -0.0000000  -0.0000000  -0.0000000  -0.0000000  -0.0000000
 NQMom=    0.0000000   0.0000000   0.0000000   0.0000000   0.0000000   0.0000000   0.0000000   0.0000000   0.0000000   0.0000000
 NMagM=    0.0000000   0.0000000   2.7928460   2.7928460   0.0000000   2.7928460   2.7928460   0.0000000   2.7928460   0.0000000
 AtZNuc=   6.0000000   6.0000000   1.0000000   1.0000000   6.0000000   1.0000000   1.0000000   6.0000000   1.0000000   6.0000000

  Atom        11          12          13          14          15          16          17          18          19          20
 IAtWgt=           1          12           1           1          12          12          12          12          12          12
 AtmWgt=   1.0078250  12.0000000   1.0078250   1.0078250  12.0000000  12.0000000  12.0000000  12.0000000  12.0000000  12.0000000
 NucSpn=           1           0           1           1           0           0           0           0           0           0
 AtZEff=  -0.0000000  -0.0000000  -0.0000000  -0.0000000  -0.0000000  -0.0000000  -0.0000000  -0.0000000  -0.0000000  -0.0000000
 NQMom=    0.0000000   0.0000000   0.0000000   0.0000000   0.0000000   0.0000000   0.0000000   0.0000000   0.0000000   0.0000000
 NMagM=    2.7928460   0.0000000   2.7928460   2.7928460   0.0000000   0.0000000   0.0000000   0.0000000   0.0000000   0.0000000
 AtZNuc=   1.0000000   6.0000000   1.0000000   1.0000000   6.0000000   6.0000000   6.0000000   6.0000000   6.0000000   6.0000000

  Atom        21          22          23          24          25          26          27          28
 IAtWgt=           1           1           1           1           1           1           1           1
 AtmWgt=   1.0078250   1.0078250   1.0078250   1.0078250   1.0078250   1.0078250   1.0078250   1.0078250
 NucSpn=           1           1           1           1           1           1           1           1
 AtZEff=  -0.0000000  -0.0000000  -0.0000000  -0.0000000  -0.0000000  -0.0000000  -0.0000000  -0.0000000
 NQMom=    0.0000000   0.0000000   0.0000000   0.0000000   0.0000000   0.0000000   0.0000000   0.0000000
 NMagM=    2.7928460   2.7928460   2.7928460   2.7928460   2.7928460   2.7928460   2.7928460   2.7928460
 AtZNuc=   1.0000000   1.0000000   1.0000000   1.0000000   1.0000000   1.0000000   1.0000000   1.0000000
 Leave Link  101 at Tue Sep 15 22:51:55 2020, MaxMem=  6442450944 cpu:               2.8 elap:               0.2
 (Enter /scratch/scicomp/CentOS/7.3.1611/Haswell/software/Gaussian/g16/l202.exe)
                          Input orientation:                          
 ---------------------------------------------------------------------
 Center     Atomic      Atomic             Coordinates (Angstroms)
 Number     Number       Type             X           Y           Z
 ---------------------------------------------------------------------
      1          6           0       -0.941240    0.709078   -1.447500
      2          6           0       -1.130144   -0.586439   -1.688764
      3          1           0       -0.187383    1.270013   -1.985885
      4          1           0       -0.546479   -1.097826   -2.445614
      5          6           0       -2.213721   -1.349362   -0.978023
      6          1           0       -3.123677   -1.301662   -1.591424
      7          1           0       -1.953148   -2.406359   -0.901332
      8          6           0       -1.753199    1.406457   -0.450967
      9          1           0       -1.718481    2.488604   -0.416537
     10          6           0       -2.498772    0.723169    0.416199
     11          1           0       -3.072350    1.240660    1.176490
     12          6           0       -2.498247   -0.780221    0.412174
     13          1           0       -3.447477   -1.166814    0.787115
     14          1           0       -1.724665   -1.122064    1.111268
     15          6           0        2.576005   -0.058432   -0.624796
     16          6           0        2.259201    1.245519    0.052337
     17          6           0        1.443331    1.283534    1.104783
     18          6           0        0.864455    0.053379    1.642538
     19          6           0        1.343111   -1.135379    1.281075
     20          6           0        2.518953   -1.235476    0.348814
     21          1           0        1.175601    2.227900    1.562761
     22          1           0        2.658280    2.161148   -0.368562
     23          1           0        1.841411   -0.211714   -1.425701
     24          1           0        3.555179   -0.016744   -1.104840
     25          1           0        0.043038    0.131938    2.344097
     26          1           0        0.931882   -2.046820    1.699547
     27          1           0        3.435020   -1.259975    0.954472
     28          1           0        2.493558   -2.175989   -0.204125
 ---------------------------------------------------------------------
                    Distance matrix (angstroms):
                    1          2          3          4          5
     1  C    0.000000
     2  C    1.331262   0.000000
     3  H    1.082962   2.103210   0.000000
     4  H    2.101659   1.083976   2.438639   0.000000
     5  C    2.465115   1.503776   3.461641   2.235350   0.000000
     6  H    2.970997   2.120187   3.923128   2.722708   1.098433
     7  H    3.320874   2.146973   4.220177   2.464910   1.091340
     8  C    1.462427   2.427339   2.196900   3.421436   2.843309
     9  H    2.198568   3.379437   2.508402   4.284066   3.910308
    10  C    2.428884   2.831799   3.378101   3.913751   2.514059
    11  H    3.421919   3.914094   4.280714   4.996817   3.476692
    12  C    2.846168   2.514597   3.910785   3.475230   1.528896
    13  H    3.846258   3.440472   4.925025   4.344086   2.161294
    14  H    3.242550   2.912135   4.204477   3.747015   2.157771
    15  C    3.692821   3.891832   3.354645   3.761067   4.973203
    16  C    3.574927   4.227903   3.184450   4.427512   5.272768
    17  C    3.539820   4.233613   3.494516   4.715457   4.964298
    18  C    3.638518   3.935145   3.968881   4.475376   4.279041
    19  C    4.008167   3.903623   4.336052   4.178537   4.219048
    20  C    4.356715   4.229525   4.364923   4.150259   4.916469
    21  H    3.981144   4.879486   3.920225   5.485716   5.544357
    22  H    4.028543   4.862543   3.392293   5.020512   6.035853
    23  H    2.931123   3.006619   2.573971   2.743617   4.235417
    24  H    4.567496   4.755814   4.054473   4.448597   5.922175
    25  H    3.959558   4.261031   4.482974   4.980078   4.280618
    26  H    4.583390   4.226738   5.082966   4.502055   4.189349
    27  H    5.366404   5.317995   5.307386   5.238245   5.970829
    28  H    4.654829   4.226350   4.715617   3.927917   4.841560
                    6          7          8          9         10
     6  H    0.000000
     7  H    1.751205   0.000000
     8  C    3.242339   3.844525   0.000000
     9  H    4.209638   4.924506   1.083251   0.000000
    10  C    2.919075   3.439119   1.332193   2.102157   0.000000
    11  H    3.758641   4.344042   2.101491   2.434761   1.083896
    12  C    2.162746   2.160268   2.466104   3.461216   1.503395
    13  H    2.404263   2.573003   3.320414   4.219039   2.147011
    14  H    3.048612   2.398370   2.972341   3.920606   2.118312
    15  C    5.913236   5.109057   4.573634   4.997337   5.239077
    16  C    6.177820   5.655933   4.047045   4.193693   4.800370
    17  C    5.900028   5.401470   3.557144   3.709941   4.040833
    18  C    5.310352   4.523325   3.614650   4.103860   3.641953
    19  C    5.313294   4.152543   4.364405   5.038699   4.354570
    20  C    5.967259   4.788895   5.086329   5.693012   5.386872
    21  H    6.394567   6.110416   3.647977   3.515864   4.132776
    22  H    6.849633   6.512391   4.476326   4.389256   5.410991
    23  H    5.086015   4.414760   4.060764   4.580716   4.806640
    24  H    6.818717   6.007773   5.534612   5.878947   6.285806
    25  H    5.250868   4.578266   3.558546   4.034591   3.244556
    26  H    5.275728   3.900928   4.874371   5.663242   4.592299
    27  H    7.035612   5.812965   6.000228   6.518442   6.279529
    28  H    5.851698   4.506924   5.561456   6.288467   5.806314
                   11         12         13         14         15
    11  H    0.000000
    12  C    2.235561   0.000000
    13  H    2.467441   1.091363   0.000000
    14  H    2.720841   1.097278   1.753613   0.000000
    15  C    6.069282   5.229180   6.285248   4.758255   0.000000
    16  C    5.448778   5.183282   6.239024   4.753732   1.503051
    17  C    4.516454   4.502758   5.479518   3.977831   2.464806
    18  C    4.138269   3.676472   4.562168   2.892656   2.843010
    19  C    5.015256   3.954385   4.816089   3.072501   2.512407
    20  C    6.170816   5.038211   5.982901   4.313061   1.528595
    21  H    4.378234   4.885673   5.787794   4.453947   3.460325
    22  H    6.006214   5.987568   7.049198   5.672705   2.235836
    23  H    5.746811   4.746959   5.812152   4.470106   1.097530
    24  H    7.121072   6.287145   7.344341   5.831777   1.091312
    25  H    3.506881   3.320014   4.036663   2.493424   3.907235
    26  H    5.207205   3.876517   4.559137   2.873758   3.472664
    27  H    6.974836   5.977283   6.885162   5.163909   2.162337
    28  H    6.675247   5.219781   6.107118   4.542513   2.160511
                   16         17         18         19         20
    16  C    0.000000
    17  C    1.332191   0.000000
    18  C    2.428014   1.462039   0.000000
    19  C    2.831553   2.427398   1.331508   0.000000
    20  C    2.512112   2.841454   2.464190   1.503906   0.000000
    21  H    2.102532   1.083167   2.198117   3.379209   3.908099
    22  H    1.083880   2.101679   3.421260   3.913830   3.474348
    23  H    2.117232   2.966072   3.230914   2.903118   2.157789
    24  H    2.147539   3.321605   3.846167   3.440520   2.161523
    25  H    3.376922   2.196109   1.083089   2.103877   3.461377
    26  H    3.913384   3.421488   2.102054   1.083952   2.236415
    27  H    2.910996   3.234016   2.967514   2.120914   1.098454
    28  H    3.439101   3.845064   3.321780   2.147607   1.091307
                   21         22         23         24         25
    21  H    0.000000
    22  H    2.435734   0.000000
    23  H    3.914834   2.723103   0.000000
    24  H    4.221009   2.467741   1.754413   0.000000
    25  H    2.507238   4.279685   4.190897   4.924673   0.000000
    26  H    4.283846   4.996451   3.736580   4.343672   2.439769
    27  H    4.200031   3.749377   3.050191   2.408491   3.920972
    28  H    4.924747   4.343378   2.403314   2.569176   4.221968
                   26         27         28
    26  H    0.000000
    27  H    2.727629   0.000000
    28  H    2.465661   1.751508   0.000000
 Symmetry turned off by external request.
 Stoichiometry    C12H16
 Framework group  C1[X(C12H16)]
 Deg. of freedom    78
 Full point group                 C1      NOp   1
 Rotational constants (GHZ):           1.4694618           0.6229074           0.6062348
 Leave Link  202 at Tue Sep 15 22:51:55 2020, MaxMem=  6442450944 cpu:               1.3 elap:               0.1
 (Enter /scratch/scicomp/CentOS/7.3.1611/Haswell/software/Gaussian/g16/l301.exe)
 Standard basis: 6-31G(d) (6D, 7F)
 Ernie: Thresh=  0.10000D-02 Tol=  0.10000D-05 Strict=F.
   212 basis functions,   400 primitive gaussians,   212 cartesian basis functions
    44 alpha electrons       44 beta electrons
       nuclear repulsion energy       674.0431799455 Hartrees.
 IExCor=  402 DFT=T Ex+Corr=B3LYP ExCW=0 ScaHFX=  0.200000
 ScaDFX=  0.800000  0.720000  1.000000  0.810000 ScalE2=  1.000000  1.000000
 IRadAn=      5 IRanWt=     -1 IRanGd=            0 ICorTp=0 IEmpDi=  4
 NAtoms=   28 NActive=   28 NUniq=   28 SFac= 1.00D+00 NAtFMM=   60 NAOKFM=F Big=F
 Integral buffers will be    131072 words long.
 Raffenetti 2 integral format.
 Two-electron integral symmetry is turned off.
 Using the following non-standard input for PCM:
 norep pcmdoc geomview nodis cav g03defaults noaddsph tsare=0.075
 Warning! Using old PCM defaults because the g03defaults keyword was found.
 These settings can be overridden by following keywords.
 nsfe=28
 Vmol=95.79173129088203 rsolv=2.815
 --- end of non-standard input.
 Reading user-defined spheres from input:
 ISph  on   Nord    Re0     Alpha      Xe            Ye            Ze
 --- end of user-defined spheres data.
 ------------------------------------------------------------------------------
 Polarizable Continuum Model (PCM)
 =================================
 Model                : PCM.
 Atomic radii         : UA0 (Simple United Atom Topological Model).
 Polarization charges : Total charges.
 Charge compensation  : None.
 Solution method      : On-the-fly selection.
 Cavity type          : VdW (van der Waals Surface) (Alpha=1.000).
 Cavity algorithm     : GePol (No added spheres)
                        User-defined sphere list used, NSphG=   28.
                        Tesserae with average area of 0.075 Ang**2.
                        Smoothing algorithm: None.
                        Polarization charges: point-like.
                        Self-potential: constant (ISelfS= 1).
                        Self-field    : global E.n sum rule (ISelfD= 3).
 Solvent              : CycloHexane, Eps=   2.016500 Eps(inf)=   2.035188
 ------------------------------------------------------------------------------
 GePol: Number of generator spheres                  =      28
 GePol: Total number of spheres                      =      28
 GePol: Number of exposed spheres                    =      28 (100.00%)
 GePol: Number of tesserae                           =    3992
 GePol: Average area of tesserae                     =       0.06 Ang**2
 GePol: Minimum area of tessera                      =   0.10D-02 Ang**2
 GePol: Maximum area of tessera                      =    0.12395 Ang**2
 GePol: Number of small tesserae                     =       0
 GePol: Fraction of small tesserae (<1% of avg)      =       0.00%
 GePol: Total count of vertices                      =   13244
 GePol: Maximum number of vertices in a tessera      =       6
 GePol: Cavity surface area                          =    243.032 Ang**2
 GePol: Cavity volume                                =    247.011 Ang**3
 PCM non-electrostatic energy =         0.0538125269 Hartrees.
 Nuclear repulsion after PCM non-electrostatic terms =      674.0969924724 Hartrees.
 Leave Link  301 at Tue Sep 15 22:51:55 2020, MaxMem=  6442450944 cpu:               3.6 elap:               0.2
0******************
 *Kjob Termination*
 *  in Link    301*
 ******************
 Job cpu time:       0 days  0 hours  0 minutes  9.4 seconds.
 Elapsed time:       0 days  0 hours  0 minutes  0.5 seconds.
 File lengths (MBytes):  RWF=    283 Int=      0 D2E=      0 Chk=      1 Scr=      1
 Normal termination of Gaussian 16 at Tue Sep 15 22:51:55 2020.
 Initial command:
 /scratch/scicomp/CentOS/7.3.1611/Haswell/software/Gaussian/g16/l1.exe "/scratch/bochen/test/xppcm/tmp/Gau-397774.inp" -scrdir="/scratch/bochen/test/xppcm/tmp/"
 Entering Link 1 = /scratch/scicomp/CentOS/7.3.1611/Haswell/software/Gaussian/g16/l1.exe PID=    398055.
  
 Copyright (c) 1988-2017, Gaussian, Inc.  All Rights Reserved.
  
 This is part of the Gaussian(R) 16 program.  It is based on
 the Gaussian(R) 09 system (copyright 2009, Gaussian, Inc.),
 the Gaussian(R) 03 system (copyright 2003, Gaussian, Inc.),
 the Gaussian(R) 98 system (copyright 1998, Gaussian, Inc.),
 the Gaussian(R) 94 system (copyright 1995, Gaussian, Inc.),
 the Gaussian 92(TM) system (copyright 1992, Gaussian, Inc.),
 the Gaussian 90(TM) system (copyright 1990, Gaussian, Inc.),
 the Gaussian 88(TM) system (copyright 1988, Gaussian, Inc.),
 the Gaussian 86(TM) system (copyright 1986, Carnegie Mellon
 University), and the Gaussian 82(TM) system (copyright 1983,
 Carnegie Mellon University). Gaussian is a federally registered
 trademark of Gaussian, Inc.
  
 This software contains proprietary and confidential information,
 including trade secrets, belonging to Gaussian, Inc.
  
 This software is provided under written license and may be
 used, copied, transmitted, or stored only in accord with that
 written license.
  
 The following legend is applicable only to US Government
 contracts under FAR:
  
                    RESTRICTED RIGHTS LEGEND
  
 Use, reproduction and disclosure by the US Government is
 subject to restrictions as set forth in subparagraphs (a)
 and (c) of the Commercial Computer Software - Restricted
 Rights clause in FAR 52.227-19.
  
 Gaussian, Inc.
 340 Quinnipiac St., Bldg. 40, Wallingford CT 06492
  
  
 ---------------------------------------------------------------
 Warning -- This program may not be used in any manner that
 competes with the business of Gaussian, Inc. or will provide
 assistance to any competitor of Gaussian, Inc.  The licensee
 of this program is prohibited from giving any competitor of
 Gaussian, Inc. access to this program.  By using this program,
 the user acknowledges that Gaussian, Inc. is engaged in the
 business of creating and licensing software in the field of
 computational chemistry and represents and warrants to the
 licensee that it is not a competitor of Gaussian, Inc. and that
 it will not use this program in any manner prohibited above.
 ---------------------------------------------------------------
  

 Cite this work as:
 Gaussian 16, Revision B.01,
 M. J. Frisch, G. W. Trucks, H. B. Schlegel, G. E. Scuseria, 
 M. A. Robb, J. R. Cheeseman, G. Scalmani, V. Barone, 
 G. A. Petersson, H. Nakatsuji, X. Li, M. Caricato, A. V. Marenich, 
 J. Bloino, B. G. Janesko, R. Gomperts, B. Mennucci, H. P. Hratchian, 
 J. V. Ortiz, A. F. Izmaylov, J. L. Sonnenberg, D. Williams-Young, 
 F. Ding, F. Lipparini, F. Egidi, J. Goings, B. Peng, A. Petrone, 
 T. Henderson, D. Ranasinghe, V. G. Zakrzewski, J. Gao, N. Rega, 
 G. Zheng, W. Liang, M. Hada, M. Ehara, K. Toyota, R. Fukuda, 
 J. Hasegawa, M. Ishida, T. Nakajima, Y. Honda, O. Kitao, H. Nakai, 
 T. Vreven, K. Throssell, J. A. Montgomery, Jr., J. E. Peralta, 
 F. Ogliaro, M. J. Bearpark, J. J. Heyd, E. N. Brothers, K. N. Kudin, 
 V. N. Staroverov, T. A. Keith, R. Kobayashi, J. Normand, 
 K. Raghavachari, A. P. Rendell, J. C. Burant, S. S. Iyengar, 
 J. Tomasi, M. Cossi, J. M. Millam, M. Klene, C. Adamo, R. Cammi, 
 J. W. Ochterski, R. L. Martin, K. Morokuma, O. Farkas, 
 J. B. Foresman, and D. J. Fox, Gaussian, Inc., Wallingford CT, 2016.
 
 ******************************************
 Gaussian 16:  ES64L-G16RevB.01 20-Dec-2017
                15-Sep-2020 
 ******************************************
 %kjob l301
 kjob at link  301 occurrence number     1
 %chk=structure-1-Gcav.chk
 %nproc=24
 Will use up to   24 processors via shared memory.
 %mem=48gb
 ----------------------------------------------------------------------
 #p b3lyp 6-31g* # scrf=(iefpcm,solvent=cyclohexane,read) nosym guess=o
 nly pop=none
 ----------------------------------------------------------------------
 1/38=1,40=2,172=1/1;
 2/12=2,15=1,17=6,18=5,40=1/2;
 3/5=1,6=6,7=1,11=2,25=1,30=1,70=2203,72=17,74=-5,89=1/1,2;
 4//1;
 99/5=2/99;
 Leave Link    1 at Tue Sep 15 22:51:55 2020, MaxMem=  6442450944 cpu:               1.6 elap:               0.1
 (Enter /scratch/scicomp/CentOS/7.3.1611/Haswell/software/Gaussian/g16/l101.exe)
 -----
 title
 -----
 Symbolic Z-matrix:
 Charge =  0 Multiplicity = 1
 C                    -0.94124   0.70908  -1.4475 
 C                    -1.13014  -0.58644  -1.68876 
 H                    -0.18738   1.27001  -1.98589 
 H                    -0.54648  -1.09783  -2.44561 
 C                    -2.21372  -1.34936  -0.97802 
 H                    -3.12368  -1.30166  -1.59142 
 H                    -1.95315  -2.40636  -0.90133 
 C                    -1.7532    1.40646  -0.45097 
 H                    -1.71848   2.4886   -0.41654 
 C                    -2.49877   0.72317   0.4162 
 H                    -3.07235   1.24066   1.17649 
 C                    -2.49825  -0.78022   0.41217 
 H                    -3.44748  -1.16681   0.78712 
 H                    -1.72467  -1.12206   1.11127 
 C                     2.57601  -0.05843  -0.6248 
 C                     2.2592    1.24552   0.05234 
 C                     1.44333   1.28353   1.10478 
 C                     0.86446   0.05338   1.64254 
 C                     1.34311  -1.13538   1.28108 
 C                     2.51895  -1.23548   0.34881 
 H                     1.1756    2.2279    1.56276 
 H                     2.65828   2.16115  -0.36856 
 H                     1.84141  -0.21171  -1.4257 
 H                     3.55518  -0.01674  -1.10484 
 H                     0.04304   0.13194   2.3441 
 H                     0.93188  -2.04682   1.69955 
 H                     3.43502  -1.25998   0.95447 
 H                     2.49356  -2.17599  -0.20413 
 
 ITRead=  0  0  0  0  0  0  0  0  0  0  0  0  0  0  0  0  0  0  0  0
 ITRead=  0  0  0  0  0  0  0  0
 MicOpt= -1 -1 -1 -1 -1 -1 -1 -1 -1 -1 -1 -1 -1 -1 -1 -1 -1 -1 -1 -1
 MicOpt= -1 -1 -1 -1 -1 -1 -1 -1
 NAtoms=     28 NQM=       28 NQMF=       0 NMMI=      0 NMMIF=      0
                NMic=       0 NMicF=      0.
                    Isotopes and Nuclear Properties:
 (Nuclear quadrupole moments (NQMom) in fm**2, nuclear magnetic moments (NMagM)
  in nuclear magnetons)

  Atom         1           2           3           4           5           6           7           8           9          10
 IAtWgt=          12          12           1           1          12           1           1          12           1          12
 AtmWgt=  12.0000000  12.0000000   1.0078250   1.0078250  12.0000000   1.0078250   1.0078250  12.0000000   1.0078250  12.0000000
 NucSpn=           0           0           1           1           0           1           1           0           1           0
 AtZEff=  -0.0000000  -0.0000000  -0.0000000  -0.0000000  -0.0000000  -0.0000000  -0.0000000  -0.0000000  -0.0000000  -0.0000000
 NQMom=    0.0000000   0.0000000   0.0000000   0.0000000   0.0000000   0.0000000   0.0000000   0.0000000   0.0000000   0.0000000
 NMagM=    0.0000000   0.0000000   2.7928460   2.7928460   0.0000000   2.7928460   2.7928460   0.0000000   2.7928460   0.0000000
 AtZNuc=   6.0000000   6.0000000   1.0000000   1.0000000   6.0000000   1.0000000   1.0000000   6.0000000   1.0000000   6.0000000

  Atom        11          12          13          14          15          16          17          18          19          20
 IAtWgt=           1          12           1           1          12          12          12          12          12          12
 AtmWgt=   1.0078250  12.0000000   1.0078250   1.0078250  12.0000000  12.0000000  12.0000000  12.0000000  12.0000000  12.0000000
 NucSpn=           1           0           1           1           0           0           0           0           0           0
 AtZEff=  -0.0000000  -0.0000000  -0.0000000  -0.0000000  -0.0000000  -0.0000000  -0.0000000  -0.0000000  -0.0000000  -0.0000000
 NQMom=    0.0000000   0.0000000   0.0000000   0.0000000   0.0000000   0.0000000   0.0000000   0.0000000   0.0000000   0.0000000
 NMagM=    2.7928460   0.0000000   2.7928460   2.7928460   0.0000000   0.0000000   0.0000000   0.0000000   0.0000000   0.0000000
 AtZNuc=   1.0000000   6.0000000   1.0000000   1.0000000   6.0000000   6.0000000   6.0000000   6.0000000   6.0000000   6.0000000

  Atom        21          22          23          24          25          26          27          28
 IAtWgt=           1           1           1           1           1           1           1           1
 AtmWgt=   1.0078250   1.0078250   1.0078250   1.0078250   1.0078250   1.0078250   1.0078250   1.0078250
 NucSpn=           1           1           1           1           1           1           1           1
 AtZEff=  -0.0000000  -0.0000000  -0.0000000  -0.0000000  -0.0000000  -0.0000000  -0.0000000  -0.0000000
 NQMom=    0.0000000   0.0000000   0.0000000   0.0000000   0.0000000   0.0000000   0.0000000   0.0000000
 NMagM=    2.7928460   2.7928460   2.7928460   2.7928460   2.7928460   2.7928460   2.7928460   2.7928460
 AtZNuc=   1.0000000   1.0000000   1.0000000   1.0000000   1.0000000   1.0000000   1.0000000   1.0000000
 Leave Link  101 at Tue Sep 15 22:51:55 2020, MaxMem=  6442450944 cpu:               2.8 elap:               0.2
 (Enter /scratch/scicomp/CentOS/7.3.1611/Haswell/software/Gaussian/g16/l202.exe)
                          Input orientation:                          
 ---------------------------------------------------------------------
 Center     Atomic      Atomic             Coordinates (Angstroms)
 Number     Number       Type             X           Y           Z
 ---------------------------------------------------------------------
      1          6           0       -0.941240    0.709078   -1.447500
      2          6           0       -1.130144   -0.586439   -1.688764
      3          1           0       -0.187383    1.270013   -1.985885
      4          1           0       -0.546479   -1.097826   -2.445614
      5          6           0       -2.213721   -1.349362   -0.978023
      6          1           0       -3.123677   -1.301662   -1.591424
      7          1           0       -1.953148   -2.406359   -0.901332
      8          6           0       -1.753199    1.406457   -0.450967
      9          1           0       -1.718481    2.488604   -0.416537
     10          6           0       -2.498772    0.723169    0.416199
     11          1           0       -3.072350    1.240660    1.176490
     12          6           0       -2.498247   -0.780221    0.412174
     13          1           0       -3.447477   -1.166814    0.787115
     14          1           0       -1.724665   -1.122064    1.111268
     15          6           0        2.576005   -0.058432   -0.624796
     16          6           0        2.259201    1.245519    0.052337
     17          6           0        1.443331    1.283534    1.104783
     18          6           0        0.864455    0.053379    1.642538
     19          6           0        1.343111   -1.135379    1.281075
     20          6           0        2.518953   -1.235476    0.348814
     21          1           0        1.175601    2.227900    1.562761
     22          1           0        2.658280    2.161148   -0.368562
     23          1           0        1.841411   -0.211714   -1.425701
     24          1           0        3.555179   -0.016744   -1.104840
     25          1           0        0.043038    0.131938    2.344097
     26          1           0        0.931882   -2.046820    1.699547
     27          1           0        3.435020   -1.259975    0.954472
     28          1           0        2.493558   -2.175989   -0.204125
 ---------------------------------------------------------------------
                    Distance matrix (angstroms):
                    1          2          3          4          5
     1  C    0.000000
     2  C    1.331262   0.000000
     3  H    1.082962   2.103210   0.000000
     4  H    2.101659   1.083976   2.438639   0.000000
     5  C    2.465115   1.503776   3.461641   2.235350   0.000000
     6  H    2.970997   2.120187   3.923128   2.722708   1.098433
     7  H    3.320874   2.146973   4.220177   2.464910   1.091340
     8  C    1.462427   2.427339   2.196900   3.421436   2.843309
     9  H    2.198568   3.379437   2.508402   4.284066   3.910308
    10  C    2.428884   2.831799   3.378101   3.913751   2.514059
    11  H    3.421919   3.914094   4.280714   4.996817   3.476692
    12  C    2.846168   2.514597   3.910785   3.475230   1.528896
    13  H    3.846258   3.440472   4.925025   4.344086   2.161294
    14  H    3.242550   2.912135   4.204477   3.747015   2.157771
    15  C    3.692821   3.891832   3.354645   3.761067   4.973203
    16  C    3.574927   4.227903   3.184450   4.427512   5.272768
    17  C    3.539820   4.233613   3.494516   4.715457   4.964298
    18  C    3.638518   3.935145   3.968881   4.475376   4.279041
    19  C    4.008167   3.903623   4.336052   4.178537   4.219048
    20  C    4.356715   4.229525   4.364923   4.150259   4.916469
    21  H    3.981144   4.879486   3.920225   5.485716   5.544357
    22  H    4.028543   4.862543   3.392293   5.020512   6.035853
    23  H    2.931123   3.006619   2.573971   2.743617   4.235417
    24  H    4.567496   4.755814   4.054473   4.448597   5.922175
    25  H    3.959558   4.261031   4.482974   4.980078   4.280618
    26  H    4.583390   4.226738   5.082966   4.502055   4.189349
    27  H    5.366404   5.317995   5.307386   5.238245   5.970829
    28  H    4.654829   4.226350   4.715617   3.927917   4.841560
[...]
 Gaussian, Inc. access to this program.  By using this program,
 the user acknowledges that Gaussian, Inc. is engaged in the
 business of creating and licensing software in the field of
 computational chemistry and represents and warrants to the
 licensee that it is not a competitor of Gaussian, Inc. and that
 it will not use this program in any manner prohibited above.
 ---------------------------------------------------------------
  

 Cite this work as:
 Gaussian 16, Revision B.01,
 M. J. Frisch, G. W. Trucks, H. B. Schlegel, G. E. Scuseria, 
 M. A. Robb, J. R. Cheeseman, G. Scalmani, V. Barone, 
 G. A. Petersson, H. Nakatsuji, X. Li, M. Caricato, A. V. Marenich, 
 J. Bloino, B. G. Janesko, R. Gomperts, B. Mennucci, H. P. Hratchian, 
 J. V. Ortiz, A. F. Izmaylov, J. L. Sonnenberg, D. Williams-Young, 
 F. Ding, F. Lipparini, F. Egidi, J. Goings, B. Peng, A. Petrone, 
 T. Henderson, D. Ranasinghe, V. G. Zakrzewski, J. Gao, N. Rega, 
 G. Zheng, W. Liang, M. Hada, M. Ehara, K. Toyota, R. Fukuda, 
 J. Hasegawa, M. Ishida, T. Nakajima, Y. Honda, O. Kitao, H. Nakai, 
 T. Vreven, K. Throssell, J. A. Montgomery, Jr., J. E. Peralta, 
 F. Ogliaro, M. J. Bearpark, J. J. Heyd, E. N. Brothers, K. N. Kudin, 
 V. N. Staroverov, T. A. Keith, R. Kobayashi, J. Normand, 
 K. Raghavachari, A. P. Rendell, J. C. Burant, S. S. Iyengar, 
 J. Tomasi, M. Cossi, J. M. Millam, M. Klene, C. Adamo, R. Cammi, 
 J. W. Ochterski, R. L. Martin, K. Morokuma, O. Farkas, 
 J. B. Foresman, and D. J. Fox, Gaussian, Inc., Wallingford CT, 2016.
 
 ******************************************
 Gaussian 16:  ES64L-G16RevB.01 20-Dec-2017
                15-Sep-2020 
 ******************************************
 %kjob l301
 kjob at link  301 occurrence number     1
 %chk=structure-1-Gcav.chk
 %nproc=24
 Will use up to   24 processors via shared memory.
 %mem=48gb
 ----------------------------------------------------------------------
 #p b3lyp 6-31g* # scrf=(iefpcm,solvent=cyclohexane,read) nosym guess=o
 nly pop=none
 ----------------------------------------------------------------------
 1/38=1,40=2,172=1/1;
 2/12=2,15=1,17=6,18=5,40=1/2;
 3/5=1,6=6,7=1,11=2,25=1,30=1,70=2203,72=17,74=-5,89=1/1,2;
 4//1;
 99/5=2/99;
 Leave Link    1 at Tue Sep 15 22:51:57 2020, MaxMem=  6442450944 cpu:               1.6 elap:               0.1
 (Enter /scratch/scicomp/CentOS/7.3.1611/Haswell/software/Gaussian/g16/l101.exe)
 -----
 title
 -----
 Symbolic Z-matrix:
 Charge =  0 Multiplicity = 1
 C                    -0.94124   0.70908  -1.4475 
 C                    -1.13014  -0.58644  -1.68876 
 H                    -0.18738   1.27001  -1.98589 
 H                    -0.54648  -1.09783  -2.44561 
 C                    -2.21372  -1.34936  -0.97802 
 H                    -3.12368  -1.30166  -1.59142 
 H                    -1.95315  -2.40636  -0.90133 
 C                    -1.7532    1.40646  -0.45097 
 H                    -1.71848   2.4886   -0.41654 
 C                    -2.49877   0.72317   0.4162 
 H                    -3.07235   1.24066   1.17649 
 C                    -2.49825  -0.78022   0.41217 
 H                    -3.44748  -1.16681   0.78712 
 H                    -1.72467  -1.12206   1.11127 
 C                     2.57601  -0.05843  -0.6248 
 C                     2.2592    1.24552   0.05234 
 C                     1.44333   1.28353   1.10478 
 C                     0.86446   0.05338   1.64254 
 C                     1.34311  -1.13538   1.28108 
 C                     2.51895  -1.23548   0.34881 
 H                     1.1756    2.2279    1.56276 
 H                     2.65828   2.16115  -0.36856 
 H                     1.84141  -0.21171  -1.4257 
 H                     3.55518  -0.01674  -1.10484 
 H                     0.04304   0.13194   2.3441 
 H                     0.93188  -2.04682   1.69955 
 H                     3.43502  -1.25998   0.95447 
 H                     2.49356  -2.17599  -0.20413 
 
 ITRead=  0  0  0  0  0  0  0  0  0  0  0  0  0  0  0  0  0  0  0  0
 ITRead=  0  0  0  0  0  0  0  0
 MicOpt= -1 -1 -1 -1 -1 -1 -1 -1 -1 -1 -1 -1 -1 -1 -1 -1 -1 -1 -1 -1
 MicOpt= -1 -1 -1 -1 -1 -1 -1 -1
 NAtoms=     28 NQM=       28 NQMF=       0 NMMI=      0 NMMIF=      0
                NMic=       0 NMicF=      0.
                    Isotopes and Nuclear Properties:
 (Nuclear quadrupole moments (NQMom) in fm**2, nuclear magnetic moments (NMagM)
  in nuclear magnetons)

  Atom         1           2           3           4           5           6           7           8           9          10
 IAtWgt=          12          12           1           1          12           1           1          12           1          12
 AtmWgt=  12.0000000  12.0000000   1.0078250   1.0078250  12.0000000   1.0078250   1.0078250  12.0000000   1.0078250  12.0000000
 NucSpn=           0           0           1           1           0           1           1           0           1           0
 AtZEff=  -0.0000000  -0.0000000  -0.0000000  -0.0000000  -0.0000000  -0.0000000  -0.0000000  -0.0000000  -0.0000000  -0.0000000
 NQMom=    0.0000000   0.0000000   0.0000000   0.0000000   0.0000000   0.0000000   0.0000000   0.0000000   0.0000000   0.0000000
 NMagM=    0.0000000   0.0000000   2.7928460   2.7928460   0.0000000   2.7928460   2.7928460   0.0000000   2.7928460   0.0000000
 AtZNuc=   6.0000000   6.0000000   1.0000000   1.0000000   6.0000000   1.0000000   1.0000000   6.0000000   1.0000000   6.0000000

  Atom        11          12          13          14          15          16          17          18          19          20
 IAtWgt=           1          12           1           1          12          12          12          12          12          12
 AtmWgt=   1.0078250  12.0000000   1.0078250   1.0078250  12.0000000  12.0000000  12.0000000  12.0000000  12.0000000  12.0000000
 NucSpn=           1           0           1           1           0           0           0           0           0           0
 AtZEff=  -0.0000000  -0.0000000  -0.0000000  -0.0000000  -0.0000000  -0.0000000  -0.0000000  -0.0000000  -0.0000000  -0.0000000
 NQMom=    0.0000000   0.0000000   0.0000000   0.0000000   0.0000000   0.0000000   0.0000000   0.0000000   0.0000000   0.0000000
 NMagM=    2.7928460   0.0000000   2.7928460   2.7928460   0.0000000   0.0000000   0.0000000   0.0000000   0.0000000   0.0000000
 AtZNuc=   1.0000000   6.0000000   1.0000000   1.0000000   6.0000000   6.0000000   6.0000000   6.0000000   6.0000000   6.0000000

  Atom        21          22          23          24          25          26          27          28
 IAtWgt=           1           1           1           1           1           1           1           1
 AtmWgt=   1.0078250   1.0078250   1.0078250   1.0078250   1.0078250   1.0078250   1.0078250   1.0078250
 NucSpn=           1           1           1           1           1           1           1           1
 AtZEff=  -0.0000000  -0.0000000  -0.0000000  -0.0000000  -0.0000000  -0.0000000  -0.0000000  -0.0000000
 NQMom=    0.0000000   0.0000000   0.0000000   0.0000000   0.0000000   0.0000000   0.0000000   0.0000000
 NMagM=    2.7928460   2.7928460   2.7928460   2.7928460   2.7928460   2.7928460   2.7928460   2.7928460
 AtZNuc=   1.0000000   1.0000000   1.0000000   1.0000000   1.0000000   1.0000000   1.0000000   1.0000000
 Leave Link  101 at Tue Sep 15 22:51:58 2020, MaxMem=  6442450944 cpu:               2.8 elap:               0.2
 (Enter /scratch/scicomp/CentOS/7.3.1611/Haswell/software/Gaussian/g16/l202.exe)
                          Input orientation:                          
 ---------------------------------------------------------------------
 Center     Atomic      Atomic             Coordinates (Angstroms)
 Number     Number       Type             X           Y           Z
 ---------------------------------------------------------------------
      1          6           0       -0.941240    0.709078   -1.447500
      2          6           0       -1.130144   -0.586439   -1.688764
      3          1           0       -0.187383    1.270013   -1.985885
      4          1           0       -0.546479   -1.097826   -2.445614
      5          6           0       -2.213721   -1.349362   -0.978023
      6          1           0       -3.123677   -1.301662   -1.591424
      7          1           0       -1.953148   -2.406359   -0.901332
      8          6           0       -1.753199    1.406457   -0.450967
      9          1           0       -1.718481    2.488604   -0.416537
     10          6           0       -2.498772    0.723169    0.416199
     11          1           0       -3.072350    1.240660    1.176490
     12          6           0       -2.498247   -0.780221    0.412174
     13          1           0       -3.447477   -1.166814    0.787115
     14          1           0       -1.724665   -1.122064    1.111268
     15          6           0        2.576005   -0.058432   -0.624796
     16          6           0        2.259201    1.245519    0.052337
     17          6           0        1.443331    1.283534    1.104783
     18          6           0        0.864455    0.053379    1.642538
     19          6           0        1.343111   -1.135379    1.281075
     20          6           0        2.518953   -1.235476    0.348814
     21          1           0        1.175601    2.227900    1.562761
     22          1           0        2.658280    2.161148   -0.368562
     23          1           0        1.841411   -0.211714   -1.425701
     24          1           0        3.555179   -0.016744   -1.104840
     25          1           0        0.043038    0.131938    2.344097
     26          1           0        0.931882   -2.046820    1.699547
     27          1           0        3.435020   -1.259975    0.954472
     28          1           0        2.493558   -2.175989   -0.204125
 ---------------------------------------------------------------------
                    Distance matrix (angstroms):
                    1          2          3          4          5
     1  C    0.000000
     2  C    1.331262   0.000000
     3  H    1.082962   2.103210   0.000000
     4  H    2.101659   1.083976   2.438639   0.000000
     5  C    2.465115   1.503776   3.461641   2.235350   0.000000
     6  H    2.970997   2.120187   3.923128   2.722708   1.098433
     7  H    3.320874   2.146973   4.220177   2.464910   1.091340
     8  C    1.462427   2.427339   2.196900   3.421436   2.843309
     9  H    2.198568   3.379437   2.508402   4.284066   3.910308
    10  C    2.428884   2.831799   3.378101   3.913751   2.514059
    11  H    3.421919   3.914094   4.280714   4.996817   3.476692
    12  C    2.846168   2.514597   3.910785   3.475230   1.528896
    13  H    3.846258   3.440472   4.925025   4.344086   2.161294
    14  H    3.242550   2.912135   4.204477   3.747015   2.157771
    15  C    3.692821   3.891832   3.354645   3.761067   4.973203
    16  C    3.574927   4.227903   3.184450   4.427512   5.272768
    17  C    3.539820   4.233613   3.494516   4.715457   4.964298
    18  C    3.638518   3.935145   3.968881   4.475376   4.279041
    19  C    4.008167   3.903623   4.336052   4.178537   4.219048
    20  C    4.356715   4.229525   4.364923   4.150259   4.916469
    21  H    3.981144   4.879486   3.920225   5.485716   5.544357
    22  H    4.028543   4.862543   3.392293   5.020512   6.035853
    23  H    2.931123   3.006619   2.573971   2.743617   4.235417
    24  H    4.567496   4.755814   4.054473   4.448597   5.922175
    25  H    3.959558   4.261031   4.482974   4.980078   4.280618
    26  H    4.583390   4.226738   5.082966   4.502055   4.189349
    27  H    5.366404   5.317995   5.307386   5.238245   5.970829
    28  H    4.654829   4.226350   4.715617   3.927917   4.841560
                    6          7          8          9         10
     6  H    0.000000
     7  H    1.751205   0.000000
     8  C    3.242339   3.844525   0.000000
     9  H    4.209638   4.924506   1.083251   0.000000
    10  C    2.919075   3.439119   1.332193   2.102157   0.000000
    11  H    3.758641   4.344042   2.101491   2.434761   1.083896
    12  C    2.162746   2.160268   2.466104   3.461216   1.503395
    13  H    2.404263   2.573003   3.320414   4.219039   2.147011
    14  H    3.048612   2.398370   2.972341   3.920606   2.118312
    15  C    5.913236   5.109057   4.573634   4.997337   5.239077
    16  C    6.177820   5.655933   4.047045   4.193693   4.800370
    17  C    5.900028   5.401470   3.557144   3.709941   4.040833
    18  C    5.310352   4.523325   3.614650   4.103860   3.641953
    19  C    5.313294   4.152543   4.364405   5.038699   4.354570
    20  C    5.967259   4.788895   5.086329   5.693012   5.386872
    21  H    6.394567   6.110416   3.647977   3.515864   4.132776
    22  H    6.849633   6.512391   4.476326   4.389256   5.410991
    23  H    5.086015   4.414760   4.060764   4.580716   4.806640
    24  H    6.818717   6.007773   5.534612   5.878947   6.285806
    25  H    5.250868   4.578266   3.558546   4.034591   3.244556
    26  H    5.275728   3.900928   4.874371   5.663242   4.592299
    27  H    7.035612   5.812965   6.000228   6.518442   6.279529
    28  H    5.851698   4.506924   5.561456   6.288467   5.806314
                   11         12         13         14         15
    11  H    0.000000
    12  C    2.235561   0.000000
    13  H    2.467441   1.091363   0.000000
    14  H    2.720841   1.097278   1.753613   0.000000
    15  C    6.069282   5.229180   6.285248   4.758255   0.000000
    16  C    5.448778   5.183282   6.239024   4.753732   1.503051
    17  C    4.516454   4.502758   5.479518   3.977831   2.464806
    18  C    4.138269   3.676472   4.562168   2.892656   2.843010
    19  C    5.015256   3.954385   4.816089   3.072501   2.512407
    20  C    6.170816   5.038211   5.982901   4.313061   1.528595
    21  H    4.378234   4.885673   5.787794   4.453947   3.460325
    22  H    6.006214   5.987568   7.049198   5.672705   2.235836
    23  H    5.746811   4.746959   5.812152   4.470106   1.097530
    24  H    7.121072   6.287145   7.344341   5.831777   1.091312
    25  H    3.506881   3.320014   4.036663   2.493424   3.907235
    26  H    5.207205   3.876517   4.559137   2.873758   3.472664
    27  H    6.974836   5.977283   6.885162   5.163909   2.162337
    28  H    6.675247   5.219781   6.107118   4.542513   2.160511
                   16         17         18         19         20
    16  C    0.000000
    17  C    1.332191   0.000000
    18  C    2.428014   1.462039   0.000000
    19  C    2.831553   2.427398   1.331508   0.000000
    20  C    2.512112   2.841454   2.464190   1.503906   0.000000
    21  H    2.102532   1.083167   2.198117   3.379209   3.908099
    22  H    1.083880   2.101679   3.421260   3.913830   3.474348
    23  H    2.117232   2.966072   3.230914   2.903118   2.157789
    24  H    2.147539   3.321605   3.846167   3.440520   2.161523
    25  H    3.376922   2.196109   1.083089   2.103877   3.461377
    26  H    3.913384   3.421488   2.102054   1.083952   2.236415
    27  H    2.910996   3.234016   2.967514   2.120914   1.098454
    28  H    3.439101   3.845064   3.321780   2.147607   1.091307
                   21         22         23         24         25
    21  H    0.000000
    22  H    2.435734   0.000000
    23  H    3.914834   2.723103   0.000000
    24  H    4.221009   2.467741   1.754413   0.000000
    25  H    2.507238   4.279685   4.190897   4.924673   0.000000
    26  H    4.283846   4.996451   3.736580   4.343672   2.439769
    27  H    4.200031   3.749377   3.050191   2.408491   3.920972
    28  H    4.924747   4.343378   2.403314   2.569176   4.221968
                   26         27         28
    26  H    0.000000
    27  H    2.727629   0.000000
    28  H    2.465661   1.751508   0.000000
 Symmetry turned off by external request.
 Stoichiometry    C12H16
 Framework group  C1[X(C12H16)]
 Deg. of freedom    78
 Full point group                 C1      NOp   1
 Rotational constants (GHZ):           1.4694618           0.6229074           0.6062348
 Leave Link  202 at Tue Sep 15 22:51:58 2020, MaxMem=  6442450944 cpu:               1.2 elap:               0.1
 (Enter /scratch/scicomp/CentOS/7.3.1611/Haswell/software/Gaussian/g16/l301.exe)
 Standard basis: 6-31G(d) (6D, 7F)
 Ernie: Thresh=  0.10000D-02 Tol=  0.10000D-05 Strict=F.
   212 basis functions,   400 primitive gaussians,   212 cartesian basis functions
    44 alpha electrons       44 beta electrons
       nuclear repulsion energy       674.0431799455 Hartrees.
 IExCor=  402 DFT=T Ex+Corr=B3LYP ExCW=0 ScaHFX=  0.200000
 ScaDFX=  0.800000  0.720000  1.000000  0.810000 ScalE2=  1.000000  1.000000
 IRadAn=      5 IRanWt=     -1 IRanGd=            0 ICorTp=0 IEmpDi=  4
 NAtoms=   28 NActive=   28 NUniq=   28 SFac= 1.00D+00 NAtFMM=   60 NAOKFM=F Big=F
 Integral buffers will be    131072 words long.
 Raffenetti 2 integral format.
 Two-electron integral symmetry is turned off.
 Using the following non-standard input for PCM:
 norep pcmdoc geomview nodis cav g03defaults noaddsph tsare=0.075
 Warning! Using old PCM defaults because the g03defaults keyword was found.
 These settings can be overridden by following keywords.
 nsfe=28
 Vmol=79.24564338197861 rsolv=2.815
 --- end of non-standard input.
 Reading user-defined spheres from input:
 ISph  on   Nord    Re0     Alpha      Xe            Ye            Ze
 --- end of user-defined spheres data.
 ------------------------------------------------------------------------------
 Polarizable Continuum Model (PCM)
 =================================
 Model                : PCM.
 Atomic radii         : UA0 (Simple United Atom Topological Model).
 Polarization charges : Total charges.
 Charge compensation  : None.
 Solution method      : On-the-fly selection.
 Cavity type          : VdW (van der Waals Surface) (Alpha=1.000).
 Cavity algorithm     : GePol (No added spheres)
                        User-defined sphere list used, NSphG=   28.
                        Tesserae with average area of 0.075 Ang**2.
                        Smoothing algorithm: None.
                        Polarization charges: point-like.
                        Self-potential: constant (ISelfS= 1).
                        Self-field    : global E.n sum rule (ISelfD= 3).
 Solvent              : CycloHexane, Eps=   2.016500 Eps(inf)=   2.035188
 ------------------------------------------------------------------------------
 GePol: Number of generator spheres                  =      28
 GePol: Total number of spheres                      =      28
 GePol: Number of exposed spheres                    =      28 (100.00%)
 GePol: Number of tesserae                           =    3992
 GePol: Average area of tesserae                     =       0.06 Ang**2
 GePol: Minimum area of tessera                      =   0.10D-02 Ang**2
 GePol: Maximum area of tessera                      =    0.12395 Ang**2
 GePol: Number of small tesserae                     =       0
 GePol: Fraction of small tesserae (<1% of avg)      =       0.00%
 GePol: Total count of vertices                      =   13244
 GePol: Maximum number of vertices in a tessera      =       6
 GePol: Cavity surface area                          =    243.032 Ang**2
 GePol: Cavity volume                                =    247.011 Ang**3
 PCM non-electrostatic energy =         0.1166554070 Hartrees.
 Nuclear repulsion after PCM non-electrostatic terms =      674.1598353525 Hartrees.
 Leave Link  301 at Tue Sep 15 22:51:58 2020, MaxMem=  6442450944 cpu:               3.5 elap:               0.2
0******************
 *Kjob Termination*
 *  in Link    301*
 ******************
 Job cpu time:       0 days  0 hours  0 minutes  9.3 seconds.
 Elapsed time:       0 days  0 hours  0 minutes  0.5 seconds.
 File lengths (MBytes):  RWF=    283 Int=      0 D2E=      0 Chk=      1 Scr=      1
 Normal termination of Gaussian 16 at Tue Sep 15 22:51:58 2020.
