 Entering Gaussian System, Link 0=g16
 Input=structure-2-Ger.gjf
 Output=structure-2-Ger.log
 Initial command:
 /scratch/scicomp/CentOS/7.3.1611/Haswell/software/Gaussian/g16/l1.exe "/scratch/bochen/test/xppcm/tmp/Gau-393940.inp" -scrdir="/scratch/bochen/test/xppcm/tmp/"
 Entering Link 1 = /scratch/scicomp/CentOS/7.3.1611/Haswell/software/Gaussian/g16/l1.exe PID=    393941.
  
 Copyright (c) 1988-2017, Gaussian, Inc.  All Rights Reserved.
  
 This is part of the Gaussian(R) 16 program.  It is based on
 the Gaussian(R) 09 system (copyright 2009, Gaussian, Inc.),
 the Gaussian(R) 03 system (copyright 2003, Gaussian, Inc.),
 the Gaussian(R) 98 system (copyright 1998, Gaussian, Inc.),
 the Gaussian(R) 94 system (copyright 1995, Gaussian, Inc.),
 the Gaussian 92(TM) system (copyright 1992, Gaussian, Inc.),
 the Gaussian 90(TM) system (copyright 1990, Gaussian, Inc.),
 the Gaussian 88(TM) system (copyright 1988, Gaussian, Inc.),
 the Gaussian 86(TM) system (copyright 1986, Carnegie Mellon
 University), and the Gaussian 82(TM) system (copyright 1983,
 Carnegie Mellon University). Gaussian is a federally registered
 trademark of Gaussian, Inc.
  
 This software contains proprietary and confidential information,
 including trade secrets, belonging to Gaussian, Inc.
  
 This software is provided under written license and may be
 used, copied, transmitted, or stored only in accord with that
 written license.
  
 The following legend is applicable only to US Government
 contracts under FAR:
  
                    RESTRICTED RIGHTS LEGEND
  
 Use, reproduction and disclosure by the US Government is
 subject to restrictions as set forth in subparagraphs (a)
 and (c) of the Commercial Computer Software - Restricted
 Rights clause in FAR 52.227-19.
  
 Gaussian, Inc.
 340 Quinnipiac St., Bldg. 40, Wallingford CT 06492
  
  
 ---------------------------------------------------------------
 Warning -- This program may not be used in any manner that
 competes with the business of Gaussian, Inc. or will provide
 assistance to any competitor of Gaussian, Inc.  The licensee
 of this program is prohibited from giving any competitor of
 Gaussian, Inc. access to this program.  By using this program,
 the user acknowledges that Gaussian, Inc. is engaged in the
 business of creating and licensing software in the field of
 computational chemistry and represents and warrants to the
 licensee that it is not a competitor of Gaussian, Inc. and that
 it will not use this program in any manner prohibited above.
 ---------------------------------------------------------------
  

 Cite this work as:
 Gaussian 16, Revision B.01,
 M. J. Frisch, G. W. Trucks, H. B. Schlegel, G. E. Scuseria, 
 M. A. Robb, J. R. Cheeseman, G. Scalmani, V. Barone, 
 G. A. Petersson, H. Nakatsuji, X. Li, M. Caricato, A. V. Marenich, 
 J. Bloino, B. G. Janesko, R. Gomperts, B. Mennucci, H. P. Hratchian, 
 J. V. Ortiz, A. F. Izmaylov, J. L. Sonnenberg, D. Williams-Young, 
 F. Ding, F. Lipparini, F. Egidi, J. Goings, B. Peng, A. Petrone, 
 T. Henderson, D. Ranasinghe, V. G. Zakrzewski, J. Gao, N. Rega, 
 G. Zheng, W. Liang, M. Hada, M. Ehara, K. Toyota, R. Fukuda, 
 J. Hasegawa, M. Ishida, T. Nakajima, Y. Honda, O. Kitao, H. Nakai, 
 T. Vreven, K. Throssell, J. A. Montgomery, Jr., J. E. Peralta, 
 F. Ogliaro, M. J. Bearpark, J. J. Heyd, E. N. Brothers, K. N. Kudin, 
 V. N. Staroverov, T. A. Keith, R. Kobayashi, J. Normand, 
 K. Raghavachari, A. P. Rendell, J. C. Burant, S. S. Iyengar, 
 J. Tomasi, M. Cossi, J. M. Millam, M. Klene, C. Adamo, R. Cammi, 
 J. W. Ochterski, R. L. Martin, K. Morokuma, O. Farkas, 
 J. B. Foresman, and D. J. Fox, Gaussian, Inc., Wallingford CT, 2016.
 
 ******************************************
 Gaussian 16:  ES64L-G16RevB.01 20-Dec-2017
                15-Sep-2020 
 ******************************************
 %kjob l502
 kjob at link  502 occurrence number     1
 %chk=structure-2-Ger.chk
 %nproc=24
 Will use up to   24 processors via shared memory.
 %mem=48gb
 ---------------------------------------------------------------------
 #p b3lyp 6-31g* # scrf=(iefpcm,solvent=cyclohexane,read) nosym 6d 10f
 ---------------------------------------------------------------------
 1/38=1,40=2,172=1/1;
 2/12=2,15=1,17=6,18=5,40=1/2;
 3/5=1,6=6,7=1,8=22,11=2,25=1,30=1,70=2203,72=17,74=-5/1,2,3;
 4//1;
 5/5=2,38=5,53=17/2;
 6/7=2,8=2,9=2,10=2,28=1/1;
 99/5=1,9=1/99;
 Leave Link    1 at Tue Sep 15 22:43:01 2020, MaxMem=  6442450944 cpu:               2.9 elap:               0.1
 (Enter /scratch/scicomp/CentOS/7.3.1611/Haswell/software/Gaussian/g16/l101.exe)
 -----
 title
 -----
 Symbolic Z-matrix:
 Charge =  0 Multiplicity = 1
 C                     2.46889   0.2841   -0.70896 
 C                     1.66725   1.33039   0.03125 
 C                     1.0876    1.07599   1.25692 
 C                     0.68925  -0.23474   1.57552 
 C                     0.88656  -1.22938   0.60904 
 C                     2.18507  -1.14836  -0.18595 
 H                     0.75487   1.90394   1.87856 
 H                     1.80447   2.36121  -0.29094 
 H                     2.28928   0.3581   -1.78937 
 H                     3.53869   0.50611  -0.58103 
 H                     0.05756  -0.41413   2.4412 
 H                     0.5593   -2.24138   0.84559 
 H                     2.9956   -1.45105   0.49025 
 H                     2.18753  -1.87143  -1.00964 
 C                    -0.42979   0.55327  -1.22838 
 C                    -0.46837  -0.81831  -0.9244 
 H                     0.1789    0.92091  -2.04595 
 H                     0.03944  -1.47837  -1.62678 
 C                    -1.7934   -1.38148  -0.41297 
 H                    -2.43371  -1.52573  -1.29682 
 H                    -1.65773  -2.37615   0.02784 
 C                    -1.41993   1.43514  -0.6446 
 H                    -1.36331   2.49552  -0.8844 
 C                    -2.35956   1.00005   0.22126 
 H                    -3.04068   1.71247   0.68353 
 C                    -2.53277  -0.45814   0.57431 
 H                    -3.60145  -0.71583   0.57595 
 H                    -2.19361  -0.63531   1.60368 
 
 ITRead=  0  0  0  0  0  0  0  0  0  0  0  0  0  0  0  0  0  0  0  0
 ITRead=  0  0  0  0  0  0  0  0
 MicOpt= -1 -1 -1 -1 -1 -1 -1 -1 -1 -1 -1 -1 -1 -1 -1 -1 -1 -1 -1 -1
 MicOpt= -1 -1 -1 -1 -1 -1 -1 -1
 NAtoms=     28 NQM=       28 NQMF=       0 NMMI=      0 NMMIF=      0
                NMic=       0 NMicF=      0.
                    Isotopes and Nuclear Properties:
 (Nuclear quadrupole moments (NQMom) in fm**2, nuclear magnetic moments (NMagM)
  in nuclear magnetons)

  Atom         1           2           3           4           5           6           7           8           9          10
 IAtWgt=          12          12          12          12          12          12           1           1           1           1
 AtmWgt=  12.0000000  12.0000000  12.0000000  12.0000000  12.0000000  12.0000000   1.0078250   1.0078250   1.0078250   1.0078250
 NucSpn=           0           0           0           0           0           0           1           1           1           1
 AtZEff=  -0.0000000  -0.0000000  -0.0000000  -0.0000000  -0.0000000  -0.0000000  -0.0000000  -0.0000000  -0.0000000  -0.0000000
 NQMom=    0.0000000   0.0000000   0.0000000   0.0000000   0.0000000   0.0000000   0.0000000   0.0000000   0.0000000   0.0000000
 NMagM=    0.0000000   0.0000000   0.0000000   0.0000000   0.0000000   0.0000000   2.7928460   2.7928460   2.7928460   2.7928460
 AtZNuc=   6.0000000   6.0000000   6.0000000   6.0000000   6.0000000   6.0000000   1.0000000   1.0000000   1.0000000   1.0000000

  Atom        11          12          13          14          15          16          17          18          19          20
 IAtWgt=           1           1           1           1          12          12           1           1          12           1
 AtmWgt=   1.0078250   1.0078250   1.0078250   1.0078250  12.0000000  12.0000000   1.0078250   1.0078250  12.0000000   1.0078250
 NucSpn=           1           1           1           1           0           0           1           1           0           1
 AtZEff=  -0.0000000  -0.0000000  -0.0000000  -0.0000000  -0.0000000  -0.0000000  -0.0000000  -0.0000000  -0.0000000  -0.0000000
 NQMom=    0.0000000   0.0000000   0.0000000   0.0000000   0.0000000   0.0000000   0.0000000   0.0000000   0.0000000   0.0000000
 NMagM=    2.7928460   2.7928460   2.7928460   2.7928460   0.0000000   0.0000000   2.7928460   2.7928460   0.0000000   2.7928460
 AtZNuc=   1.0000000   1.0000000   1.0000000   1.0000000   6.0000000   6.0000000   1.0000000   1.0000000   6.0000000   1.0000000

  Atom        21          22          23          24          25          26          27          28
 IAtWgt=           1          12           1          12           1          12           1           1
 AtmWgt=   1.0078250  12.0000000   1.0078250  12.0000000   1.0078250  12.0000000   1.0078250   1.0078250
 NucSpn=           1           0           1           0           1           0           1           1
 AtZEff=  -0.0000000  -0.0000000  -0.0000000  -0.0000000  -0.0000000  -0.0000000  -0.0000000  -0.0000000
 NQMom=    0.0000000   0.0000000   0.0000000   0.0000000   0.0000000   0.0000000   0.0000000   0.0000000
 NMagM=    2.7928460   0.0000000   2.7928460   0.0000000   2.7928460   0.0000000   2.7928460   2.7928460
 AtZNuc=   1.0000000   6.0000000   1.0000000   6.0000000   1.0000000   6.0000000   1.0000000   1.0000000
 Leave Link  101 at Tue Sep 15 22:43:01 2020, MaxMem=  6442450944 cpu:               2.8 elap:               0.2
 (Enter /scratch/scicomp/CentOS/7.3.1611/Haswell/software/Gaussian/g16/l202.exe)
                          Input orientation:                          
 ---------------------------------------------------------------------
 Center     Atomic      Atomic             Coordinates (Angstroms)
 Number     Number       Type             X           Y           Z
 ---------------------------------------------------------------------
      1          6           0        2.468892    0.284095   -0.708957
      2          6           0        1.667254    1.330389    0.031252
      3          6           0        1.087601    1.075991    1.256922
      4          6           0        0.689250   -0.234741    1.575517
      5          6           0        0.886557   -1.229380    0.609039
      6          6           0        2.185072   -1.148363   -0.185946
      7          1           0        0.754870    1.903944    1.878564
      8          1           0        1.804474    2.361213   -0.290944
      9          1           0        2.289282    0.358101   -1.789365
     10          1           0        3.538694    0.506111   -0.581025
     11          1           0        0.057564   -0.414132    2.441200
     12          1           0        0.559304   -2.241378    0.845590
     13          1           0        2.995597   -1.451049    0.490252
     14          1           0        2.187529   -1.871427   -1.009641
     15          6           0       -0.429793    0.553269   -1.228382
     16          6           0       -0.468367   -0.818307   -0.924402
     17          1           0        0.178899    0.920914   -2.045953
     18          1           0        0.039438   -1.478372   -1.626777
     19          6           0       -1.793403   -1.381477   -0.412965
     20          1           0       -2.433705   -1.525729   -1.296815
     21          1           0       -1.657728   -2.376149    0.027843
     22          6           0       -1.419929    1.435138   -0.644601
     23          1           0       -1.363311    2.495516   -0.884397
     24          6           0       -2.359563    1.000047    0.221263
     25          1           0       -3.040678    1.712474    0.683525
     26          6           0       -2.532766   -0.458144    0.574312
     27          1           0       -3.601447   -0.715834    0.575953
     28          1           0       -2.193607   -0.635306    1.603677
 ---------------------------------------------------------------------
                    Distance matrix (angstroms):
                    1          2          3          4          5
     1  C    0.000000
     2  C    1.511709   0.000000
     3  C    2.529772   1.379486   0.000000
     4  C    2.941962   2.406424   1.406487   0.000000
     5  C    2.555681   2.737835   2.403104   1.400827   0.000000
     6  C    1.551138   2.541559   2.869505   2.484943   1.524699
     7  H    3.501007   2.138685   1.087499   2.161045   3.383305
     8  H    2.220497   1.088686   2.135788   3.386204   3.813778
     9  H    1.097733   2.155669   3.352502   3.772797   3.200012
    10  H    1.100061   2.134621   3.116195   3.649502   3.385559
    11  H    4.028090   3.382648   2.164245   1.086561   2.169948
    12  H    3.527202   3.827299   3.384262   2.139222   1.089583
    13  H    2.173993   3.116340   3.257938   2.824260   2.123981
    14  H    2.194505   3.406724   3.877425   3.406849   2.173678
    15  C    2.957132   2.566749   2.958455   3.120107   2.878668
    16  C    3.144709   3.176641   3.281398   2.816065   2.087161
    17  H    2.727117   2.587982   3.429107   3.835498   3.489058
    18  H    3.138619   3.645269   3.992385   3.496221   2.403847
    19  C    4.585728   4.419015   4.138581   3.381217   2.872248
    20  H    5.258945   5.170980   5.068542   4.435064   3.839823
    21  H    4.964752   4.979351   4.578727   3.534010   2.850659
    22  C    4.056103   3.162032   3.167410   3.487987   3.740474
    23  H    4.427973   3.373464   3.550671   4.209333   4.600772
    24  C    4.969092   4.044810   3.600180   3.557241   3.957020
    25  H    5.859576   4.768236   4.216228   4.301123   4.907467
    26  C    5.216731   4.597166   3.990812   3.381377   3.505393
    27  H    6.284892   5.678287   5.065721   4.431778   4.517411
    28  H    5.285118   4.608983   3.716867   2.910689   3.290842
                    6          7          8          9         10
     6  C    0.000000
     7  H    3.952753   0.000000
     8  H    3.531714   2.453065   0.000000
     9  H    2.202554   4.265883   2.548090   0.000000
    10  H    2.173859   3.969029   2.555987   1.744426   0.000000
    11  H    3.459376   2.485211   4.268354   4.845058   4.700953
    12  H    2.214017   4.276561   4.901633   4.085719   4.296591
    13  H    1.098095   4.266643   4.069691   2.994755   2.296315
    14  H    1.096039   4.964642   4.310278   2.364132   2.768040
    15  C    3.289338   3.588992   3.023144   2.783193   4.021217
    16  C    2.773985   4.094335   3.959346   3.120373   4.234209
    17  H    3.430199   4.086554   2.792313   2.199162   3.688672
    18  H    2.605503   4.923344   4.431954   2.908757   4.156508
    19  C    3.991759   4.747504   5.193008   4.646388   5.658842
    20  H    4.765452   5.657977   5.838001   5.108623   6.349038
    21  H    4.039836   5.250237   5.876314   5.133932   5.973353
    22  C    4.458797   3.363910   3.373346   4.028491   5.045302
    23  H    5.133879   3.531374   3.225691   4.327695   5.299002
    24  C    5.043331   3.641891   4.410707   5.105534   5.973029
    25  H    6.020700   3.983838   4.984571   6.029758   6.807535
    26  C    4.828291   4.253126   5.244911   5.431885   6.255175
    27  H    5.852467   5.247621   6.280423   6.438071   7.335759
    28  H    4.758026   3.900881   5.343535   5.709281   6.239794
                   11         12         13         14         15
    11  H    0.000000
    12  H    2.477205   0.000000
    13  H    3.676062   2.585809   0.000000
    14  H    4.309149   2.495969   1.754814   0.000000
    15  C    3.826123   3.617972   4.324846   3.574545   0.000000
    16  C    3.430341   2.492812   3.794819   2.858341   1.405387
    17  H    4.683120   4.301839   4.471279   3.592451   1.083555
    18  H    4.204922   2.639136   3.636129   2.269283   2.122843
    19  C    3.536678   2.803323   4.873927   4.055107   2.503513
    20  H    4.627616   3.749687   5.716337   4.643036   2.888352
    21  H    3.551905   2.366876   4.766872   4.014613   3.415760
    22  C    3.889081   4.433374   5.395817   4.907176   1.448745
    23  H    4.641609   5.396987   6.038635   5.629773   2.182225
    24  C    3.573587   4.406405   5.895589   5.516932   2.454607
    25  H    4.148612   5.349680   6.817760   6.560892   3.437421
    26  C    3.193277   3.579722   5.617448   5.175660   2.948755
    27  H    4.118074   4.439802   6.638439   6.112426   3.863371
    28  H    2.412081   3.276077   5.369636   5.248979   3.541795
                   16         17         18         19         20
    16  C    0.000000
    17  H    2.168345   0.000000
    18  H    1.089441   2.439617   0.000000
    19  C    1.527890   3.443491   2.200462   0.000000
    20  H    2.121719   3.656907   2.495507   1.100902   0.000000
    21  H    2.179041   4.306327   2.534589   1.096399   1.755014
    22  C    2.462067   2.187342   3.403375   2.850694   3.196851
    23  H    3.432776   2.491384   4.279091   3.929160   4.181656
    24  C    2.862793   3.404456   3.913185   2.528723   2.947813
    25  H    3.950578   4.294449   5.000611   3.511484   3.843972
    26  C    2.576355   4.015061   3.535801   1.540752   2.156541
    27  H    3.475307   4.883068   4.323139   2.165655   2.350917
    28  H    3.066126   4.622813   4.016601   2.187185   3.043576
                   21         22         23         24         25
    21  H    0.000000
    22  C    3.877453   0.000000
    23  H    4.965076   1.088627   0.000000
    24  C    3.453793   1.349791   2.109841   0.000000
    25  H    4.365697   2.113684   2.425921   1.088649   0.000000
    26  C    2.177857   2.511707   3.495649   1.510286   2.231924
    27  H    2.614405   3.297795   4.177876   2.147633   2.494537
    28  H    2.408517   3.152788   4.084354   2.147787   2.660128
                   26         27         28
    26  C    0.000000
    27  H    1.099312   0.000000
    28  H    1.098184   1.744911   0.000000
 Symmetry turned off by external request.
 Stoichiometry    C12H16
 Framework group  C1[X(C12H16)]
 Deg. of freedom    78
 Full point group                 C1      NOp   1
 Rotational constants (GHZ):           1.6113202           0.8340277           0.7600312
 Leave Link  202 at Tue Sep 15 22:43:02 2020, MaxMem=  6442450944 cpu:               1.3 elap:               0.1
 (Enter /scratch/scicomp/CentOS/7.3.1611/Haswell/software/Gaussian/g16/l301.exe)
 Standard basis: 6-31G(d) (6D, 10F)
 Ernie: Thresh=  0.10000D-02 Tol=  0.10000D-05 Strict=F.
   212 basis functions,   400 primitive gaussians,   212 cartesian basis functions
    44 alpha electrons       44 beta electrons
       nuclear repulsion energy       714.9299030981 Hartrees.
 IExCor=  402 DFT=T Ex+Corr=B3LYP ExCW=0 ScaHFX=  0.200000
 ScaDFX=  0.800000  0.720000  1.000000  0.810000 ScalE2=  1.000000  1.000000
 IRadAn=      5 IRanWt=     -1 IRanGd=            0 ICorTp=0 IEmpDi=  4
 NAtoms=   28 NActive=   28 NUniq=   28 SFac= 1.00D+00 NAtFMM=   60 NAOKFM=F Big=F
 Integral buffers will be    131072 words long.
 Raffenetti 2 integral format.
 Two-electron integral symmetry is turned off.
 Using the following non-standard input for PCM:
 qrep pcmdoc geomview nodis nocav g03defaults tsare=0.075
 Warning! Using old PCM defaults because the g03defaults keyword was found.
 These settings can be overridden by following keywords.
 nsfe=28
 nvesolv=36 solvmw=84.1595 rsolv=2.815
 eps=2.0165 rhos=0.7781
 --- end of non-standard input.
 Reading user-defined spheres from input:
 ISph  on   Nord    Re0     Alpha      Xe            Ye            Ze
 --- end of user-defined spheres data.
 ------------------------------------------------------------------------------
 Polarizable Continuum Model (PCM)
 =================================
 Model                : PCM.
 Atomic radii         : UA0 (Simple United Atom Topological Model).
 Polarization charges : Total charges.
 Charge compensation  : None.
 Solution method      : On-the-fly selection.
 Cavity type          : SES (Solvent Excluding Surface) (Alpha=1.000).
 Cavity algorithm     : GePol (RMin=0.200 OFac=0.890).
                        User-defined sphere list used, NSphG=   28.
                        Tesserae with average area of 0.075 Ang**2.
                        Smoothing algorithm: None.
                        Polarization charges: point-like.
                        Self-potential: constant (ISelfS= 1).
                        Self-field    : global E.n sum rule (ISelfD= 3).
 Solvent              : CycloHexane, Eps=   2.016500 Eps(inf)=   2.035188
                        RSolv=   2.815000 Ang.
 ------------------------------------------------------------------------------
 GePol: Number of generator spheres                  =      28
 GePol: Total number of spheres                      =     312
 GePol: Number of exposed spheres                    =     170 ( 54.49%)
 GePol: Number of tesserae                           =    4671
 GePol: Average area of tesserae                     =       0.05 Ang**2
 GePol: Minimum area of tessera                      =   0.10D-02 Ang**2
 GePol: Maximum area of tessera                      =    0.12395 Ang**2
 GePol: Number of small tesserae                     =       0
 GePol: Fraction of small tesserae (<1% of avg)      =       0.00%
 GePol: Total count of vertices                      =   16479
 GePol: Maximum number of vertices in a tessera      =       9
 GePol: Cavity surface area                          =    239.565 Ang**2
 GePol: Cavity volume                                =    291.588 Ang**3
 Leave Link  301 at Tue Sep 15 22:43:02 2020, MaxMem=  6442450944 cpu:              11.6 elap:               0.5
 (Enter /scratch/scicomp/CentOS/7.3.1611/Haswell/software/Gaussian/g16/l302.exe)
 NPDir=0 NMtPBC=     1 NCelOv=     1 NCel=       1 NClECP=     1 NCelD=      1
         NCelK=      1 NCelE2=     1 NClLst=     1 CellRange=     0.0.
 One-electron integrals computed using PRISM.
 NBasis=   212 RedAO= T EigKep=  1.19D-03  NBF=   212
 NBsUse=   212 1.00D-06 EigRej= -1.00D+00 NBFU=   212
 Precomputing XC quadrature grid using
 IXCGrd= 4 IRadAn=           5 IRanWt=          -1 IRanGd=           0 AccXCQ= 0.00D+00.
 Generated NRdTot=       0 NPtTot=           0 NUsed=           0 NTot=          32
 NSgBfM=   212   212   212   212   212 MxSgAt=    28 MxSgA2=    28.
 Leave Link  302 at Tue Sep 15 22:43:03 2020, MaxMem=  6442450944 cpu:              14.4 elap:               0.7
 (Enter /scratch/scicomp/CentOS/7.3.1611/Haswell/software/Gaussian/g16/l303.exe)
 DipDrv:  MaxL=1.
 Leave Link  303 at Tue Sep 15 22:43:03 2020, MaxMem=  6442450944 cpu:               2.4 elap:               0.1
 (Enter /scratch/scicomp/CentOS/7.3.1611/Haswell/software/Gaussian/g16/l401.exe)
 ExpMin= 1.61D-01 ExpMax= 3.05D+03 ExpMxC= 4.57D+02 IAcc=3 IRadAn=         5 AccDes= 0.00D+00
 Harris functional with IExCor=  402 and IRadAn=       5 diagonalized for initial guess.
 HarFok:  IExCor=  402 AccDes= 0.00D+00 IRadAn=         5 IDoV= 1 UseB2=F ITyADJ=14
 ICtDFT=  3500011 ScaDFX=  1.000000  1.000000  1.000000  1.000000
 FoFCou: FMM=F IPFlag=           0 FMFlag=      100000 FMFlg1=           0
         NFxFlg=           0 DoJE=T BraDBF=F KetDBF=T FulRan=T
         wScrn=  0.000000 ICntrl=       500 IOpCl=  0 I1Cent=   200000004 NGrid=           0
         NMat0=    1 NMatS0=      1 NMatT0=    0 NMatD0=    1 NMtDS0=    0 NMtDT0=    0
 Symmetry not used in FoFCou.
 Harris En= -466.858185006345    
 JPrj=0 DoOrth=F DoCkMO=F.
 Leave Link  401 at Tue Sep 15 22:43:04 2020, MaxMem=  6442450944 cpu:              13.6 elap:               0.6
 (Enter /scratch/scicomp/CentOS/7.3.1611/Haswell/software/Gaussian/g16/l502.exe)
 Two-electron integral symmetry not used.
 Closed shell SCF:
 Using DIIS extrapolation, IDIIS=  1040.
 NGot=  6442450944 LenX=  6442353874 LenY=  6442308489
 Requested convergence on RMS density matrix=1.00D-08 within 128 cycles.
 Requested convergence on MAX density matrix=1.00D-06.
 Requested convergence on             energy=1.00D-06.
 No special actions if energy rises.
 Fock matrices will be formed incrementally for  20 cycles.

 Cycle   1  Pass 1  IDiag  1:
 FoFJK:  IHMeth= 1 ICntrl=       0 DoSepK=F KAlg= 0 I1Cent=           0 FoldK=F
 IRaf= 960000000 NMat=       1 IRICut=       1 DoRegI=T DoRafI=F ISym2E= 0 IDoP0=0 IntGTp=1.
 FoFCou: FMM=F IPFlag=           0 FMFlag=      100000 FMFlg1=           0
         NFxFlg=           0 DoJE=F BraDBF=F KetDBF=F FulRan=T
         wScrn=  0.000000 ICntrl=         0 IOpCl=  0 I1Cent=           0 NGrid=           0
         NMat0=    1 NMatS0=      1 NMatT0=    0 NMatD0=    1 NMtDS0=    0 NMtDT0=    0
 Symmetry not used in FoFCou.
 Inv3:  Mode=1 IEnd=    65454723.
 Iteration    1 A*A^-1 deviation from unit magnitude is 6.00D-15 for   1984.
 Iteration    1 A*A^-1 deviation from orthogonality  is 2.07D-15 for    489    481.
 Iteration    1 A^-1*A deviation from unit magnitude is 6.88D-15 for   1984.
 Iteration    1 A^-1*A deviation from orthogonality  is 2.35D-15 for   1502    730.
 E= -466.442554416996    
 DIIS: error= 2.30D-02 at cycle   1 NSaved=   1.
 NSaved= 1 IEnMin= 1 EnMin= -466.442554416996     IErMin= 1 ErrMin= 2.30D-02
 ErrMax= 2.30D-02  0.00D+00 EMaxC= 1.00D-01 BMatC= 3.07D-01 BMatP= 3.07D-01
 IDIUse=3 WtCom= 7.70D-01 WtEn= 2.30D-01
 Coeff-Com:  0.100D+01
 Coeff-En:   0.100D+01
 Coeff:      0.100D+01
 Gap=     0.136 Goal=   None    Shift=    0.000
 GapD=    0.136 DampG=1.000 DampE=0.500 DampFc=0.5000 IDamp=-1.
 Damping current iteration by 5.00D-01
 RMSDP=6.91D-03 MaxDP=1.43D-01              OVMax= 1.58D-01

 Cycle   2  Pass 1  IDiag  1:
 RMSU=  3.41D-03    CP:  9.74D-01
 E= -466.590684628983     Delta-E=       -0.148130211987 Rises=F Damp=T
 DIIS: error= 6.82D-03 at cycle   2 NSaved=   2.
 NSaved= 2 IEnMin= 2 EnMin= -466.590684628983     IErMin= 2 ErrMin= 6.82D-03
 ErrMax= 6.82D-03  0.00D+00 EMaxC= 1.00D-01 BMatC= 2.08D-02 BMatP= 3.07D-01
 IDIUse=3 WtCom= 9.32D-01 WtEn= 6.82D-02
 Coeff-Com:  0.775D-01 0.923D+00
 Coeff-En:   0.132D+00 0.868D+00
 Coeff:      0.813D-01 0.919D+00
 Gap=     0.138 Goal=   None    Shift=    0.000
 RMSDP=1.94D-03 MaxDP=3.30D-02 DE=-1.48D-01 OVMax= 9.57D-02

 Cycle   3  Pass 1  IDiag  1:
 RMSU=  1.66D-03    CP:  9.69D-01  7.09D-01
 E= -466.781858175567     Delta-E=       -0.191173546584 Rises=F Damp=F
 DIIS: error= 3.44D-03 at cycle   3 NSaved=   3.
 NSaved= 3 IEnMin= 3 EnMin= -466.781858175567     IErMin= 3 ErrMin= 3.44D-03
 ErrMax= 3.44D-03  0.00D+00 EMaxC= 1.00D-01 BMatC= 6.14D-03 BMatP= 2.08D-02
 IDIUse=3 WtCom= 9.66D-01 WtEn= 3.44D-02
 Coeff-Com: -0.179D-01 0.324D+00 0.694D+00
 Coeff-En:   0.000D+00 0.000D+00 0.100D+01
 Coeff:     -0.173D-01 0.313D+00 0.705D+00
 Gap=     0.134 Goal=   None    Shift=    0.000
 RMSDP=7.39D-04 MaxDP=1.45D-02 DE=-1.91D-01 OVMax= 3.86D-02

 Cycle   4  Pass 1  IDiag  1:
 RMSU=  4.69D-04    CP:  9.69D-01  8.00D-01  7.12D-01
 E= -466.785589218701     Delta-E=       -0.003731043133 Rises=F Damp=F
 DIIS: error= 2.55D-03 at cycle   4 NSaved=   4.
 NSaved= 4 IEnMin= 4 EnMin= -466.785589218701     IErMin= 4 ErrMin= 2.55D-03
 ErrMax= 2.55D-03  0.00D+00 EMaxC= 1.00D-01 BMatC= 2.04D-03 BMatP= 6.14D-03
 IDIUse=3 WtCom= 9.75D-01 WtEn= 2.55D-02
 Coeff-Com: -0.147D-01 0.120D+00 0.403D+00 0.492D+00
 Coeff-En:   0.000D+00 0.000D+00 0.265D+00 0.735D+00
 Coeff:     -0.143D-01 0.116D+00 0.399D+00 0.498D+00
 Gap=     0.134 Goal=   None    Shift=    0.000
 RMSDP=3.26D-04 MaxDP=7.07D-03 DE=-3.73D-03 OVMax= 3.02D-02

 Cycle   5  Pass 1  IDiag  1:
 RMSU=  1.86D-04    CP:  9.69D-01  7.91D-01  7.67D-01  4.69D-01
 E= -466.787537285388     Delta-E=       -0.001948066687 Rises=F Damp=F
 DIIS: error= 1.28D-03 at cycle   5 NSaved=   5.
 NSaved= 5 IEnMin= 5 EnMin= -466.787537285388     IErMin= 5 ErrMin= 1.28D-03
 ErrMax= 1.28D-03  0.00D+00 EMaxC= 1.00D-01 BMatC= 3.16D-04 BMatP= 2.04D-03
 IDIUse=3 WtCom= 9.87D-01 WtEn= 1.28D-02
 Coeff-Com: -0.532D-02 0.142D-01 0.113D+00 0.310D+00 0.568D+00
 Coeff-En:   0.000D+00 0.000D+00 0.000D+00 0.163D+00 0.837D+00
 Coeff:     -0.525D-02 0.140D-01 0.111D+00 0.308D+00 0.572D+00
 Gap=     0.134 Goal=   None    Shift=    0.000
 RMSDP=1.12D-04 MaxDP=2.44D-03 DE=-1.95D-03 OVMax= 1.26D-02

 Cycle   6  Pass 1  IDiag  1:
 RMSU=  4.39D-05    CP:  9.69D-01  7.90D-01  7.75D-01  5.92D-01  5.48D-01
 E= -466.787887747730     Delta-E=       -0.000350462342 Rises=F Damp=F
 DIIS: error= 2.81D-04 at cycle   6 NSaved=   6.
 NSaved= 6 IEnMin= 6 EnMin= -466.787887747730     IErMin= 6 ErrMin= 2.81D-04
 ErrMax= 2.81D-04  0.00D+00 EMaxC= 1.00D-01 BMatC= 1.96D-05 BMatP= 3.16D-04
 IDIUse=3 WtCom= 9.97D-01 WtEn= 2.81D-03
 Coeff-Com: -0.277D-02 0.486D-02 0.562D-01 0.175D+00 0.357D+00 0.410D+00
 Coeff-En:   0.000D+00 0.000D+00 0.000D+00 0.000D+00 0.000D+00 0.100D+01
 Coeff:     -0.276D-02 0.484D-02 0.560D-01 0.175D+00 0.356D+00 0.412D+00
 Gap=     0.134 Goal=   None    Shift=    0.000
 RMSDP=2.91D-05 MaxDP=8.61D-04 DE=-3.50D-04 OVMax= 3.87D-03

 Cycle   7  Pass 1  IDiag  1:
 RMSU=  1.10D-05    CP:  9.69D-01  7.90D-01  7.74D-01  5.92D-01  5.98D-01
                    CP:  4.28D-01
 E= -466.787910703134     Delta-E=       -0.000022955404 Rises=F Damp=F
 DIIS: error= 5.22D-05 at cycle   7 NSaved=   7.
 NSaved= 7 IEnMin= 7 EnMin= -466.787910703134     IErMin= 7 ErrMin= 5.22D-05
 ErrMax= 5.22D-05  0.00D+00 EMaxC= 1.00D-01 BMatC= 7.89D-07 BMatP= 1.96D-05
 IDIUse=1 WtCom= 1.00D+00 WtEn= 0.00D+00
 Coeff-Com: -0.100D-02 0.129D-02 0.205D-01 0.676D-01 0.144D+00 0.221D+00
 Coeff-Com:  0.546D+00
 Coeff:     -0.100D-02 0.129D-02 0.205D-01 0.676D-01 0.144D+00 0.221D+00
 Coeff:      0.546D+00
 Gap=     0.134 Goal=   None    Shift=    0.000
 RMSDP=5.90D-06 MaxDP=1.75D-04 DE=-2.30D-05 OVMax= 6.99D-04

 Cycle   8  Pass 1  IDiag  1:
 RMSU=  3.43D-06    CP:  9.69D-01  7.90D-01  7.75D-01  5.93D-01  5.98D-01
                    CP:  4.76D-01  6.09D-01
 E= -466.787911504260     Delta-E=       -0.000000801126 Rises=F Damp=F
 DIIS: error= 1.41D-05 at cycle   8 NSaved=   8.
 NSaved= 8 IEnMin= 8 EnMin= -466.787911504260     IErMin= 8 ErrMin= 1.41D-05
 ErrMax= 1.41D-05  0.00D+00 EMaxC= 1.00D-01 BMatC= 8.99D-08 BMatP= 7.89D-07
 IDIUse=1 WtCom= 1.00D+00 WtEn= 0.00D+00
 Coeff-Com: -0.896D-04-0.113D-03 0.215D-02 0.876D-02 0.219D-01 0.541D-01
 Coeff-Com:  0.290D+00 0.623D+00
 Coeff:     -0.896D-04-0.113D-03 0.215D-02 0.876D-02 0.219D-01 0.541D-01
 Coeff:      0.290D+00 0.623D+00
 Gap=     0.134 Goal=   None    Shift=    0.000
 RMSDP=1.55D-06 MaxDP=5.79D-05 DE=-8.01D-07 OVMax= 1.12D-04

 Cycle   9  Pass 1  IDiag  1:
 RMSU=  1.00D-06    CP:  9.69D-01  7.90D-01  7.75D-01  5.93D-01  5.99D-01
                    CP:  4.74D-01  6.68D-01  7.35D-01
 E= -466.787911591091     Delta-E=       -0.000000086831 Rises=F Damp=F
 DIIS: error= 2.81D-06 at cycle   9 NSaved=   9.
 NSaved= 9 IEnMin= 9 EnMin= -466.787911591091     IErMin= 9 ErrMin= 2.81D-06
 ErrMax= 2.81D-06  0.00D+00 EMaxC= 1.00D-01 BMatC= 4.56D-09 BMatP= 8.99D-08
 IDIUse=1 WtCom= 1.00D+00 WtEn= 0.00D+00
 Coeff-Com:  0.239D-04-0.138D-03-0.382D-03-0.455D-03 0.471D-03 0.949D-02
 Coeff-Com:  0.960D-01 0.281D+00 0.614D+00
 Coeff:      0.239D-04-0.138D-03-0.382D-03-0.455D-03 0.471D-03 0.949D-02
 Coeff:      0.960D-01 0.281D+00 0.614D+00
 Gap=     0.134 Goal=   None    Shift=    0.000
 RMSDP=4.44D-07 MaxDP=8.53D-06 DE=-8.68D-08 OVMax= 1.84D-05

 Cycle  10  Pass 1  IDiag  1:
 RMSU=  2.69D-07    CP:  9.69D-01  7.90D-01  7.75D-01  5.93D-01  5.99D-01
                    CP:  4.76D-01  6.77D-01  7.51D-01  6.90D-01
 E= -466.787911595446     Delta-E=       -0.000000004355 Rises=F Damp=F
 DIIS: error= 7.53D-07 at cycle  10 NSaved=  10.
 NSaved=10 IEnMin=10 EnMin= -466.787911595446     IErMin=10 ErrMin= 7.53D-07
 ErrMax= 7.53D-07  0.00D+00 EMaxC= 1.00D-01 BMatC= 3.54D-10 BMatP= 4.56D-09
 IDIUse=1 WtCom= 1.00D+00 WtEn= 0.00D+00
 Coeff-Com:  0.156D-04-0.581D-04-0.307D-03-0.710D-03-0.978D-03 0.131D-02
 Coeff-Com:  0.293D-01 0.967D-01 0.287D+00 0.588D+00
 Coeff:      0.156D-04-0.581D-04-0.307D-03-0.710D-03-0.978D-03 0.131D-02
 Coeff:      0.293D-01 0.967D-01 0.287D+00 0.588D+00
 Gap=     0.134 Goal=   None    Shift=    0.000
 RMSDP=1.31D-07 MaxDP=3.25D-06 DE=-4.35D-09 OVMax= 6.84D-06

 Cycle  11  Pass 1  IDiag  1:
 RMSU=  1.06D-07    CP:  9.69D-01  7.90D-01  7.75D-01  5.93D-01  5.99D-01
                    CP:  4.76D-01  6.80D-01  7.53D-01  7.34D-01  8.05D-01
 E= -466.787911595738     Delta-E=       -0.000000000292 Rises=F Damp=F
 DIIS: error= 4.22D-07 at cycle  11 NSaved=  11.
 NSaved=11 IEnMin=11 EnMin= -466.787911595738     IErMin=11 ErrMin= 4.22D-07
 ErrMax= 4.22D-07  0.00D+00 EMaxC= 1.00D-01 BMatC= 7.71D-11 BMatP= 3.54D-10
 IDIUse=1 WtCom= 1.00D+00 WtEn= 0.00D+00
 Coeff-Com:  0.292D-05-0.523D-05-0.820D-04-0.252D-03-0.478D-03-0.779D-03
 Coeff-Com:  0.247D-03 0.568D-02 0.536D-01 0.341D+00 0.601D+00
 Coeff:      0.292D-05-0.523D-05-0.820D-04-0.252D-03-0.478D-03-0.779D-03
 Coeff:      0.247D-03 0.568D-02 0.536D-01 0.341D+00 0.601D+00
 Gap=     0.134 Goal=   None    Shift=    0.000
 RMSDP=4.74D-08 MaxDP=1.38D-06 DE=-2.92D-10 OVMax= 3.53D-06

 Cycle  12  Pass 1  IDiag  1:
 RMSU=  2.26D-08    CP:  9.69D-01  7.90D-01  7.75D-01  5.93D-01  5.99D-01
                    CP:  4.76D-01  6.79D-01  7.56D-01  7.41D-01  8.68D-01
                    CP:  6.72D-01
 E= -466.787911595819     Delta-E=       -0.000000000081 Rises=F Damp=F
 DIIS: error= 8.95D-08 at cycle  12 NSaved=  12.
 NSaved=12 IEnMin=12 EnMin= -466.787911595819     IErMin=12 ErrMin= 8.95D-08
 ErrMax= 8.95D-08  0.00D+00 EMaxC= 1.00D-01 BMatC= 2.00D-12 BMatP= 7.71D-11
 IDIUse=1 WtCom= 1.00D+00 WtEn= 0.00D+00
 Coeff-Com:  0.776D-06-0.327D-06-0.260D-04-0.925D-04-0.183D-03-0.421D-03
 Coeff-Com: -0.929D-03-0.107D-02 0.121D-01 0.120D+00 0.254D+00 0.617D+00
 Coeff:      0.776D-06-0.327D-06-0.260D-04-0.925D-04-0.183D-03-0.421D-03
 Coeff:     -0.929D-03-0.107D-02 0.121D-01 0.120D+00 0.254D+00 0.617D+00
 Gap=     0.134 Goal=   None    Shift=    0.000
 RMSDP=1.04D-08 MaxDP=2.57D-07 DE=-8.09D-11 OVMax= 8.65D-07

 Cycle  13  Pass 1  IDiag  1:
 RMSU=  8.83D-09    CP:  9.69D-01  7.90D-01  7.75D-01  5.93D-01  5.99D-01
                    CP:  4.76D-01  6.79D-01  7.56D-01  7.42D-01  8.78D-01
                    CP:  6.99D-01  8.87D-01
 E= -466.787911595825     Delta-E=       -0.000000000006 Rises=F Damp=F
 DIIS: error= 4.24D-08 at cycle  13 NSaved=  13.
 NSaved=13 IEnMin=13 EnMin= -466.787911595825     IErMin=13 ErrMin= 4.24D-08
 ErrMax= 4.24D-08  0.00D+00 EMaxC= 1.00D-01 BMatC= 6.98D-13 BMatP= 2.00D-12
 IDIUse=1 WtCom= 1.00D+00 WtEn= 0.00D+00
 Coeff-Com: -0.139D-06 0.892D-06 0.102D-05-0.621D-05-0.140D-04-0.110D-03
 Coeff-Com: -0.579D-03-0.181D-02-0.341D-02 0.536D-02 0.408D-01 0.387D+00
 Coeff-Com:  0.573D+00
 Coeff:     -0.139D-06 0.892D-06 0.102D-05-0.621D-05-0.140D-04-0.110D-03
 Coeff:     -0.579D-03-0.181D-02-0.341D-02 0.536D-02 0.408D-01 0.387D+00
 Coeff:      0.573D+00
 Gap=     0.134 Goal=   None    Shift=    0.000
 RMSDP=5.91D-09 MaxDP=1.52D-07 DE=-5.80D-12 OVMax= 5.34D-07

 Error on total polarization charges =  0.00567
 SCF Done:  E(RB3LYP) =  -466.787911596     A.U. after   13 cycles
            NFock= 13  Conv=0.59D-08     -V/T= 2.0100
 KE= 4.621586571123D+02 PE=-2.509899936212D+03 EE= 8.660234644058D+02
 --------------------------------------------------------------------
 Variational PCM results
 =======================
 <psi(f)|   H    |psi(f)>                     (a.u.) =    -466.794489
 <psi(f)|H+V(f)/2|psi(f)>                     (a.u.) =    -466.795195
 Total free energy in solution:
 - with all non electrostatic terms           (a.u.) =    -466.787912
 --------------------------------------------------------------------
 (Polarized solute)-Solvent               (kcal/mol) =      -0.44
 --------------------------------------------------------------------
 Quantum repulsion energy                 (kcal/mol) =       4.57
 Total non electrostatic                  (kcal/mol) =       4.57
 --------------------------------------------------------------------
 Partition over spheres:
 Sphere  on Atom  Surface  Charge   GEl     GCav    GDR
    1               0.00   0.000    0.00    0.00    0.00
    2               1.41   0.004   -0.03    0.00    0.00
    3               0.50   0.000   -0.00    0.00    0.00
    4               0.28   0.000   -0.00    0.00    0.00
    5               0.27   0.001   -0.01    0.00    0.00
    6               0.00   0.000    0.00    0.00    0.00
    7               6.51  -0.005   -0.01    0.00    0.00
    8              17.10  -0.002   -0.01    0.00    0.00
    9               3.40  -0.003   -0.01    0.00    0.00
   10              22.49  -0.000   -0.00    0.00    0.00
   11               5.51  -0.004   -0.01    0.00    0.00
   12              15.39  -0.001   -0.01    0.00    0.00
   13               5.41  -0.004   -0.01    0.00    0.00
   14               5.23  -0.003   -0.01    0.00    0.00
   15               0.00   0.000    0.00    0.00    0.00
   16               0.00   0.000    0.00    0.00    0.00
   17              12.98  -0.001   -0.01    0.00    0.00
   18              10.16  -0.002   -0.00    0.00    0.00
   19               0.06  -0.000   -0.00    0.00    0.00
   20              20.13   0.002   -0.00    0.00    0.00
   21               3.45  -0.003   -0.01    0.00    0.00
   22               0.00   0.000    0.00    0.00    0.00
   23               6.35  -0.006   -0.01    0.00    0.00
   24               0.00   0.000    0.00    0.00    0.00
   25               9.20  -0.007   -0.02    0.00    0.00
   26               0.00   0.000    0.00    0.00    0.00
   27               7.53  -0.004   -0.01    0.00    0.00
   28               5.10  -0.002   -0.01    0.00    0.00
 Added spheres:    81.09   0.035   -0.27    0.00    0.00
 --------------------------------------------------------------------
 After PCM corrections, the energy is  -466.787911596     a.u.
 --------------------------------------------------------------------
 Leave Link  502 at Tue Sep 15 22:43:50 2020, MaxMem=  6442450944 cpu:             954.1 elap:              46.2
0******************
 *Kjob Termination*
 *  in Link    502*
 ******************
 Job cpu time:       0 days  0 hours 16 minutes 43.3 seconds.
 Elapsed time:       0 days  0 hours  0 minutes 48.6 seconds.
 File lengths (MBytes):  RWF=    406 Int=      0 D2E=      0 Chk=      2 Scr=      1
 Normal termination of Gaussian 16 at Tue Sep 15 22:43:50 2020.
 Initial command:
 /scratch/scicomp/CentOS/7.3.1611/Haswell/software/Gaussian/g16/l1.exe "/scratch/bochen/test/xppcm/tmp/Gau-393940.inp" -scrdir="/scratch/bochen/test/xppcm/tmp/"
 Entering Link 1 = /scratch/scicomp/CentOS/7.3.1611/Haswell/software/Gaussian/g16/l1.exe PID=    394132.
  
 Copyright (c) 1988-2017, Gaussian, Inc.  All Rights Reserved.
  
 This is part of the Gaussian(R) 16 program.  It is based on
 the Gaussian(R) 09 system (copyright 2009, Gaussian, Inc.),
 the Gaussian(R) 03 system (copyright 2003, Gaussian, Inc.),
 the Gaussian(R) 98 system (copyright 1998, Gaussian, Inc.),
 the Gaussian(R) 94 system (copyright 1995, Gaussian, Inc.),
 the Gaussian 92(TM) system (copyright 1992, Gaussian, Inc.),
 the Gaussian 90(TM) system (copyright 1990, Gaussian, Inc.),
 the Gaussian 88(TM) system (copyright 1988, Gaussian, Inc.),
 the Gaussian 86(TM) system (copyright 1986, Carnegie Mellon
 University), and the Gaussian 82(TM) system (copyright 1983,
 Carnegie Mellon University). Gaussian is a federally registered
 trademark of Gaussian, Inc.
  
 This software contains proprietary and confidential information,
 including trade secrets, belonging to Gaussian, Inc.
  
 This software is provided under written license and may be
 used, copied, transmitted, or stored only in accord with that
 written license.
  
 The following legend is applicable only to US Government
 contracts under FAR:
  
                    RESTRICTED RIGHTS LEGEND
  
 Use, reproduction and disclosure by the US Government is
 subject to restrictions as set forth in subparagraphs (a)
 and (c) of the Commercial Computer Software - Restricted
 Rights clause in FAR 52.227-19.
  
 Gaussian, Inc.
 340 Quinnipiac St., Bldg. 40, Wallingford CT 06492
  
  
 ---------------------------------------------------------------
 Warning -- This program may not be used in any manner that
 competes with the business of Gaussian, Inc. or will provide
 assistance to any competitor of Gaussian, Inc.  The licensee
 of this program is prohibited from giving any competitor of
 Gaussian, Inc. access to this program.  By using this program,
 the user acknowledges that Gaussian, Inc. is engaged in the
 business of creating and licensing software in the field of
 computational chemistry and represents and warrants to the
 licensee that it is not a competitor of Gaussian, Inc. and that
 it will not use this program in any manner prohibited above.
 ---------------------------------------------------------------
  

 Cite this work as:
 Gaussian 16, Revision B.01,
 M. J. Frisch, G. W. Trucks, H. B. Schlegel, G. E. Scuseria, 
 M. A. Robb, J. R. Cheeseman, G. Scalmani, V. Barone, 
 G. A. Petersson, H. Nakatsuji, X. Li, M. Caricato, A. V. Marenich, 
 J. Bloino, B. G. Janesko, R. Gomperts, B. Mennucci, H. P. Hratchian, 
 J. V. Ortiz, A. F. Izmaylov, J. L. Sonnenberg, D. Williams-Young, 
 F. Ding, F. Lipparini, F. Egidi, J. Goings, B. Peng, A. Petrone, 
 T. Henderson, D. Ranasinghe, V. G. Zakrzewski, J. Gao, N. Rega, 
 G. Zheng, W. Liang, M. Hada, M. Ehara, K. Toyota, R. Fukuda, 
 J. Hasegawa, M. Ishida, T. Nakajima, Y. Honda, O. Kitao, H. Nakai, 
 T. Vreven, K. Throssell, J. A. Montgomery, Jr., J. E. Peralta, 
 F. Ogliaro, M. J. Bearpark, J. J. Heyd, E. N. Brothers, K. N. Kudin, 
 V. N. Staroverov, T. A. Keith, R. Kobayashi, J. Normand, 
 K. Raghavachari, A. P. Rendell, J. C. Burant, S. S. Iyengar, 
 J. Tomasi, M. Cossi, J. M. Millam, M. Klene, C. Adamo, R. Cammi, 
 J. W. Ochterski, R. L. Martin, K. Morokuma, O. Farkas, 
 J. B. Foresman, and D. J. Fox, Gaussian, Inc., Wallingford CT, 2016.
 
 ******************************************
 Gaussian 16:  ES64L-G16RevB.01 20-Dec-2017
                15-Sep-2020 
 ******************************************
 %kjob l502
 kjob at link  502 occurrence number     1
 %chk=structure-2-Ger.chk
 %nproc=24
 Will use up to   24 processors via shared memory.
 %mem=48gb
 ---------------------------------------------------------------------
 #p b3lyp 6-31g* # scrf=(iefpcm,solvent=cyclohexane,read) nosym 6d 10f
 ---------------------------------------------------------------------
 1/38=1,40=2,172=1/1;
 2/12=2,15=1,17=6,18=5,40=1/2;
 3/5=1,6=6,7=1,8=22,11=2,25=1,30=1,70=2203,72=17,74=-5/1,2,3;
 4//1;
 5/5=2,38=5,53=17/2;
 6/7=2,8=2,9=2,10=2,28=1/1;
 99/5=1,9=1/99;
 Leave Link    1 at Tue Sep 15 22:43:50 2020, MaxMem=  6442450944 cpu:               1.7 elap:               0.1
 (Enter /scratch/scicomp/CentOS/7.3.1611/Haswell/software/Gaussian/g16/l101.exe)
 -----
 title
 -----
 Symbolic Z-matrix:
 Charge =  0 Multiplicity = 1
 C                     2.46889   0.2841   -0.70896 
 C                     1.66725   1.33039   0.03125 
 C                     1.0876    1.07599   1.25692 
 C                     0.68925  -0.23474   1.57552 
 C                     0.88656  -1.22938   0.60904 
 C                     2.18507  -1.14836  -0.18595 
 H                     0.75487   1.90394   1.87856 
 H                     1.80447   2.36121  -0.29094 
 H                     2.28928   0.3581   -1.78937 
 H                     3.53869   0.50611  -0.58103 
 H                     0.05756  -0.41413   2.4412 
 H                     0.5593   -2.24138   0.84559 
 H                     2.9956   -1.45105   0.49025 
 H                     2.18753  -1.87143  -1.00964 
 C                    -0.42979   0.55327  -1.22838 
 C                    -0.46837  -0.81831  -0.9244 
 H                     0.1789    0.92091  -2.04595 
 H                     0.03944  -1.47837  -1.62678 
 C                    -1.7934   -1.38148  -0.41297 
 H                    -2.43371  -1.52573  -1.29682 
 H                    -1.65773  -2.37615   0.02784 
 C                    -1.41993   1.43514  -0.6446 
 H                    -1.36331   2.49552  -0.8844 
 C                    -2.35956   1.00005   0.22126 
 H                    -3.04068   1.71247   0.68353 
 C                    -2.53277  -0.45814   0.57431 
 H                    -3.60145  -0.71583   0.57595 
 H                    -2.19361  -0.63531   1.60368 
 
 ITRead=  0  0  0  0  0  0  0  0  0  0  0  0  0  0  0  0  0  0  0  0
 ITRead=  0  0  0  0  0  0  0  0
 MicOpt= -1 -1 -1 -1 -1 -1 -1 -1 -1 -1 -1 -1 -1 -1 -1 -1 -1 -1 -1 -1
 MicOpt= -1 -1 -1 -1 -1 -1 -1 -1
 NAtoms=     28 NQM=       28 NQMF=       0 NMMI=      0 NMMIF=      0
                NMic=       0 NMicF=      0.
                    Isotopes and Nuclear Properties:
 (Nuclear quadrupole moments (NQMom) in fm**2, nuclear magnetic moments (NMagM)
  in nuclear magnetons)

  Atom         1           2           3           4           5           6           7           8           9          10
 IAtWgt=          12          12          12          12          12          12           1           1           1           1
 AtmWgt=  12.0000000  12.0000000  12.0000000  12.0000000  12.0000000  12.0000000   1.0078250   1.0078250   1.0078250   1.0078250
 NucSpn=           0           0           0           0           0           0           1           1           1           1
 AtZEff=  -0.0000000  -0.0000000  -0.0000000  -0.0000000  -0.0000000  -0.0000000  -0.0000000  -0.0000000  -0.0000000  -0.0000000
 NQMom=    0.0000000   0.0000000   0.0000000   0.0000000   0.0000000   0.0000000   0.0000000   0.0000000   0.0000000   0.0000000
 NMagM=    0.0000000   0.0000000   0.0000000   0.0000000   0.0000000   0.0000000   2.7928460   2.7928460   2.7928460   2.7928460
 AtZNuc=   6.0000000   6.0000000   6.0000000   6.0000000   6.0000000   6.0000000   1.0000000   1.0000000   1.0000000   1.0000000

  Atom        11          12          13          14          15          16          17          18          19          20
 IAtWgt=           1           1           1           1          12          12           1           1          12           1
 AtmWgt=   1.0078250   1.0078250   1.0078250   1.0078250  12.0000000  12.0000000   1.0078250   1.0078250  12.0000000   1.0078250
 NucSpn=           1           1           1           1           0           0           1           1           0           1
 AtZEff=  -0.0000000  -0.0000000  -0.0000000  -0.0000000  -0.0000000  -0.0000000  -0.0000000  -0.0000000  -0.0000000  -0.0000000
 NQMom=    0.0000000   0.0000000   0.0000000   0.0000000   0.0000000   0.0000000   0.0000000   0.0000000   0.0000000   0.0000000
 NMagM=    2.7928460   2.7928460   2.7928460   2.7928460   0.0000000   0.0000000   2.7928460   2.7928460   0.0000000   2.7928460
 AtZNuc=   1.0000000   1.0000000   1.0000000   1.0000000   6.0000000   6.0000000   1.0000000   1.0000000   6.0000000   1.0000000

  Atom        21          22          23          24          25          26          27          28
 IAtWgt=           1          12           1          12           1          12           1           1
 AtmWgt=   1.0078250  12.0000000   1.0078250  12.0000000   1.0078250  12.0000000   1.0078250   1.0078250
 NucSpn=           1           0           1           0           1           0           1           1
 AtZEff=  -0.0000000  -0.0000000  -0.0000000  -0.0000000  -0.0000000  -0.0000000  -0.0000000  -0.0000000
 NQMom=    0.0000000   0.0000000   0.0000000   0.0000000   0.0000000   0.0000000   0.0000000   0.0000000
 NMagM=    2.7928460   0.0000000   2.7928460   0.0000000   2.7928460   0.0000000   2.7928460   2.7928460
 AtZNuc=   1.0000000   6.0000000   1.0000000   6.0000000   1.0000000   6.0000000   1.0000000   1.0000000
 Leave Link  101 at Tue Sep 15 22:43:50 2020, MaxMem=  6442450944 cpu:               2.8 elap:               0.2
 (Enter /scratch/scicomp/CentOS/7.3.1611/Haswell/software/Gaussian/g16/l202.exe)
                          Input orientation:                          
 ---------------------------------------------------------------------
 Center     Atomic      Atomic             Coordinates (Angstroms)
 Number     Number       Type             X           Y           Z
 ---------------------------------------------------------------------
      1          6           0        2.468892    0.284095   -0.708957
      2          6           0        1.667254    1.330389    0.031252
      3          6           0        1.087601    1.075991    1.256922
      4          6           0        0.689250   -0.234741    1.575517
      5          6           0        0.886557   -1.229380    0.609039
      6          6           0        2.185072   -1.148363   -0.185946
      7          1           0        0.754870    1.903944    1.878564
      8          1           0        1.804474    2.361213   -0.290944
      9          1           0        2.289282    0.358101   -1.789365
     10          1           0        3.538694    0.506111   -0.581025
     11          1           0        0.057564   -0.414132    2.441200
     12          1           0        0.559304   -2.241378    0.845590
     13          1           0        2.995597   -1.451049    0.490252
     14          1           0        2.187529   -1.871427   -1.009641
     15          6           0       -0.429793    0.553269   -1.228382
     16          6           0       -0.468367   -0.818307   -0.924402
     17          1           0        0.178899    0.920914   -2.045953
     18          1           0        0.039438   -1.478372   -1.626777
     19          6           0       -1.793403   -1.381477   -0.412965
     20          1           0       -2.433705   -1.525729   -1.296815
     21          1           0       -1.657728   -2.376149    0.027843
     22          6           0       -1.419929    1.435138   -0.644601
     23          1           0       -1.363311    2.495516   -0.884397
     24          6           0       -2.359563    1.000047    0.221263
     25          1           0       -3.040678    1.712474    0.683525
     26          6           0       -2.532766   -0.458144    0.574312
     27          1           0       -3.601447   -0.715834    0.575953
     28          1           0       -2.193607   -0.635306    1.603677
 ---------------------------------------------------------------------
                    Distance matrix (angstroms):
                    1          2          3          4          5
     1  C    0.000000
     2  C    1.511709   0.000000
     3  C    2.529772   1.379486   0.000000
     4  C    2.941962   2.406424   1.406487   0.000000
     5  C    2.555681   2.737835   2.403104   1.400827   0.000000
     6  C    1.551138   2.541559   2.869505   2.484943   1.524699
     7  H    3.501007   2.138685   1.087499   2.161045   3.383305
     8  H    2.220497   1.088686   2.135788   3.386204   3.813778
     9  H    1.097733   2.155669   3.352502   3.772797   3.200012
    10  H    1.100061   2.134621   3.116195   3.649502   3.385559
    11  H    4.028090   3.382648   2.164245   1.086561   2.169948
    12  H    3.527202   3.827299   3.384262   2.139222   1.089583
    13  H    2.173993   3.116340   3.257938   2.824260   2.123981
    14  H    2.194505   3.406724   3.877425   3.406849   2.173678
    15  C    2.957132   2.566749   2.958455   3.120107   2.878668
    16  C    3.144709   3.176641   3.281398   2.816065   2.087161
    17  H    2.727117   2.587982   3.429107   3.835498   3.489058
    18  H    3.138619   3.645269   3.992385   3.496221   2.403847
    19  C    4.585728   4.419015   4.138581   3.381217   2.872248
    20  H    5.258945   5.170980   5.068542   4.435064   3.839823
    21  H    4.964752   4.979351   4.578727   3.534010   2.850659
    22  C    4.056103   3.162032   3.167410   3.487987   3.740474
    23  H    4.427973   3.373464   3.550671   4.209333   4.600772
    24  C    4.969092   4.044810   3.600180   3.557241   3.957020
    25  H    5.859576   4.768236   4.216228   4.301123   4.907467
    26  C    5.216731   4.597166   3.990812   3.381377   3.505393
    27  H    6.284892   5.678287   5.065721   4.431778   4.517411
    28  H    5.285118   4.608983   3.716867   2.910689   3.290842
                    6          7          8          9         10
     6  C    0.000000
     7  H    3.952753   0.000000
     8  H    3.531714   2.453065   0.000000
     9  H    2.202554   4.265883   2.548090   0.000000
    10  H    2.173859   3.969029   2.555987   1.744426   0.000000
    11  H    3.459376   2.485211   4.268354   4.845058   4.700953
    12  H    2.214017   4.276561   4.901633   4.085719   4.296591
    13  H    1.098095   4.266643   4.069691   2.994755   2.296315
    14  H    1.096039   4.964642   4.310278   2.364132   2.768040
    15  C    3.289338   3.588992   3.023144   2.783193   4.021217
    16  C    2.773985   4.094335   3.959346   3.120373   4.234209
    17  H    3.430199   4.086554   2.792313   2.199162   3.688672
    18  H    2.605503   4.923344   4.431954   2.908757   4.156508
    19  C    3.991759   4.747504   5.193008   4.646388   5.658842
    20  H    4.765452   5.657977   5.838001   5.108623   6.349038
    21  H    4.039836   5.250237   5.876314   5.133932   5.973353
    22  C    4.458797   3.363910   3.373346   4.028491   5.045302
    23  H    5.133879   3.531374   3.225691   4.327695   5.299002
    24  C    5.043331   3.641891   4.410707   5.105534   5.973029
    25  H    6.020700   3.983838   4.984571   6.029758   6.807535
    26  C    4.828291   4.253126   5.244911   5.431885   6.255175
    27  H    5.852467   5.247621   6.280423   6.438071   7.335759
    28  H    4.758026   3.900881   5.343535   5.709281   6.239794
                   11         12         13         14         15
    11  H    0.000000
    12  H    2.477205   0.000000
    13  H    3.676062   2.585809   0.000000
    14  H    4.309149   2.495969   1.754814   0.000000
    15  C    3.826123   3.617972   4.324846   3.574545   0.000000
    16  C    3.430341   2.492812   3.794819   2.858341   1.405387
    17  H    4.683120   4.301839   4.471279   3.592451   1.083555
    18  H    4.204922   2.639136   3.636129   2.269283   2.122843
    19  C    3.536678   2.803323   4.873927   4.055107   2.503513
    20  H    4.627616   3.749687   5.716337   4.643036   2.888352
    21  H    3.551905   2.366876   4.766872   4.014613   3.415760
    22  C    3.889081   4.433374   5.395817   4.907176   1.448745
    23  H    4.641609   5.396987   6.038635   5.629773   2.182225
    24  C    3.573587   4.406405   5.895589   5.516932   2.454607
    25  H    4.148612   5.349680   6.817760   6.560892   3.437421
    26  C    3.193277   3.579722   5.617448   5.175660   2.948755
    27  H    4.118074   4.439802   6.638439   6.112426   3.863371
    28  H    2.412081   3.276077   5.369636   5.248979   3.541795
                   16         17         18         19         20
    16  C    0.000000
    17  H    2.168345   0.000000
    18  H    1.089441   2.439617   0.000000
    19  C    1.527890   3.443491   2.200462   0.000000
    20  H    2.121719   3.656907   2.495507   1.100902   0.000000
    21  H    2.179041   4.306327   2.534589   1.096399   1.755014
    22  C    2.462067   2.187342   3.403375   2.850694   3.196851
    23  H    3.432776   2.491384   4.279091   3.929160   4.181656
    24  C    2.862793   3.404456   3.913185   2.528723   2.947813
    25  H    3.950578   4.294449   5.000611   3.511484   3.843972
    26  C    2.576355   4.015061   3.535801   1.540752   2.156541
    27  H    3.475307   4.883068   4.323139   2.165655   2.350917
    28  H    3.066126   4.622813   4.016601   2.187185   3.043576
                   21         22         23         24         25
    21  H    0.000000
    22  C    3.877453   0.000000
    23  H    4.965076   1.088627   0.000000
    24  C    3.453793   1.349791   2.109841   0.000000
    25  H    4.365697   2.113684   2.425921   1.088649   0.000000
    26  C    2.177857   2.511707   3.495649   1.510286   2.231924
    27  H    2.614405   3.297795   4.177876   2.147633   2.494537
    28  H    2.408517   3.152788   4.084354   2.147787   2.660128
                   26         27         28
    26  C    0.000000
    27  H    1.099312   0.000000
    28  H    1.098184   1.744911   0.000000
 Symmetry turned off by external request.
 Stoichiometry    C12H16
 Framework group  C1[X(C12H16)]
 Deg. of freedom    78
 Full point group                 C1      NOp   1
 Rotational constants (GHZ):           1.6113202           0.8340277           0.7600312
 Leave Link  202 at Tue Sep 15 22:43:51 2020, MaxMem=  6442450944 cpu:               1.3 elap:               0.1
 (Enter /scratch/scicomp/CentOS/7.3.1611/Haswell/software/Gaussian/g16/l301.exe)
 Standard basis: 6-31G(d) (6D, 10F)
 Ernie: Thresh=  0.10000D-02 Tol=  0.10000D-05 Strict=F.
   212 basis functions,   400 primitive gaussians,   212 cartesian basis functions
    44 alpha electrons       44 beta electrons
       nuclear repulsion energy       714.9299030981 Hartrees.
 IExCor=  402 DFT=T Ex+Corr=B3LYP ExCW=0 ScaHFX=  0.200000
 ScaDFX=  0.800000  0.720000  1.000000  0.810000 ScalE2=  1.000000  1.000000
 IRadAn=      5 IRanWt=     -1 IRanGd=            0 ICorTp=0 IEmpDi=  4
 NAtoms=   28 NActive=   28 NUniq=   28 SFac= 1.00D+00 NAtFMM=   60 NAOKFM=F Big=F
 Integral buffers will be    131072 words long.
 Raffenetti 2 integral format.
 Two-electron integral symmetry is turned off.
 Using the following non-standard input for PCM:
 qrep pcmdoc geomview nodis nocav g03defaults tsare=0.075
 Warning! Using old PCM defaults because the g03defaults keyword was found.
 These settings can be overridden by following keywords.
 nsfe=28
 nvesolv=36 solvmw=84.1595 rsolv=2.815
 eps=2.080846813330181 rhos=0.8797290682554403
 --- end of non-standard input.
 Reading user-defined spheres from input:
 ISph  on   Nord    Re0     Alpha      Xe            Ye            Ze
 --- end of user-defined spheres data.
 ------------------------------------------------------------------------------
 Polarizable Continuum Model (PCM)
 =================================
 Model                : PCM.
 Atomic radii         : UA0 (Simple United Atom Topological Model).
 Polarization charges : Total charges.
 Charge compensation  : None.
 Solution method      : On-the-fly selection.
 Cavity type          : SES (Solvent Excluding Surface) (Alpha=1.000).
 Cavity algorithm     : GePol (RMin=0.200 OFac=0.890).
                        User-defined sphere list used, NSphG=   28.
                        Tesserae with average area of 0.075 Ang**2.
                        Smoothing algorithm: None.
                        Polarization charges: point-like.
                        Self-potential: constant (ISelfS= 1).
                        Self-field    : global E.n sum rule (ISelfD= 3).
 Solvent              : CycloHexane, Eps=   2.080847 Eps(inf)=   2.035188
                        RSolv=   2.815000 Ang.
 ------------------------------------------------------------------------------
 GePol: Number of generator spheres                  =      28
 GePol: Total number of spheres                      =     333
 GePol: Number of exposed spheres                    =     191 ( 57.36%)
 GePol: Number of tesserae                           =    4791
 GePol: Average area of tesserae                     =       0.05 Ang**2
 GePol: Minimum area of tessera                      =   0.10D-02 Ang**2
 GePol: Maximum area of tessera                      =    0.12332 Ang**2
 GePol: Number of small tesserae                     =       0
 GePol: Fraction of small tesserae (<1% of avg)      =       0.00%
 GePol: Total count of vertices                      =   16962
 GePol: Maximum number of vertices in a tessera      =       7
 GePol: Cavity surface area                          =    231.212 Ang**2
 GePol: Cavity volume                                =    273.605 Ang**3
 Leave Link  301 at Tue Sep 15 22:43:52 2020, MaxMem=  6442450944 cpu:              28.7 elap:               1.3
 (Enter /scratch/scicomp/CentOS/7.3.1611/Haswell/software/Gaussian/g16/l302.exe)
 NPDir=0 NMtPBC=     1 NCelOv=     1 NCel=       1 NClECP=     1 NCelD=      1
         NCelK=      1 NCelE2=     1 NClLst=     1 CellRange=     0.0.
 One-electron integrals computed using PRISM.
 NBasis=   212 RedAO= T EigKep=  1.19D-03  NBF=   212
 NBsUse=   212 1.00D-06 EigRej= -1.00D+00 NBFU=   212
 Precomputing XC quadrature grid using
 IXCGrd= 4 IRadAn=           5 IRanWt=          -1 IRanGd=           0 AccXCQ= 0.00D+00.
 Generated NRdTot=       0 NPtTot=           0 NUsed=           0 NTot=          32
 NSgBfM=   212   212   212   212   212 MxSgAt=    28 MxSgA2=    28.
 Leave Link  302 at Tue Sep 15 22:43:53 2020, MaxMem=  6442450944 cpu:              23.7 elap:               1.1
 (Enter /scratch/scicomp/CentOS/7.3.1611/Haswell/software/Gaussian/g16/l303.exe)
 DipDrv:  MaxL=1.
 Leave Link  303 at Tue Sep 15 22:43:53 2020, MaxMem=  6442450944 cpu:               2.4 elap:               0.1
 (Enter /scratch/scicomp/CentOS/7.3.1611/Haswell/software/Gaussian/g16/l401.exe)
 ExpMin= 1.61D-01 ExpMax= 3.05D+03 ExpMxC= 4.57D+02 IAcc=3 IRadAn=         5 AccDes= 0.00D+00
 Harris functional with IExCor=  402 and IRadAn=       5 diagonalized for initial guess.
 HarFok:  IExCor=  402 AccDes= 0.00D+00 IRadAn=         5 IDoV= 1 UseB2=F ITyADJ=14
 ICtDFT=  3500011 ScaDFX=  1.000000  1.000000  1.000000  1.000000
 FoFCou: FMM=F IPFlag=           0 FMFlag=      100000 FMFlg1=           0
         NFxFlg=           0 DoJE=T BraDBF=F KetDBF=T FulRan=T
         wScrn=  0.000000 ICntrl=       500 IOpCl=  0 I1Cent=   200000004 NGrid=           0
         NMat0=    1 NMatS0=      1 NMatT0=    0 NMatD0=    1 NMtDS0=    0 NMtDT0=    0
 Symmetry not used in FoFCou.
 Harris En= -466.858185006345    
 JPrj=0 DoOrth=F DoCkMO=F.
 Leave Link  401 at Tue Sep 15 22:43:54 2020, MaxMem=  6442450944 cpu:              14.4 elap:               0.7
 (Enter /scratch/scicomp/CentOS/7.3.1611/Haswell/software/Gaussian/g16/l502.exe)
 Two-electron integral symmetry not used.
 Closed shell SCF:
 Using DIIS extrapolation, IDIIS=  1040.
 NGot=  6442450944 LenX=  6442353874 LenY=  6442308489
 Requested convergence on RMS density matrix=1.00D-08 within 128 cycles.
 Requested convergence on MAX density matrix=1.00D-06.
 Requested convergence on             energy=1.00D-06.
 No special actions if energy rises.
 Fock matrices will be formed incrementally for  20 cycles.

 Cycle   1  Pass 1  IDiag  1:
 FoFJK:  IHMeth= 1 ICntrl=       0 DoSepK=F KAlg= 0 I1Cent=           0 FoldK=F
 IRaf= 960000000 NMat=       1 IRICut=       1 DoRegI=T DoRafI=F ISym2E= 0 IDoP0=0 IntGTp=1.
 FoFCou: FMM=F IPFlag=           0 FMFlag=      100000 FMFlg1=           0
         NFxFlg=           0 DoJE=F BraDBF=F KetDBF=F FulRan=T
         wScrn=  0.000000 ICntrl=         0 IOpCl=  0 I1Cent=           0 NGrid=           0
         NMat0=    1 NMatS0=      1 NMatT0=    0 NMatD0=    1 NMtDS0=    0 NMtDT0=    0
 Symmetry not used in FoFCou.
 Inv3:  Mode=1 IEnd=    68861043.
 Iteration    1 A*A^-1 deviation from unit magnitude is 3.11D-15 for   3062.
 Iteration    1 A*A^-1 deviation from orthogonality  is 2.08D-15 for   1838    244.
 Iteration    1 A^-1*A deviation from unit magnitude is 3.11D-15 for    551.
 Iteration    1 A^-1*A deviation from orthogonality  is 3.33D-15 for   4527   1623.
 E= -466.440840959155    
 DIIS: error= 2.30D-02 at cycle   1 NSaved=   1.
 NSaved= 1 IEnMin= 1 EnMin= -466.440840959155     IErMin= 1 ErrMin= 2.30D-02
 ErrMax= 2.30D-02  0.00D+00 EMaxC= 1.00D-01 BMatC= 3.06D-01 BMatP= 3.06D-01
 IDIUse=3 WtCom= 7.70D-01 WtEn= 2.30D-01
 Coeff-Com:  0.100D+01
 Coeff-En:   0.100D+01
 Coeff:      0.100D+01
 Gap=     0.136 Goal=   None    Shift=    0.000
 GapD=    0.136 DampG=1.000 DampE=0.500 DampFc=0.5000 IDamp=-1.
 Damping current iteration by 5.00D-01
 RMSDP=6.85D-03 MaxDP=1.42D-01              OVMax= 1.57D-01

 Cycle   2  Pass 1  IDiag  1:
 RMSU=  3.38D-03    CP:  9.74D-01
 E= -466.588842459184     Delta-E=       -0.148001500029 Rises=F Damp=T
 DIIS: error= 6.81D-03 at cycle   2 NSaved=   2.
 NSaved= 2 IEnMin= 2 EnMin= -466.588842459184     IErMin= 2 ErrMin= 6.81D-03
 ErrMax= 6.81D-03  0.00D+00 EMaxC= 1.00D-01 BMatC= 2.06D-02 BMatP= 3.06D-01
 IDIUse=3 WtCom= 9.32D-01 WtEn= 6.81D-02
 Coeff-Com:  0.757D-01 0.924D+00
 Coeff-En:   0.129D+00 0.871D+00
 Coeff:      0.793D-01 0.921D+00
 Gap=     0.138 Goal=   None    Shift=    0.000
 RMSDP=1.92D-03 MaxDP=3.26D-02 DE=-1.48D-01 OVMax= 9.51D-02

 Cycle   3  Pass 1  IDiag  1:
 RMSU=  1.66D-03    CP:  9.69D-01  7.12D-01
 E= -466.778693883715     Delta-E=       -0.189851424531 Rises=F Damp=F
 DIIS: error= 3.43D-03 at cycle   3 NSaved=   3.
 NSaved= 3 IEnMin= 3 EnMin= -466.778693883715     IErMin= 3 ErrMin= 3.43D-03
 ErrMax= 3.43D-03  0.00D+00 EMaxC= 1.00D-01 BMatC= 6.16D-03 BMatP= 2.06D-02
 IDIUse=3 WtCom= 9.66D-01 WtEn= 3.43D-02
 Coeff-Com: -0.185D-01 0.325D+00 0.693D+00
 Coeff-En:   0.000D+00 0.000D+00 0.100D+01
 Coeff:     -0.178D-01 0.314D+00 0.704D+00
 Gap=     0.134 Goal=   None    Shift=    0.000
 RMSDP=7.39D-04 MaxDP=1.46D-02 DE=-1.90D-01 OVMax= 3.87D-02

 Cycle   4  Pass 1  IDiag  1:
 RMSU=  4.69D-04    CP:  9.69D-01  8.03D-01  7.10D-01
 E= -466.782430271658     Delta-E=       -0.003736387943 Rises=F Damp=F
 DIIS: error= 2.53D-03 at cycle   4 NSaved=   4.
 NSaved= 4 IEnMin= 4 EnMin= -466.782430271658     IErMin= 4 ErrMin= 2.53D-03
 ErrMax= 2.53D-03  0.00D+00 EMaxC= 1.00D-01 BMatC= 2.05D-03 BMatP= 6.16D-03
 IDIUse=3 WtCom= 9.75D-01 WtEn= 2.53D-02
 Coeff-Com: -0.149D-01 0.120D+00 0.403D+00 0.492D+00
 Coeff-En:   0.000D+00 0.000D+00 0.266D+00 0.734D+00
 Coeff:     -0.145D-01 0.117D+00 0.400D+00 0.498D+00
 Gap=     0.134 Goal=   None    Shift=    0.000
 RMSDP=3.25D-04 MaxDP=6.88D-03 DE=-3.74D-03 OVMax= 3.01D-02

 Cycle   5  Pass 1  IDiag  1:
 RMSU=  1.84D-04    CP:  9.69D-01  7.94D-01  7.67D-01  4.70D-01
 E= -466.784401304736     Delta-E=       -0.001971033078 Rises=F Damp=F
 DIIS: error= 1.26D-03 at cycle   5 NSaved=   5.
 NSaved= 5 IEnMin= 5 EnMin= -466.784401304736     IErMin= 5 ErrMin= 1.26D-03
 ErrMax= 1.26D-03  0.00D+00 EMaxC= 1.00D-01 BMatC= 3.08D-04 BMatP= 2.05D-03
 IDIUse=3 WtCom= 9.87D-01 WtEn= 1.26D-02
 Coeff-Com: -0.534D-02 0.141D-01 0.112D+00 0.308D+00 0.571D+00
 Coeff-En:   0.000D+00 0.000D+00 0.000D+00 0.157D+00 0.843D+00
 Coeff:     -0.527D-02 0.140D-01 0.111D+00 0.306D+00 0.574D+00
 Gap=     0.134 Goal=   None    Shift=    0.000
 RMSDP=1.10D-04 MaxDP=2.42D-03 DE=-1.97D-03 OVMax= 1.24D-02

 Cycle   6  Pass 1  IDiag  1:
 RMSU=  4.32D-05    CP:  9.69D-01  7.93D-01  7.74D-01  5.92D-01  5.51D-01
 E= -466.784742627611     Delta-E=       -0.000341322875 Rises=F Damp=F
 DIIS: error= 2.75D-04 at cycle   6 NSaved=   6.
 NSaved= 6 IEnMin= 6 EnMin= -466.784742627611     IErMin= 6 ErrMin= 2.75D-04
 ErrMax= 2.75D-04  0.00D+00 EMaxC= 1.00D-01 BMatC= 1.88D-05 BMatP= 3.08D-04
 IDIUse=3 WtCom= 9.97D-01 WtEn= 2.75D-03
 Coeff-Com: -0.277D-02 0.485D-02 0.559D-01 0.173D+00 0.357D+00 0.412D+00
 Coeff-En:   0.000D+00 0.000D+00 0.000D+00 0.000D+00 0.000D+00 0.100D+01
 Coeff:     -0.276D-02 0.484D-02 0.557D-01 0.173D+00 0.356D+00 0.414D+00
 Gap=     0.134 Goal=   None    Shift=    0.000
 RMSDP=2.85D-05 MaxDP=8.40D-04 DE=-3.41D-04 OVMax= 3.80D-03

 Cycle   7  Pass 1  IDiag  1:
 RMSU=  1.08D-05    CP:  9.69D-01  7.93D-01  7.73D-01  5.92D-01  6.02D-01
                    CP:  4.30D-01
 E= -466.784764705919     Delta-E=       -0.000022078308 Rises=F Damp=F
 DIIS: error= 5.07D-05 at cycle   7 NSaved=   7.
 NSaved= 7 IEnMin= 7 EnMin= -466.784764705919     IErMin= 7 ErrMin= 5.07D-05
 ErrMax= 5.07D-05  0.00D+00 EMaxC= 1.00D-01 BMatC= 7.64D-07 BMatP= 1.88D-05
 IDIUse=1 WtCom= 1.00D+00 WtEn= 0.00D+00
 Coeff-Com: -0.994D-03 0.128D-02 0.202D-01 0.663D-01 0.143D+00 0.221D+00
 Coeff-Com:  0.549D+00
 Coeff:     -0.994D-03 0.128D-02 0.202D-01 0.663D-01 0.143D+00 0.221D+00
 Coeff:      0.549D+00
 Gap=     0.134 Goal=   None    Shift=    0.000
 RMSDP=5.78D-06 MaxDP=1.72D-04 DE=-2.21D-05 OVMax= 6.87D-04

 Cycle   8  Pass 1  IDiag  1:
 RMSU=  3.37D-06    CP:  9.69D-01  7.93D-01  7.74D-01  5.92D-01  6.02D-01
                    CP:  4.78D-01  6.13D-01
 E= -466.784765479695     Delta-E=       -0.000000773777 Rises=F Damp=F
 DIIS: error= 1.39D-05 at cycle   8 NSaved=   8.
 NSaved= 8 IEnMin= 8 EnMin= -466.784765479695     IErMin= 8 ErrMin= 1.39D-05
 ErrMax= 1.39D-05  0.00D+00 EMaxC= 1.00D-01 BMatC= 8.69D-08 BMatP= 7.64D-07
 IDIUse=1 WtCom= 1.00D+00 WtEn= 0.00D+00
 Coeff-Com: -0.909D-04-0.108D-03 0.213D-02 0.859D-02 0.217D-01 0.544D-01
 Coeff-Com:  0.291D+00 0.623D+00
 Coeff:     -0.909D-04-0.108D-03 0.213D-02 0.859D-02 0.217D-01 0.544D-01
 Coeff:      0.291D+00 0.623D+00
 Gap=     0.134 Goal=   None    Shift=    0.000
 RMSDP=1.52D-06 MaxDP=5.68D-05 DE=-7.74D-07 OVMax= 1.09D-04

 Cycle   9  Pass 1  IDiag  1:
 RMSU=  9.86D-07    CP:  9.69D-01  7.93D-01  7.74D-01  5.92D-01  6.02D-01
                    CP:  4.76D-01  6.71D-01  7.37D-01
 E= -466.784765563524     Delta-E=       -0.000000083828 Rises=F Damp=F
 DIIS: error= 2.70D-06 at cycle   9 NSaved=   9.
 NSaved= 9 IEnMin= 9 EnMin= -466.784765563524     IErMin= 9 ErrMin= 2.70D-06
 ErrMax= 2.70D-06  0.00D+00 EMaxC= 1.00D-01 BMatC= 4.35D-09 BMatP= 8.69D-08
 IDIUse=1 WtCom= 1.00D+00 WtEn= 0.00D+00
 Coeff-Com:  0.243D-04-0.137D-03-0.406D-03-0.553D-03 0.243D-03 0.918D-02
 Coeff-Com:  0.947D-01 0.278D+00 0.619D+00
 Coeff:      0.243D-04-0.137D-03-0.406D-03-0.553D-03 0.243D-03 0.918D-02
 Coeff:      0.947D-01 0.278D+00 0.619D+00
 Gap=     0.134 Goal=   None    Shift=    0.000
 RMSDP=4.30D-07 MaxDP=8.17D-06 DE=-8.38D-08 OVMax= 1.78D-05

 Cycle  10  Pass 1  IDiag  1:
 RMSU=  2.61D-07    CP:  9.69D-01  7.93D-01  7.74D-01  5.92D-01  6.02D-01
                    CP:  4.78D-01  6.80D-01  7.53D-01  6.96D-01
 E= -466.784765567709     Delta-E=       -0.000000004185 Rises=F Damp=F
 DIIS: error= 7.03D-07 at cycle  10 NSaved=  10.
 NSaved=10 IEnMin=10 EnMin= -466.784765567709     IErMin=10 ErrMin= 7.03D-07
 ErrMax= 7.03D-07  0.00D+00 EMaxC= 1.00D-01 BMatC= 3.04D-10 BMatP= 4.35D-09
 IDIUse=1 WtCom= 1.00D+00 WtEn= 0.00D+00
 Coeff-Com:  0.150D-04-0.553D-04-0.301D-03-0.705D-03-0.101D-02 0.116D-02
 Coeff-Com:  0.279D-01 0.927D-01 0.278D+00 0.602D+00
 Coeff:      0.150D-04-0.553D-04-0.301D-03-0.705D-03-0.101D-02 0.116D-02
 Coeff:      0.279D-01 0.927D-01 0.278D+00 0.602D+00
 Gap=     0.134 Goal=   None    Shift=    0.000
 RMSDP=1.25D-07 MaxDP=3.32D-06 DE=-4.18D-09 OVMax= 6.74D-06

 Cycle  11  Pass 1  IDiag  1:
 RMSU=  1.02D-07    CP:  9.69D-01  7.93D-01  7.74D-01  5.92D-01  6.02D-01
                    CP:  4.78D-01  6.82D-01  7.56D-01  7.38D-01  8.19D-01
 E= -466.784765567956     Delta-E=       -0.000000000247 Rises=F Damp=F
 DIIS: error= 4.58D-07 at cycle  11 NSaved=  11.
 NSaved=11 IEnMin=11 EnMin= -466.784765567956     IErMin=11 ErrMin= 4.58D-07
 ErrMax= 4.58D-07  0.00D+00 EMaxC= 1.00D-01 BMatC= 7.45D-11 BMatP= 3.04D-10
 IDIUse=1 WtCom= 1.00D+00 WtEn= 0.00D+00
 Coeff-Com:  0.284D-05-0.486D-05-0.798D-04-0.246D-03-0.474D-03-0.788D-03
 Coeff-Com:  0.124D-03 0.519D-02 0.516D-01 0.353D+00 0.592D+00
 Coeff:      0.284D-05-0.486D-05-0.798D-04-0.246D-03-0.474D-03-0.788D-03
 Coeff:      0.124D-03 0.519D-02 0.516D-01 0.353D+00 0.592D+00
 Gap=     0.134 Goal=   None    Shift=    0.000
 RMSDP=4.58D-08 MaxDP=1.24D-06 DE=-2.47D-10 OVMax= 3.18D-06

 Cycle  12  Pass 1  IDiag  1:
 RMSU=  2.16D-08    CP:  9.69D-01  7.93D-01  7.74D-01  5.92D-01  6.02D-01
                    CP:  4.78D-01  6.82D-01  7.59D-01  7.45D-01  8.82D-01
                    CP:  6.64D-01
 E= -466.784765568032     Delta-E=       -0.000000000075 Rises=F Damp=F
 DIIS: error= 6.42D-08 at cycle  12 NSaved=  12.
 NSaved=12 IEnMin=12 EnMin= -466.784765568032     IErMin=12 ErrMin= 6.42D-08
 ErrMax= 6.42D-08  0.00D+00 EMaxC= 1.00D-01 BMatC= 1.38D-12 BMatP= 7.45D-11
 IDIUse=1 WtCom= 1.00D+00 WtEn= 0.00D+00
 Coeff-Com:  0.529D-06 0.200D-06-0.191D-04-0.716D-04-0.146D-03-0.374D-03
 Coeff-Com: -0.102D-02-0.179D-02 0.712D-02 0.983D-01 0.210D+00 0.688D+00
 Coeff:      0.529D-06 0.200D-06-0.191D-04-0.716D-04-0.146D-03-0.374D-03
 Coeff:     -0.102D-02-0.179D-02 0.712D-02 0.983D-01 0.210D+00 0.688D+00
 Gap=     0.134 Goal=   None    Shift=    0.000
 RMSDP=8.84D-09 MaxDP=2.39D-07 DE=-7.53D-11 OVMax= 6.62D-07

 Error on total polarization charges =  0.00790
 SCF Done:  E(RB3LYP) =  -466.784765568     A.U. after   12 cycles
            NFock= 12  Conv=0.88D-08     -V/T= 2.0100
 KE= 4.621667545369D+02 PE=-2.509943202794D+03 EE= 8.660617795906D+02
 --------------------------------------------------------------------
 Variational PCM results
 =======================
 <psi(f)|   H    |psi(f)>                     (a.u.) =    -466.794452
 <psi(f)|H+V(f)/2|psi(f)>                     (a.u.) =    -466.795278
 Total free energy in solution:
 - with all non electrostatic terms           (a.u.) =    -466.784766
 --------------------------------------------------------------------
 (Polarized solute)-Solvent               (kcal/mol) =      -0.52
 --------------------------------------------------------------------
 Quantum repulsion energy                 (kcal/mol) =       6.60
 Total non electrostatic                  (kcal/mol) =       6.60
 --------------------------------------------------------------------
 Partition over spheres:
 Sphere  on Atom  Surface  Charge   GEl     GCav    GDR
    1               0.00   0.000    0.00    0.00    0.00
    2               1.30   0.004   -0.03    0.00    0.00
    3               0.43  -0.000    0.00    0.00    0.00
    4               0.31   0.000   -0.00    0.00    0.00
    5               0.25   0.001   -0.01    0.00    0.00
    6               0.00   0.000    0.00    0.00    0.00
    7               7.16  -0.007   -0.02    0.00    0.00
    8              15.64  -0.002   -0.01    0.00    0.00
    9               3.44  -0.004   -0.01    0.00    0.00
   10              20.09   0.000   -0.00    0.00    0.00
   11               5.66  -0.005   -0.02    0.00    0.00
   12              14.93  -0.001   -0.01    0.00    0.00
   13               5.49  -0.005   -0.01    0.00    0.00
   14               5.37  -0.005   -0.02    0.00    0.00
   15               0.00   0.000    0.00    0.00    0.00
   16               0.00   0.000    0.00    0.00    0.00
   17              12.00  -0.000   -0.01    0.00    0.00
   18              11.13  -0.002   -0.01    0.00    0.00
   19               0.00   0.000    0.00    0.00    0.00
   20              18.05   0.002   -0.00    0.00    0.00
   21               3.45  -0.003   -0.01    0.00    0.00
   22               0.00   0.000    0.00    0.00    0.00
   23               6.47  -0.007   -0.02    0.00    0.00
   24               0.00   0.000    0.00    0.00    0.00
   25               8.40  -0.008   -0.02    0.00    0.00
   26               0.00   0.000    0.00    0.00    0.00
   27               6.78  -0.005   -0.01    0.00    0.00
   28               4.69  -0.003   -0.01    0.00    0.00
 Added spheres:    80.15   0.043   -0.30    0.00    0.00
 --------------------------------------------------------------------
 After PCM corrections, the energy is  -466.784765568     a.u.
 --------------------------------------------------------------------
 Leave Link  502 at Tue Sep 15 22:44:26 2020, MaxMem=  6442450944 cpu:             694.9 elap:              32.1
0******************
 *Kjob Termination*
 *  in Link    502*
 ******************
 Job cpu time:       0 days  0 hours 12 minutes 50.1 seconds.
 Elapsed time:       0 days  0 hours  0 minutes 35.7 seconds.
 File lengths (MBytes):  RWF=    421 Int=      0 D2E=      0 Chk=      2 Scr=      1
 Normal termination of Gaussian 16 at Tue Sep 15 22:44:26 2020.
 Initial command:
 /scratch/scicomp/CentOS/7.3.1611/Haswell/software/Gaussian/g16/l1.exe "/scratch/bochen/test/xppcm/tmp/Gau-393940.inp" -scrdir="/scratch/bochen/test/xppcm/tmp/"
 Entering Link 1 = /scratch/scicomp/CentOS/7.3.1611/Haswell/software/Gaussian/g16/l1.exe PID=    394323.
  
 Copyright (c) 1988-2017, Gaussian, Inc.  All Rights Reserved.
  
 This is part of the Gaussian(R) 16 program.  It is based on
 the Gaussian(R) 09 system (copyright 2009, Gaussian, Inc.),
 the Gaussian(R) 03 system (copyright 2003, Gaussian, Inc.),
 the Gaussian(R) 98 system (copyright 1998, Gaussian, Inc.),
 the Gaussian(R) 94 system (copyright 1995, Gaussian, Inc.),
 the Gaussian 92(TM) system (copyright 1992, Gaussian, Inc.),
 the Gaussian 90(TM) system (copyright 1990, Gaussian, Inc.),
 the Gaussian 88(TM) system (copyright 1988, Gaussian, Inc.),
 the Gaussian 86(TM) system (copyright 1986, Carnegie Mellon
 University), and the Gaussian 82(TM) system (copyright 1983,
 Carnegie Mellon University). Gaussian is a federally registered
 trademark of Gaussian, Inc.
  
 This software contains proprietary and confidential information,
 including trade secrets, belonging to Gaussian, Inc.
  
 This software is provided under written license and may be
 used, copied, transmitted, or stored only in accord with that
 written license.
  
 The following legend is applicable only to US Government
 contracts under FAR:
  
                    RESTRICTED RIGHTS LEGEND
  
 Use, reproduction and disclosure by the US Government is
 subject to restrictions as set forth in subparagraphs (a)
 and (c) of the Commercial Computer Software - Restricted
 Rights clause in FAR 52.227-19.
  
 Gaussian, Inc.
 340 Quinnipiac St., Bldg. 40, Wallingford CT 06492
  
  
 ---------------------------------------------------------------
 Warning -- This program may not be used in any manner that
 competes with the business of Gaussian, Inc. or will provide
 assistance to any competitor of Gaussian, Inc.  The licensee
 of this program is prohibited from giving any competitor of
 Gaussian, Inc. access to this program.  By using this program,
 the user acknowledges that Gaussian, Inc. is engaged in the
 business of creating and licensing software in the field of
 computational chemistry and represents and warrants to the
 licensee that it is not a competitor of Gaussian, Inc. and that
 it will not use this program in any manner prohibited above.
 ---------------------------------------------------------------
  

 Cite this work as:
 Gaussian 16, Revision B.01,
 M. J. Frisch, G. W. Trucks, H. B. Schlegel, G. E. Scuseria, 
 M. A. Robb, J. R. Cheeseman, G. Scalmani, V. Barone, 
 G. A. Petersson, H. Nakatsuji, X. Li, M. Caricato, A. V. Marenich, 
 J. Bloino, B. G. Janesko, R. Gomperts, B. Mennucci, H. P. Hratchian, 
 J. V. Ortiz, A. F. Izmaylov, J. L. Sonnenberg, D. Williams-Young, 
 F. Ding, F. Lipparini, F. Egidi, J. Goings, B. Peng, A. Petrone, 
 T. Henderson, D. Ranasinghe, V. G. Zakrzewski, J. Gao, N. Rega, 
 G. Zheng, W. Liang, M. Hada, M. Ehara, K. Toyota, R. Fukuda, 
 J. Hasegawa, M. Ishida, T. Nakajima, Y. Honda, O. Kitao, H. Nakai, 
 T. Vreven, K. Throssell, J. A. Montgomery, Jr., J. E. Peralta, 
 F. Ogliaro, M. J. Bearpark, J. J. Heyd, E. N. Brothers, K. N. Kudin, 
 V. N. Staroverov, T. A. Keith, R. Kobayashi, J. Normand, 
 K. Raghavachari, A. P. Rendell, J. C. Burant, S. S. Iyengar, 
 J. Tomasi, M. Cossi, J. M. Millam, M. Klene, C. Adamo, R. Cammi, 
 J. W. Ochterski, R. L. Martin, K. Morokuma, O. Farkas, 
 J. B. Foresman, and D. J. Fox, Gaussian, Inc., Wallingford CT, 2016.
 
 ******************************************
 Gaussian 16:  ES64L-G16RevB.01 20-Dec-2017
                15-Sep-2020 
 ******************************************
 %kjob l502
 kjob at link  502 occurrence number     1
 %chk=structure-2-Ger.chk
 %nproc=24
 Will use up to   24 processors via shared memory.
 %mem=48gb
 ---------------------------------------------------------------------
 #p b3lyp 6-31g* # scrf=(iefpcm,solvent=cyclohexane,read) nosym 6d 10f
 ---------------------------------------------------------------------
 1/38=1,40=2,172=1/1;
 2/12=2,15=1,17=6,18=5,40=1/2;
 3/5=1,6=6,7=1,8=22,11=2,25=1,30=1,70=2203,72=17,74=-5/1,2,3;
 4//1;
 5/5=2,38=5,53=17/2;
 6/7=2,8=2,9=2,10=2,28=1/1;
 99/5=1,9=1/99;
[...]
 (Enter /scratch/scicomp/CentOS/7.3.1611/Haswell/software/Gaussian/g16/l301.exe)
 Standard basis: 6-31G(d) (6D, 10F)
 Ernie: Thresh=  0.10000D-02 Tol=  0.10000D-05 Strict=F.
   212 basis functions,   400 primitive gaussians,   212 cartesian basis functions
    44 alpha electrons       44 beta electrons
       nuclear repulsion energy       714.9299030981 Hartrees.
 IExCor=  402 DFT=T Ex+Corr=B3LYP ExCW=0 ScaHFX=  0.200000
 ScaDFX=  0.800000  0.720000  1.000000  0.810000 ScalE2=  1.000000  1.000000
 IRadAn=      5 IRanWt=     -1 IRanGd=            0 ICorTp=0 IEmpDi=  4
 NAtoms=   28 NActive=   28 NUniq=   28 SFac= 1.00D+00 NAtFMM=   60 NAOKFM=F Big=F
 Integral buffers will be    131072 words long.
 Raffenetti 2 integral format.
 Two-electron integral symmetry is turned off.
 Using the following non-standard input for PCM:
 qrep pcmdoc geomview nodis nocav g03defaults tsare=0.075
 Warning! Using old PCM defaults because the g03defaults keyword was found.
 These settings can be overridden by following keywords.
 nsfe=28
 nvesolv=36 solvmw=84.1595 rsolv=2.815
 eps=2.387393701544771 rhos=1.449506230685373
 --- end of non-standard input.
 Reading user-defined spheres from input:
 ISph  on   Nord    Re0     Alpha      Xe            Ye            Ze
 --- end of user-defined spheres data.
 ------------------------------------------------------------------------------
 Polarizable Continuum Model (PCM)
 =================================
 Model                : PCM.
 Atomic radii         : UA0 (Simple United Atom Topological Model).
 Polarization charges : Total charges.
 Charge compensation  : None.
 Solution method      : On-the-fly selection.
 Cavity type          : SES (Solvent Excluding Surface) (Alpha=1.000).
 Cavity algorithm     : GePol (RMin=0.200 OFac=0.890).
                        User-defined sphere list used, NSphG=   28.
                        Tesserae with average area of 0.075 Ang**2.
                        Smoothing algorithm: None.
                        Polarization charges: point-like.
                        Self-potential: constant (ISelfS= 1).
                        Self-field    : global E.n sum rule (ISelfD= 3).
 Solvent              : CycloHexane, Eps=   2.387394 Eps(inf)=   2.035188
                        RSolv=   2.815000 Ang.
 ------------------------------------------------------------------------------
 GePol: Number of generator spheres                  =      28
 GePol: Total number of spheres                      =     640
 GePol: Number of exposed spheres                    =     317 ( 49.53%)
 GePol: Number of tesserae                           =    4514
 GePol: Average area of tesserae                     =       0.04 Ang**2
 GePol: Minimum area of tessera                      =   0.10D-02 Ang**2
 GePol: Maximum area of tessera                      =    0.12513 Ang**2
 GePol: Number of small tesserae                     =       0
 GePol: Fraction of small tesserae (<1% of avg)      =       0.00%
 GePol: Total count of vertices                      =   16838
 GePol: Maximum number of vertices in a tessera      =       8
 GePol: Cavity surface area                          =    198.249 Ang**2
 GePol: Cavity volume                                =    211.622 Ang**3
 Leave Link  301 at Tue Sep 15 22:47:11 2020, MaxMem=  6442450944 cpu:              16.7 elap:               0.8
 (Enter /scratch/scicomp/CentOS/7.3.1611/Haswell/software/Gaussian/g16/l302.exe)
 NPDir=0 NMtPBC=     1 NCelOv=     1 NCel=       1 NClECP=     1 NCelD=      1
         NCelK=      1 NCelE2=     1 NClLst=     1 CellRange=     0.0.
 One-electron integrals computed using PRISM.
 NBasis=   212 RedAO= T EigKep=  1.19D-03  NBF=   212
 NBsUse=   212 1.00D-06 EigRej= -1.00D+00 NBFU=   212
 Precomputing XC quadrature grid using
 IXCGrd= 4 IRadAn=           5 IRanWt=          -1 IRanGd=           0 AccXCQ= 0.00D+00.
 Generated NRdTot=       0 NPtTot=           0 NUsed=           0 NTot=          32
 NSgBfM=   212   212   212   212   212 MxSgAt=    28 MxSgA2=    28.
 Leave Link  302 at Tue Sep 15 22:47:11 2020, MaxMem=  6442450944 cpu:               7.8 elap:               0.4
 (Enter /scratch/scicomp/CentOS/7.3.1611/Haswell/software/Gaussian/g16/l303.exe)
 DipDrv:  MaxL=1.
 Leave Link  303 at Tue Sep 15 22:47:11 2020, MaxMem=  6442450944 cpu:               2.4 elap:               0.1
 (Enter /scratch/scicomp/CentOS/7.3.1611/Haswell/software/Gaussian/g16/l401.exe)
 ExpMin= 1.61D-01 ExpMax= 3.05D+03 ExpMxC= 4.57D+02 IAcc=3 IRadAn=         5 AccDes= 0.00D+00
 Harris functional with IExCor=  402 and IRadAn=       5 diagonalized for initial guess.
 HarFok:  IExCor=  402 AccDes= 0.00D+00 IRadAn=         5 IDoV= 1 UseB2=F ITyADJ=14
 ICtDFT=  3500011 ScaDFX=  1.000000  1.000000  1.000000  1.000000
 FoFCou: FMM=F IPFlag=           0 FMFlag=      100000 FMFlg1=           0
         NFxFlg=           0 DoJE=T BraDBF=F KetDBF=T FulRan=T
         wScrn=  0.000000 ICntrl=       500 IOpCl=  0 I1Cent=   200000004 NGrid=           0
         NMat0=    1 NMatS0=      1 NMatT0=    0 NMatD0=    1 NMtDS0=    0 NMtDT0=    0
 Symmetry not used in FoFCou.
 Harris En= -466.858185006345    
 JPrj=0 DoOrth=F DoCkMO=F.
 Leave Link  401 at Tue Sep 15 22:47:12 2020, MaxMem=  6442450944 cpu:              14.2 elap:               0.6
 (Enter /scratch/scicomp/CentOS/7.3.1611/Haswell/software/Gaussian/g16/l502.exe)
 Two-electron integral symmetry not used.
 Closed shell SCF:
 Using DIIS extrapolation, IDIIS=  1040.
 NGot=  6442450944 LenX=  6442353874 LenY=  6442308489
 Requested convergence on RMS density matrix=1.00D-08 within 128 cycles.
 Requested convergence on MAX density matrix=1.00D-06.
 Requested convergence on             energy=1.00D-06.
 No special actions if energy rises.
 Fock matrices will be formed incrementally for  20 cycles.

 Cycle   1  Pass 1  IDiag  1:
 FoFJK:  IHMeth= 1 ICntrl=       0 DoSepK=F KAlg= 0 I1Cent=           0 FoldK=F
 IRaf= 960000000 NMat=       1 IRICut=       1 DoRegI=T DoRafI=F ISym2E= 0 IDoP0=0 IntGTp=1.
 FoFCou: FMM=F IPFlag=           0 FMFlag=      100000 FMFlg1=           0
         NFxFlg=           0 DoJE=F BraDBF=F KetDBF=F FulRan=T
         wScrn=  0.000000 ICntrl=         0 IOpCl=  0 I1Cent=           0 NGrid=           0
         NMat0=    1 NMatS0=      1 NMatT0=    0 NMatD0=    1 NMtDS0=    0 NMtDT0=    0
 Symmetry not used in FoFCou.
 Inv3:  Mode=1 IEnd=    61128588.
 Iteration    1 A*A^-1 deviation from unit magnitude is 3.77D-15 for   4082.
 Iteration    1 A*A^-1 deviation from orthogonality  is 1.42D-15 for   4082   4053.
 Iteration    1 A^-1*A deviation from unit magnitude is 3.77D-15 for   3699.
 Iteration    1 A^-1*A deviation from orthogonality  is 2.07D-15 for    879    872.
 E= -466.422475699147    
 DIIS: error= 2.27D-02 at cycle   1 NSaved=   1.
 NSaved= 1 IEnMin= 1 EnMin= -466.422475699147     IErMin= 1 ErrMin= 2.27D-02
 ErrMax= 2.27D-02  0.00D+00 EMaxC= 1.00D-01 BMatC= 2.99D-01 BMatP= 2.99D-01
 IDIUse=3 WtCom= 7.73D-01 WtEn= 2.27D-01
 Coeff-Com:  0.100D+01
 Coeff-En:   0.100D+01
 Coeff:      0.100D+01
 Gap=     0.136 Goal=   None    Shift=    0.000
 GapD=    0.136 DampG=1.000 DampE=0.500 DampFc=0.5000 IDamp=-1.
 Damping current iteration by 5.00D-01
 RMSDP=6.44D-03 MaxDP=1.34D-01              OVMax= 1.52D-01

 Cycle   2  Pass 1  IDiag  1:
 RMSU=  3.17D-03    CP:  9.74D-01
 E= -466.569043575508     Delta-E=       -0.146567876361 Rises=F Damp=T
 DIIS: error= 6.73D-03 at cycle   2 NSaved=   2.
 NSaved= 2 IEnMin= 2 EnMin= -466.569043575508     IErMin= 2 ErrMin= 6.73D-03
 ErrMax= 6.73D-03  0.00D+00 EMaxC= 1.00D-01 BMatC= 1.93D-02 BMatP= 2.99D-01
 IDIUse=3 WtCom= 9.33D-01 WtEn= 6.73D-02
 Coeff-Com:  0.627D-01 0.937D+00
 Coeff-En:   0.108D+00 0.892D+00
 Coeff:      0.657D-01 0.934D+00
 Gap=     0.138 Goal=   None    Shift=    0.000
 RMSDP=1.83D-03 MaxDP=2.92D-02 DE=-1.47D-01 OVMax= 9.08D-02

 Cycle   3  Pass 1  IDiag  1:
 RMSU=  1.62D-03    CP:  9.69D-01  7.32D-01
 E= -466.749630662010     Delta-E=       -0.180587086501 Rises=F Damp=F
 DIIS: error= 3.40D-03 at cycle   3 NSaved=   3.
 NSaved= 3 IEnMin= 3 EnMin= -466.749630662010     IErMin= 3 ErrMin= 3.40D-03
 ErrMax= 3.40D-03  0.00D+00 EMaxC= 1.00D-01 BMatC= 6.10D-03 BMatP= 1.93D-02
 IDIUse=3 WtCom= 9.66D-01 WtEn= 3.40D-02
 Coeff-Com: -0.227D-01 0.333D+00 0.690D+00
 Coeff-En:   0.000D+00 0.000D+00 0.100D+01
 Coeff:     -0.219D-01 0.322D+00 0.700D+00
 Gap=     0.135 Goal=   None    Shift=    0.000
 RMSDP=7.32D-04 MaxDP=1.49D-02 DE=-1.81D-01 OVMax= 3.75D-02

 Cycle   4  Pass 1  IDiag  1:
 RMSU=  4.62D-04    CP:  9.69D-01  8.27D-01  7.02D-01
 E= -466.753396364133     Delta-E=       -0.003765702123 Rises=F Damp=F
 DIIS: error= 2.38D-03 at cycle   4 NSaved=   4.
 NSaved= 4 IEnMin= 4 EnMin= -466.753396364133     IErMin= 4 ErrMin= 2.38D-03
 ErrMax= 2.38D-03  0.00D+00 EMaxC= 1.00D-01 BMatC= 1.99D-03 BMatP= 6.10D-03
 IDIUse=3 WtCom= 9.76D-01 WtEn= 2.38D-02
 Coeff-Com: -0.164D-01 0.120D+00 0.400D+00 0.497D+00
 Coeff-En:   0.000D+00 0.000D+00 0.262D+00 0.738D+00
 Coeff:     -0.160D-01 0.117D+00 0.396D+00 0.502D+00
 Gap=     0.134 Goal=   None    Shift=    0.000
 RMSDP=3.14D-04 MaxDP=6.77D-03 DE=-3.77D-03 OVMax= 2.82D-02

 Cycle   5  Pass 1  IDiag  1:
 RMSU=  1.73D-04    CP:  9.69D-01  8.16D-01  7.63D-01  4.80D-01
 E= -466.755343400819     Delta-E=       -0.001947036687 Rises=F Damp=F
 DIIS: error= 1.12D-03 at cycle   5 NSaved=   5.
 NSaved= 5 IEnMin= 5 EnMin= -466.755343400819     IErMin= 5 ErrMin= 1.12D-03
 ErrMax= 1.12D-03  0.00D+00 EMaxC= 1.00D-01 BMatC= 2.66D-04 BMatP= 1.99D-03
 IDIUse=3 WtCom= 9.89D-01 WtEn= 1.12D-02
 Coeff-Com: -0.540D-02 0.136D-01 0.109D+00 0.300D+00 0.582D+00
 Coeff-En:   0.000D+00 0.000D+00 0.000D+00 0.134D+00 0.866D+00
 Coeff:     -0.534D-02 0.134D-01 0.108D+00 0.298D+00 0.585D+00
 Gap=     0.134 Goal=   None    Shift=    0.000
 RMSDP=1.00D-04 MaxDP=2.17D-03 DE=-1.95D-03 OVMax= 1.10D-02

 Cycle   6  Pass 1  IDiag  1:
 RMSU=  3.84D-05    CP:  9.69D-01  8.15D-01  7.70D-01  5.95D-01  5.67D-01
 E= -466.755637478607     Delta-E=       -0.000294077787 Rises=F Damp=F
 DIIS: error= 2.47D-04 at cycle   6 NSaved=   6.
 NSaved= 6 IEnMin= 6 EnMin= -466.755637478607     IErMin= 6 ErrMin= 2.47D-04
 ErrMax= 2.47D-04  0.00D+00 EMaxC= 1.00D-01 BMatC= 1.44D-05 BMatP= 2.66D-04
 IDIUse=3 WtCom= 9.98D-01 WtEn= 2.47D-03
 Coeff-Com: -0.273D-02 0.470D-02 0.539D-01 0.165D+00 0.354D+00 0.425D+00
 Coeff-En:   0.000D+00 0.000D+00 0.000D+00 0.000D+00 0.000D+00 0.100D+01
 Coeff:     -0.272D-02 0.469D-02 0.538D-01 0.165D+00 0.353D+00 0.426D+00
 Gap=     0.134 Goal=   None    Shift=    0.000
 RMSDP=2.50D-05 MaxDP=7.07D-04 DE=-2.94D-04 OVMax= 3.38D-03

 Cycle   7  Pass 1  IDiag  1:
 RMSU=  1.00D-05    CP:  9.69D-01  8.16D-01  7.69D-01  5.95D-01  6.14D-01
                    CP:  4.44D-01
 E= -466.755654167492     Delta-E=       -0.000016688885 Rises=F Damp=F
 DIIS: error= 4.43D-05 at cycle   7 NSaved=   7.
 NSaved= 7 IEnMin= 7 EnMin= -466.755654167492     IErMin= 7 ErrMin= 4.43D-05
 ErrMax= 4.43D-05  0.00D+00 EMaxC= 1.00D-01 BMatC= 6.53D-07 BMatP= 1.44D-05
 IDIUse=1 WtCom= 1.00D+00 WtEn= 0.00D+00
 Coeff-Com: -0.948D-03 0.120D-02 0.188D-01 0.608D-01 0.137D+00 0.227D+00
 Coeff-Com:  0.556D+00
 Coeff:     -0.948D-03 0.120D-02 0.188D-01 0.608D-01 0.137D+00 0.227D+00
 Coeff:      0.556D+00
 Gap=     0.134 Goal=   None    Shift=    0.000
 RMSDP=5.19D-06 MaxDP=1.57D-04 DE=-1.67D-05 OVMax= 6.40D-04

 Cycle   8  Pass 1  IDiag  1:
 RMSU=  3.04D-06    CP:  9.69D-01  8.16D-01  7.70D-01  5.96D-01  6.14D-01
                    CP:  4.94D-01  6.29D-01
 E= -466.755654829436     Delta-E=       -0.000000661944 Rises=F Damp=F
 DIIS: error= 1.23D-05 at cycle   8 NSaved=   8.
 NSaved= 8 IEnMin= 8 EnMin= -466.755654829436     IErMin= 8 ErrMin= 1.23D-05
 ErrMax= 1.23D-05  0.00D+00 EMaxC= 1.00D-01 BMatC= 7.15D-08 BMatP= 6.53D-07
 IDIUse=1 WtCom= 1.00D+00 WtEn= 0.00D+00
 Coeff-Com: -0.947D-04-0.880D-04 0.203D-02 0.797D-02 0.211D-01 0.582D-01
 Coeff-Com:  0.291D+00 0.620D+00
 Coeff:     -0.947D-04-0.880D-04 0.203D-02 0.797D-02 0.211D-01 0.582D-01
 Coeff:      0.291D+00 0.620D+00
 Gap=     0.134 Goal=   None    Shift=    0.000
 RMSDP=1.34D-06 MaxDP=5.09D-05 DE=-6.62D-07 OVMax= 9.96D-05

 Cycle   9  Pass 1  IDiag  1:
 RMSU=  9.11D-07    CP:  9.69D-01  8.16D-01  7.70D-01  5.96D-01  6.14D-01
                    CP:  4.93D-01  6.84D-01  7.53D-01
 E= -466.755654897736     Delta-E=       -0.000000068300 Rises=F Damp=F
 DIIS: error= 2.44D-06 at cycle   9 NSaved=   9.
 NSaved= 9 IEnMin= 9 EnMin= -466.755654897736     IErMin= 9 ErrMin= 2.44D-06
 ErrMax= 2.44D-06  0.00D+00 EMaxC= 1.00D-01 BMatC= 3.61D-09 BMatP= 7.15D-08
 IDIUse=1 WtCom= 1.00D+00 WtEn= 0.00D+00
 Coeff-Com:  0.279D-04-0.131D-03-0.516D-03-0.100D-02-0.912D-03 0.850D-02
 Coeff-Com:  0.881D-01 0.271D+00 0.635D+00
 Coeff:      0.279D-04-0.131D-03-0.516D-03-0.100D-02-0.912D-03 0.850D-02
 Coeff:      0.881D-01 0.271D+00 0.635D+00
 Gap=     0.134 Goal=   None    Shift=    0.000
 RMSDP=3.78D-07 MaxDP=7.16D-06 DE=-6.83D-08 OVMax= 1.59D-05

 Cycle  10  Pass 1  IDiag  1:
 RMSU=  2.33D-07    CP:  9.69D-01  8.16D-01  7.70D-01  5.96D-01  6.14D-01
                    CP:  4.95D-01  6.94D-01  7.70D-01  7.22D-01
 E= -466.755654901304     Delta-E=       -0.000000003568 Rises=F Damp=F
 DIIS: error= 5.93D-07 at cycle  10 NSaved=  10.
 NSaved=10 IEnMin=10 EnMin= -466.755654901304     IErMin=10 ErrMin= 5.93D-07
 ErrMax= 5.93D-07  0.00D+00 EMaxC= 1.00D-01 BMatC= 1.79D-10 BMatP= 3.61D-09
 IDIUse=1 WtCom= 1.00D+00 WtEn= 0.00D+00
 Coeff-Com:  0.141D-04-0.468D-04-0.293D-03-0.729D-03-0.124D-02 0.831D-03
 Coeff-Com:  0.232D-01 0.810D-01 0.253D+00 0.645D+00
 Coeff:      0.141D-04-0.468D-04-0.293D-03-0.729D-03-0.124D-02 0.831D-03
 Coeff:      0.232D-01 0.810D-01 0.253D+00 0.645D+00
 Gap=     0.134 Goal=   None    Shift=    0.000
 RMSDP=1.09D-07 MaxDP=3.70D-06 DE=-3.57D-09 OVMax= 8.12D-06

 Cycle  11  Pass 1  IDiag  1:
 RMSU=  9.18D-08    CP:  9.69D-01  8.16D-01  7.70D-01  5.96D-01  6.14D-01
                    CP:  4.95D-01  6.96D-01  7.76D-01  7.62D-01  8.53D-01
 E= -466.755654901432     Delta-E=       -0.000000000128 Rises=F Damp=F
 DIIS: error= 5.37D-07 at cycle  11 NSaved=  11.
 NSaved=11 IEnMin=11 EnMin= -466.755654901432     IErMin=11 ErrMin= 5.37D-07
 ErrMax= 5.37D-07  0.00D+00 EMaxC= 1.00D-01 BMatC= 7.09D-11 BMatP= 1.79D-10
 IDIUse=1 WtCom= 1.00D+00 WtEn= 0.00D+00
 Coeff-Com:  0.295D-05-0.455D-05-0.791D-04-0.240D-03-0.516D-03-0.801D-03
 Coeff-Com: -0.376D-04 0.463D-02 0.482D-01 0.402D+00 0.547D+00
 Coeff:      0.295D-05-0.455D-05-0.791D-04-0.240D-03-0.516D-03-0.801D-03
 Coeff:     -0.376D-04 0.463D-02 0.482D-01 0.402D+00 0.547D+00
 Gap=     0.134 Goal=   None    Shift=    0.000
 RMSDP=4.80D-08 MaxDP=1.91D-06 DE=-1.28D-10 OVMax= 4.70D-06

 Cycle  12  Pass 1  IDiag  1:
 RMSU=  2.37D-08    CP:  9.69D-01  8.16D-01  7.70D-01  5.96D-01  6.14D-01
                    CP:  4.95D-01  6.96D-01  7.78D-01  7.69D-01  9.33D-01
                    CP:  6.07D-01
 E= -466.755654901506     Delta-E=       -0.000000000074 Rises=F Damp=F
 DIIS: error= 8.52D-08 at cycle  12 NSaved=  12.
 NSaved=12 IEnMin=12 EnMin= -466.755654901506     IErMin=12 ErrMin= 8.52D-08
 ErrMax= 8.52D-08  0.00D+00 EMaxC= 1.00D-01 BMatC= 3.09D-12 BMatP= 7.09D-11
 IDIUse=1 WtCom= 1.00D+00 WtEn= 0.00D+00
 Coeff-Com:  0.750D-06 0.122D-06-0.250D-04-0.875D-04-0.201D-03-0.473D-03
 Coeff-Com: -0.121D-02-0.195D-02 0.106D-01 0.168D+00 0.281D+00 0.545D+00
 Coeff:      0.750D-06 0.122D-06-0.250D-04-0.875D-04-0.201D-03-0.473D-03
 Coeff:     -0.121D-02-0.195D-02 0.106D-01 0.168D+00 0.281D+00 0.545D+00
 Gap=     0.134 Goal=   None    Shift=    0.000
 RMSDP=1.35D-08 MaxDP=3.11D-07 DE=-7.40D-11 OVMax= 1.11D-06

 Cycle  13  Pass 1  IDiag  1:
 RMSU=  1.07D-08    CP:  9.69D-01  8.16D-01  7.70D-01  5.96D-01  6.14D-01
                    CP:  4.95D-01  6.95D-01  7.78D-01  7.71D-01  9.38D-01
                    CP:  6.63D-01  7.91D-01
 E= -466.755654901515     Delta-E=       -0.000000000008 Rises=F Damp=F
 DIIS: error= 6.05D-08 at cycle  13 NSaved=  13.
 NSaved=13 IEnMin=13 EnMin= -466.755654901515     IErMin=13 ErrMin= 6.05D-08
 ErrMax= 6.05D-08  0.00D+00 EMaxC= 1.00D-01 BMatC= 7.14D-13 BMatP= 3.09D-12
 IDIUse=1 WtCom= 1.00D+00 WtEn= 0.00D+00
 Coeff-Com: -0.259D-06 0.119D-05 0.434D-05 0.424D-05 0.228D-05-0.103D-03
 Coeff-Com: -0.726D-03-0.247D-02-0.654D-02-0.359D-02 0.346D-01 0.340D+00
 Coeff-Com:  0.639D+00
 Coeff:     -0.259D-06 0.119D-05 0.434D-05 0.424D-05 0.228D-05-0.103D-03
 Coeff:     -0.726D-03-0.247D-02-0.654D-02-0.359D-02 0.346D-01 0.340D+00
 Coeff:      0.639D+00
 Gap=     0.134 Goal=   None    Shift=    0.000
 RMSDP=5.80D-09 MaxDP=1.31D-07 DE=-8.19D-12 OVMax= 6.35D-07

 Error on total polarization charges =  0.02635
 SCF Done:  E(RB3LYP) =  -466.755654902     A.U. after   13 cycles
            NFock= 13  Conv=0.58D-08     -V/T= 2.0098
 KE= 4.622355693377D+02 PE=-2.510283840053D+03 EE= 8.663627127152D+02
 --------------------------------------------------------------------
 Variational PCM results
 =======================
 <psi(f)|   H    |psi(f)>                     (a.u.) =    -466.793787
 <psi(f)|H+V(f)/2|psi(f)>                     (a.u.) =    -466.795946
 Total free energy in solution:
 - with all non electrostatic terms           (a.u.) =    -466.755655
 --------------------------------------------------------------------
 (Polarized solute)-Solvent               (kcal/mol) =      -1.35
 --------------------------------------------------------------------
 Quantum repulsion energy                 (kcal/mol) =      25.28
 Total non electrostatic                  (kcal/mol) =      25.28
 --------------------------------------------------------------------
 Partition over spheres:
 Sphere  on Atom  Surface  Charge   GEl     GCav    GDR
    1               0.00   0.000    0.00    0.00    0.00
    2               0.49   0.003   -0.02    0.00    0.00
    3               0.33  -0.004   -0.05    0.00    0.00
    4               0.67  -0.008   -0.08    0.00    0.00
    5               0.06   0.000   -0.00    0.00    0.00
    6               0.00   0.000    0.00    0.00    0.00
    7               5.08  -0.013   -0.08    0.00    0.00
    8              11.10  -0.002   -0.01    0.00    0.00
    9               2.66  -0.008   -0.05    0.00    0.00
   10              13.93   0.004   -0.00    0.00    0.00
   11               4.33  -0.009   -0.07    0.00    0.00
   12               9.96   0.001   -0.01    0.00    0.00
   13               3.93  -0.010   -0.05    0.00    0.00
   14               3.50  -0.009   -0.06    0.00    0.00
   15               0.00   0.000    0.00    0.00    0.00
   16               0.00   0.000    0.00    0.00    0.00
   17               8.42   0.001   -0.01    0.00    0.00
   18               6.55  -0.002   -0.01    0.00    0.00
   19               0.00   0.000    0.00    0.00    0.00
   20              12.19   0.004   -0.00    0.00    0.00
   21               2.58  -0.007   -0.04    0.00    0.00
   22               0.00   0.000    0.00    0.00    0.00
   23               4.90  -0.013   -0.07    0.00    0.00
   24               0.00   0.000    0.00    0.00    0.00
   25               6.16  -0.015   -0.09    0.00    0.00
   26               0.00   0.000    0.00    0.00    0.00
   27               5.17  -0.012   -0.06    0.00    0.00
   28               3.66  -0.007   -0.04    0.00    0.00
 Added spheres:    92.60   0.080   -0.56    0.00    0.00
 --------------------------------------------------------------------
 After PCM corrections, the energy is  -466.755654902     a.u.
 --------------------------------------------------------------------
 Leave Link  502 at Tue Sep 15 22:47:47 2020, MaxMem=  6442450944 cpu:             759.7 elap:              34.7
0******************
 *Kjob Termination*
 *  in Link    502*
 ******************
 Job cpu time:       0 days  0 hours 13 minutes 26.8 seconds.
 Elapsed time:       0 days  0 hours  0 minutes 37.0 seconds.
 File lengths (MBytes):  RWF=    379 Int=      0 D2E=      0 Chk=      2 Scr=      1
 Normal termination of Gaussian 16 at Tue Sep 15 22:47:47 2020.
