 Entering Gaussian System, Link 0=g16
 Input=meso-TS_91_2_xp-Gcav.com
 Output=meso-TS_91_2_xp-Gcav.log
 Initial command:
 /scratch/scicomp/CentOS/7.3.1611/Haswell/software/Gaussian/g16/l1.exe "/scratch/bochen/cyclohexadiene-dimerization/wb97xd-def2tzvp/xp-pcm/meso/Gau-54952.inp" -scrdir="/scratch/bochen/cyclohexadiene-dimerization/wb97xd-def2tzvp/xp-pcm/meso/"
 Entering Link 1 = /scratch/scicomp/CentOS/7.3.1611/Haswell/software/Gaussian/g16/l1.exe PID=     54953.
  
 Copyright (c) 1988-2017, Gaussian, Inc.  All Rights Reserved.
  
 This is part of the Gaussian(R) 16 program.  It is based on
 the Gaussian(R) 09 system (copyright 2009, Gaussian, Inc.),
 the Gaussian(R) 03 system (copyright 2003, Gaussian, Inc.),
 the Gaussian(R) 98 system (copyright 1998, Gaussian, Inc.),
 the Gaussian(R) 94 system (copyright 1995, Gaussian, Inc.),
 the Gaussian 92(TM) system (copyright 1992, Gaussian, Inc.),
 the Gaussian 90(TM) system (copyright 1990, Gaussian, Inc.),
 the Gaussian 88(TM) system (copyright 1988, Gaussian, Inc.),
 the Gaussian 86(TM) system (copyright 1986, Carnegie Mellon
 University), and the Gaussian 82(TM) system (copyright 1983,
 Carnegie Mellon University). Gaussian is a federally registered
 trademark of Gaussian, Inc.
  
 This software contains proprietary and confidential information,
 including trade secrets, belonging to Gaussian, Inc.
  
 This software is provided under written license and may be
 used, copied, transmitted, or stored only in accord with that
 written license.
  
 The following legend is applicable only to US Government
 contracts under FAR:
  
                    RESTRICTED RIGHTS LEGEND
  
 Use, reproduction and disclosure by the US Government is
 subject to restrictions as set forth in subparagraphs (a)
 and (c) of the Commercial Computer Software - Restricted
 Rights clause in FAR 52.227-19.
  
 Gaussian, Inc.
 340 Quinnipiac St., Bldg. 40, Wallingford CT 06492
  
  
 ---------------------------------------------------------------
 Warning -- This program may not be used in any manner that
 competes with the business of Gaussian, Inc. or will provide
 assistance to any competitor of Gaussian, Inc.  The licensee
 of this program is prohibited from giving any competitor of
 Gaussian, Inc. access to this program.  By using this program,
 the user acknowledges that Gaussian, Inc. is engaged in the
 business of creating and licensing software in the field of
 computational chemistry and represents and warrants to the
 licensee that it is not a competitor of Gaussian, Inc. and that
 it will not use this program in any manner prohibited above.
 ---------------------------------------------------------------
  

 Cite this work as:
 Gaussian 16, Revision B.01,
 M. J. Frisch, G. W. Trucks, H. B. Schlegel, G. E. Scuseria, 
 M. A. Robb, J. R. Cheeseman, G. Scalmani, V. Barone, 
 G. A. Petersson, H. Nakatsuji, X. Li, M. Caricato, A. V. Marenich, 
 J. Bloino, B. G. Janesko, R. Gomperts, B. Mennucci, H. P. Hratchian, 
 J. V. Ortiz, A. F. Izmaylov, J. L. Sonnenberg, D. Williams-Young, 
 F. Ding, F. Lipparini, F. Egidi, J. Goings, B. Peng, A. Petrone, 
 T. Henderson, D. Ranasinghe, V. G. Zakrzewski, J. Gao, N. Rega, 
 G. Zheng, W. Liang, M. Hada, M. Ehara, K. Toyota, R. Fukuda, 
 J. Hasegawa, M. Ishida, T. Nakajima, Y. Honda, O. Kitao, H. Nakai, 
 T. Vreven, K. Throssell, J. A. Montgomery, Jr., J. E. Peralta, 
 F. Ogliaro, M. J. Bearpark, J. J. Heyd, E. N. Brothers, K. N. Kudin, 
 V. N. Staroverov, T. A. Keith, R. Kobayashi, J. Normand, 
 K. Raghavachari, A. P. Rendell, J. C. Burant, S. S. Iyengar, 
 J. Tomasi, M. Cossi, J. M. Millam, M. Klene, C. Adamo, R. Cammi, 
 J. W. Ochterski, R. L. Martin, K. Morokuma, O. Farkas, 
 J. B. Foresman, and D. J. Fox, Gaussian, Inc., Wallingford CT, 2016.
 
 ******************************************
 Gaussian 16:  ES64L-G16RevB.01 20-Dec-2017
                 4-Aug-2020 
 ******************************************
 %chk=scr.chk
 %nproc=24
 Will use up to   24 processors via shared memory.
 %mem=48GB
 ----------------------------------------------------------------------
 #p uwb97xd guess=mix def2tzvp # scrf=(iefpcm,solvent=Cyclohexane,read)
  nosym guess=only pop=none
 ----------------------------------------------------------------------
 1/38=1,40=2,172=1/1;
 2/12=2,15=1,17=6,18=5,40=1/2;
 3/5=44,7=101,11=2,25=1,30=1,70=2203,72=17,74=-58,89=1,116=2/1,2;
 4/13=-1/1;
 99/5=2/99;
 Leave Link    1 at Tue Aug  4 21:31:36 2020, MaxMem=  6442450944 cpu:               1.5 elap:               0.1
 (Enter /scratch/scicomp/CentOS/7.3.1611/Haswell/software/Gaussian/g16/l101.exe)
 -------------------------------------------------
 endo-2 xp-pcm with Vmol=108.160262177098 cm^3/mol
 -------------------------------------------------
 Symbolic Z-matrix:
 Charge =  0 Multiplicity = 1
 6                    -3.09327  -0.43597   0.30043 
 6                    -0.86674  -0.2891   -1.44543 
 1                    -3.98614  -0.5048    0.91094 
 1                     0.03031  -0.22494  -2.04978 
 6                     1.26235   1.45252   0.93454 
 6                     0.86674   0.2891    1.44543 
 1                     0.68836   2.35534   1.10715 
 1                    -0.03031   0.22494   2.04978 
 6                     1.68381  -0.95718   1.2565 
 1                     2.34862  -1.06206   2.12426 
 1                     1.03589  -1.8353    1.25879 
 6                     2.49032   1.53821   0.14185 
 1                     2.89306   2.51671  -0.09095 
 6                     3.09327   0.43597  -0.30043 
 1                     3.98614   0.5048   -0.91094 
 6                     2.51185  -0.92452  -0.02945 
 1                     1.87905  -1.20282  -0.881 
 1                     3.30259  -1.67529   0.01828 
 6                    -1.26235  -1.45252  -0.93454 
 1                    -0.68836  -2.35534  -1.10715 
 6                    -2.49032  -1.53821  -0.14185 
 1                    -2.89306  -2.51671   0.09095 
 6                    -1.68381   0.95718  -1.2565 
 1                    -1.03589   1.8353   -1.25879 
 1                    -2.34862   1.06206  -2.12426 
 6                    -2.51185   0.92452   0.02945 
 1                    -3.30259   1.67529  -0.01828 
 1                    -1.87905   1.20282   0.881 
 
 ITRead=  0  0  0  0  0  0  0  0  0  0  0  0  0  0  0  0  0  0  0  0
 ITRead=  0  0  0  0  0  0  0  0
 MicOpt= -1 -1 -1 -1 -1 -1 -1 -1 -1 -1 -1 -1 -1 -1 -1 -1 -1 -1 -1 -1
 MicOpt= -1 -1 -1 -1 -1 -1 -1 -1
 NAtoms=     28 NQM=       28 NQMF=       0 NMMI=      0 NMMIF=      0
                NMic=       0 NMicF=      0.
                    Isotopes and Nuclear Properties:
 (Nuclear quadrupole moments (NQMom) in fm**2, nuclear magnetic moments (NMagM)
  in nuclear magnetons)

  Atom         1           2           3           4           5           6           7           8           9          10
 IAtWgt=          12          12           1           1          12          12           1           1          12           1
 AtmWgt=  12.0000000  12.0000000   1.0078250   1.0078250  12.0000000  12.0000000   1.0078250   1.0078250  12.0000000   1.0078250
 NucSpn=           0           0           1           1           0           0           1           1           0           1
 AtZEff=  -0.0000000  -0.0000000  -0.0000000  -0.0000000  -0.0000000  -0.0000000  -0.0000000  -0.0000000  -0.0000000  -0.0000000
 NQMom=    0.0000000   0.0000000   0.0000000   0.0000000   0.0000000   0.0000000   0.0000000   0.0000000   0.0000000   0.0000000
 NMagM=    0.0000000   0.0000000   2.7928460   2.7928460   0.0000000   0.0000000   2.7928460   2.7928460   0.0000000   2.7928460
 AtZNuc=   6.0000000   6.0000000   1.0000000   1.0000000   6.0000000   6.0000000   1.0000000   1.0000000   6.0000000   1.0000000

  Atom        11          12          13          14          15          16          17          18          19          20
 IAtWgt=           1          12           1          12           1          12           1           1          12           1
 AtmWgt=   1.0078250  12.0000000   1.0078250  12.0000000   1.0078250  12.0000000   1.0078250   1.0078250  12.0000000   1.0078250
 NucSpn=           1           0           1           0           1           0           1           1           0           1
 AtZEff=  -0.0000000  -0.0000000  -0.0000000  -0.0000000  -0.0000000  -0.0000000  -0.0000000  -0.0000000  -0.0000000  -0.0000000
 NQMom=    0.0000000   0.0000000   0.0000000   0.0000000   0.0000000   0.0000000   0.0000000   0.0000000   0.0000000   0.0000000
 NMagM=    2.7928460   0.0000000   2.7928460   0.0000000   2.7928460   0.0000000   2.7928460   2.7928460   0.0000000   2.7928460
 AtZNuc=   1.0000000   6.0000000   1.0000000   6.0000000   1.0000000   6.0000000   1.0000000   1.0000000   6.0000000   1.0000000

  Atom        21          22          23          24          25          26          27          28
 IAtWgt=          12           1          12           1           1          12           1           1
 AtmWgt=  12.0000000   1.0078250  12.0000000   1.0078250   1.0078250  12.0000000   1.0078250   1.0078250
 NucSpn=           0           1           0           1           1           0           1           1
 AtZEff=  -0.0000000  -0.0000000  -0.0000000  -0.0000000  -0.0000000  -0.0000000  -0.0000000  -0.0000000
 NQMom=    0.0000000   0.0000000   0.0000000   0.0000000   0.0000000   0.0000000   0.0000000   0.0000000
 NMagM=    0.0000000   2.7928460   0.0000000   2.7928460   2.7928460   0.0000000   2.7928460   2.7928460
 AtZNuc=   6.0000000   1.0000000   6.0000000   1.0000000   1.0000000   6.0000000   1.0000000   1.0000000
 Leave Link  101 at Tue Aug  4 21:31:36 2020, MaxMem=  6442450944 cpu:               2.4 elap:               0.1
 (Enter /scratch/scicomp/CentOS/7.3.1611/Haswell/software/Gaussian/g16/l202.exe)
                          Input orientation:                          
 ---------------------------------------------------------------------
 Center     Atomic      Atomic             Coordinates (Angstroms)
 Number     Number       Type             X           Y           Z
 ---------------------------------------------------------------------
      1          6           0       -3.093267   -0.435973    0.300434
      2          6           0       -0.866740   -0.289096   -1.445431
      3          1           0       -3.986142   -0.504800    0.910939
      4          1           0        0.030308   -0.224943   -2.049778
      5          6           0        1.262349    1.452521    0.934535
      6          6           0        0.866740    0.289096    1.445431
      7          1           0        0.688360    2.355340    1.107147
      8          1           0       -0.030308    0.224943    2.049778
      9          6           0        1.683814   -0.957175    1.256502
     10          1           0        2.348618   -1.062059    2.124256
     11          1           0        1.035891   -1.835298    1.258793
     12          6           0        2.490317    1.538213    0.141849
     13          1           0        2.893062    2.516708   -0.090946
     14          6           0        3.093267    0.435973   -0.300434
     15          1           0        3.986142    0.504800   -0.910939
     16          6           0        2.511845   -0.924519   -0.029450
     17          1           0        1.879054   -1.202820   -0.880995
     18          1           0        3.302586   -1.675290    0.018282
     19          6           0       -1.262349   -1.452521   -0.934535
     20          1           0       -0.688360   -2.355340   -1.107147
     21          6           0       -2.490317   -1.538213   -0.141849
     22          1           0       -2.893062   -2.516708    0.090946
     23          6           0       -1.683814    0.957175   -1.256502
     24          1           0       -1.035891    1.835298   -1.258793
     25          1           0       -2.348618    1.062059   -2.124256
     26          6           0       -2.511845    0.924519    0.029450
     27          1           0       -3.302586    1.675290   -0.018282
     28          1           0       -1.879054    1.202820    0.880995
 ---------------------------------------------------------------------
                    Distance matrix (angstroms):
                    1          2          3          4          5
     1  C    0.000000
     2  C    2.833203   0.000000
     3  H    1.083826   3.915313   0.000000
     4  H    3.914684   1.083534   4.997603   0.000000
     5  C    4.789560   3.637374   5.601635   3.638397   0.000000
     6  C    4.185499   3.419992   4.946354   3.630474   1.330819
     7  H    4.768953   3.990869   5.483600   4.130020   1.083670
     8  H    3.588695   3.630474   4.180682   4.124613   2.102778
     9  C    4.899614   3.775195   5.698461   3.768519   2.467373
    10  H    5.773424   4.866073   6.473937   4.847462   2.986391
    11  H    4.463912   3.650147   5.206923   3.814588   3.311522
    12  C    5.924438   4.138641   6.834466   3.736789   1.464104
    13  H    6.686377   4.882958   7.580022   4.421429   2.200757
    14  C    6.276507   4.185499   7.243653   3.588695   2.431209
    15  H    7.243653   4.946354   8.239893   4.180682   3.423886
    16  C    5.636025   3.718010   6.579083   3.275539   2.853213
    17  H    5.167959   2.948366   6.172421   2.395863   3.275257
    18  H    6.520924   4.631120   7.435889   4.133785   3.845164
    19  C    2.431209   1.330819   3.423886   2.102778   4.278644
    20  H    3.383612   2.101338   4.286320   2.437956   4.740626
    21  C    1.331952   2.428090   2.100904   3.423218   4.917885
    22  H    2.100815   3.380635   2.432074   4.287304   5.808086
    23  C    2.520212   1.502164   3.483660   2.228206   3.704846
    24  H    3.438409   2.139275   4.346007   2.450924   3.199861
    25  H    2.945798   2.117165   3.788000   2.705773   4.748447
    26  C    1.504135   2.520815   2.234620   3.479511   3.916951
    27  H    2.145420   3.439319   2.466474   4.341203   4.668631
    28  H    2.120615   2.943272   2.712321   3.778042   3.151766
                    6          7          8          9         10
     6  C    0.000000
     7  H    2.101338   0.000000
     8  H    1.083534   2.437956   0.000000
     9  C    1.502164   3.462079   2.228206   0.000000
    10  H    2.117165   3.933139   2.705773   1.098163   0.000000
    11  H    2.139275   4.207757   2.450924   1.091288   1.752192
    12  C    2.428090   2.201487   3.423218   2.849537   3.272832
    13  H    3.380635   2.514394   4.287304   3.917366   4.243950
    14  C    2.833203   3.383612   3.914684   2.520212   2.945798
    15  H    3.915313   4.286320   4.997603   3.483660   3.788000
    16  C    2.520815   3.921024   3.479511   1.529828   2.164257
    17  H    2.943272   4.246288   3.778042   2.160406   3.044969
    18  H    3.439319   4.926031   4.341203   2.160856   2.391910
    19  C    3.637374   4.740626   3.638397   3.704846   4.748447
    20  H    3.990869   5.384140   4.130020   3.628899   4.619283
    21  C    4.138641   5.179163   3.736789   4.440311   5.364443
    22  H    4.882958   6.131566   4.421429   4.973777   5.807371
    23  C    3.775195   3.628899   3.768519   4.617450   5.636252
    24  H    3.650147   2.973408   3.814588   4.639117   5.594158
    25  H    4.866073   4.619283   4.847462   5.636252   6.680251
    26  C    3.718010   3.667423   3.275539   4.759200   5.653212
    27  H    4.631120   4.201989   4.133785   5.780928   6.634731
    28  H    2.948366   2.823307   2.395863   4.183373   4.954653
                   11         12         13         14         15
    11  H    0.000000
    12  C    3.839726   0.000000
    13  H    4.920451   1.083443   0.000000
    14  C    3.438409   1.331952   2.100815   0.000000
    15  H    4.346007   2.100904   2.432074   1.083826   0.000000
    16  C    2.160446   2.468776   3.462824   1.504135   2.234620
    17  H    2.385298   2.988832   3.935388   2.120615   2.712321
    18  H    2.588895   3.316874   4.213370   2.145420   2.466474
    19  C    3.199861   4.917885   5.808086   4.789560   5.601635
    20  H    2.973408   5.179163   6.131566   4.768953   5.483600
    21  C    3.805811   5.861024   6.739862   5.924438   6.834466
    22  H    4.155100   6.739862   7.671218   6.686377   7.580022
    23  C    4.639117   4.440311   4.973777   4.899614   5.698461
    24  H    4.909562   3.805811   4.155100   4.463912   5.206923
    25  H    5.594158   5.364443   5.807371   5.773424   6.473937
    26  C    4.659861   5.040920   5.635830   5.636025   6.579083
    27  H    5.725166   5.796737   6.252945   6.520924   7.435889
    28  H    4.227268   4.444123   5.044211   5.167959   6.172421
                   16         17         18         19         20
    16  C    0.000000
    17  H    1.096816   0.000000
    18  H    1.091424   1.748820   0.000000
    19  C    3.916951   3.151766   4.668631   0.000000
    20  H    3.667423   2.823307   4.201989   1.083670   0.000000
    21  C    5.040920   4.444123   5.796737   1.464104   2.201487
    22  H    5.635830   5.044211   6.252945   2.200757   2.514394
    23  C    4.759200   4.183373   5.780928   2.467373   3.462079
    24  H    4.659861   4.227268   5.725166   3.311522   4.207757
    25  H    5.653212   4.954653   6.634731   2.986391   3.933139
    26  C    5.353492   4.963313   6.369202   2.853213   3.921024
    27  H    6.369202   5.989757   7.406485   3.845164   4.926031
    28  H    4.963313   4.797404   5.989757   3.275257   4.246288
                   21         22         23         24         25
    21  C    0.000000
    22  H    1.083443   0.000000
    23  C    2.849537   3.917366   0.000000
    24  H    3.839726   4.920451   1.091288   0.000000
    25  H    3.272832   4.243950   1.098163   1.752192   0.000000
    26  C    2.468776   3.462824   1.529828   2.160446   2.164257
    27  H    3.316874   4.213370   2.160856   2.588895   2.391910
    28  H    2.988832   3.935388   2.160406   2.385298   3.044969
                   26         27         28
    26  C    0.000000
    27  H    1.091424   0.000000
    28  H    1.096816   1.748820   0.000000
 Symmetry turned off by external request.
 Stoichiometry    C12H16
 Framework group  CI[X(C12H16)]
 Deg. of freedom    39
 Full point group                 CI      NOp   2
 Rotational constants (GHZ):           1.6244635           0.5644758           0.5263311
 Leave Link  202 at Tue Aug  4 21:31:36 2020, MaxMem=  6442450944 cpu:               0.3 elap:               0.0
 (Enter /scratch/scicomp/CentOS/7.3.1611/Haswell/software/Gaussian/g16/l301.exe)
 Standard basis: def2TZVP (5D, 7F)
 Ernie: Thresh=  0.10000D-02 Tol=  0.10000D-05 Strict=F.
   468 basis functions,   740 primitive gaussians,   528 cartesian basis functions
    44 alpha electrons       44 beta electrons
       nuclear repulsion energy       666.2091593599 Hartrees.
 IExCor= 4639 DFT=T Ex+Corr=wB97XD ExCW=0 ScaHFX=  1.000000
 ScaDFX=  1.000000  1.000000  1.000000  1.000000 ScalE2=  1.000000  1.000000
 IRadAn=      5 IRanWt=     -1 IRanGd=            0 ICorTp=0 IEmpDi=121
 HFx  wShort=  0.000000 wLong=  0.200000 cFull=  0.222036 cShort=  0.000000 cLong=  0.777964
 DFx  wShort=  0.000000 wLong=  0.200000 cFull=  0.000000 cShort=  0.000000 cLong=  1.000000
 NAtoms=   28 NActive=   28 NUniq=   28 SFac= 1.00D+00 NAtFMM=   60 NAOKFM=F Big=F
 Integral buffers will be    131072 words long.
 Raffenetti 2 integral format.
 Two-electron integral symmetry is turned off.
 R6Disp:  Grimme-D2 Dispersion energy=       -0.0203121693 Hartrees.
 Nuclear repulsion after empirical dispersion term =      666.1888471906 Hartrees.
 Using the following non-standard input for PCM:
 norep  pcmdoc geomview  nodis cav g03defaults noaddsph  tsare=0.075
 Warning! Using old PCM defaults because the g03defaults keyword was found.
 These settings can be overridden by following keywords.
 nsfe=28
 Vmol=108.160262177098 Rsolv=2.815
 --- end of non-standard input.
 Reading user-defined spheres from input:
 ISph  on   Nord    Re0     Alpha      Xe            Ye            Ze
 --- end of user-defined spheres data.
 ------------------------------------------------------------------------------
 Polarizable Continuum Model (PCM)
 =================================
 Model                : PCM.
 Atomic radii         : UA0 (Simple United Atom Topological Model).
 Polarization charges : Total charges.
 Charge compensation  : None.
 Solution method      : On-the-fly selection.
 Cavity type          : VdW (van der Waals Surface) (Alpha=1.000).
 Cavity algorithm     : GePol (No added spheres)
                        User-defined sphere list used, NSphG=   28.
                        Tesserae with average area of 0.075 Ang**2.
                        Smoothing algorithm: None.
                        Polarization charges: point-like.
                        Self-potential: constant (ISelfS= 1).
                        Self-field    : global E.n sum rule (ISelfD= 3).
 Solvent              : CycloHexane, Eps=   2.016500 Eps(inf)=   2.035188
 ------------------------------------------------------------------------------
 GePol: Number of generator spheres                  =      28
 GePol: Total number of spheres                      =      28
 GePol: Number of exposed spheres                    =      28 (100.00%)
 GePol: Number of tesserae                           =    4107
 GePol: Average area of tesserae                     =       0.06 Ang**2
 GePol: Minimum area of tessera                      =   0.10D-02 Ang**2
 GePol: Maximum area of tessera                      =    0.12395 Ang**2
 GePol: Number of small tesserae                     =       0
 GePol: Fraction of small tesserae (<1% of avg)      =       0.00%
 GePol: Total count of vertices                      =   13600
 GePol: Maximum number of vertices in a tessera      =       6
 GePol: Cavity surface area                          =    245.970 Ang**2
 GePol: Cavity volume                                =    247.438 Ang**3
 PCM non-electrostatic energy =         0.0379432798 Hartrees.
 Nuclear repulsion after PCM non-electrostatic terms =      666.2267904704 Hartrees.
 Leave Link  301 at Tue Aug  4 21:31:37 2020, MaxMem=  6442450944 cpu:               3.2 elap:               0.2
 (Enter /scratch/scicomp/CentOS/7.3.1611/Haswell/software/Gaussian/g16/l302.exe)
 NPDir=0 NMtPBC=     1 NCelOv=     1 NCel=       1 NClECP=     1 NCelD=      1
         NCelK=      1 NCelE2=     1 NClLst=     1 CellRange=     0.0.
 One-electron integrals computed using PRISM.
   1 Symmetry operations used in ECPInt.
 ECPInt:  NShTT=   19306 NPrTT=   56928 LenC2=   18449 LenP2D=   41557.
 LDataN:  DoStor=T MaxTD1= 6 Len=  172
 NBasis=   468 RedAO= T EigKep=  2.88D-05  NBF=   468
 NBsUse=   468 1.00D-06 EigRej= -1.00D+00 NBFU=   468
 Precomputing XC quadrature grid using
 IXCGrd= 4 IRadAn=           5 IRanWt=          -1 IRanGd=           0 AccXCQ= 0.00D+00.
 Generated NRdTot=       0 NPtTot=           0 NUsed=           0 NTot=          32
 NSgBfM=   526   526   526   526   526 MxSgAt=    28 MxSgA2=    28.
 Leave Link  302 at Tue Aug  4 21:31:37 2020, MaxMem=  6442450944 cpu:              11.7 elap:               0.5
 (Enter /scratch/scicomp/CentOS/7.3.1611/Haswell/software/Gaussian/g16/l401.exe)
 ExpMin= 9.52D-02 ExpMax= 1.36D+04 ExpMxC= 4.63D+02 IAcc=3 IRadAn=         5 AccDes= 0.00D+00
 Harris functional with IExCor= 4639 and IRadAn=       5 diagonalized for initial guess.
 HarFok:  IExCor= 4639 AccDes= 0.00D+00 IRadAn=         5 IDoV= 1 UseB2=F ITyADJ=14
 ICtDFT=  3500011 ScaDFX=  1.000000  1.000000  1.000000  1.000000
 FoFCou: FMM=F IPFlag=           0 FMFlag=      100000 FMFlg1=           0
         NFxFlg=           0 DoJE=T BraDBF=F KetDBF=T FulRan=T
         wScrn=  0.000000 ICntrl=       500 IOpCl=  0 I1Cent=   200000004 NGrid=           0
         NMat0=    1 NMatS0=      1 NMatT0=    0 NMatD0=    1 NMtDS0=    0 NMtDT0=    0
 Symmetry not used in FoFCou.
 Harris En= -444.601487897827    
 JPrj=0 DoOrth=F DoCkMO=T.
 Mixing orbitals, IMix= 1 IMixAn=  0 NRI=1 NE=   44 Coef=  7.07106781D-01  7.07106781D-01
 Mixing orbitals, IMix= 1 IMixAn=  0 NRI=1 NE=   44 Coef= -7.07106781D-01  7.07106781D-01
 Initial guess <Sx>= 0.0000 <Sy>= 0.0000 <Sz>= 0.0000 <S**2>= 1.0000 S= 0.6180
 Leave Link  401 at Tue Aug  4 21:31:39 2020, MaxMem=  6442450944 cpu:              46.4 elap:               2.0
 (Enter /scratch/scicomp/CentOS/7.3.1611/Haswell/software/Gaussian/g16/l9999.exe)

 This type of calculation cannot be archived.


 THOSE WHO ARE UNABLE TO LEARN FROM PAST MEETINGS
 ARE CONDEMNED TO REPEAT THEM.
 Job cpu time:       0 days  0 hours  1 minutes  6.4 seconds.
 Elapsed time:       0 days  0 hours  0 minutes  3.0 seconds.
 File lengths (MBytes):  RWF=    316 Int=      0 D2E=      0 Chk=      1 Scr=      1
 Normal termination of Gaussian 16 at Tue Aug  4 21:31:39 2020.
 Initial command:
 /scratch/scicomp/CentOS/7.3.1611/Haswell/software/Gaussian/g16/l1.exe "/scratch/bochen/cyclohexadiene-dimerization/wb97xd-def2tzvp/xp-pcm/meso/Gau-54952.inp" -scrdir="/scratch/bochen/cyclohexadiene-dimerization/wb97xd-def2tzvp/xp-pcm/meso/"
 Entering Link 1 = /scratch/scicomp/CentOS/7.3.1611/Haswell/software/Gaussian/g16/l1.exe PID=     55117.
  
 Copyright (c) 1988-2017, Gaussian, Inc.  All Rights Reserved.
  
 This is part of the Gaussian(R) 16 program.  It is based on
 the Gaussian(R) 09 system (copyright 2009, Gaussian, Inc.),
 the Gaussian(R) 03 system (copyright 2003, Gaussian, Inc.),
 the Gaussian(R) 98 system (copyright 1998, Gaussian, Inc.),
 the Gaussian(R) 94 system (copyright 1995, Gaussian, Inc.),
 the Gaussian 92(TM) system (copyright 1992, Gaussian, Inc.),
 the Gaussian 90(TM) system (copyright 1990, Gaussian, Inc.),
 the Gaussian 88(TM) system (copyright 1988, Gaussian, Inc.),
 the Gaussian 86(TM) system (copyright 1986, Carnegie Mellon
 University), and the Gaussian 82(TM) system (copyright 1983,
 Carnegie Mellon University). Gaussian is a federally registered
 trademark of Gaussian, Inc.
  
 This software contains proprietary and confidential information,
 including trade secrets, belonging to Gaussian, Inc.
  
 This software is provided under written license and may be
 used, copied, transmitted, or stored only in accord with that
 written license.
  
 The following legend is applicable only to US Government
 contracts under FAR:
  
                    RESTRICTED RIGHTS LEGEND
  
 Use, reproduction and disclosure by the US Government is
 subject to restrictions as set forth in subparagraphs (a)
 and (c) of the Commercial Computer Software - Restricted
 Rights clause in FAR 52.227-19.
  
 Gaussian, Inc.
 340 Quinnipiac St., Bldg. 40, Wallingford CT 06492
  
  
 ---------------------------------------------------------------
 Warning -- This program may not be used in any manner that
 competes with the business of Gaussian, Inc. or will provide
 assistance to any competitor of Gaussian, Inc.  The licensee
 of this program is prohibited from giving any competitor of
 Gaussian, Inc. access to this program.  By using this program,
 the user acknowledges that Gaussian, Inc. is engaged in the
 business of creating and licensing software in the field of
 computational chemistry and represents and warrants to the
 licensee that it is not a competitor of Gaussian, Inc. and that
 it will not use this program in any manner prohibited above.
 ---------------------------------------------------------------
  

 Cite this work as:
 Gaussian 16, Revision B.01,
 M. J. Frisch, G. W. Trucks, H. B. Schlegel, G. E. Scuseria, 
 M. A. Robb, J. R. Cheeseman, G. Scalmani, V. Barone, 
 G. A. Petersson, H. Nakatsuji, X. Li, M. Caricato, A. V. Marenich, 
 J. Bloino, B. G. Janesko, R. Gomperts, B. Mennucci, H. P. Hratchian, 
 J. V. Ortiz, A. F. Izmaylov, J. L. Sonnenberg, D. Williams-Young, 
 F. Ding, F. Lipparini, F. Egidi, J. Goings, B. Peng, A. Petrone, 
 T. Henderson, D. Ranasinghe, V. G. Zakrzewski, J. Gao, N. Rega, 
 G. Zheng, W. Liang, M. Hada, M. Ehara, K. Toyota, R. Fukuda, 
 J. Hasegawa, M. Ishida, T. Nakajima, Y. Honda, O. Kitao, H. Nakai, 
 T. Vreven, K. Throssell, J. A. Montgomery, Jr., J. E. Peralta, 
 F. Ogliaro, M. J. Bearpark, J. J. Heyd, E. N. Brothers, K. N. Kudin, 
 V. N. Staroverov, T. A. Keith, R. Kobayashi, J. Normand, 
 K. Raghavachari, A. P. Rendell, J. C. Burant, S. S. Iyengar, 
 J. Tomasi, M. Cossi, J. M. Millam, M. Klene, C. Adamo, R. Cammi, 
 J. W. Ochterski, R. L. Martin, K. Morokuma, O. Farkas, 
 J. B. Foresman, and D. J. Fox, Gaussian, Inc., Wallingford CT, 2016.
 
 ******************************************
 Gaussian 16:  ES64L-G16RevB.01 20-Dec-2017
                 4-Aug-2020 
 ******************************************
 %chk=scr.chk
 %nproc=24
 Will use up to   24 processors via shared memory.
 %mem=48GB
 ----------------------------------------------------------------------
 #p uwb97xd guess=mix def2tzvp # scrf=(iefpcm,solvent=Cyclohexane,read)
  nosym guess=only pop=none
 ----------------------------------------------------------------------
 1/38=1,40=2,172=1/1;
 2/12=2,15=1,17=6,18=5,40=1/2;
 3/5=44,7=101,11=2,25=1,30=1,70=2203,72=17,74=-58,89=1,116=2/1,2;
 4/13=-1/1;
 99/5=2/99;
 Leave Link    1 at Tue Aug  4 21:31:39 2020, MaxMem=  6442450944 cpu:               1.4 elap:               0.1
 (Enter /scratch/scicomp/CentOS/7.3.1611/Haswell/software/Gaussian/g16/l101.exe)
 -------------------------------------------------
 endo-2 xp-pcm with Vmol=101.730197792279 cm^3/mol
 -------------------------------------------------
 Symbolic Z-matrix:
 Charge =  0 Multiplicity = 1
 6                    -3.09327  -0.43597   0.30043 
 6                    -0.86674  -0.2891   -1.44543 
 1                    -3.98614  -0.5048    0.91094 
 1                     0.03031  -0.22494  -2.04978 
 6                     1.26235   1.45252   0.93454 
 6                     0.86674   0.2891    1.44543 
 1                     0.68836   2.35534   1.10715 
 1                    -0.03031   0.22494   2.04978 
 6                     1.68381  -0.95718   1.2565 
 1                     2.34862  -1.06206   2.12426 
 1                     1.03589  -1.8353    1.25879 
 6                     2.49032   1.53821   0.14185 
 1                     2.89306   2.51671  -0.09095 
 6                     3.09327   0.43597  -0.30043 
 1                     3.98614   0.5048   -0.91094 
 6                     2.51185  -0.92452  -0.02945 
 1                     1.87905  -1.20282  -0.881 
 1                     3.30259  -1.67529   0.01828 
 6                    -1.26235  -1.45252  -0.93454 
 1                    -0.68836  -2.35534  -1.10715 
 6                    -2.49032  -1.53821  -0.14185 
 1                    -2.89306  -2.51671   0.09095 
 6                    -1.68381   0.95718  -1.2565 
 1                    -1.03589   1.8353   -1.25879 
 1                    -2.34862   1.06206  -2.12426 
 6                    -2.51185   0.92452   0.02945 
 1                    -3.30259   1.67529  -0.01828 
 1                    -1.87905   1.20282   0.881 
 
 ITRead=  0  0  0  0  0  0  0  0  0  0  0  0  0  0  0  0  0  0  0  0
 ITRead=  0  0  0  0  0  0  0  0
 MicOpt= -1 -1 -1 -1 -1 -1 -1 -1 -1 -1 -1 -1 -1 -1 -1 -1 -1 -1 -1 -1
 MicOpt= -1 -1 -1 -1 -1 -1 -1 -1
 NAtoms=     28 NQM=       28 NQMF=       0 NMMI=      0 NMMIF=      0
                NMic=       0 NMicF=      0.
                    Isotopes and Nuclear Properties:
 (Nuclear quadrupole moments (NQMom) in fm**2, nuclear magnetic moments (NMagM)
  in nuclear magnetons)

  Atom         1           2           3           4           5           6           7           8           9          10
 IAtWgt=          12          12           1           1          12          12           1           1          12           1
 AtmWgt=  12.0000000  12.0000000   1.0078250   1.0078250  12.0000000  12.0000000   1.0078250   1.0078250  12.0000000   1.0078250
 NucSpn=           0           0           1           1           0           0           1           1           0           1
 AtZEff=  -0.0000000  -0.0000000  -0.0000000  -0.0000000  -0.0000000  -0.0000000  -0.0000000  -0.0000000  -0.0000000  -0.0000000
 NQMom=    0.0000000   0.0000000   0.0000000   0.0000000   0.0000000   0.0000000   0.0000000   0.0000000   0.0000000   0.0000000
 NMagM=    0.0000000   0.0000000   2.7928460   2.7928460   0.0000000   0.0000000   2.7928460   2.7928460   0.0000000   2.7928460
 AtZNuc=   6.0000000   6.0000000   1.0000000   1.0000000   6.0000000   6.0000000   1.0000000   1.0000000   6.0000000   1.0000000

  Atom        11          12          13          14          15          16          17          18          19          20
 IAtWgt=           1          12           1          12           1          12           1           1          12           1
 AtmWgt=   1.0078250  12.0000000   1.0078250  12.0000000   1.0078250  12.0000000   1.0078250   1.0078250  12.0000000   1.0078250
 NucSpn=           1           0           1           0           1           0           1           1           0           1
 AtZEff=  -0.0000000  -0.0000000  -0.0000000  -0.0000000  -0.0000000  -0.0000000  -0.0000000  -0.0000000  -0.0000000  -0.0000000
 NQMom=    0.0000000   0.0000000   0.0000000   0.0000000   0.0000000   0.0000000   0.0000000   0.0000000   0.0000000   0.0000000
 NMagM=    2.7928460   0.0000000   2.7928460   0.0000000   2.7928460   0.0000000   2.7928460   2.7928460   0.0000000   2.7928460
 AtZNuc=   1.0000000   6.0000000   1.0000000   6.0000000   1.0000000   6.0000000   1.0000000   1.0000000   6.0000000   1.0000000

  Atom        21          22          23          24          25          26          27          28
 IAtWgt=          12           1          12           1           1          12           1           1
 AtmWgt=  12.0000000   1.0078250  12.0000000   1.0078250   1.0078250  12.0000000   1.0078250   1.0078250
 NucSpn=           0           1           0           1           1           0           1           1
 AtZEff=  -0.0000000  -0.0000000  -0.0000000  -0.0000000  -0.0000000  -0.0000000  -0.0000000  -0.0000000
 NQMom=    0.0000000   0.0000000   0.0000000   0.0000000   0.0000000   0.0000000   0.0000000   0.0000000
 NMagM=    0.0000000   2.7928460   0.0000000   2.7928460   2.7928460   0.0000000   2.7928460   2.7928460
 AtZNuc=   6.0000000   1.0000000   6.0000000   1.0000000   1.0000000   6.0000000   1.0000000   1.0000000
 Leave Link  101 at Tue Aug  4 21:31:40 2020, MaxMem=  6442450944 cpu:               2.4 elap:               0.1
 (Enter /scratch/scicomp/CentOS/7.3.1611/Haswell/software/Gaussian/g16/l202.exe)
                          Input orientation:                          
 ---------------------------------------------------------------------
 Center     Atomic      Atomic             Coordinates (Angstroms)
 Number     Number       Type             X           Y           Z
 ---------------------------------------------------------------------
      1          6           0       -3.093267   -0.435973    0.300434
      2          6           0       -0.866740   -0.289096   -1.445431
      3          1           0       -3.986142   -0.504800    0.910939
      4          1           0        0.030308   -0.224943   -2.049778
      5          6           0        1.262349    1.452521    0.934535
      6          6           0        0.866740    0.289096    1.445431
      7          1           0        0.688360    2.355340    1.107147
      8          1           0       -0.030308    0.224943    2.049778
      9          6           0        1.683814   -0.957175    1.256502
     10          1           0        2.348618   -1.062059    2.124256
     11          1           0        1.035891   -1.835298    1.258793
     12          6           0        2.490317    1.538213    0.141849
     13          1           0        2.893062    2.516708   -0.090946
     14          6           0        3.093267    0.435973   -0.300434
     15          1           0        3.986142    0.504800   -0.910939
     16          6           0        2.511845   -0.924519   -0.029450
     17          1           0        1.879054   -1.202820   -0.880995
     18          1           0        3.302586   -1.675290    0.018282
     19          6           0       -1.262349   -1.452521   -0.934535
     20          1           0       -0.688360   -2.355340   -1.107147
     21          6           0       -2.490317   -1.538213   -0.141849
     22          1           0       -2.893062   -2.516708    0.090946
     23          6           0       -1.683814    0.957175   -1.256502
     24          1           0       -1.035891    1.835298   -1.258793
     25          1           0       -2.348618    1.062059   -2.124256
     26          6           0       -2.511845    0.924519    0.029450
     27          1           0       -3.302586    1.675290   -0.018282
     28          1           0       -1.879054    1.202820    0.880995
 ---------------------------------------------------------------------
                    Distance matrix (angstroms):
                    1          2          3          4          5
     1  C    0.000000
     2  C    2.833203   0.000000
     3  H    1.083826   3.915313   0.000000
     4  H    3.914684   1.083534   4.997603   0.000000
     5  C    4.789560   3.637374   5.601635   3.638397   0.000000
     6  C    4.185499   3.419992   4.946354   3.630474   1.330819
     7  H    4.768953   3.990869   5.483600   4.130020   1.083670
     8  H    3.588695   3.630474   4.180682   4.124613   2.102778
     9  C    4.899614   3.775195   5.698461   3.768519   2.467373
    10  H    5.773424   4.866073   6.473937   4.847462   2.986391
    11  H    4.463912   3.650147   5.206923   3.814588   3.311522
    12  C    5.924438   4.138641   6.834466   3.736789   1.464104
    13  H    6.686377   4.882958   7.580022   4.421429   2.200757
    14  C    6.276507   4.185499   7.243653   3.588695   2.431209
    15  H    7.243653   4.946354   8.239893   4.180682   3.423886
    16  C    5.636025   3.718010   6.579083   3.275539   2.853213
    17  H    5.167959   2.948366   6.172421   2.395863   3.275257
    18  H    6.520924   4.631120   7.435889   4.133785   3.845164
    19  C    2.431209   1.330819   3.423886   2.102778   4.278644
    20  H    3.383612   2.101338   4.286320   2.437956   4.740626
    21  C    1.331952   2.428090   2.100904   3.423218   4.917885
    22  H    2.100815   3.380635   2.432074   4.287304   5.808086
    23  C    2.520212   1.502164   3.483660   2.228206   3.704846
    24  H    3.438409   2.139275   4.346007   2.450924   3.199861
    25  H    2.945798   2.117165   3.788000   2.705773   4.748447
    26  C    1.504135   2.520815   2.234620   3.479511   3.916951
    27  H    2.145420   3.439319   2.466474   4.341203   4.668631
    28  H    2.120615   2.943272   2.712321   3.778042   3.151766
                    6          7          8          9         10
     6  C    0.000000
     7  H    2.101338   0.000000
     8  H    1.083534   2.437956   0.000000
     9  C    1.502164   3.462079   2.228206   0.000000
    10  H    2.117165   3.933139   2.705773   1.098163   0.000000
    11  H    2.139275   4.207757   2.450924   1.091288   1.752192
    12  C    2.428090   2.201487   3.423218   2.849537   3.272832
    13  H    3.380635   2.514394   4.287304   3.917366   4.243950
    14  C    2.833203   3.383612   3.914684   2.520212   2.945798
    15  H    3.915313   4.286320   4.997603   3.483660   3.788000
    16  C    2.520815   3.921024   3.479511   1.529828   2.164257
    17  H    2.943272   4.246288   3.778042   2.160406   3.044969
    18  H    3.439319   4.926031   4.341203   2.160856   2.391910
    19  C    3.637374   4.740626   3.638397   3.704846   4.748447
    20  H    3.990869   5.384140   4.130020   3.628899   4.619283
    21  C    4.138641   5.179163   3.736789   4.440311   5.364443
    22  H    4.882958   6.131566   4.421429   4.973777   5.807371
    23  C    3.775195   3.628899   3.768519   4.617450   5.636252
    24  H    3.650147   2.973408   3.814588   4.639117   5.594158
    25  H    4.866073   4.619283   4.847462   5.636252   6.680251
    26  C    3.718010   3.667423   3.275539   4.759200   5.653212
    27  H    4.631120   4.201989   4.133785   5.780928   6.634731
    28  H    2.948366   2.823307   2.395863   4.183373   4.954653
                   11         12         13         14         15
    11  H    0.000000
    12  C    3.839726   0.000000
    13  H    4.920451   1.083443   0.000000
    14  C    3.438409   1.331952   2.100815   0.000000
    15  H    4.346007   2.100904   2.432074   1.083826   0.000000
    16  C    2.160446   2.468776   3.462824   1.504135   2.234620
    17  H    2.385298   2.988832   3.935388   2.120615   2.712321
    18  H    2.588895   3.316874   4.213370   2.145420   2.466474
    19  C    3.199861   4.917885   5.808086   4.789560   5.601635
    20  H    2.973408   5.179163   6.131566   4.768953   5.483600
    21  C    3.805811   5.861024   6.739862   5.924438   6.834466
    22  H    4.155100   6.739862   7.671218   6.686377   7.580022
    23  C    4.639117   4.440311   4.973777   4.899614   5.698461
    24  H    4.909562   3.805811   4.155100   4.463912   5.206923
    25  H    5.594158   5.364443   5.807371   5.773424   6.473937
    26  C    4.659861   5.040920   5.635830   5.636025   6.579083
    27  H    5.725166   5.796737   6.252945   6.520924   7.435889
    28  H    4.227268   4.444123   5.044211   5.167959   6.172421
                   16         17         18         19         20
    16  C    0.000000
    17  H    1.096816   0.000000
    18  H    1.091424   1.748820   0.000000
    19  C    3.916951   3.151766   4.668631   0.000000
    20  H    3.667423   2.823307   4.201989   1.083670   0.000000
    21  C    5.040920   4.444123   5.796737   1.464104   2.201487
    22  H    5.635830   5.044211   6.252945   2.200757   2.514394
    23  C    4.759200   4.183373   5.780928   2.467373   3.462079
    24  H    4.659861   4.227268   5.725166   3.311522   4.207757
    25  H    5.653212   4.954653   6.634731   2.986391   3.933139
    26  C    5.353492   4.963313   6.369202   2.853213   3.921024
    27  H    6.369202   5.989757   7.406485   3.845164   4.926031
    28  H    4.963313   4.797404   5.989757   3.275257   4.246288
                   21         22         23         24         25
    21  C    0.000000
    22  H    1.083443   0.000000
    23  C    2.849537   3.917366   0.000000
    24  H    3.839726   4.920451   1.091288   0.000000
    25  H    3.272832   4.243950   1.098163   1.752192   0.000000
    26  C    2.468776   3.462824   1.529828   2.160446   2.164257
    27  H    3.316874   4.213370   2.160856   2.588895   2.391910
    28  H    2.988832   3.935388   2.160406   2.385298   3.044969
                   26         27         28
    26  C    0.000000
    27  H    1.091424   0.000000
    28  H    1.096816   1.748820   0.000000
 Symmetry turned off by external request.
 Stoichiometry    C12H16
 Framework group  CI[X(C12H16)]
 Deg. of freedom    39
 Full point group                 CI      NOp   2
 Rotational constants (GHZ):           1.6244635           0.5644758           0.5263311
 Leave Link  202 at Tue Aug  4 21:31:40 2020, MaxMem=  6442450944 cpu:               0.3 elap:               0.0
 (Enter /scratch/scicomp/CentOS/7.3.1611/Haswell/software/Gaussian/g16/l301.exe)
 Standard basis: def2TZVP (5D, 7F)
 Ernie: Thresh=  0.10000D-02 Tol=  0.10000D-05 Strict=F.
   468 basis functions,   740 primitive gaussians,   528 cartesian basis functions
    44 alpha electrons       44 beta electrons
       nuclear repulsion energy       666.2091593599 Hartrees.
 IExCor= 4639 DFT=T Ex+Corr=wB97XD ExCW=0 ScaHFX=  1.000000
 ScaDFX=  1.000000  1.000000  1.000000  1.000000 ScalE2=  1.000000  1.000000
 IRadAn=      5 IRanWt=     -1 IRanGd=            0 ICorTp=0 IEmpDi=121
 HFx  wShort=  0.000000 wLong=  0.200000 cFull=  0.222036 cShort=  0.000000 cLong=  0.777964
 DFx  wShort=  0.000000 wLong=  0.200000 cFull=  0.000000 cShort=  0.000000 cLong=  1.000000
 NAtoms=   28 NActive=   28 NUniq=   28 SFac= 1.00D+00 NAtFMM=   60 NAOKFM=F Big=F
 Integral buffers will be    131072 words long.
 Raffenetti 2 integral format.
 Two-electron integral symmetry is turned off.
 R6Disp:  Grimme-D2 Dispersion energy=       -0.0203121693 Hartrees.
 Nuclear repulsion after empirical dispersion term =      666.1888471906 Hartrees.
 Using the following non-standard input for PCM:
 norep  pcmdoc geomview  nodis cav g03defaults noaddsph  tsare=0.075
 Warning! Using old PCM defaults because the g03defaults keyword was found.
 These settings can be overridden by following keywords.
 nsfe=28
 Vmol=101.730197792279 Rsolv=2.815
 --- end of non-standard input.
 Reading user-defined spheres from input:
 ISph  on   Nord    Re0     Alpha      Xe            Ye            Ze
 --- end of user-defined spheres data.
 ------------------------------------------------------------------------------
 Polarizable Continuum Model (PCM)
 =================================
 Model                : PCM.
 Atomic radii         : UA0 (Simple United Atom Topological Model).
 Polarization charges : Total charges.
 Charge compensation  : None.
 Solution method      : On-the-fly selection.
 Cavity type          : VdW (van der Waals Surface) (Alpha=1.000).
 Cavity algorithm     : GePol (No added spheres)
                        User-defined sphere list used, NSphG=   28.
                        Tesserae with average area of 0.075 Ang**2.
                        Smoothing algorithm: None.
                        Polarization charges: point-like.
                        Self-potential: constant (ISelfS= 1).
                        Self-field    : global E.n sum rule (ISelfD= 3).
 Solvent              : CycloHexane, Eps=   2.016500 Eps(inf)=   2.035188
 ------------------------------------------------------------------------------
 GePol: Number of generator spheres                  =      28
 GePol: Total number of spheres                      =      28
 GePol: Number of exposed spheres                    =      28 (100.00%)
 GePol: Number of tesserae                           =    4107
 GePol: Average area of tesserae                     =       0.06 Ang**2
 GePol: Minimum area of tessera                      =   0.10D-02 Ang**2
 GePol: Maximum area of tessera                      =    0.12395 Ang**2
 GePol: Number of small tesserae                     =       0
 GePol: Fraction of small tesserae (<1% of avg)      =       0.00%
 GePol: Total count of vertices                      =   13600
 GePol: Maximum number of vertices in a tessera      =       6
 GePol: Cavity surface area                          =    245.970 Ang**2
 GePol: Cavity volume                                =    247.438 Ang**3
 PCM non-electrostatic energy =         0.0450758301 Hartrees.
 Nuclear repulsion after PCM non-electrostatic terms =      666.2339230207 Hartrees.
 Leave Link  301 at Tue Aug  4 21:31:40 2020, MaxMem=  6442450944 cpu:               3.3 elap:               0.2
 (Enter /scratch/scicomp/CentOS/7.3.1611/Haswell/software/Gaussian/g16/l302.exe)
 NPDir=0 NMtPBC=     1 NCelOv=     1 NCel=       1 NClECP=     1 NCelD=      1
         NCelK=      1 NCelE2=     1 NClLst=     1 CellRange=     0.0.
 One-electron integrals computed using PRISM.
   1 Symmetry operations used in ECPInt.
 ECPInt:  NShTT=   19306 NPrTT=   56928 LenC2=   18449 LenP2D=   41557.
 LDataN:  DoStor=T MaxTD1= 6 Len=  172
 NBasis=   468 RedAO= T EigKep=  2.88D-05  NBF=   468
 NBsUse=   468 1.00D-06 EigRej= -1.00D+00 NBFU=   468
 Precomputing XC quadrature grid using
 IXCGrd= 4 IRadAn=           5 IRanWt=          -1 IRanGd=           0 AccXCQ= 0.00D+00.
 Generated NRdTot=       0 NPtTot=           0 NUsed=           0 NTot=          32
 NSgBfM=   526   526   526   526   526 MxSgAt=    28 MxSgA2=    28.
 Leave Link  302 at Tue Aug  4 21:31:41 2020, MaxMem=  6442450944 cpu:              12.3 elap:               0.6
 (Enter /scratch/scicomp/CentOS/7.3.1611/Haswell/software/Gaussian/g16/l401.exe)
 ExpMin= 9.52D-02 ExpMax= 1.36D+04 ExpMxC= 4.63D+02 IAcc=3 IRadAn=         5 AccDes= 0.00D+00
 Harris functional with IExCor= 4639 and IRadAn=       5 diagonalized for initial guess.
 HarFok:  IExCor= 4639 AccDes= 0.00D+00 IRadAn=         5 IDoV= 1 UseB2=F ITyADJ=14
 ICtDFT=  3500011 ScaDFX=  1.000000  1.000000  1.000000  1.000000
 FoFCou: FMM=F IPFlag=           0 FMFlag=      100000 FMFlg1=           0
         NFxFlg=           0 DoJE=T BraDBF=F KetDBF=T FulRan=T
         wScrn=  0.000000 ICntrl=       500 IOpCl=  0 I1Cent=   200000004 NGrid=           0
         NMat0=    1 NMatS0=      1 NMatT0=    0 NMatD0=    1 NMtDS0=    0 NMtDT0=    0
 Symmetry not used in FoFCou.
 Harris En= -444.594355347591    
 JPrj=0 DoOrth=F DoCkMO=T.
 Mixing orbitals, IMix= 1 IMixAn=  0 NRI=1 NE=   44 Coef=  7.07106781D-01  7.07106781D-01
 Mixing orbitals, IMix= 1 IMixAn=  0 NRI=1 NE=   44 Coef= -7.07106781D-01  7.07106781D-01
 Initial guess <Sx>= 0.0000 <Sy>= 0.0000 <Sz>= 0.0000 <S**2>= 1.0000 S= 0.6180
 Leave Link  401 at Tue Aug  4 21:31:43 2020, MaxMem=  6442450944 cpu:              46.4 elap:               2.0
 (Enter /scratch/scicomp/CentOS/7.3.1611/Haswell/software/Gaussian/g16/l9999.exe)

 This type of calculation cannot be archived.


 ONLY THE DAY DAWNS TO WHICH YOU ARE AWAKE.

                                 -- THOREAU
 Job cpu time:       0 days  0 hours  1 minutes  7.0 seconds.
 Elapsed time:       0 days  0 hours  0 minutes  3.1 seconds.
 File lengths (MBytes):  RWF=    316 Int=      0 D2E=      0 Chk=      1 Scr=      1
 Normal termination of Gaussian 16 at Tue Aug  4 21:31:43 2020.
 Initial command:
 /scratch/scicomp/CentOS/7.3.1611/Haswell/software/Gaussian/g16/l1.exe "/scratch/bochen/cyclohexadiene-dimerization/wb97xd-def2tzvp/xp-pcm/meso/Gau-54952.inp" -scrdir="/scratch/bochen/cyclohexadiene-dimerization/wb97xd-def2tzvp/xp-pcm/meso/"
 Entering Link 1 = /scratch/scicomp/CentOS/7.3.1611/Haswell/software/Gaussian/g16/l1.exe PID=     55280.
  
 Copyright (c) 1988-2017, Gaussian, Inc.  All Rights Reserved.
  
 This is part of the Gaussian(R) 16 program.  It is based on
 the Gaussian(R) 09 system (copyright 2009, Gaussian, Inc.),
 the Gaussian(R) 03 system (copyright 2003, Gaussian, Inc.),
 the Gaussian(R) 98 system (copyright 1998, Gaussian, Inc.),
 the Gaussian(R) 94 system (copyright 1995, Gaussian, Inc.),
 the Gaussian 92(TM) system (copyright 1992, Gaussian, Inc.),
 the Gaussian 90(TM) system (copyright 1990, Gaussian, Inc.),
 the Gaussian 88(TM) system (copyright 1988, Gaussian, Inc.),
 the Gaussian 86(TM) system (copyright 1986, Carnegie Mellon
 University), and the Gaussian 82(TM) system (copyright 1983,
 Carnegie Mellon University). Gaussian is a federally registered
 trademark of Gaussian, Inc.
  
 This software contains proprietary and confidential information,
 including trade secrets, belonging to Gaussian, Inc.
  
 This software is provided under written license and may be
 used, copied, transmitted, or stored only in accord with that
 written license.
  
 The following legend is applicable only to US Government
 contracts under FAR:
  
                    RESTRICTED RIGHTS LEGEND
  
 Use, reproduction and disclosure by the US Government is
 subject to restrictions as set forth in subparagraphs (a)
 and (c) of the Commercial Computer Software - Restricted
 Rights clause in FAR 52.227-19.
  
 Gaussian, Inc.
 340 Quinnipiac St., Bldg. 40, Wallingford CT 06492
  
  
 ---------------------------------------------------------------
 Warning -- This program may not be used in any manner that
 competes with the business of Gaussian, Inc. or will provide
 assistance to any competitor of Gaussian, Inc.  The licensee
 of this program is prohibited from giving any competitor of
 Gaussian, Inc. access to this program.  By using this program,
 the user acknowledges that Gaussian, Inc. is engaged in the
 business of creating and licensing software in the field of
 computational chemistry and represents and warrants to the
 licensee that it is not a competitor of Gaussian, Inc. and that
 it will not use this program in any manner prohibited above.
 ---------------------------------------------------------------
  

 Cite this work as:
 Gaussian 16, Revision B.01,
 M. J. Frisch, G. W. Trucks, H. B. Schlegel, G. E. Scuseria, 
 M. A. Robb, J. R. Cheeseman, G. Scalmani, V. Barone, 
 G. A. Petersson, H. Nakatsuji, X. Li, M. Caricato, A. V. Marenich, 
 J. Bloino, B. G. Janesko, R. Gomperts, B. Mennucci, H. P. Hratchian, 
 J. V. Ortiz, A. F. Izmaylov, J. L. Sonnenberg, D. Williams-Young, 
 F. Ding, F. Lipparini, F. Egidi, J. Goings, B. Peng, A. Petrone, 
 T. Henderson, D. Ranasinghe, V. G. Zakrzewski, J. Gao, N. Rega, 
 G. Zheng, W. Liang, M. Hada, M. Ehara, K. Toyota, R. Fukuda, 
 J. Hasegawa, M. Ishida, T. Nakajima, Y. Honda, O. Kitao, H. Nakai, 
 T. Vreven, K. Throssell, J. A. Montgomery, Jr., J. E. Peralta, 
 F. Ogliaro, M. J. Bearpark, J. J. Heyd, E. N. Brothers, K. N. Kudin, 
 V. N. Staroverov, T. A. Keith, R. Kobayashi, J. Normand, 
 K. Raghavachari, A. P. Rendell, J. C. Burant, S. S. Iyengar, 
 J. Tomasi, M. Cossi, J. M. Millam, M. Klene, C. Adamo, R. Cammi, 
 J. W. Ochterski, R. L. Martin, K. Morokuma, O. Farkas, 
 J. B. Foresman, and D. J. Fox, Gaussian, Inc., Wallingford CT, 2016.
 
 ******************************************
 Gaussian 16:  ES64L-G16RevB.01 20-Dec-2017
                 4-Aug-2020 
 ******************************************
 %chk=scr.chk
 %nproc=24
 Will use up to   24 processors via shared memory.
 %mem=48GB
 ----------------------------------------------------------------------
 #p uwb97xd guess=mix def2tzvp # scrf=(iefpcm,solvent=Cyclohexane,read)
  nosym guess=only pop=none
 ----------------------------------------------------------------------
 1/38=1,40=2,172=1/1;
 2/12=2,15=1,17=6,18=5,40=1/2;
 3/5=44,7=101,11=2,25=1,30=1,70=2203,72=17,74=-58,89=1,116=2/1,2;
 4/13=-1/1;
 99/5=2/99;
 Leave Link    1 at Tue Aug  4 21:31:43 2020, MaxMem=  6442450944 cpu:               1.4 elap:               0.1
 (Enter /scratch/scicomp/CentOS/7.3.1611/Haswell/software/Gaussian/g16/l101.exe)
 -------------------------------------------------
 endo-2 xp-pcm with Vmol=95.7726100512575 cm^3/mol
 -------------------------------------------------
 Symbolic Z-matrix:
 Charge =  0 Multiplicity = 1
 6                    -3.09327  -0.43597   0.30043 
 6                    -0.86674  -0.2891   -1.44543 
 1                    -3.98614  -0.5048    0.91094 
 1                     0.03031  -0.22494  -2.04978 
 6                     1.26235   1.45252   0.93454 
 6                     0.86674   0.2891    1.44543 
 1                     0.68836   2.35534   1.10715 
 1                    -0.03031   0.22494   2.04978 
 6                     1.68381  -0.95718   1.2565 
 1                     2.34862  -1.06206   2.12426 
 1                     1.03589  -1.8353    1.25879 
 6                     2.49032   1.53821   0.14185 
 1                     2.89306   2.51671  -0.09095 
 6                     3.09327   0.43597  -0.30043 
 1                     3.98614   0.5048   -0.91094 
 6                     2.51185  -0.92452  -0.02945 
 1                     1.87905  -1.20282  -0.881 
 1                     3.30259  -1.67529   0.01828 
 6                    -1.26235  -1.45252  -0.93454 
 1                    -0.68836  -2.35534  -1.10715 
 6                    -2.49032  -1.53821  -0.14185 
 1                    -2.89306  -2.51671   0.09095 
 6                    -1.68381   0.95718  -1.2565 
 1                    -1.03589   1.8353   -1.25879 
 1                    -2.34862   1.06206  -2.12426 
 6                    -2.51185   0.92452   0.02945 
 1                    -3.30259   1.67529  -0.01828 
 1                    -1.87905   1.20282   0.881 
 
 ITRead=  0  0  0  0  0  0  0  0  0  0  0  0  0  0  0  0  0  0  0  0
 ITRead=  0  0  0  0  0  0  0  0
 MicOpt= -1 -1 -1 -1 -1 -1 -1 -1 -1 -1 -1 -1 -1 -1 -1 -1 -1 -1 -1 -1
 MicOpt= -1 -1 -1 -1 -1 -1 -1 -1
 NAtoms=     28 NQM=       28 NQMF=       0 NMMI=      0 NMMIF=      0
                NMic=       0 NMicF=      0.
                    Isotopes and Nuclear Properties:
 (Nuclear quadrupole moments (NQMom) in fm**2, nuclear magnetic moments (NMagM)
  in nuclear magnetons)

  Atom         1           2           3           4           5           6           7           8           9          10
 IAtWgt=          12          12           1           1          12          12           1           1          12           1
 AtmWgt=  12.0000000  12.0000000   1.0078250   1.0078250  12.0000000  12.0000000   1.0078250   1.0078250  12.0000000   1.0078250
 NucSpn=           0           0           1           1           0           0           1           1           0           1
 AtZEff=  -0.0000000  -0.0000000  -0.0000000  -0.0000000  -0.0000000  -0.0000000  -0.0000000  -0.0000000  -0.0000000  -0.0000000
 NQMom=    0.0000000   0.0000000   0.0000000   0.0000000   0.0000000   0.0000000   0.0000000   0.0000000   0.0000000   0.0000000
 NMagM=    0.0000000   0.0000000   2.7928460   2.7928460   0.0000000   0.0000000   2.7928460   2.7928460   0.0000000   2.7928460
 AtZNuc=   6.0000000   6.0000000   1.0000000   1.0000000   6.0000000   6.0000000   1.0000000   1.0000000   6.0000000   1.0000000

  Atom        11          12          13          14          15          16          17          18          19          20
 IAtWgt=           1          12           1          12           1          12           1           1          12           1
 AtmWgt=   1.0078250  12.0000000   1.0078250  12.0000000   1.0078250  12.0000000   1.0078250   1.0078250  12.0000000   1.0078250
 NucSpn=           1           0           1           0           1           0           1           1           0           1
 AtZEff=  -0.0000000  -0.0000000  -0.0000000  -0.0000000  -0.0000000  -0.0000000  -0.0000000  -0.0000000  -0.0000000  -0.0000000
 NQMom=    0.0000000   0.0000000   0.0000000   0.0000000   0.0000000   0.0000000   0.0000000   0.0000000   0.0000000   0.0000000
 NMagM=    2.7928460   0.0000000   2.7928460   0.0000000   2.7928460   0.0000000   2.7928460   2.7928460   0.0000000   2.7928460
 AtZNuc=   1.0000000   6.0000000   1.0000000   6.0000000   1.0000000   6.0000000   1.0000000   1.0000000   6.0000000   1.0000000

  Atom        21          22          23          24          25          26          27          28
 IAtWgt=          12           1          12           1           1          12           1           1
 AtmWgt=  12.0000000   1.0078250  12.0000000   1.0078250   1.0078250  12.0000000   1.0078250   1.0078250
 NucSpn=           0           1           0           1           1           0           1           1
 AtZEff=  -0.0000000  -0.0000000  -0.0000000  -0.0000000  -0.0000000  -0.0000000  -0.0000000  -0.0000000
 NQMom=    0.0000000   0.0000000   0.0000000   0.0000000   0.0000000   0.0000000   0.0000000   0.0000000
 NMagM=    0.0000000   2.7928460   0.0000000   2.7928460   2.7928460   0.0000000   2.7928460   2.7928460
 AtZNuc=   6.0000000   1.0000000   6.0000000   1.0000000   1.0000000   6.0000000   1.0000000   1.0000000
 Leave Link  101 at Tue Aug  4 21:31:43 2020, MaxMem=  6442450944 cpu:               2.4 elap:               0.1
 (Enter /scratch/scicomp/CentOS/7.3.1611/Haswell/software/Gaussian/g16/l202.exe)
                          Input orientation:                          
 ---------------------------------------------------------------------
 Center     Atomic      Atomic             Coordinates (Angstroms)
 Number     Number       Type             X           Y           Z
 ---------------------------------------------------------------------
      1          6           0       -3.093267   -0.435973    0.300434
      2          6           0       -0.866740   -0.289096   -1.445431
      3          1           0       -3.986142   -0.504800    0.910939
      4          1           0        0.030308   -0.224943   -2.049778
      5          6           0        1.262349    1.452521    0.934535
      6          6           0        0.866740    0.289096    1.445431
      7          1           0        0.688360    2.355340    1.107147
      8          1           0       -0.030308    0.224943    2.049778
      9          6           0        1.683814   -0.957175    1.256502
     10          1           0        2.348618   -1.062059    2.124256
     11          1           0        1.035891   -1.835298    1.258793
     12          6           0        2.490317    1.538213    0.141849
     13          1           0        2.893062    2.516708   -0.090946
     14          6           0        3.093267    0.435973   -0.300434
     15          1           0        3.986142    0.504800   -0.910939
     16          6           0        2.511845   -0.924519   -0.029450
     17          1           0        1.879054   -1.202820   -0.880995
     18          1           0        3.302586   -1.675290    0.018282
     19          6           0       -1.262349   -1.452521   -0.934535
     20          1           0       -0.688360   -2.355340   -1.107147
     21          6           0       -2.490317   -1.538213   -0.141849
     22          1           0       -2.893062   -2.516708    0.090946
     23          6           0       -1.683814    0.957175   -1.256502
     24          1           0       -1.035891    1.835298   -1.258793
     25          1           0       -2.348618    1.062059   -2.124256
     26          6           0       -2.511845    0.924519    0.029450
     27          1           0       -3.302586    1.675290   -0.018282
     28          1           0       -1.879054    1.202820    0.880995
 ---------------------------------------------------------------------
                    Distance matrix (angstroms):
                    1          2          3          4          5
     1  C    0.000000
     2  C    2.833203   0.000000
     3  H    1.083826   3.915313   0.000000
     4  H    3.914684   1.083534   4.997603   0.000000
     5  C    4.789560   3.637374   5.601635   3.638397   0.000000
     6  C    4.185499   3.419992   4.946354   3.630474   1.330819
     7  H    4.768953   3.990869   5.483600   4.130020   1.083670
     8  H    3.588695   3.630474   4.180682   4.124613   2.102778
     9  C    4.899614   3.775195   5.698461   3.768519   2.467373
    10  H    5.773424   4.866073   6.473937   4.847462   2.986391
    11  H    4.463912   3.650147   5.206923   3.814588   3.311522
    12  C    5.924438   4.138641   6.834466   3.736789   1.464104
    13  H    6.686377   4.882958   7.580022   4.421429   2.200757
    14  C    6.276507   4.185499   7.243653   3.588695   2.431209
    15  H    7.243653   4.946354   8.239893   4.180682   3.423886
    16  C    5.636025   3.718010   6.579083   3.275539   2.853213
    17  H    5.167959   2.948366   6.172421   2.395863   3.275257
    18  H    6.520924   4.631120   7.435889   4.133785   3.845164
    19  C    2.431209   1.330819   3.423886   2.102778   4.278644
    20  H    3.383612   2.101338   4.286320   2.437956   4.740626
    21  C    1.331952   2.428090   2.100904   3.423218   4.917885
    22  H    2.100815   3.380635   2.432074   4.287304   5.808086
    23  C    2.520212   1.502164   3.483660   2.228206   3.704846
    24  H    3.438409   2.139275   4.346007   2.450924   3.199861
    25  H    2.945798   2.117165   3.788000   2.705773   4.748447
    26  C    1.504135   2.520815   2.234620   3.479511   3.916951
    27  H    2.145420   3.439319   2.466474   4.341203   4.668631
    28  H    2.120615   2.943272   2.712321   3.778042   3.151766
                    6          7          8          9         10
     6  C    0.000000
     7  H    2.101338   0.000000
     8  H    1.083534   2.437956   0.000000
     9  C    1.502164   3.462079   2.228206   0.000000
    10  H    2.117165   3.933139   2.705773   1.098163   0.000000
    11  H    2.139275   4.207757   2.450924   1.091288   1.752192
    12  C    2.428090   2.201487   3.423218   2.849537   3.272832
    13  H    3.380635   2.514394   4.287304   3.917366   4.243950
    14  C    2.833203   3.383612   3.914684   2.520212   2.945798
    15  H    3.915313   4.286320   4.997603   3.483660   3.788000
    16  C    2.520815   3.921024   3.479511   1.529828   2.164257
    17  H    2.943272   4.246288   3.778042   2.160406   3.044969
    18  H    3.439319   4.926031   4.341203   2.160856   2.391910
    19  C    3.637374   4.740626   3.638397   3.704846   4.748447
    20  H    3.990869   5.384140   4.130020   3.628899   4.619283
    21  C    4.138641   5.179163   3.736789   4.440311   5.364443
    22  H    4.882958   6.131566   4.421429   4.973777   5.807371
    23  C    3.775195   3.628899   3.768519   4.617450   5.636252
    24  H    3.650147   2.973408   3.814588   4.639117   5.594158
    25  H    4.866073   4.619283   4.847462   5.636252   6.680251
    26  C    3.718010   3.667423   3.275539   4.759200   5.653212
    27  H    4.631120   4.201989   4.133785   5.780928   6.634731
    28  H    2.948366   2.823307   2.395863   4.183373   4.954653
                   11         12         13         14         15
    11  H    0.000000
    12  C    3.839726   0.000000
    13  H    4.920451   1.083443   0.000000
    14  C    3.438409   1.331952   2.100815   0.000000
    15  H    4.346007   2.100904   2.432074   1.083826   0.000000
    16  C    2.160446   2.468776   3.462824   1.504135   2.234620
    17  H    2.385298   2.988832   3.935388   2.120615   2.712321
    18  H    2.588895   3.316874   4.213370   2.145420   2.466474
    19  C    3.199861   4.917885   5.808086   4.789560   5.601635
    20  H    2.973408   5.179163   6.131566   4.768953   5.483600
    21  C    3.805811   5.861024   6.739862   5.924438   6.834466
    22  H    4.155100   6.739862   7.671218   6.686377   7.580022
    23  C    4.639117   4.440311   4.973777   4.899614   5.698461
    24  H    4.909562   3.805811   4.155100   4.463912   5.206923
    25  H    5.594158   5.364443   5.807371   5.773424   6.473937
    26  C    4.659861   5.040920   5.635830   5.636025   6.579083
    27  H    5.725166   5.796737   6.252945   6.520924   7.435889
    28  H    4.227268   4.444123   5.044211   5.167959   6.172421
                   16         17         18         19         20
    16  C    0.000000
    17  H    1.096816   0.000000
    18  H    1.091424   1.748820   0.000000
    19  C    3.916951   3.151766   4.668631   0.000000
    20  H    3.667423   2.823307   4.201989   1.083670   0.000000
    21  C    5.040920   4.444123   5.796737   1.464104   2.201487
    22  H    5.635830   5.044211   6.252945   2.200757   2.514394
    23  C    4.759200   4.183373   5.780928   2.467373   3.462079
    24  H    4.659861   4.227268   5.725166   3.311522   4.207757
    25  H    5.653212   4.954653   6.634731   2.986391   3.933139
    26  C    5.353492   4.963313   6.369202   2.853213   3.921024
    27  H    6.369202   5.989757   7.406485   3.845164   4.926031
    28  H    4.963313   4.797404   5.989757   3.275257   4.246288
                   21         22         23         24         25
    21  C    0.000000
    22  H    1.083443   0.000000
    23  C    2.849537   3.917366   0.000000
    24  H    3.839726   4.920451   1.091288   0.000000
    25  H    3.272832   4.243950   1.098163   1.752192   0.000000
    26  C    2.468776   3.462824   1.529828   2.160446   2.164257
    27  H    3.316874   4.213370   2.160856   2.588895   2.391910
    28  H    2.988832   3.935388   2.160406   2.385298   3.044969
                   26         27         28
    26  C    0.000000
    27  H    1.091424   0.000000
    28  H    1.096816   1.748820   0.000000
 Symmetry turned off by external request.
 Stoichiometry    C12H16
 Framework group  CI[X(C12H16)]
 Deg. of freedom    39
 Full point group                 CI      NOp   2
 Rotational constants (GHZ):           1.6244635           0.5644758           0.5263311
 Leave Link  202 at Tue Aug  4 21:31:43 2020, MaxMem=  6442450944 cpu:               0.3 elap:               0.0
 (Enter /scratch/scicomp/CentOS/7.3.1611/Haswell/software/Gaussian/g16/l301.exe)
 Standard basis: def2TZVP (5D, 7F)
 Ernie: Thresh=  0.10000D-02 Tol=  0.10000D-05 Strict=F.
   468 basis functions,   740 primitive gaussians,   528 cartesian basis functions
    44 alpha electrons       44 beta electrons
       nuclear repulsion energy       666.2091593599 Hartrees.
 IExCor= 4639 DFT=T Ex+Corr=wB97XD ExCW=0 ScaHFX=  1.000000
 ScaDFX=  1.000000  1.000000  1.000000  1.000000 ScalE2=  1.000000  1.000000
 IRadAn=      5 IRanWt=     -1 IRanGd=            0 ICorTp=0 IEmpDi=121
 HFx  wShort=  0.000000 wLong=  0.200000 cFull=  0.222036 cShort=  0.000000 cLong=  0.777964
 DFx  wShort=  0.000000 wLong=  0.200000 cFull=  0.000000 cShort=  0.000000 cLong=  1.000000
 NAtoms=   28 NActive=   28 NUniq=   28 SFac= 1.00D+00 NAtFMM=   60 NAOKFM=F Big=F
 Integral buffers will be    131072 words long.
 Raffenetti 2 integral format.
 Two-electron integral symmetry is turned off.
 R6Disp:  Grimme-D2 Dispersion energy=       -0.0203121693 Hartrees.
 Nuclear repulsion after empirical dispersion term =      666.1888471906 Hartrees.
 Using the following non-standard input for PCM:
 norep  pcmdoc geomview  nodis cav g03defaults noaddsph  tsare=0.075
 Warning! Using old PCM defaults because the g03defaults keyword was found.
 These settings can be overridden by following keywords.
 nsfe=28
 Vmol=95.7726100512575 Rsolv=2.815
 --- end of non-standard input.
 Reading user-defined spheres from input:
 ISph  on   Nord    Re0     Alpha      Xe            Ye            Ze
 --- end of user-defined spheres data.
 ------------------------------------------------------------------------------
 Polarizable Continuum Model (PCM)
 =================================
 Model                : PCM.
 Atomic radii         : UA0 (Simple United Atom Topological Model).
 Polarization charges : Total charges.
 Charge compensation  : None.
 Solution method      : On-the-fly selection.
 Cavity type          : VdW (van der Waals Surface) (Alpha=1.000).
 Cavity algorithm     : GePol (No added spheres)
                        User-defined sphere list used, NSphG=   28.
                        Tesserae with average area of 0.075 Ang**2.
                        Smoothing algorithm: None.
                        Polarization charges: point-like.
                        Self-potential: constant (ISelfS= 1).
                        Self-field    : global E.n sum rule (ISelfD= 3).
 Solvent              : CycloHexane, Eps=   2.016500 Eps(inf)=   2.035188
 ------------------------------------------------------------------------------
 GePol: Number of generator spheres                  =      28
 GePol: Total number of spheres                      =      28
 GePol: Number of exposed spheres                    =      28 (100.00%)
 GePol: Number of tesserae                           =    4107
 GePol: Average area of tesserae                     =       0.06 Ang**2
 GePol: Minimum area of tessera                      =   0.10D-02 Ang**2
 GePol: Maximum area of tessera                      =    0.12395 Ang**2
 GePol: Number of small tesserae                     =       0
 GePol: Fraction of small tesserae (<1% of avg)      =       0.00%
 GePol: Total count of vertices                      =   13600
 GePol: Maximum number of vertices in a tessera      =       6
 GePol: Cavity surface area                          =    245.970 Ang**2
 GePol: Cavity volume                                =    247.438 Ang**3
 PCM non-electrostatic energy =         0.0543798648 Hartrees.
 Nuclear repulsion after PCM non-electrostatic terms =      666.2432270554 Hartrees.
 Leave Link  301 at Tue Aug  4 21:31:43 2020, MaxMem=  6442450944 cpu:               3.3 elap:               0.2
 (Enter /scratch/scicomp/CentOS/7.3.1611/Haswell/software/Gaussian/g16/l302.exe)
 NPDir=0 NMtPBC=     1 NCelOv=     1 NCel=       1 NClECP=     1 NCelD=      1
         NCelK=      1 NCelE2=     1 NClLst=     1 CellRange=     0.0.
 One-electron integrals computed using PRISM.
   1 Symmetry operations used in ECPInt.
 ECPInt:  NShTT=   19306 NPrTT=   56928 LenC2=   18449 LenP2D=   41557.
 LDataN:  DoStor=T MaxTD1= 6 Len=  172
 NBasis=   468 RedAO= T EigKep=  2.88D-05  NBF=   468
 NBsUse=   468 1.00D-06 EigRej= -1.00D+00 NBFU=   468
 Precomputing XC quadrature grid using
 IXCGrd= 4 IRadAn=           5 IRanWt=          -1 IRanGd=           0 AccXCQ= 0.00D+00.
 Generated NRdTot=       0 NPtTot=           0 NUsed=           0 NTot=          32
 NSgBfM=   526   526   526   526   526 MxSgAt=    28 MxSgA2=    28.
 Leave Link  302 at Tue Aug  4 21:31:44 2020, MaxMem=  6442450944 cpu:              11.7 elap:               0.5
 (Enter /scratch/scicomp/CentOS/7.3.1611/Haswell/software/Gaussian/g16/l401.exe)
 ExpMin= 9.52D-02 ExpMax= 1.36D+04 ExpMxC= 4.63D+02 IAcc=3 IRadAn=         5 AccDes= 0.00D+00
 Harris functional with IExCor= 4639 and IRadAn=       5 diagonalized for initial guess.
 HarFok:  IExCor= 4639 AccDes= 0.00D+00 IRadAn=         5 IDoV= 1 UseB2=F ITyADJ=14
 ICtDFT=  3500011 ScaDFX=  1.000000  1.000000  1.000000  1.000000
 FoFCou: FMM=F IPFlag=           0 FMFlag=      100000 FMFlg1=           0
         NFxFlg=           0 DoJE=T BraDBF=F KetDBF=T FulRan=T
         wScrn=  0.000000 ICntrl=       500 IOpCl=  0 I1Cent=   200000004 NGrid=           0
         NMat0=    1 NMatS0=      1 NMatT0=    0 NMatD0=    1 NMtDS0=    0 NMtDT0=    0
 Symmetry not used in FoFCou.
 Harris En= -444.585051312901    
 JPrj=0 DoOrth=F DoCkMO=T.
 Mixing orbitals, IMix= 1 IMixAn=  0 NRI=1 NE=   44 Coef=  7.07106781D-01  7.07106781D-01
 Mixing orbitals, IMix= 1 IMixAn=  0 NRI=1 NE=   44 Coef= -7.07106781D-01  7.07106781D-01
 Initial guess <Sx>= 0.0000 <Sy>= 0.0000 <Sz>= 0.0000 <S**2>= 1.0000 S= 0.6180
 Leave Link  401 at Tue Aug  4 21:31:46 2020, MaxMem=  6442450944 cpu:              46.3 elap:               2.0
 (Enter /scratch/scicomp/CentOS/7.3.1611/Haswell/software/Gaussian/g16/l9999.exe)

 This type of calculation cannot be archived.


 A politician is a person who can make waves and then
 make you think he's the only one who can save the ship.
 -- Ivern Ball
 Job cpu time:       0 days  0 hours  1 minutes  6.2 seconds.
 Elapsed time:       0 days  0 hours  0 minutes  3.0 seconds.
 File lengths (MBytes):  RWF=    316 Int=      0 D2E=      0 Chk=      1 Scr=      1
 Normal termination of Gaussian 16 at Tue Aug  4 21:31:46 2020.
 Initial command:
 /scratch/scicomp/CentOS/7.3.1611/Haswell/software/Gaussian/g16/l1.exe "/scratch/bochen/cyclohexadiene-dimerization/wb97xd-def2tzvp/xp-pcm/meso/Gau-54952.inp" -scrdir="/scratch/bochen/cyclohexadiene-dimerization/wb97xd-def2tzvp/xp-pcm/meso/"
 Entering Link 1 = /scratch/scicomp/CentOS/7.3.1611/Haswell/software/Gaussian/g16/l1.exe PID=     55442.
  
 Copyright (c) 1988-2017, Gaussian, Inc.  All Rights Reserved.
  
 This is part of the Gaussian(R) 16 program.  It is based on
 the Gaussian(R) 09 system (copyright 2009, Gaussian, Inc.),
 the Gaussian(R) 03 system (copyright 2003, Gaussian, Inc.),
 the Gaussian(R) 98 system (copyright 1998, Gaussian, Inc.),
 the Gaussian(R) 94 system (copyright 1995, Gaussian, Inc.),
 the Gaussian 92(TM) system (copyright 1992, Gaussian, Inc.),
 the Gaussian 90(TM) system (copyright 1990, Gaussian, Inc.),
 the Gaussian 88(TM) system (copyright 1988, Gaussian, Inc.),
 the Gaussian 86(TM) system (copyright 1986, Carnegie Mellon
 University), and the Gaussian 82(TM) system (copyright 1983,
 Carnegie Mellon University). Gaussian is a federally registered
 trademark of Gaussian, Inc.
  
 This software contains proprietary and confidential information,
 including trade secrets, belonging to Gaussian, Inc.
  
 This software is provided under written license and may be
 used, copied, transmitted, or stored only in accord with that
 written license.
  
 The following legend is applicable only to US Government
 contracts under FAR:
  
                    RESTRICTED RIGHTS LEGEND
  
 Use, reproduction and disclosure by the US Government is
 subject to restrictions as set forth in subparagraphs (a)
 and (c) of the Commercial Computer Software - Restricted
 Rights clause in FAR 52.227-19.
  
 Gaussian, Inc.
 340 Quinnipiac St., Bldg. 40, Wallingford CT 06492
  
  
 ---------------------------------------------------------------
 Warning -- This program may not be used in any manner that
 competes with the business of Gaussian, Inc. or will provide
 assistance to any competitor of Gaussian, Inc.  The licensee
 of this program is prohibited from giving any competitor of
 Gaussian, Inc. access to this program.  By using this program,
 the user acknowledges that Gaussian, Inc. is engaged in the
 business of creating and licensing software in the field of
 computational chemistry and represents and warrants to the
 licensee that it is not a competitor of Gaussian, Inc. and that
 it will not use this program in any manner prohibited above.
 ---------------------------------------------------------------
  

 Cite this work as:
 Gaussian 16, Revision B.01,
 M. J. Frisch, G. W. Trucks, H. B. Schlegel, G. E. Scuseria, 
 M. A. Robb, J. R. Cheeseman, G. Scalmani, V. Barone, 
 G. A. Petersson, H. Nakatsuji, X. Li, M. Caricato, A. V. Marenich, 
 J. Bloino, B. G. Janesko, R. Gomperts, B. Mennucci, H. P. Hratchian, 
 J. V. Ortiz, A. F. Izmaylov, J. L. Sonnenberg, D. Williams-Young, 
 F. Ding, F. Lipparini, F. Egidi, J. Goings, B. Peng, A. Petrone, 
 T. Henderson, D. Ranasinghe, V. G. Zakrzewski, J. Gao, N. Rega, 
 G. Zheng, W. Liang, M. Hada, M. Ehara, K. Toyota, R. Fukuda, 
 J. Hasegawa, M. Ishida, T. Nakajima, Y. Honda, O. Kitao, H. Nakai, 
 T. Vreven, K. Throssell, J. A. Montgomery, Jr., J. E. Peralta, 
 F. Ogliaro, M. J. Bearpark, J. J. Heyd, E. N. Brothers, K. N. Kudin, 
 V. N. Staroverov, T. A. Keith, R. Kobayashi, J. Normand, 
 K. Raghavachari, A. P. Rendell, J. C. Burant, S. S. Iyengar, 
 J. Tomasi, M. Cossi, J. M. Millam, M. Klene, C. Adamo, R. Cammi, 
 J. W. Ochterski, R. L. Martin, K. Morokuma, O. Farkas, 
 J. B. Foresman, and D. J. Fox, Gaussian, Inc., Wallingford CT, 2016.
 
 ******************************************
 Gaussian 16:  ES64L-G16RevB.01 20-Dec-2017
                 4-Aug-2020 
 ******************************************
 %chk=scr.chk
 %nproc=24
 Will use up to   24 processors via shared memory.
 %mem=48GB
 ----------------------------------------------------------------------
 #p uwb97xd guess=mix def2tzvp # scrf=(iefpcm,solvent=Cyclohexane,read)
  nosym guess=only pop=none
 ----------------------------------------------------------------------
 1/38=1,40=2,172=1/1;
 2/12=2,15=1,17=6,18=5,40=1/2;
 3/5=44,7=101,11=2,25=1,30=1,70=2203,72=17,74=-58,89=1,116=2/1,2;
 4/13=-1/1;
 99/5=2/99;
 Leave Link    1 at Tue Aug  4 21:31:46 2020, MaxMem=  6442450944 cpu:               1.4 elap:               0.1
 (Enter /scratch/scicomp/CentOS/7.3.1611/Haswell/software/Gaussian/g16/l101.exe)
 -----------------------------------------------
 endo-2 xp-pcm with Vmol=89.84123994485 cm^3/mol
 -----------------------------------------------
 Symbolic Z-matrix:
 Charge =  0 Multiplicity = 1
 6                    -3.09327  -0.43597   0.30043 
 6                    -0.86674  -0.2891   -1.44543 
 1                    -3.98614  -0.5048    0.91094 
 1                     0.03031  -0.22494  -2.04978 
 6                     1.26235   1.45252   0.93454 
 6                     0.86674   0.2891    1.44543 
 1                     0.68836   2.35534   1.10715 
 1                    -0.03031   0.22494   2.04978 
 6                     1.68381  -0.95718   1.2565 
 1                     2.34862  -1.06206   2.12426 
 1                     1.03589  -1.8353    1.25879 
 6                     2.49032   1.53821   0.14185 
 1                     2.89306   2.51671  -0.09095 
 6                     3.09327   0.43597  -0.30043 
 1                     3.98614   0.5048   -0.91094 
[...]
 6                     1.26235   1.45252   0.93454 
 6                     0.86674   0.2891    1.44543 
 1                     0.68836   2.35534   1.10715 
 1                    -0.03031   0.22494   2.04978 
 6                     1.68381  -0.95718   1.2565 
 1                     2.34862  -1.06206   2.12426 
 1                     1.03589  -1.8353    1.25879 
 6                     2.49032   1.53821   0.14185 
 1                     2.89306   2.51671  -0.09095 
 6                     3.09327   0.43597  -0.30043 
 1                     3.98614   0.5048   -0.91094 
 6                     2.51185  -0.92452  -0.02945 
 1                     1.87905  -1.20282  -0.881 
 1                     3.30259  -1.67529   0.01828 
 6                    -1.26235  -1.45252  -0.93454 
 1                    -0.68836  -2.35534  -1.10715 
 6                    -2.49032  -1.53821  -0.14185 
 1                    -2.89306  -2.51671   0.09095 
 6                    -1.68381   0.95718  -1.2565 
 1                    -1.03589   1.8353   -1.25879 
 1                    -2.34862   1.06206  -2.12426 
 6                    -2.51185   0.92452   0.02945 
 1                    -3.30259   1.67529  -0.01828 
 1                    -1.87905   1.20282   0.881 
 
 ITRead=  0  0  0  0  0  0  0  0  0  0  0  0  0  0  0  0  0  0  0  0
 ITRead=  0  0  0  0  0  0  0  0
 MicOpt= -1 -1 -1 -1 -1 -1 -1 -1 -1 -1 -1 -1 -1 -1 -1 -1 -1 -1 -1 -1
 MicOpt= -1 -1 -1 -1 -1 -1 -1 -1
 NAtoms=     28 NQM=       28 NQMF=       0 NMMI=      0 NMMIF=      0
                NMic=       0 NMicF=      0.
                    Isotopes and Nuclear Properties:
 (Nuclear quadrupole moments (NQMom) in fm**2, nuclear magnetic moments (NMagM)
  in nuclear magnetons)

  Atom         1           2           3           4           5           6           7           8           9          10
 IAtWgt=          12          12           1           1          12          12           1           1          12           1
 AtmWgt=  12.0000000  12.0000000   1.0078250   1.0078250  12.0000000  12.0000000   1.0078250   1.0078250  12.0000000   1.0078250
 NucSpn=           0           0           1           1           0           0           1           1           0           1
 AtZEff=  -0.0000000  -0.0000000  -0.0000000  -0.0000000  -0.0000000  -0.0000000  -0.0000000  -0.0000000  -0.0000000  -0.0000000
 NQMom=    0.0000000   0.0000000   0.0000000   0.0000000   0.0000000   0.0000000   0.0000000   0.0000000   0.0000000   0.0000000
 NMagM=    0.0000000   0.0000000   2.7928460   2.7928460   0.0000000   0.0000000   2.7928460   2.7928460   0.0000000   2.7928460
 AtZNuc=   6.0000000   6.0000000   1.0000000   1.0000000   6.0000000   6.0000000   1.0000000   1.0000000   6.0000000   1.0000000

  Atom        11          12          13          14          15          16          17          18          19          20
 IAtWgt=           1          12           1          12           1          12           1           1          12           1
 AtmWgt=   1.0078250  12.0000000   1.0078250  12.0000000   1.0078250  12.0000000   1.0078250   1.0078250  12.0000000   1.0078250
 NucSpn=           1           0           1           0           1           0           1           1           0           1
 AtZEff=  -0.0000000  -0.0000000  -0.0000000  -0.0000000  -0.0000000  -0.0000000  -0.0000000  -0.0000000  -0.0000000  -0.0000000
 NQMom=    0.0000000   0.0000000   0.0000000   0.0000000   0.0000000   0.0000000   0.0000000   0.0000000   0.0000000   0.0000000
 NMagM=    2.7928460   0.0000000   2.7928460   0.0000000   2.7928460   0.0000000   2.7928460   2.7928460   0.0000000   2.7928460
 AtZNuc=   1.0000000   6.0000000   1.0000000   6.0000000   1.0000000   6.0000000   1.0000000   1.0000000   6.0000000   1.0000000

  Atom        21          22          23          24          25          26          27          28
 IAtWgt=          12           1          12           1           1          12           1           1
 AtmWgt=  12.0000000   1.0078250  12.0000000   1.0078250   1.0078250  12.0000000   1.0078250   1.0078250
 NucSpn=           0           1           0           1           1           0           1           1
 AtZEff=  -0.0000000  -0.0000000  -0.0000000  -0.0000000  -0.0000000  -0.0000000  -0.0000000  -0.0000000
 NQMom=    0.0000000   0.0000000   0.0000000   0.0000000   0.0000000   0.0000000   0.0000000   0.0000000
 NMagM=    0.0000000   2.7928460   0.0000000   2.7928460   2.7928460   0.0000000   2.7928460   2.7928460
 AtZNuc=   6.0000000   1.0000000   6.0000000   1.0000000   1.0000000   6.0000000   1.0000000   1.0000000
 Leave Link  101 at Tue Aug  4 21:31:57 2020, MaxMem=  6442450944 cpu:               2.4 elap:               0.1
 (Enter /scratch/scicomp/CentOS/7.3.1611/Haswell/software/Gaussian/g16/l202.exe)
                          Input orientation:                          
 ---------------------------------------------------------------------
 Center     Atomic      Atomic             Coordinates (Angstroms)
 Number     Number       Type             X           Y           Z
 ---------------------------------------------------------------------
      1          6           0       -3.093267   -0.435973    0.300434
      2          6           0       -0.866740   -0.289096   -1.445431
      3          1           0       -3.986142   -0.504800    0.910939
      4          1           0        0.030308   -0.224943   -2.049778
      5          6           0        1.262349    1.452521    0.934535
      6          6           0        0.866740    0.289096    1.445431
      7          1           0        0.688360    2.355340    1.107147
      8          1           0       -0.030308    0.224943    2.049778
      9          6           0        1.683814   -0.957175    1.256502
     10          1           0        2.348618   -1.062059    2.124256
     11          1           0        1.035891   -1.835298    1.258793
     12          6           0        2.490317    1.538213    0.141849
     13          1           0        2.893062    2.516708   -0.090946
     14          6           0        3.093267    0.435973   -0.300434
     15          1           0        3.986142    0.504800   -0.910939
     16          6           0        2.511845   -0.924519   -0.029450
     17          1           0        1.879054   -1.202820   -0.880995
     18          1           0        3.302586   -1.675290    0.018282
     19          6           0       -1.262349   -1.452521   -0.934535
     20          1           0       -0.688360   -2.355340   -1.107147
     21          6           0       -2.490317   -1.538213   -0.141849
     22          1           0       -2.893062   -2.516708    0.090946
     23          6           0       -1.683814    0.957175   -1.256502
     24          1           0       -1.035891    1.835298   -1.258793
     25          1           0       -2.348618    1.062059   -2.124256
     26          6           0       -2.511845    0.924519    0.029450
     27          1           0       -3.302586    1.675290   -0.018282
     28          1           0       -1.879054    1.202820    0.880995
 ---------------------------------------------------------------------
                    Distance matrix (angstroms):
                    1          2          3          4          5
     1  C    0.000000
     2  C    2.833203   0.000000
     3  H    1.083826   3.915313   0.000000
     4  H    3.914684   1.083534   4.997603   0.000000
     5  C    4.789560   3.637374   5.601635   3.638397   0.000000
     6  C    4.185499   3.419992   4.946354   3.630474   1.330819
     7  H    4.768953   3.990869   5.483600   4.130020   1.083670
     8  H    3.588695   3.630474   4.180682   4.124613   2.102778
     9  C    4.899614   3.775195   5.698461   3.768519   2.467373
    10  H    5.773424   4.866073   6.473937   4.847462   2.986391
    11  H    4.463912   3.650147   5.206923   3.814588   3.311522
    12  C    5.924438   4.138641   6.834466   3.736789   1.464104
    13  H    6.686377   4.882958   7.580022   4.421429   2.200757
    14  C    6.276507   4.185499   7.243653   3.588695   2.431209
    15  H    7.243653   4.946354   8.239893   4.180682   3.423886
    16  C    5.636025   3.718010   6.579083   3.275539   2.853213
    17  H    5.167959   2.948366   6.172421   2.395863   3.275257
    18  H    6.520924   4.631120   7.435889   4.133785   3.845164
    19  C    2.431209   1.330819   3.423886   2.102778   4.278644
    20  H    3.383612   2.101338   4.286320   2.437956   4.740626
    21  C    1.331952   2.428090   2.100904   3.423218   4.917885
    22  H    2.100815   3.380635   2.432074   4.287304   5.808086
    23  C    2.520212   1.502164   3.483660   2.228206   3.704846
    24  H    3.438409   2.139275   4.346007   2.450924   3.199861
    25  H    2.945798   2.117165   3.788000   2.705773   4.748447
    26  C    1.504135   2.520815   2.234620   3.479511   3.916951
    27  H    2.145420   3.439319   2.466474   4.341203   4.668631
    28  H    2.120615   2.943272   2.712321   3.778042   3.151766
                    6          7          8          9         10
     6  C    0.000000
     7  H    2.101338   0.000000
     8  H    1.083534   2.437956   0.000000
     9  C    1.502164   3.462079   2.228206   0.000000
    10  H    2.117165   3.933139   2.705773   1.098163   0.000000
    11  H    2.139275   4.207757   2.450924   1.091288   1.752192
    12  C    2.428090   2.201487   3.423218   2.849537   3.272832
    13  H    3.380635   2.514394   4.287304   3.917366   4.243950
    14  C    2.833203   3.383612   3.914684   2.520212   2.945798
    15  H    3.915313   4.286320   4.997603   3.483660   3.788000
    16  C    2.520815   3.921024   3.479511   1.529828   2.164257
    17  H    2.943272   4.246288   3.778042   2.160406   3.044969
    18  H    3.439319   4.926031   4.341203   2.160856   2.391910
    19  C    3.637374   4.740626   3.638397   3.704846   4.748447
    20  H    3.990869   5.384140   4.130020   3.628899   4.619283
    21  C    4.138641   5.179163   3.736789   4.440311   5.364443
    22  H    4.882958   6.131566   4.421429   4.973777   5.807371
    23  C    3.775195   3.628899   3.768519   4.617450   5.636252
    24  H    3.650147   2.973408   3.814588   4.639117   5.594158
    25  H    4.866073   4.619283   4.847462   5.636252   6.680251
    26  C    3.718010   3.667423   3.275539   4.759200   5.653212
    27  H    4.631120   4.201989   4.133785   5.780928   6.634731
    28  H    2.948366   2.823307   2.395863   4.183373   4.954653
                   11         12         13         14         15
    11  H    0.000000
    12  C    3.839726   0.000000
    13  H    4.920451   1.083443   0.000000
    14  C    3.438409   1.331952   2.100815   0.000000
    15  H    4.346007   2.100904   2.432074   1.083826   0.000000
    16  C    2.160446   2.468776   3.462824   1.504135   2.234620
    17  H    2.385298   2.988832   3.935388   2.120615   2.712321
    18  H    2.588895   3.316874   4.213370   2.145420   2.466474
    19  C    3.199861   4.917885   5.808086   4.789560   5.601635
    20  H    2.973408   5.179163   6.131566   4.768953   5.483600
    21  C    3.805811   5.861024   6.739862   5.924438   6.834466
    22  H    4.155100   6.739862   7.671218   6.686377   7.580022
    23  C    4.639117   4.440311   4.973777   4.899614   5.698461
    24  H    4.909562   3.805811   4.155100   4.463912   5.206923
    25  H    5.594158   5.364443   5.807371   5.773424   6.473937
    26  C    4.659861   5.040920   5.635830   5.636025   6.579083
    27  H    5.725166   5.796737   6.252945   6.520924   7.435889
    28  H    4.227268   4.444123   5.044211   5.167959   6.172421
                   16         17         18         19         20
    16  C    0.000000
    17  H    1.096816   0.000000
    18  H    1.091424   1.748820   0.000000
    19  C    3.916951   3.151766   4.668631   0.000000
    20  H    3.667423   2.823307   4.201989   1.083670   0.000000
    21  C    5.040920   4.444123   5.796737   1.464104   2.201487
    22  H    5.635830   5.044211   6.252945   2.200757   2.514394
    23  C    4.759200   4.183373   5.780928   2.467373   3.462079
    24  H    4.659861   4.227268   5.725166   3.311522   4.207757
    25  H    5.653212   4.954653   6.634731   2.986391   3.933139
    26  C    5.353492   4.963313   6.369202   2.853213   3.921024
    27  H    6.369202   5.989757   7.406485   3.845164   4.926031
    28  H    4.963313   4.797404   5.989757   3.275257   4.246288
                   21         22         23         24         25
    21  C    0.000000
    22  H    1.083443   0.000000
    23  C    2.849537   3.917366   0.000000
    24  H    3.839726   4.920451   1.091288   0.000000
    25  H    3.272832   4.243950   1.098163   1.752192   0.000000
    26  C    2.468776   3.462824   1.529828   2.160446   2.164257
    27  H    3.316874   4.213370   2.160856   2.588895   2.391910
    28  H    2.988832   3.935388   2.160406   2.385298   3.044969
                   26         27         28
    26  C    0.000000
    27  H    1.091424   0.000000
    28  H    1.096816   1.748820   0.000000
 Symmetry turned off by external request.
 Stoichiometry    C12H16
 Framework group  CI[X(C12H16)]
 Deg. of freedom    39
 Full point group                 CI      NOp   2
 Rotational constants (GHZ):           1.6244635           0.5644758           0.5263311
 Leave Link  202 at Tue Aug  4 21:31:57 2020, MaxMem=  6442450944 cpu:               0.3 elap:               0.0
 (Enter /scratch/scicomp/CentOS/7.3.1611/Haswell/software/Gaussian/g16/l301.exe)
 Standard basis: def2TZVP (5D, 7F)
 Ernie: Thresh=  0.10000D-02 Tol=  0.10000D-05 Strict=F.
   468 basis functions,   740 primitive gaussians,   528 cartesian basis functions
    44 alpha electrons       44 beta electrons
       nuclear repulsion energy       666.2091593599 Hartrees.
 IExCor= 4639 DFT=T Ex+Corr=wB97XD ExCW=0 ScaHFX=  1.000000
 ScaDFX=  1.000000  1.000000  1.000000  1.000000 ScalE2=  1.000000  1.000000
 IRadAn=      5 IRanWt=     -1 IRanGd=            0 ICorTp=0 IEmpDi=121
 HFx  wShort=  0.000000 wLong=  0.200000 cFull=  0.222036 cShort=  0.000000 cLong=  0.777964
 DFx  wShort=  0.000000 wLong=  0.200000 cFull=  0.000000 cShort=  0.000000 cLong=  1.000000
 NAtoms=   28 NActive=   28 NUniq=   28 SFac= 1.00D+00 NAtFMM=   60 NAOKFM=F Big=F
 Integral buffers will be    131072 words long.
 Raffenetti 2 integral format.
 Two-electron integral symmetry is turned off.
 R6Disp:  Grimme-D2 Dispersion energy=       -0.0203121693 Hartrees.
 Nuclear repulsion after empirical dispersion term =      666.1888471906 Hartrees.
 Using the following non-standard input for PCM:
 norep  pcmdoc geomview  nodis cav g03defaults noaddsph  tsare=0.075
 Warning! Using old PCM defaults because the g03defaults keyword was found.
 These settings can be overridden by following keywords.
 nsfe=28
 Vmol=78.9041178242053 Rsolv=2.815
 --- end of non-standard input.
 Reading user-defined spheres from input:
 ISph  on   Nord    Re0     Alpha      Xe            Ye            Ze
 --- end of user-defined spheres data.
 ------------------------------------------------------------------------------
 Polarizable Continuum Model (PCM)
 =================================
 Model                : PCM.
 Atomic radii         : UA0 (Simple United Atom Topological Model).
 Polarization charges : Total charges.
 Charge compensation  : None.
 Solution method      : On-the-fly selection.
 Cavity type          : VdW (van der Waals Surface) (Alpha=1.000).
 Cavity algorithm     : GePol (No added spheres)
                        User-defined sphere list used, NSphG=   28.
                        Tesserae with average area of 0.075 Ang**2.
                        Smoothing algorithm: None.
                        Polarization charges: point-like.
                        Self-potential: constant (ISelfS= 1).
                        Self-field    : global E.n sum rule (ISelfD= 3).
 Solvent              : CycloHexane, Eps=   2.016500 Eps(inf)=   2.035188
 ------------------------------------------------------------------------------
 GePol: Number of generator spheres                  =      28
 GePol: Total number of spheres                      =      28
 GePol: Number of exposed spheres                    =      28 (100.00%)
 GePol: Number of tesserae                           =    4107
 GePol: Average area of tesserae                     =       0.06 Ang**2
 GePol: Minimum area of tessera                      =   0.10D-02 Ang**2
 GePol: Maximum area of tessera                      =    0.12395 Ang**2
 GePol: Number of small tesserae                     =       0
 GePol: Fraction of small tesserae (<1% of avg)      =       0.00%
 GePol: Total count of vertices                      =   13600
 GePol: Maximum number of vertices in a tessera      =       6
 GePol: Cavity surface area                          =    245.970 Ang**2
 GePol: Cavity volume                                =    247.438 Ang**3
 PCM non-electrostatic energy =         0.1205749590 Hartrees.
 Nuclear repulsion after PCM non-electrostatic terms =      666.3094221496 Hartrees.
 Leave Link  301 at Tue Aug  4 21:31:57 2020, MaxMem=  6442450944 cpu:               3.2 elap:               0.2
 (Enter /scratch/scicomp/CentOS/7.3.1611/Haswell/software/Gaussian/g16/l302.exe)
 NPDir=0 NMtPBC=     1 NCelOv=     1 NCel=       1 NClECP=     1 NCelD=      1
         NCelK=      1 NCelE2=     1 NClLst=     1 CellRange=     0.0.
 One-electron integrals computed using PRISM.
   1 Symmetry operations used in ECPInt.
 ECPInt:  NShTT=   19306 NPrTT=   56928 LenC2=   18449 LenP2D=   41557.
 LDataN:  DoStor=T MaxTD1= 6 Len=  172
 NBasis=   468 RedAO= T EigKep=  2.88D-05  NBF=   468
 NBsUse=   468 1.00D-06 EigRej= -1.00D+00 NBFU=   468
 Precomputing XC quadrature grid using
 IXCGrd= 4 IRadAn=           5 IRanWt=          -1 IRanGd=           0 AccXCQ= 0.00D+00.
 Generated NRdTot=       0 NPtTot=           0 NUsed=           0 NTot=          32
 NSgBfM=   526   526   526   526   526 MxSgAt=    28 MxSgA2=    28.
 Leave Link  302 at Tue Aug  4 21:31:58 2020, MaxMem=  6442450944 cpu:              11.7 elap:               0.5
 (Enter /scratch/scicomp/CentOS/7.3.1611/Haswell/software/Gaussian/g16/l401.exe)
 ExpMin= 9.52D-02 ExpMax= 1.36D+04 ExpMxC= 4.63D+02 IAcc=3 IRadAn=         5 AccDes= 0.00D+00
 Harris functional with IExCor= 4639 and IRadAn=       5 diagonalized for initial guess.
 HarFok:  IExCor= 4639 AccDes= 0.00D+00 IRadAn=         5 IDoV= 1 UseB2=F ITyADJ=14
 ICtDFT=  3500011 ScaDFX=  1.000000  1.000000  1.000000  1.000000
 FoFCou: FMM=F IPFlag=           0 FMFlag=      100000 FMFlg1=           0
         NFxFlg=           0 DoJE=T BraDBF=F KetDBF=T FulRan=T
         wScrn=  0.000000 ICntrl=       500 IOpCl=  0 I1Cent=   200000004 NGrid=           0
         NMat0=    1 NMatS0=      1 NMatT0=    0 NMatD0=    1 NMtDS0=    0 NMtDT0=    0
 Symmetry not used in FoFCou.
 Harris En= -444.518856218675    
 JPrj=0 DoOrth=F DoCkMO=T.
 Mixing orbitals, IMix= 1 IMixAn=  0 NRI=1 NE=   44 Coef=  7.07106781D-01  7.07106781D-01
 Mixing orbitals, IMix= 1 IMixAn=  0 NRI=1 NE=   44 Coef= -7.07106781D-01  7.07106781D-01
 Initial guess <Sx>= 0.0000 <Sy>= 0.0000 <Sz>= 0.0000 <S**2>= 1.0000 S= 0.6180
 Leave Link  401 at Tue Aug  4 21:32:00 2020, MaxMem=  6442450944 cpu:              46.0 elap:               2.0
 (Enter /scratch/scicomp/CentOS/7.3.1611/Haswell/software/Gaussian/g16/l9999.exe)

 This type of calculation cannot be archived.


 MARY HAD A LITTLE LAMB
      HIS FEET WERE BLACK AS SOOT,
           AND EVERYWHERE THAT MARY WENT
                HIS SOOTY FOOT HE PUT.

                    -- NONAME
 Job cpu time:       0 days  0 hours  1 minutes  5.9 seconds.
 Elapsed time:       0 days  0 hours  0 minutes  3.0 seconds.
 File lengths (MBytes):  RWF=    316 Int=      0 D2E=      0 Chk=      1 Scr=      1
 Normal termination of Gaussian 16 at Tue Aug  4 21:32:00 2020.
