 Entering Gaussian System, Link 0=g16
 Input=meso-TS_85_2_xp-Gcav.com
 Output=meso-TS_85_2_xp-Gcav.log
 Initial command:
 /scratch/scicomp/CentOS/7.3.1611/Haswell/software/Gaussian/g16/l1.exe "/scratch/bochen/cyclohexadiene-dimerization/wb97xd-def2tzvp/xp-pcm/meso/Gau-57456.inp" -scrdir="/scratch/bochen/cyclohexadiene-dimerization/wb97xd-def2tzvp/xp-pcm/meso/"
 Entering Link 1 = /scratch/scicomp/CentOS/7.3.1611/Haswell/software/Gaussian/g16/l1.exe PID=     57457.
  
 Copyright (c) 1988-2017, Gaussian, Inc.  All Rights Reserved.
  
 This is part of the Gaussian(R) 16 program.  It is based on
 the Gaussian(R) 09 system (copyright 2009, Gaussian, Inc.),
 the Gaussian(R) 03 system (copyright 2003, Gaussian, Inc.),
 the Gaussian(R) 98 system (copyright 1998, Gaussian, Inc.),
 the Gaussian(R) 94 system (copyright 1995, Gaussian, Inc.),
 the Gaussian 92(TM) system (copyright 1992, Gaussian, Inc.),
 the Gaussian 90(TM) system (copyright 1990, Gaussian, Inc.),
 the Gaussian 88(TM) system (copyright 1988, Gaussian, Inc.),
 the Gaussian 86(TM) system (copyright 1986, Carnegie Mellon
 University), and the Gaussian 82(TM) system (copyright 1983,
 Carnegie Mellon University). Gaussian is a federally registered
 trademark of Gaussian, Inc.
  
 This software contains proprietary and confidential information,
 including trade secrets, belonging to Gaussian, Inc.
  
 This software is provided under written license and may be
 used, copied, transmitted, or stored only in accord with that
 written license.
  
 The following legend is applicable only to US Government
 contracts under FAR:
  
                    RESTRICTED RIGHTS LEGEND
  
 Use, reproduction and disclosure by the US Government is
 subject to restrictions as set forth in subparagraphs (a)
 and (c) of the Commercial Computer Software - Restricted
 Rights clause in FAR 52.227-19.
  
 Gaussian, Inc.
 340 Quinnipiac St., Bldg. 40, Wallingford CT 06492
  
  
 ---------------------------------------------------------------
 Warning -- This program may not be used in any manner that
 competes with the business of Gaussian, Inc. or will provide
 assistance to any competitor of Gaussian, Inc.  The licensee
 of this program is prohibited from giving any competitor of
 Gaussian, Inc. access to this program.  By using this program,
 the user acknowledges that Gaussian, Inc. is engaged in the
 business of creating and licensing software in the field of
 computational chemistry and represents and warrants to the
 licensee that it is not a competitor of Gaussian, Inc. and that
 it will not use this program in any manner prohibited above.
 ---------------------------------------------------------------
  

 Cite this work as:
 Gaussian 16, Revision B.01,
 M. J. Frisch, G. W. Trucks, H. B. Schlegel, G. E. Scuseria, 
 M. A. Robb, J. R. Cheeseman, G. Scalmani, V. Barone, 
 G. A. Petersson, H. Nakatsuji, X. Li, M. Caricato, A. V. Marenich, 
 J. Bloino, B. G. Janesko, R. Gomperts, B. Mennucci, H. P. Hratchian, 
 J. V. Ortiz, A. F. Izmaylov, J. L. Sonnenberg, D. Williams-Young, 
 F. Ding, F. Lipparini, F. Egidi, J. Goings, B. Peng, A. Petrone, 
 T. Henderson, D. Ranasinghe, V. G. Zakrzewski, J. Gao, N. Rega, 
 G. Zheng, W. Liang, M. Hada, M. Ehara, K. Toyota, R. Fukuda, 
 J. Hasegawa, M. Ishida, T. Nakajima, Y. Honda, O. Kitao, H. Nakai, 
 T. Vreven, K. Throssell, J. A. Montgomery, Jr., J. E. Peralta, 
 F. Ogliaro, M. J. Bearpark, J. J. Heyd, E. N. Brothers, K. N. Kudin, 
 V. N. Staroverov, T. A. Keith, R. Kobayashi, J. Normand, 
 K. Raghavachari, A. P. Rendell, J. C. Burant, S. S. Iyengar, 
 J. Tomasi, M. Cossi, J. M. Millam, M. Klene, C. Adamo, R. Cammi, 
 J. W. Ochterski, R. L. Martin, K. Morokuma, O. Farkas, 
 J. B. Foresman, and D. J. Fox, Gaussian, Inc., Wallingford CT, 2016.
 
 ******************************************
 Gaussian 16:  ES64L-G16RevB.01 20-Dec-2017
                 4-Aug-2020 
 ******************************************
 %chk=scr.chk
 %nproc=24
 Will use up to   24 processors via shared memory.
 %mem=48GB
 ----------------------------------------------------------------------
 #p uwb97xd guess=mix def2tzvp # scrf=(iefpcm,solvent=Cyclohexane,read)
  nosym guess=only pop=none
 ----------------------------------------------------------------------
 1/38=1,40=2,172=1/1;
 2/12=2,15=1,17=6,18=5,40=1/2;
 3/5=44,7=101,11=2,25=1,30=1,70=2203,72=17,74=-58,89=1,116=2/1,2;
 4/13=-1/1;
 99/5=2/99;
 Leave Link    1 at Tue Aug  4 21:32:24 2020, MaxMem=  6442450944 cpu:               1.4 elap:               0.1
 (Enter /scratch/scicomp/CentOS/7.3.1611/Haswell/software/Gaussian/g16/l101.exe)
 -------------------------------------------------
 endo-2 xp-pcm with Vmol=108.160262177098 cm^3/mol
 -------------------------------------------------
 Symbolic Z-matrix:
 Charge =  0 Multiplicity = 1
 6                    -3.10656  -0.43738   0.29194 
 6                    -0.84844  -0.28319  -1.41236 
 1                    -4.00958  -0.50962   0.88693 
 1                     0.05994  -0.21558  -1.99903 
 6                     1.25045   1.44814   0.9104 
 6                     0.84844   0.28319   1.41236 
 1                     0.67092   2.3492    1.07337 
 1                    -0.05994   0.21558   1.99903 
 6                     1.67109  -0.96135   1.23751 
 1                     2.31691  -1.06727   2.11928 
 1                     1.02412  -1.84005   1.22447 
 6                     2.49149   1.53748   0.13881 
 1                     2.89451   2.51724  -0.08812 
 6                     3.10656   0.43738  -0.29194 
 1                     4.00958   0.50962  -0.88693 
 6                     2.52739  -0.92595  -0.03 
 1                     1.91689  -1.21141  -0.89542 
 1                     3.32181  -1.67133   0.03759 
 6                    -1.25045  -1.44814  -0.9104 
 1                    -0.67092  -2.3492   -1.07337 
 6                    -2.49149  -1.53748  -0.13881 
 1                    -2.89451  -2.51724   0.08812 
 6                    -1.67109   0.96135  -1.23751 
 1                    -1.02412   1.84005  -1.22447 
 1                    -2.31691   1.06727  -2.11928 
 6                    -2.52739   0.92595   0.03 
 1                    -3.32181   1.67133  -0.03759 
 1                    -1.91689   1.21141   0.89542 
 
 ITRead=  0  0  0  0  0  0  0  0  0  0  0  0  0  0  0  0  0  0  0  0
 ITRead=  0  0  0  0  0  0  0  0
 MicOpt= -1 -1 -1 -1 -1 -1 -1 -1 -1 -1 -1 -1 -1 -1 -1 -1 -1 -1 -1 -1
 MicOpt= -1 -1 -1 -1 -1 -1 -1 -1
 NAtoms=     28 NQM=       28 NQMF=       0 NMMI=      0 NMMIF=      0
                NMic=       0 NMicF=      0.
                    Isotopes and Nuclear Properties:
 (Nuclear quadrupole moments (NQMom) in fm**2, nuclear magnetic moments (NMagM)
  in nuclear magnetons)

  Atom         1           2           3           4           5           6           7           8           9          10
 IAtWgt=          12          12           1           1          12          12           1           1          12           1
 AtmWgt=  12.0000000  12.0000000   1.0078250   1.0078250  12.0000000  12.0000000   1.0078250   1.0078250  12.0000000   1.0078250
 NucSpn=           0           0           1           1           0           0           1           1           0           1
 AtZEff=  -0.0000000  -0.0000000  -0.0000000  -0.0000000  -0.0000000  -0.0000000  -0.0000000  -0.0000000  -0.0000000  -0.0000000
 NQMom=    0.0000000   0.0000000   0.0000000   0.0000000   0.0000000   0.0000000   0.0000000   0.0000000   0.0000000   0.0000000
 NMagM=    0.0000000   0.0000000   2.7928460   2.7928460   0.0000000   0.0000000   2.7928460   2.7928460   0.0000000   2.7928460
 AtZNuc=   6.0000000   6.0000000   1.0000000   1.0000000   6.0000000   6.0000000   1.0000000   1.0000000   6.0000000   1.0000000

  Atom        11          12          13          14          15          16          17          18          19          20
 IAtWgt=           1          12           1          12           1          12           1           1          12           1
 AtmWgt=   1.0078250  12.0000000   1.0078250  12.0000000   1.0078250  12.0000000   1.0078250   1.0078250  12.0000000   1.0078250
 NucSpn=           1           0           1           0           1           0           1           1           0           1
 AtZEff=  -0.0000000  -0.0000000  -0.0000000  -0.0000000  -0.0000000  -0.0000000  -0.0000000  -0.0000000  -0.0000000  -0.0000000
 NQMom=    0.0000000   0.0000000   0.0000000   0.0000000   0.0000000   0.0000000   0.0000000   0.0000000   0.0000000   0.0000000
 NMagM=    2.7928460   0.0000000   2.7928460   0.0000000   2.7928460   0.0000000   2.7928460   2.7928460   0.0000000   2.7928460
 AtZNuc=   1.0000000   6.0000000   1.0000000   6.0000000   1.0000000   6.0000000   1.0000000   1.0000000   6.0000000   1.0000000

  Atom        21          22          23          24          25          26          27          28
 IAtWgt=          12           1          12           1           1          12           1           1
 AtmWgt=  12.0000000   1.0078250  12.0000000   1.0078250   1.0078250  12.0000000   1.0078250   1.0078250
 NucSpn=           0           1           0           1           1           0           1           1
 AtZEff=  -0.0000000  -0.0000000  -0.0000000  -0.0000000  -0.0000000  -0.0000000  -0.0000000  -0.0000000
 NQMom=    0.0000000   0.0000000   0.0000000   0.0000000   0.0000000   0.0000000   0.0000000   0.0000000
 NMagM=    0.0000000   2.7928460   0.0000000   2.7928460   2.7928460   0.0000000   2.7928460   2.7928460
 AtZNuc=   6.0000000   1.0000000   6.0000000   1.0000000   1.0000000   6.0000000   1.0000000   1.0000000
 Leave Link  101 at Tue Aug  4 21:32:24 2020, MaxMem=  6442450944 cpu:               2.4 elap:               0.1
 (Enter /scratch/scicomp/CentOS/7.3.1611/Haswell/software/Gaussian/g16/l202.exe)
                          Input orientation:                          
 ---------------------------------------------------------------------
 Center     Atomic      Atomic             Coordinates (Angstroms)
 Number     Number       Type             X           Y           Z
 ---------------------------------------------------------------------
      1          6           0       -3.106560   -0.437378    0.291938
      2          6           0       -0.848443   -0.283188   -1.412362
      3          1           0       -4.009580   -0.509623    0.886930
      4          1           0        0.059937   -0.215575   -1.999027
      5          6           0        1.250446    1.448137    0.910401
      6          6           0        0.848443    0.283188    1.412362
      7          1           0        0.670918    2.349204    1.073365
      8          1           0       -0.059937    0.215575    1.999027
      9          6           0        1.671088   -0.961349    1.237510
     10          1           0        2.316912   -1.067273    2.119278
     11          1           0        1.024124   -1.840049    1.224471
     12          6           0        2.491494    1.537477    0.138807
     13          1           0        2.894509    2.517243   -0.088123
     14          6           0        3.106560    0.437378   -0.291938
     15          1           0        4.009580    0.509623   -0.886930
     16          6           0        2.527393   -0.925952   -0.029998
     17          1           0        1.916886   -1.211409   -0.895423
     18          1           0        3.321807   -1.671334    0.037592
     19          6           0       -1.250446   -1.448137   -0.910401
     20          1           0       -0.670918   -2.349204   -1.073365
     21          6           0       -2.491494   -1.537477   -0.138807
     22          1           0       -2.894509   -2.517243    0.088123
     23          6           0       -1.671088    0.961349   -1.237510
     24          1           0       -1.024124    1.840049   -1.224471
     25          1           0       -2.316912    1.067273   -2.119278
     26          6           0       -2.527393    0.925952    0.029998
     27          1           0       -3.321807    1.671334   -0.037592
     28          1           0       -1.916886    1.211409    0.895423
 ---------------------------------------------------------------------
                    Distance matrix (angstroms):
                    1          2          3          4          5
     1  C    0.000000
     2  C    2.833285   0.000000
     3  H    1.083827   3.915457   0.000000
     4  H    3.914642   1.083467   4.997617   0.000000
     5  C    4.787605   3.577436   5.612597   3.556687   0.000000
     6  C    4.173322   3.343541   4.950254   3.536677   1.330668
     7  H    4.758677   3.926421   5.487687   4.048578   1.083666
     8  H    3.552803   3.536677   4.166816   4.023021   2.102717
     9  C    4.898426   3.718839   5.709374   3.691498   2.467704
    10  H    5.757603   4.806947   6.469479   4.772815   2.987645
    11  H    4.460903   3.589319   5.217484   3.736243   3.310895
    12  C    5.938157   4.108056   6.856695   3.681847   1.464083
    13  H    6.699781   4.858571   7.601256   4.376602   2.200677
    14  C    6.301505   4.173322   7.275025   3.552803   2.431545
    15  H    7.275025   4.950254   8.276012   4.166816   3.424037
    16  C    5.664254   3.704098   6.614084   3.235746   2.855038
    17  H    5.219575   2.962409   6.228345   2.378631   3.283036
    18  H    6.550667   4.628207   7.471291   4.111794   3.844923
    19  C    2.431545   1.330668   3.424037   2.102717   4.237710
    20  H    3.384004   2.101156   4.286430   2.437903   4.695398
    21  C    1.331940   2.427921   2.100763   3.423104   4.900698
    22  H    2.100558   3.380657   2.431463   4.287496   5.794914
    23  C    2.521156   1.502062   3.485046   2.227444   3.658667
    24  H    3.438417   2.138762   4.346484   2.449636   3.144033
    25  H    2.949827   2.116572   3.793285   2.703622   4.695749
    26  C    1.504233   2.522161   2.234298   3.480561   3.914059
    27  H    2.145131   3.439139   2.466647   4.340950   4.674827
    28  H    2.120853   2.949790   2.709500   3.784436   3.176202
                    6          7          8          9         10
     6  C    0.000000
     7  H    2.101156   0.000000
     8  H    1.083467   2.437903   0.000000
     9  C    1.502062   3.462231   2.227444   0.000000
    10  H    2.116572   3.933897   2.703622   1.098100   0.000000
    11  H    2.138762   4.206831   2.449636   1.091259   1.751903
    12  C    2.427921   2.201544   3.423104   2.850324   3.276807
    13  H    3.380657   2.514289   4.287496   3.918503   4.249117
    14  C    2.833285   3.384004   3.914642   2.521156   2.949827
    15  H    3.915457   4.286430   4.997617   3.485046   3.793285
    16  C    2.522161   3.923080   3.480561   1.530061   2.164177
    17  H    2.949790   4.255177   3.784436   2.161562   3.044539
    18  H    3.439139   4.925928   4.340950   2.160730   2.389167
    19  C    3.577436   4.695398   3.556687   3.658667   4.695749
    20  H    3.926421   5.337041   4.048578   3.570893   4.556692
    21  C    4.108056   5.155240   3.681847   4.421907   5.332992
    22  H    4.858571   6.112714   4.376602   4.958485   5.778141
    23  C    3.718839   3.570893   3.691498   4.581772   5.593521
    24  H    3.589319   2.900423   3.736243   4.601451   5.549387
    25  H    4.806947   4.556692   4.772815   5.593521   6.632795
    26  C    3.704098   3.652869   3.235746   4.758911   5.639621
    27  H    4.628207   4.199475   4.111794   5.786701   6.629269
    28  H    2.962409   2.832485   2.378631   4.208498   4.961377
                   11         12         13         14         15
    11  H    0.000000
    12  C    3.839209   0.000000
    13  H    4.920085   1.083448   0.000000
    14  C    3.438417   1.331940   2.100558   0.000000
    15  H    4.346484   2.100763   2.431463   1.083827   0.000000
    16  C    2.160806   2.469467   3.463199   1.504233   2.234298
    17  H    2.384568   2.992688   3.938315   2.120853   2.709500
    18  H    2.591620   3.316042   4.212192   2.145131   2.466647
    19  C    3.144033   4.900698   5.794914   4.787605   5.612597
    20  H    2.900423   5.155240   6.112714   4.758677   5.487687
    21  C    3.782809   5.861961   6.741836   5.938157   6.856695
    22  H    4.135887   6.741836   7.673972   6.699781   7.601256
    23  C    4.601451   4.421907   4.958485   4.898426   5.709374
    24  H    4.871936   3.782809   4.135887   4.460903   5.217484
    25  H    5.549387   5.332992   5.778141   5.757603   6.469479
    26  C    4.657338   5.057176   5.651830   5.664254   6.614084
    27  H    5.727978   5.817517   6.273811   6.550667   7.471291
    28  H    4.250789   4.484708   5.081544   5.219575   6.228345
                   16         17         18         19         20
    16  C    0.000000
    17  H    1.096889   0.000000
    18  H    1.091447   1.748099   0.000000
    19  C    3.914059   3.176202   4.674827   0.000000
    20  H    3.652869   2.832485   4.199475   1.083666   0.000000
    21  C    5.057176   4.484708   5.817517   1.464083   2.201544
    22  H    5.651830   5.081544   6.273811   2.200677   2.514289
    23  C    4.758911   4.208498   5.786701   2.467704   3.462231
    24  H    4.657338   4.250789   5.727978   3.310895   4.206831
    25  H    5.639621   4.961377   6.629269   2.987645   3.933897
    26  C    5.383680   5.017602   6.399929   2.855038   3.923080
    27  H    6.399929   6.040694   7.437519   3.844923   4.925928
    28  H    5.017602   4.875960   6.040694   3.283036   4.255177
                   21         22         23         24         25
    21  C    0.000000
    22  H    1.083448   0.000000
    23  C    2.850324   3.918503   0.000000
    24  H    3.839209   4.920085   1.091259   0.000000
    25  H    3.276807   4.249117   1.098100   1.751903   0.000000
    26  C    2.469467   3.463199   1.530061   2.160806   2.164177
    27  H    3.316042   4.212192   2.160730   2.591620   2.389167
    28  H    2.992688   3.938315   2.161562   2.384568   3.044539
                   26         27         28
    26  C    0.000000
    27  H    1.091447   0.000000
    28  H    1.096889   1.748099   0.000000
 Symmetry turned off by external request.
 Stoichiometry    C12H16
 Framework group  CI[X(C12H16)]
 Deg. of freedom    39
 Full point group                 CI      NOp   2
 Rotational constants (GHZ):           1.6459081           0.5667964           0.5259422
 Leave Link  202 at Tue Aug  4 21:32:24 2020, MaxMem=  6442450944 cpu:               0.3 elap:               0.0
 (Enter /scratch/scicomp/CentOS/7.3.1611/Haswell/software/Gaussian/g16/l301.exe)
 Standard basis: def2TZVP (5D, 7F)
 Ernie: Thresh=  0.10000D-02 Tol=  0.10000D-05 Strict=F.
   468 basis functions,   740 primitive gaussians,   528 cartesian basis functions
    44 alpha electrons       44 beta electrons
       nuclear repulsion energy       667.2678745036 Hartrees.
 IExCor= 4639 DFT=T Ex+Corr=wB97XD ExCW=0 ScaHFX=  1.000000
 ScaDFX=  1.000000  1.000000  1.000000  1.000000 ScalE2=  1.000000  1.000000
 IRadAn=      5 IRanWt=     -1 IRanGd=            0 ICorTp=0 IEmpDi=121
 HFx  wShort=  0.000000 wLong=  0.200000 cFull=  0.222036 cShort=  0.000000 cLong=  0.777964
 DFx  wShort=  0.000000 wLong=  0.200000 cFull=  0.000000 cShort=  0.000000 cLong=  1.000000
 NAtoms=   28 NActive=   28 NUniq=   28 SFac= 1.00D+00 NAtFMM=   60 NAOKFM=F Big=F
 Integral buffers will be    131072 words long.
 Raffenetti 2 integral format.
 Two-electron integral symmetry is turned off.
 R6Disp:  Grimme-D2 Dispersion energy=       -0.0205653165 Hartrees.
 Nuclear repulsion after empirical dispersion term =      667.2473091871 Hartrees.
 Using the following non-standard input for PCM:
 norep  pcmdoc geomview  nodis cav g03defaults noaddsph  tsare=0.075
 Warning! Using old PCM defaults because the g03defaults keyword was found.
 These settings can be overridden by following keywords.
 nsfe=28
 Vmol=108.160262177098 Rsolv=2.815
 --- end of non-standard input.
 Reading user-defined spheres from input:
 ISph  on   Nord    Re0     Alpha      Xe            Ye            Ze
 --- end of user-defined spheres data.
 ------------------------------------------------------------------------------
 Polarizable Continuum Model (PCM)
 =================================
 Model                : PCM.
 Atomic radii         : UA0 (Simple United Atom Topological Model).
 Polarization charges : Total charges.
 Charge compensation  : None.
 Solution method      : On-the-fly selection.
 Cavity type          : VdW (van der Waals Surface) (Alpha=1.000).
 Cavity algorithm     : GePol (No added spheres)
                        User-defined sphere list used, NSphG=   28.
                        Tesserae with average area of 0.075 Ang**2.
                        Smoothing algorithm: None.
                        Polarization charges: point-like.
                        Self-potential: constant (ISelfS= 1).
                        Self-field    : global E.n sum rule (ISelfD= 3).
 Solvent              : CycloHexane, Eps=   2.016500 Eps(inf)=   2.035188
 ------------------------------------------------------------------------------
 GePol: Number of generator spheres                  =      28
 GePol: Total number of spheres                      =      28
 GePol: Number of exposed spheres                    =      28 (100.00%)
 GePol: Number of tesserae                           =    4084
 GePol: Average area of tesserae                     =       0.06 Ang**2
 GePol: Minimum area of tessera                      =   0.10D-02 Ang**2
 GePol: Maximum area of tessera                      =    0.12395 Ang**2
 GePol: Number of small tesserae                     =       0
 GePol: Fraction of small tesserae (<1% of avg)      =       0.00%
 GePol: Total count of vertices                      =   13532
 GePol: Maximum number of vertices in a tessera      =       6
 GePol: Cavity surface area                          =    244.831 Ang**2
 GePol: Cavity volume                                =    246.964 Ang**3
 PCM non-electrostatic energy =         0.0377725280 Hartrees.
 Nuclear repulsion after PCM non-electrostatic terms =      667.2850817151 Hartrees.
 Leave Link  301 at Tue Aug  4 21:32:25 2020, MaxMem=  6442450944 cpu:               3.2 elap:               0.2
 (Enter /scratch/scicomp/CentOS/7.3.1611/Haswell/software/Gaussian/g16/l302.exe)
 NPDir=0 NMtPBC=     1 NCelOv=     1 NCel=       1 NClECP=     1 NCelD=      1
         NCelK=      1 NCelE2=     1 NClLst=     1 CellRange=     0.0.
 One-electron integrals computed using PRISM.
   1 Symmetry operations used in ECPInt.
 ECPInt:  NShTT=   19306 NPrTT=   56928 LenC2=   18448 LenP2D=   41592.
 LDataN:  DoStor=T MaxTD1= 6 Len=  172
 NBasis=   468 RedAO= T EigKep=  2.81D-05  NBF=   468
 NBsUse=   468 1.00D-06 EigRej= -1.00D+00 NBFU=   468
 Precomputing XC quadrature grid using
 IXCGrd= 4 IRadAn=           5 IRanWt=          -1 IRanGd=           0 AccXCQ= 0.00D+00.
 Generated NRdTot=       0 NPtTot=           0 NUsed=           0 NTot=          32
 NSgBfM=   526   526   526   526   526 MxSgAt=    28 MxSgA2=    28.
 Leave Link  302 at Tue Aug  4 21:32:25 2020, MaxMem=  6442450944 cpu:              11.7 elap:               0.5
 (Enter /scratch/scicomp/CentOS/7.3.1611/Haswell/software/Gaussian/g16/l401.exe)
 ExpMin= 9.52D-02 ExpMax= 1.36D+04 ExpMxC= 4.63D+02 IAcc=3 IRadAn=         5 AccDes= 0.00D+00
 Harris functional with IExCor= 4639 and IRadAn=       5 diagonalized for initial guess.
 HarFok:  IExCor= 4639 AccDes= 0.00D+00 IRadAn=         5 IDoV= 1 UseB2=F ITyADJ=14
 ICtDFT=  3500011 ScaDFX=  1.000000  1.000000  1.000000  1.000000
 FoFCou: FMM=F IPFlag=           0 FMFlag=      100000 FMFlg1=           0
         NFxFlg=           0 DoJE=T BraDBF=F KetDBF=T FulRan=T
         wScrn=  0.000000 ICntrl=       500 IOpCl=  0 I1Cent=   200000004 NGrid=           0
         NMat0=    1 NMatS0=      1 NMatT0=    0 NMatD0=    1 NMtDS0=    0 NMtDT0=    0
 Symmetry not used in FoFCou.
 Harris En= -444.601429173243    
 JPrj=0 DoOrth=F DoCkMO=T.
 Mixing orbitals, IMix= 1 IMixAn=  0 NRI=1 NE=   44 Coef=  7.07106781D-01  7.07106781D-01
 Mixing orbitals, IMix= 1 IMixAn=  0 NRI=1 NE=   44 Coef= -7.07106781D-01  7.07106781D-01
 Initial guess <Sx>= 0.0000 <Sy>= 0.0000 <Sz>= 0.0000 <S**2>= 1.0000 S= 0.6180
 Leave Link  401 at Tue Aug  4 21:32:27 2020, MaxMem=  6442450944 cpu:              46.7 elap:               2.0
 (Enter /scratch/scicomp/CentOS/7.3.1611/Haswell/software/Gaussian/g16/l9999.exe)

 This type of calculation cannot be archived.


 WISDOM IS KNOWING WHAT TO DO,
 SKILL IS KNOWING HOW TO DO IT,
 AND VIRTUE IS NOT DOING IT.
 Job cpu time:       0 days  0 hours  1 minutes  6.5 seconds.
 Elapsed time:       0 days  0 hours  0 minutes  3.0 seconds.
 File lengths (MBytes):  RWF=    312 Int=      0 D2E=      0 Chk=      1 Scr=      1
 Normal termination of Gaussian 16 at Tue Aug  4 21:32:27 2020.
 Initial command:
 /scratch/scicomp/CentOS/7.3.1611/Haswell/software/Gaussian/g16/l1.exe "/scratch/bochen/cyclohexadiene-dimerization/wb97xd-def2tzvp/xp-pcm/meso/Gau-57456.inp" -scrdir="/scratch/bochen/cyclohexadiene-dimerization/wb97xd-def2tzvp/xp-pcm/meso/"
 Entering Link 1 = /scratch/scicomp/CentOS/7.3.1611/Haswell/software/Gaussian/g16/l1.exe PID=     57619.
  
 Copyright (c) 1988-2017, Gaussian, Inc.  All Rights Reserved.
  
 This is part of the Gaussian(R) 16 program.  It is based on
 the Gaussian(R) 09 system (copyright 2009, Gaussian, Inc.),
 the Gaussian(R) 03 system (copyright 2003, Gaussian, Inc.),
 the Gaussian(R) 98 system (copyright 1998, Gaussian, Inc.),
 the Gaussian(R) 94 system (copyright 1995, Gaussian, Inc.),
 the Gaussian 92(TM) system (copyright 1992, Gaussian, Inc.),
 the Gaussian 90(TM) system (copyright 1990, Gaussian, Inc.),
 the Gaussian 88(TM) system (copyright 1988, Gaussian, Inc.),
 the Gaussian 86(TM) system (copyright 1986, Carnegie Mellon
 University), and the Gaussian 82(TM) system (copyright 1983,
 Carnegie Mellon University). Gaussian is a federally registered
 trademark of Gaussian, Inc.
  
 This software contains proprietary and confidential information,
 including trade secrets, belonging to Gaussian, Inc.
  
 This software is provided under written license and may be
 used, copied, transmitted, or stored only in accord with that
 written license.
  
 The following legend is applicable only to US Government
 contracts under FAR:
  
                    RESTRICTED RIGHTS LEGEND
  
 Use, reproduction and disclosure by the US Government is
 subject to restrictions as set forth in subparagraphs (a)
 and (c) of the Commercial Computer Software - Restricted
 Rights clause in FAR 52.227-19.
  
 Gaussian, Inc.
 340 Quinnipiac St., Bldg. 40, Wallingford CT 06492
  
  
 ---------------------------------------------------------------
 Warning -- This program may not be used in any manner that
 competes with the business of Gaussian, Inc. or will provide
 assistance to any competitor of Gaussian, Inc.  The licensee
 of this program is prohibited from giving any competitor of
 Gaussian, Inc. access to this program.  By using this program,
 the user acknowledges that Gaussian, Inc. is engaged in the
 business of creating and licensing software in the field of
 computational chemistry and represents and warrants to the
 licensee that it is not a competitor of Gaussian, Inc. and that
 it will not use this program in any manner prohibited above.
 ---------------------------------------------------------------
  

 Cite this work as:
 Gaussian 16, Revision B.01,
 M. J. Frisch, G. W. Trucks, H. B. Schlegel, G. E. Scuseria, 
 M. A. Robb, J. R. Cheeseman, G. Scalmani, V. Barone, 
 G. A. Petersson, H. Nakatsuji, X. Li, M. Caricato, A. V. Marenich, 
 J. Bloino, B. G. Janesko, R. Gomperts, B. Mennucci, H. P. Hratchian, 
 J. V. Ortiz, A. F. Izmaylov, J. L. Sonnenberg, D. Williams-Young, 
 F. Ding, F. Lipparini, F. Egidi, J. Goings, B. Peng, A. Petrone, 
 T. Henderson, D. Ranasinghe, V. G. Zakrzewski, J. Gao, N. Rega, 
 G. Zheng, W. Liang, M. Hada, M. Ehara, K. Toyota, R. Fukuda, 
 J. Hasegawa, M. Ishida, T. Nakajima, Y. Honda, O. Kitao, H. Nakai, 
 T. Vreven, K. Throssell, J. A. Montgomery, Jr., J. E. Peralta, 
 F. Ogliaro, M. J. Bearpark, J. J. Heyd, E. N. Brothers, K. N. Kudin, 
 V. N. Staroverov, T. A. Keith, R. Kobayashi, J. Normand, 
 K. Raghavachari, A. P. Rendell, J. C. Burant, S. S. Iyengar, 
 J. Tomasi, M. Cossi, J. M. Millam, M. Klene, C. Adamo, R. Cammi, 
 J. W. Ochterski, R. L. Martin, K. Morokuma, O. Farkas, 
 J. B. Foresman, and D. J. Fox, Gaussian, Inc., Wallingford CT, 2016.
 
 ******************************************
 Gaussian 16:  ES64L-G16RevB.01 20-Dec-2017
                 4-Aug-2020 
 ******************************************
 %chk=scr.chk
 %nproc=24
 Will use up to   24 processors via shared memory.
 %mem=48GB
 ----------------------------------------------------------------------
 #p uwb97xd guess=mix def2tzvp # scrf=(iefpcm,solvent=Cyclohexane,read)
  nosym guess=only pop=none
 ----------------------------------------------------------------------
 1/38=1,40=2,172=1/1;
 2/12=2,15=1,17=6,18=5,40=1/2;
 3/5=44,7=101,11=2,25=1,30=1,70=2203,72=17,74=-58,89=1,116=2/1,2;
 4/13=-1/1;
 99/5=2/99;
 Leave Link    1 at Tue Aug  4 21:32:28 2020, MaxMem=  6442450944 cpu:               1.4 elap:               0.1
 (Enter /scratch/scicomp/CentOS/7.3.1611/Haswell/software/Gaussian/g16/l101.exe)
 -------------------------------------------------
 endo-2 xp-pcm with Vmol=101.730197792279 cm^3/mol
 -------------------------------------------------
 Symbolic Z-matrix:
 Charge =  0 Multiplicity = 1
 6                    -3.10656  -0.43738   0.29194 
 6                    -0.84844  -0.28319  -1.41236 
 1                    -4.00958  -0.50962   0.88693 
 1                     0.05994  -0.21558  -1.99903 
 6                     1.25045   1.44814   0.9104 
 6                     0.84844   0.28319   1.41236 
 1                     0.67092   2.3492    1.07337 
 1                    -0.05994   0.21558   1.99903 
 6                     1.67109  -0.96135   1.23751 
 1                     2.31691  -1.06727   2.11928 
 1                     1.02412  -1.84005   1.22447 
 6                     2.49149   1.53748   0.13881 
 1                     2.89451   2.51724  -0.08812 
 6                     3.10656   0.43738  -0.29194 
 1                     4.00958   0.50962  -0.88693 
 6                     2.52739  -0.92595  -0.03 
 1                     1.91689  -1.21141  -0.89542 
 1                     3.32181  -1.67133   0.03759 
 6                    -1.25045  -1.44814  -0.9104 
 1                    -0.67092  -2.3492   -1.07337 
 6                    -2.49149  -1.53748  -0.13881 
 1                    -2.89451  -2.51724   0.08812 
 6                    -1.67109   0.96135  -1.23751 
 1                    -1.02412   1.84005  -1.22447 
 1                    -2.31691   1.06727  -2.11928 
 6                    -2.52739   0.92595   0.03 
 1                    -3.32181   1.67133  -0.03759 
 1                    -1.91689   1.21141   0.89542 
 
 ITRead=  0  0  0  0  0  0  0  0  0  0  0  0  0  0  0  0  0  0  0  0
 ITRead=  0  0  0  0  0  0  0  0
 MicOpt= -1 -1 -1 -1 -1 -1 -1 -1 -1 -1 -1 -1 -1 -1 -1 -1 -1 -1 -1 -1
 MicOpt= -1 -1 -1 -1 -1 -1 -1 -1
 NAtoms=     28 NQM=       28 NQMF=       0 NMMI=      0 NMMIF=      0
                NMic=       0 NMicF=      0.
                    Isotopes and Nuclear Properties:
 (Nuclear quadrupole moments (NQMom) in fm**2, nuclear magnetic moments (NMagM)
  in nuclear magnetons)

  Atom         1           2           3           4           5           6           7           8           9          10
 IAtWgt=          12          12           1           1          12          12           1           1          12           1
 AtmWgt=  12.0000000  12.0000000   1.0078250   1.0078250  12.0000000  12.0000000   1.0078250   1.0078250  12.0000000   1.0078250
 NucSpn=           0           0           1           1           0           0           1           1           0           1
 AtZEff=  -0.0000000  -0.0000000  -0.0000000  -0.0000000  -0.0000000  -0.0000000  -0.0000000  -0.0000000  -0.0000000  -0.0000000
 NQMom=    0.0000000   0.0000000   0.0000000   0.0000000   0.0000000   0.0000000   0.0000000   0.0000000   0.0000000   0.0000000
 NMagM=    0.0000000   0.0000000   2.7928460   2.7928460   0.0000000   0.0000000   2.7928460   2.7928460   0.0000000   2.7928460
 AtZNuc=   6.0000000   6.0000000   1.0000000   1.0000000   6.0000000   6.0000000   1.0000000   1.0000000   6.0000000   1.0000000

  Atom        11          12          13          14          15          16          17          18          19          20
 IAtWgt=           1          12           1          12           1          12           1           1          12           1
 AtmWgt=   1.0078250  12.0000000   1.0078250  12.0000000   1.0078250  12.0000000   1.0078250   1.0078250  12.0000000   1.0078250
 NucSpn=           1           0           1           0           1           0           1           1           0           1
 AtZEff=  -0.0000000  -0.0000000  -0.0000000  -0.0000000  -0.0000000  -0.0000000  -0.0000000  -0.0000000  -0.0000000  -0.0000000
 NQMom=    0.0000000   0.0000000   0.0000000   0.0000000   0.0000000   0.0000000   0.0000000   0.0000000   0.0000000   0.0000000
 NMagM=    2.7928460   0.0000000   2.7928460   0.0000000   2.7928460   0.0000000   2.7928460   2.7928460   0.0000000   2.7928460
 AtZNuc=   1.0000000   6.0000000   1.0000000   6.0000000   1.0000000   6.0000000   1.0000000   1.0000000   6.0000000   1.0000000

  Atom        21          22          23          24          25          26          27          28
 IAtWgt=          12           1          12           1           1          12           1           1
 AtmWgt=  12.0000000   1.0078250  12.0000000   1.0078250   1.0078250  12.0000000   1.0078250   1.0078250
 NucSpn=           0           1           0           1           1           0           1           1
 AtZEff=  -0.0000000  -0.0000000  -0.0000000  -0.0000000  -0.0000000  -0.0000000  -0.0000000  -0.0000000
 NQMom=    0.0000000   0.0000000   0.0000000   0.0000000   0.0000000   0.0000000   0.0000000   0.0000000
 NMagM=    0.0000000   2.7928460   0.0000000   2.7928460   2.7928460   0.0000000   2.7928460   2.7928460
 AtZNuc=   6.0000000   1.0000000   6.0000000   1.0000000   1.0000000   6.0000000   1.0000000   1.0000000
 Leave Link  101 at Tue Aug  4 21:32:28 2020, MaxMem=  6442450944 cpu:               2.4 elap:               0.1
 (Enter /scratch/scicomp/CentOS/7.3.1611/Haswell/software/Gaussian/g16/l202.exe)
                          Input orientation:                          
 ---------------------------------------------------------------------
 Center     Atomic      Atomic             Coordinates (Angstroms)
 Number     Number       Type             X           Y           Z
 ---------------------------------------------------------------------
      1          6           0       -3.106560   -0.437378    0.291938
      2          6           0       -0.848443   -0.283188   -1.412362
      3          1           0       -4.009580   -0.509623    0.886930
      4          1           0        0.059937   -0.215575   -1.999027
      5          6           0        1.250446    1.448137    0.910401
      6          6           0        0.848443    0.283188    1.412362
      7          1           0        0.670918    2.349204    1.073365
      8          1           0       -0.059937    0.215575    1.999027
      9          6           0        1.671088   -0.961349    1.237510
     10          1           0        2.316912   -1.067273    2.119278
     11          1           0        1.024124   -1.840049    1.224471
     12          6           0        2.491494    1.537477    0.138807
     13          1           0        2.894509    2.517243   -0.088123
     14          6           0        3.106560    0.437378   -0.291938
     15          1           0        4.009580    0.509623   -0.886930
     16          6           0        2.527393   -0.925952   -0.029998
     17          1           0        1.916886   -1.211409   -0.895423
     18          1           0        3.321807   -1.671334    0.037592
     19          6           0       -1.250446   -1.448137   -0.910401
     20          1           0       -0.670918   -2.349204   -1.073365
     21          6           0       -2.491494   -1.537477   -0.138807
     22          1           0       -2.894509   -2.517243    0.088123
     23          6           0       -1.671088    0.961349   -1.237510
     24          1           0       -1.024124    1.840049   -1.224471
     25          1           0       -2.316912    1.067273   -2.119278
     26          6           0       -2.527393    0.925952    0.029998
     27          1           0       -3.321807    1.671334   -0.037592
     28          1           0       -1.916886    1.211409    0.895423
 ---------------------------------------------------------------------
                    Distance matrix (angstroms):
                    1          2          3          4          5
     1  C    0.000000
     2  C    2.833285   0.000000
     3  H    1.083827   3.915457   0.000000
     4  H    3.914642   1.083467   4.997617   0.000000
     5  C    4.787605   3.577436   5.612597   3.556687   0.000000
     6  C    4.173322   3.343541   4.950254   3.536677   1.330668
     7  H    4.758677   3.926421   5.487687   4.048578   1.083666
     8  H    3.552803   3.536677   4.166816   4.023021   2.102717
     9  C    4.898426   3.718839   5.709374   3.691498   2.467704
    10  H    5.757603   4.806947   6.469479   4.772815   2.987645
    11  H    4.460903   3.589319   5.217484   3.736243   3.310895
    12  C    5.938157   4.108056   6.856695   3.681847   1.464083
    13  H    6.699781   4.858571   7.601256   4.376602   2.200677
    14  C    6.301505   4.173322   7.275025   3.552803   2.431545
    15  H    7.275025   4.950254   8.276012   4.166816   3.424037
    16  C    5.664254   3.704098   6.614084   3.235746   2.855038
    17  H    5.219575   2.962409   6.228345   2.378631   3.283036
    18  H    6.550667   4.628207   7.471291   4.111794   3.844923
    19  C    2.431545   1.330668   3.424037   2.102717   4.237710
    20  H    3.384004   2.101156   4.286430   2.437903   4.695398
    21  C    1.331940   2.427921   2.100763   3.423104   4.900698
    22  H    2.100558   3.380657   2.431463   4.287496   5.794914
    23  C    2.521156   1.502062   3.485046   2.227444   3.658667
    24  H    3.438417   2.138762   4.346484   2.449636   3.144033
    25  H    2.949827   2.116572   3.793285   2.703622   4.695749
    26  C    1.504233   2.522161   2.234298   3.480561   3.914059
    27  H    2.145131   3.439139   2.466647   4.340950   4.674827
    28  H    2.120853   2.949790   2.709500   3.784436   3.176202
                    6          7          8          9         10
     6  C    0.000000
     7  H    2.101156   0.000000
     8  H    1.083467   2.437903   0.000000
     9  C    1.502062   3.462231   2.227444   0.000000
    10  H    2.116572   3.933897   2.703622   1.098100   0.000000
    11  H    2.138762   4.206831   2.449636   1.091259   1.751903
    12  C    2.427921   2.201544   3.423104   2.850324   3.276807
    13  H    3.380657   2.514289   4.287496   3.918503   4.249117
    14  C    2.833285   3.384004   3.914642   2.521156   2.949827
    15  H    3.915457   4.286430   4.997617   3.485046   3.793285
    16  C    2.522161   3.923080   3.480561   1.530061   2.164177
    17  H    2.949790   4.255177   3.784436   2.161562   3.044539
    18  H    3.439139   4.925928   4.340950   2.160730   2.389167
    19  C    3.577436   4.695398   3.556687   3.658667   4.695749
    20  H    3.926421   5.337041   4.048578   3.570893   4.556692
    21  C    4.108056   5.155240   3.681847   4.421907   5.332992
    22  H    4.858571   6.112714   4.376602   4.958485   5.778141
    23  C    3.718839   3.570893   3.691498   4.581772   5.593521
    24  H    3.589319   2.900423   3.736243   4.601451   5.549387
    25  H    4.806947   4.556692   4.772815   5.593521   6.632795
    26  C    3.704098   3.652869   3.235746   4.758911   5.639621
    27  H    4.628207   4.199475   4.111794   5.786701   6.629269
    28  H    2.962409   2.832485   2.378631   4.208498   4.961377
                   11         12         13         14         15
    11  H    0.000000
    12  C    3.839209   0.000000
    13  H    4.920085   1.083448   0.000000
    14  C    3.438417   1.331940   2.100558   0.000000
    15  H    4.346484   2.100763   2.431463   1.083827   0.000000
    16  C    2.160806   2.469467   3.463199   1.504233   2.234298
    17  H    2.384568   2.992688   3.938315   2.120853   2.709500
    18  H    2.591620   3.316042   4.212192   2.145131   2.466647
    19  C    3.144033   4.900698   5.794914   4.787605   5.612597
    20  H    2.900423   5.155240   6.112714   4.758677   5.487687
    21  C    3.782809   5.861961   6.741836   5.938157   6.856695
    22  H    4.135887   6.741836   7.673972   6.699781   7.601256
    23  C    4.601451   4.421907   4.958485   4.898426   5.709374
    24  H    4.871936   3.782809   4.135887   4.460903   5.217484
    25  H    5.549387   5.332992   5.778141   5.757603   6.469479
    26  C    4.657338   5.057176   5.651830   5.664254   6.614084
    27  H    5.727978   5.817517   6.273811   6.550667   7.471291
    28  H    4.250789   4.484708   5.081544   5.219575   6.228345
                   16         17         18         19         20
    16  C    0.000000
    17  H    1.096889   0.000000
    18  H    1.091447   1.748099   0.000000
    19  C    3.914059   3.176202   4.674827   0.000000
    20  H    3.652869   2.832485   4.199475   1.083666   0.000000
    21  C    5.057176   4.484708   5.817517   1.464083   2.201544
    22  H    5.651830   5.081544   6.273811   2.200677   2.514289
    23  C    4.758911   4.208498   5.786701   2.467704   3.462231
    24  H    4.657338   4.250789   5.727978   3.310895   4.206831
    25  H    5.639621   4.961377   6.629269   2.987645   3.933897
    26  C    5.383680   5.017602   6.399929   2.855038   3.923080
    27  H    6.399929   6.040694   7.437519   3.844923   4.925928
    28  H    5.017602   4.875960   6.040694   3.283036   4.255177
                   21         22         23         24         25
    21  C    0.000000
    22  H    1.083448   0.000000
    23  C    2.850324   3.918503   0.000000
    24  H    3.839209   4.920085   1.091259   0.000000
    25  H    3.276807   4.249117   1.098100   1.751903   0.000000
    26  C    2.469467   3.463199   1.530061   2.160806   2.164177
    27  H    3.316042   4.212192   2.160730   2.591620   2.389167
    28  H    2.992688   3.938315   2.161562   2.384568   3.044539
                   26         27         28
    26  C    0.000000
    27  H    1.091447   0.000000
    28  H    1.096889   1.748099   0.000000
 Symmetry turned off by external request.
 Stoichiometry    C12H16
 Framework group  CI[X(C12H16)]
 Deg. of freedom    39
 Full point group                 CI      NOp   2
 Rotational constants (GHZ):           1.6459081           0.5667964           0.5259422
 Leave Link  202 at Tue Aug  4 21:32:28 2020, MaxMem=  6442450944 cpu:               0.3 elap:               0.0
 (Enter /scratch/scicomp/CentOS/7.3.1611/Haswell/software/Gaussian/g16/l301.exe)
 Standard basis: def2TZVP (5D, 7F)
 Ernie: Thresh=  0.10000D-02 Tol=  0.10000D-05 Strict=F.
   468 basis functions,   740 primitive gaussians,   528 cartesian basis functions
    44 alpha electrons       44 beta electrons
       nuclear repulsion energy       667.2678745036 Hartrees.
 IExCor= 4639 DFT=T Ex+Corr=wB97XD ExCW=0 ScaHFX=  1.000000
 ScaDFX=  1.000000  1.000000  1.000000  1.000000 ScalE2=  1.000000  1.000000
 IRadAn=      5 IRanWt=     -1 IRanGd=            0 ICorTp=0 IEmpDi=121
 HFx  wShort=  0.000000 wLong=  0.200000 cFull=  0.222036 cShort=  0.000000 cLong=  0.777964
 DFx  wShort=  0.000000 wLong=  0.200000 cFull=  0.000000 cShort=  0.000000 cLong=  1.000000
 NAtoms=   28 NActive=   28 NUniq=   28 SFac= 1.00D+00 NAtFMM=   60 NAOKFM=F Big=F
 Integral buffers will be    131072 words long.
 Raffenetti 2 integral format.
 Two-electron integral symmetry is turned off.
 R6Disp:  Grimme-D2 Dispersion energy=       -0.0205653165 Hartrees.
 Nuclear repulsion after empirical dispersion term =      667.2473091871 Hartrees.
 Using the following non-standard input for PCM:
 norep  pcmdoc geomview  nodis cav g03defaults noaddsph  tsare=0.075
 Warning! Using old PCM defaults because the g03defaults keyword was found.
 These settings can be overridden by following keywords.
 nsfe=28
 Vmol=101.730197792279 Rsolv=2.815
 --- end of non-standard input.
 Reading user-defined spheres from input:
 ISph  on   Nord    Re0     Alpha      Xe            Ye            Ze
 --- end of user-defined spheres data.
 ------------------------------------------------------------------------------
 Polarizable Continuum Model (PCM)
 =================================
 Model                : PCM.
 Atomic radii         : UA0 (Simple United Atom Topological Model).
 Polarization charges : Total charges.
 Charge compensation  : None.
 Solution method      : On-the-fly selection.
 Cavity type          : VdW (van der Waals Surface) (Alpha=1.000).
 Cavity algorithm     : GePol (No added spheres)
                        User-defined sphere list used, NSphG=   28.
                        Tesserae with average area of 0.075 Ang**2.
                        Smoothing algorithm: None.
                        Polarization charges: point-like.
                        Self-potential: constant (ISelfS= 1).
                        Self-field    : global E.n sum rule (ISelfD= 3).
 Solvent              : CycloHexane, Eps=   2.016500 Eps(inf)=   2.035188
 ------------------------------------------------------------------------------
 GePol: Number of generator spheres                  =      28
 GePol: Total number of spheres                      =      28
 GePol: Number of exposed spheres                    =      28 (100.00%)
 GePol: Number of tesserae                           =    4084
 GePol: Average area of tesserae                     =       0.06 Ang**2
 GePol: Minimum area of tessera                      =   0.10D-02 Ang**2
 GePol: Maximum area of tessera                      =    0.12395 Ang**2
 GePol: Number of small tesserae                     =       0
 GePol: Fraction of small tesserae (<1% of avg)      =       0.00%
 GePol: Total count of vertices                      =   13532
 GePol: Maximum number of vertices in a tessera      =       6
 GePol: Cavity surface area                          =    244.831 Ang**2
 GePol: Cavity volume                                =    246.964 Ang**3
 PCM non-electrostatic energy =         0.0448723040 Hartrees.
 Nuclear repulsion after PCM non-electrostatic terms =      667.2921814911 Hartrees.
 Leave Link  301 at Tue Aug  4 21:32:28 2020, MaxMem=  6442450944 cpu:               3.2 elap:               0.2
 (Enter /scratch/scicomp/CentOS/7.3.1611/Haswell/software/Gaussian/g16/l302.exe)
 NPDir=0 NMtPBC=     1 NCelOv=     1 NCel=       1 NClECP=     1 NCelD=      1
         NCelK=      1 NCelE2=     1 NClLst=     1 CellRange=     0.0.
 One-electron integrals computed using PRISM.
   1 Symmetry operations used in ECPInt.
 ECPInt:  NShTT=   19306 NPrTT=   56928 LenC2=   18448 LenP2D=   41592.
 LDataN:  DoStor=T MaxTD1= 6 Len=  172
 NBasis=   468 RedAO= T EigKep=  2.81D-05  NBF=   468
 NBsUse=   468 1.00D-06 EigRej= -1.00D+00 NBFU=   468
 Precomputing XC quadrature grid using
 IXCGrd= 4 IRadAn=           5 IRanWt=          -1 IRanGd=           0 AccXCQ= 0.00D+00.
 Generated NRdTot=       0 NPtTot=           0 NUsed=           0 NTot=          32
 NSgBfM=   526   526   526   526   526 MxSgAt=    28 MxSgA2=    28.
 Leave Link  302 at Tue Aug  4 21:32:29 2020, MaxMem=  6442450944 cpu:              11.8 elap:               0.5
 (Enter /scratch/scicomp/CentOS/7.3.1611/Haswell/software/Gaussian/g16/l401.exe)
 ExpMin= 9.52D-02 ExpMax= 1.36D+04 ExpMxC= 4.63D+02 IAcc=3 IRadAn=         5 AccDes= 0.00D+00
 Harris functional with IExCor= 4639 and IRadAn=       5 diagonalized for initial guess.
 HarFok:  IExCor= 4639 AccDes= 0.00D+00 IRadAn=         5 IDoV= 1 UseB2=F ITyADJ=14
 ICtDFT=  3500011 ScaDFX=  1.000000  1.000000  1.000000  1.000000
 FoFCou: FMM=F IPFlag=           0 FMFlag=      100000 FMFlg1=           0
         NFxFlg=           0 DoJE=T BraDBF=F KetDBF=T FulRan=T
         wScrn=  0.000000 ICntrl=       500 IOpCl=  0 I1Cent=   200000004 NGrid=           0
         NMat0=    1 NMatS0=      1 NMatT0=    0 NMatD0=    1 NMtDS0=    0 NMtDT0=    0
 Symmetry not used in FoFCou.
 Harris En= -444.594329397262    
 JPrj=0 DoOrth=F DoCkMO=T.
 Mixing orbitals, IMix= 1 IMixAn=  0 NRI=1 NE=   44 Coef=  7.07106781D-01  7.07106781D-01
 Mixing orbitals, IMix= 1 IMixAn=  0 NRI=1 NE=   44 Coef= -7.07106781D-01  7.07106781D-01
 Initial guess <Sx>= 0.0000 <Sy>= 0.0000 <Sz>= 0.0000 <S**2>= 1.0000 S= 0.6180
 Leave Link  401 at Tue Aug  4 21:32:31 2020, MaxMem=  6442450944 cpu:              46.8 elap:               2.0
 (Enter /scratch/scicomp/CentOS/7.3.1611/Haswell/software/Gaussian/g16/l9999.exe)

 This type of calculation cannot be archived.


 AND HERE I AM, FOR ALL MY LORE,
 THE WRETCHED FOOL I WAS BEFORE.
 CALLED MASTER OF ARTS, AND DOCTOR TO BOOT,
 FOR TEN YEARS ALMOST I CONFUTE
 AND UP AND DOWN, WHEREVER IT GOES
 I DRAG MY STUDENTS BY THE NOSE --
 AND SEE THAT FOR ALL OUR SCIENCE AND ART
 WE CAN KNOW NOTHING.  IT BURNS MY HEART.

                                       -- FAUST
 Job cpu time:       0 days  0 hours  1 minutes  6.8 seconds.
 Elapsed time:       0 days  0 hours  0 minutes  3.1 seconds.
 File lengths (MBytes):  RWF=    312 Int=      0 D2E=      0 Chk=      1 Scr=      1
 Normal termination of Gaussian 16 at Tue Aug  4 21:32:31 2020.
 Initial command:
 /scratch/scicomp/CentOS/7.3.1611/Haswell/software/Gaussian/g16/l1.exe "/scratch/bochen/cyclohexadiene-dimerization/wb97xd-def2tzvp/xp-pcm/meso/Gau-57456.inp" -scrdir="/scratch/bochen/cyclohexadiene-dimerization/wb97xd-def2tzvp/xp-pcm/meso/"
 Entering Link 1 = /scratch/scicomp/CentOS/7.3.1611/Haswell/software/Gaussian/g16/l1.exe PID=     57781.
  
 Copyright (c) 1988-2017, Gaussian, Inc.  All Rights Reserved.
  
 This is part of the Gaussian(R) 16 program.  It is based on
 the Gaussian(R) 09 system (copyright 2009, Gaussian, Inc.),
 the Gaussian(R) 03 system (copyright 2003, Gaussian, Inc.),
 the Gaussian(R) 98 system (copyright 1998, Gaussian, Inc.),
 the Gaussian(R) 94 system (copyright 1995, Gaussian, Inc.),
 the Gaussian 92(TM) system (copyright 1992, Gaussian, Inc.),
 the Gaussian 90(TM) system (copyright 1990, Gaussian, Inc.),
 the Gaussian 88(TM) system (copyright 1988, Gaussian, Inc.),
 the Gaussian 86(TM) system (copyright 1986, Carnegie Mellon
 University), and the Gaussian 82(TM) system (copyright 1983,
 Carnegie Mellon University). Gaussian is a federally registered
 trademark of Gaussian, Inc.
  
 This software contains proprietary and confidential information,
 including trade secrets, belonging to Gaussian, Inc.
  
 This software is provided under written license and may be
 used, copied, transmitted, or stored only in accord with that
 written license.
  
 The following legend is applicable only to US Government
 contracts under FAR:
  
                    RESTRICTED RIGHTS LEGEND
  
 Use, reproduction and disclosure by the US Government is
 subject to restrictions as set forth in subparagraphs (a)
 and (c) of the Commercial Computer Software - Restricted
 Rights clause in FAR 52.227-19.
  
 Gaussian, Inc.
 340 Quinnipiac St., Bldg. 40, Wallingford CT 06492
  
  
 ---------------------------------------------------------------
 Warning -- This program may not be used in any manner that
 competes with the business of Gaussian, Inc. or will provide
 assistance to any competitor of Gaussian, Inc.  The licensee
 of this program is prohibited from giving any competitor of
 Gaussian, Inc. access to this program.  By using this program,
 the user acknowledges that Gaussian, Inc. is engaged in the
 business of creating and licensing software in the field of
 computational chemistry and represents and warrants to the
 licensee that it is not a competitor of Gaussian, Inc. and that
 it will not use this program in any manner prohibited above.
 ---------------------------------------------------------------
  

 Cite this work as:
 Gaussian 16, Revision B.01,
 M. J. Frisch, G. W. Trucks, H. B. Schlegel, G. E. Scuseria, 
 M. A. Robb, J. R. Cheeseman, G. Scalmani, V. Barone, 
 G. A. Petersson, H. Nakatsuji, X. Li, M. Caricato, A. V. Marenich, 
 J. Bloino, B. G. Janesko, R. Gomperts, B. Mennucci, H. P. Hratchian, 
 J. V. Ortiz, A. F. Izmaylov, J. L. Sonnenberg, D. Williams-Young, 
 F. Ding, F. Lipparini, F. Egidi, J. Goings, B. Peng, A. Petrone, 
 T. Henderson, D. Ranasinghe, V. G. Zakrzewski, J. Gao, N. Rega, 
 G. Zheng, W. Liang, M. Hada, M. Ehara, K. Toyota, R. Fukuda, 
 J. Hasegawa, M. Ishida, T. Nakajima, Y. Honda, O. Kitao, H. Nakai, 
 T. Vreven, K. Throssell, J. A. Montgomery, Jr., J. E. Peralta, 
 F. Ogliaro, M. J. Bearpark, J. J. Heyd, E. N. Brothers, K. N. Kudin, 
 V. N. Staroverov, T. A. Keith, R. Kobayashi, J. Normand, 
 K. Raghavachari, A. P. Rendell, J. C. Burant, S. S. Iyengar, 
 J. Tomasi, M. Cossi, J. M. Millam, M. Klene, C. Adamo, R. Cammi, 
 J. W. Ochterski, R. L. Martin, K. Morokuma, O. Farkas, 
 J. B. Foresman, and D. J. Fox, Gaussian, Inc., Wallingford CT, 2016.
 
 ******************************************
 Gaussian 16:  ES64L-G16RevB.01 20-Dec-2017
                 4-Aug-2020 
 ******************************************
 %chk=scr.chk
 %nproc=24
 Will use up to   24 processors via shared memory.
 %mem=48GB
 ----------------------------------------------------------------------
 #p uwb97xd guess=mix def2tzvp # scrf=(iefpcm,solvent=Cyclohexane,read)
  nosym guess=only pop=none
 ----------------------------------------------------------------------
 1/38=1,40=2,172=1/1;
 2/12=2,15=1,17=6,18=5,40=1/2;
 3/5=44,7=101,11=2,25=1,30=1,70=2203,72=17,74=-58,89=1,116=2/1,2;
 4/13=-1/1;
 99/5=2/99;
 Leave Link    1 at Tue Aug  4 21:32:31 2020, MaxMem=  6442450944 cpu:               1.4 elap:               0.1
 (Enter /scratch/scicomp/CentOS/7.3.1611/Haswell/software/Gaussian/g16/l101.exe)
 -------------------------------------------------
 endo-2 xp-pcm with Vmol=95.7726100512575 cm^3/mol
 -------------------------------------------------
 Symbolic Z-matrix:
 Charge =  0 Multiplicity = 1
 6                    -3.10656  -0.43738   0.29194 
 6                    -0.84844  -0.28319  -1.41236 
 1                    -4.00958  -0.50962   0.88693 
 1                     0.05994  -0.21558  -1.99903 
 6                     1.25045   1.44814   0.9104 
 6                     0.84844   0.28319   1.41236 
 1                     0.67092   2.3492    1.07337 
 1                    -0.05994   0.21558   1.99903 
 6                     1.67109  -0.96135   1.23751 
 1                     2.31691  -1.06727   2.11928 
 1                     1.02412  -1.84005   1.22447 
 6                     2.49149   1.53748   0.13881 
 1                     2.89451   2.51724  -0.08812 
 6                     3.10656   0.43738  -0.29194 
 1                     4.00958   0.50962  -0.88693 
 6                     2.52739  -0.92595  -0.03 
 1                     1.91689  -1.21141  -0.89542 
 1                     3.32181  -1.67133   0.03759 
 6                    -1.25045  -1.44814  -0.9104 
 1                    -0.67092  -2.3492   -1.07337 
 6                    -2.49149  -1.53748  -0.13881 
 1                    -2.89451  -2.51724   0.08812 
 6                    -1.67109   0.96135  -1.23751 
 1                    -1.02412   1.84005  -1.22447 
 1                    -2.31691   1.06727  -2.11928 
 6                    -2.52739   0.92595   0.03 
 1                    -3.32181   1.67133  -0.03759 
 1                    -1.91689   1.21141   0.89542 
 
 ITRead=  0  0  0  0  0  0  0  0  0  0  0  0  0  0  0  0  0  0  0  0
 ITRead=  0  0  0  0  0  0  0  0
 MicOpt= -1 -1 -1 -1 -1 -1 -1 -1 -1 -1 -1 -1 -1 -1 -1 -1 -1 -1 -1 -1
 MicOpt= -1 -1 -1 -1 -1 -1 -1 -1
 NAtoms=     28 NQM=       28 NQMF=       0 NMMI=      0 NMMIF=      0
                NMic=       0 NMicF=      0.
                    Isotopes and Nuclear Properties:
 (Nuclear quadrupole moments (NQMom) in fm**2, nuclear magnetic moments (NMagM)
  in nuclear magnetons)

  Atom         1           2           3           4           5           6           7           8           9          10
 IAtWgt=          12          12           1           1          12          12           1           1          12           1
 AtmWgt=  12.0000000  12.0000000   1.0078250   1.0078250  12.0000000  12.0000000   1.0078250   1.0078250  12.0000000   1.0078250
 NucSpn=           0           0           1           1           0           0           1           1           0           1
 AtZEff=  -0.0000000  -0.0000000  -0.0000000  -0.0000000  -0.0000000  -0.0000000  -0.0000000  -0.0000000  -0.0000000  -0.0000000
 NQMom=    0.0000000   0.0000000   0.0000000   0.0000000   0.0000000   0.0000000   0.0000000   0.0000000   0.0000000   0.0000000
 NMagM=    0.0000000   0.0000000   2.7928460   2.7928460   0.0000000   0.0000000   2.7928460   2.7928460   0.0000000   2.7928460
 AtZNuc=   6.0000000   6.0000000   1.0000000   1.0000000   6.0000000   6.0000000   1.0000000   1.0000000   6.0000000   1.0000000

  Atom        11          12          13          14          15          16          17          18          19          20
 IAtWgt=           1          12           1          12           1          12           1           1          12           1
 AtmWgt=   1.0078250  12.0000000   1.0078250  12.0000000   1.0078250  12.0000000   1.0078250   1.0078250  12.0000000   1.0078250
 NucSpn=           1           0           1           0           1           0           1           1           0           1
 AtZEff=  -0.0000000  -0.0000000  -0.0000000  -0.0000000  -0.0000000  -0.0000000  -0.0000000  -0.0000000  -0.0000000  -0.0000000
 NQMom=    0.0000000   0.0000000   0.0000000   0.0000000   0.0000000   0.0000000   0.0000000   0.0000000   0.0000000   0.0000000
 NMagM=    2.7928460   0.0000000   2.7928460   0.0000000   2.7928460   0.0000000   2.7928460   2.7928460   0.0000000   2.7928460
 AtZNuc=   1.0000000   6.0000000   1.0000000   6.0000000   1.0000000   6.0000000   1.0000000   1.0000000   6.0000000   1.0000000

  Atom        21          22          23          24          25          26          27          28
 IAtWgt=          12           1          12           1           1          12           1           1
 AtmWgt=  12.0000000   1.0078250  12.0000000   1.0078250   1.0078250  12.0000000   1.0078250   1.0078250
 NucSpn=           0           1           0           1           1           0           1           1
 AtZEff=  -0.0000000  -0.0000000  -0.0000000  -0.0000000  -0.0000000  -0.0000000  -0.0000000  -0.0000000
 NQMom=    0.0000000   0.0000000   0.0000000   0.0000000   0.0000000   0.0000000   0.0000000   0.0000000
 NMagM=    0.0000000   2.7928460   0.0000000   2.7928460   2.7928460   0.0000000   2.7928460   2.7928460
 AtZNuc=   6.0000000   1.0000000   6.0000000   1.0000000   1.0000000   6.0000000   1.0000000   1.0000000
 Leave Link  101 at Tue Aug  4 21:32:31 2020, MaxMem=  6442450944 cpu:               2.4 elap:               0.1
 (Enter /scratch/scicomp/CentOS/7.3.1611/Haswell/software/Gaussian/g16/l202.exe)
                          Input orientation:                          
 ---------------------------------------------------------------------
 Center     Atomic      Atomic             Coordinates (Angstroms)
 Number     Number       Type             X           Y           Z
 ---------------------------------------------------------------------
      1          6           0       -3.106560   -0.437378    0.291938
      2          6           0       -0.848443   -0.283188   -1.412362
      3          1           0       -4.009580   -0.509623    0.886930
      4          1           0        0.059937   -0.215575   -1.999027
      5          6           0        1.250446    1.448137    0.910401
      6          6           0        0.848443    0.283188    1.412362
      7          1           0        0.670918    2.349204    1.073365
      8          1           0       -0.059937    0.215575    1.999027
      9          6           0        1.671088   -0.961349    1.237510
     10          1           0        2.316912   -1.067273    2.119278
     11          1           0        1.024124   -1.840049    1.224471
     12          6           0        2.491494    1.537477    0.138807
     13          1           0        2.894509    2.517243   -0.088123
     14          6           0        3.106560    0.437378   -0.291938
     15          1           0        4.009580    0.509623   -0.886930
     16          6           0        2.527393   -0.925952   -0.029998
     17          1           0        1.916886   -1.211409   -0.895423
     18          1           0        3.321807   -1.671334    0.037592
     19          6           0       -1.250446   -1.448137   -0.910401
     20          1           0       -0.670918   -2.349204   -1.073365
     21          6           0       -2.491494   -1.537477   -0.138807
     22          1           0       -2.894509   -2.517243    0.088123
     23          6           0       -1.671088    0.961349   -1.237510
     24          1           0       -1.024124    1.840049   -1.224471
     25          1           0       -2.316912    1.067273   -2.119278
     26          6           0       -2.527393    0.925952    0.029998
     27          1           0       -3.321807    1.671334   -0.037592
     28          1           0       -1.916886    1.211409    0.895423
 ---------------------------------------------------------------------
                    Distance matrix (angstroms):
                    1          2          3          4          5
     1  C    0.000000
     2  C    2.833285   0.000000
     3  H    1.083827   3.915457   0.000000
     4  H    3.914642   1.083467   4.997617   0.000000
     5  C    4.787605   3.577436   5.612597   3.556687   0.000000
     6  C    4.173322   3.343541   4.950254   3.536677   1.330668
     7  H    4.758677   3.926421   5.487687   4.048578   1.083666
     8  H    3.552803   3.536677   4.166816   4.023021   2.102717
     9  C    4.898426   3.718839   5.709374   3.691498   2.467704
    10  H    5.757603   4.806947   6.469479   4.772815   2.987645
    11  H    4.460903   3.589319   5.217484   3.736243   3.310895
    12  C    5.938157   4.108056   6.856695   3.681847   1.464083
    13  H    6.699781   4.858571   7.601256   4.376602   2.200677
    14  C    6.301505   4.173322   7.275025   3.552803   2.431545
    15  H    7.275025   4.950254   8.276012   4.166816   3.424037
    16  C    5.664254   3.704098   6.614084   3.235746   2.855038
    17  H    5.219575   2.962409   6.228345   2.378631   3.283036
    18  H    6.550667   4.628207   7.471291   4.111794   3.844923
    19  C    2.431545   1.330668   3.424037   2.102717   4.237710
    20  H    3.384004   2.101156   4.286430   2.437903   4.695398
    21  C    1.331940   2.427921   2.100763   3.423104   4.900698
    22  H    2.100558   3.380657   2.431463   4.287496   5.794914
    23  C    2.521156   1.502062   3.485046   2.227444   3.658667
    24  H    3.438417   2.138762   4.346484   2.449636   3.144033
    25  H    2.949827   2.116572   3.793285   2.703622   4.695749
    26  C    1.504233   2.522161   2.234298   3.480561   3.914059
    27  H    2.145131   3.439139   2.466647   4.340950   4.674827
    28  H    2.120853   2.949790   2.709500   3.784436   3.176202
                    6          7          8          9         10
     6  C    0.000000
     7  H    2.101156   0.000000
     8  H    1.083467   2.437903   0.000000
     9  C    1.502062   3.462231   2.227444   0.000000
    10  H    2.116572   3.933897   2.703622   1.098100   0.000000
    11  H    2.138762   4.206831   2.449636   1.091259   1.751903
    12  C    2.427921   2.201544   3.423104   2.850324   3.276807
    13  H    3.380657   2.514289   4.287496   3.918503   4.249117
    14  C    2.833285   3.384004   3.914642   2.521156   2.949827
    15  H    3.915457   4.286430   4.997617   3.485046   3.793285
    16  C    2.522161   3.923080   3.480561   1.530061   2.164177
    17  H    2.949790   4.255177   3.784436   2.161562   3.044539
    18  H    3.439139   4.925928   4.340950   2.160730   2.389167
    19  C    3.577436   4.695398   3.556687   3.658667   4.695749
    20  H    3.926421   5.337041   4.048578   3.570893   4.556692
    21  C    4.108056   5.155240   3.681847   4.421907   5.332992
    22  H    4.858571   6.112714   4.376602   4.958485   5.778141
    23  C    3.718839   3.570893   3.691498   4.581772   5.593521
    24  H    3.589319   2.900423   3.736243   4.601451   5.549387
    25  H    4.806947   4.556692   4.772815   5.593521   6.632795
    26  C    3.704098   3.652869   3.235746   4.758911   5.639621
    27  H    4.628207   4.199475   4.111794   5.786701   6.629269
    28  H    2.962409   2.832485   2.378631   4.208498   4.961377
                   11         12         13         14         15
    11  H    0.000000
    12  C    3.839209   0.000000
    13  H    4.920085   1.083448   0.000000
    14  C    3.438417   1.331940   2.100558   0.000000
    15  H    4.346484   2.100763   2.431463   1.083827   0.000000
    16  C    2.160806   2.469467   3.463199   1.504233   2.234298
    17  H    2.384568   2.992688   3.938315   2.120853   2.709500
    18  H    2.591620   3.316042   4.212192   2.145131   2.466647
    19  C    3.144033   4.900698   5.794914   4.787605   5.612597
    20  H    2.900423   5.155240   6.112714   4.758677   5.487687
    21  C    3.782809   5.861961   6.741836   5.938157   6.856695
    22  H    4.135887   6.741836   7.673972   6.699781   7.601256
    23  C    4.601451   4.421907   4.958485   4.898426   5.709374
    24  H    4.871936   3.782809   4.135887   4.460903   5.217484
    25  H    5.549387   5.332992   5.778141   5.757603   6.469479
    26  C    4.657338   5.057176   5.651830   5.664254   6.614084
    27  H    5.727978   5.817517   6.273811   6.550667   7.471291
    28  H    4.250789   4.484708   5.081544   5.219575   6.228345
                   16         17         18         19         20
    16  C    0.000000
    17  H    1.096889   0.000000
    18  H    1.091447   1.748099   0.000000
    19  C    3.914059   3.176202   4.674827   0.000000
    20  H    3.652869   2.832485   4.199475   1.083666   0.000000
    21  C    5.057176   4.484708   5.817517   1.464083   2.201544
    22  H    5.651830   5.081544   6.273811   2.200677   2.514289
    23  C    4.758911   4.208498   5.786701   2.467704   3.462231
    24  H    4.657338   4.250789   5.727978   3.310895   4.206831
    25  H    5.639621   4.961377   6.629269   2.987645   3.933897
    26  C    5.383680   5.017602   6.399929   2.855038   3.923080
    27  H    6.399929   6.040694   7.437519   3.844923   4.925928
    28  H    5.017602   4.875960   6.040694   3.283036   4.255177
                   21         22         23         24         25
    21  C    0.000000
    22  H    1.083448   0.000000
    23  C    2.850324   3.918503   0.000000
    24  H    3.839209   4.920085   1.091259   0.000000
    25  H    3.276807   4.249117   1.098100   1.751903   0.000000
    26  C    2.469467   3.463199   1.530061   2.160806   2.164177
    27  H    3.316042   4.212192   2.160730   2.591620   2.389167
    28  H    2.992688   3.938315   2.161562   2.384568   3.044539
                   26         27         28
    26  C    0.000000
    27  H    1.091447   0.000000
    28  H    1.096889   1.748099   0.000000
 Symmetry turned off by external request.
 Stoichiometry    C12H16
 Framework group  CI[X(C12H16)]
 Deg. of freedom    39
 Full point group                 CI      NOp   2
 Rotational constants (GHZ):           1.6459081           0.5667964           0.5259422
 Leave Link  202 at Tue Aug  4 21:32:31 2020, MaxMem=  6442450944 cpu:               0.3 elap:               0.0
 (Enter /scratch/scicomp/CentOS/7.3.1611/Haswell/software/Gaussian/g16/l301.exe)
 Standard basis: def2TZVP (5D, 7F)
 Ernie: Thresh=  0.10000D-02 Tol=  0.10000D-05 Strict=F.
   468 basis functions,   740 primitive gaussians,   528 cartesian basis functions
    44 alpha electrons       44 beta electrons
       nuclear repulsion energy       667.2678745036 Hartrees.
 IExCor= 4639 DFT=T Ex+Corr=wB97XD ExCW=0 ScaHFX=  1.000000
 ScaDFX=  1.000000  1.000000  1.000000  1.000000 ScalE2=  1.000000  1.000000
 IRadAn=      5 IRanWt=     -1 IRanGd=            0 ICorTp=0 IEmpDi=121
 HFx  wShort=  0.000000 wLong=  0.200000 cFull=  0.222036 cShort=  0.000000 cLong=  0.777964
 DFx  wShort=  0.000000 wLong=  0.200000 cFull=  0.000000 cShort=  0.000000 cLong=  1.000000
 NAtoms=   28 NActive=   28 NUniq=   28 SFac= 1.00D+00 NAtFMM=   60 NAOKFM=F Big=F
 Integral buffers will be    131072 words long.
 Raffenetti 2 integral format.
 Two-electron integral symmetry is turned off.
 R6Disp:  Grimme-D2 Dispersion energy=       -0.0205653165 Hartrees.
 Nuclear repulsion after empirical dispersion term =      667.2473091871 Hartrees.
 Using the following non-standard input for PCM:
 norep  pcmdoc geomview  nodis cav g03defaults noaddsph  tsare=0.075
 Warning! Using old PCM defaults because the g03defaults keyword was found.
 These settings can be overridden by following keywords.
 nsfe=28
 Vmol=95.7726100512575 Rsolv=2.815
 --- end of non-standard input.
 Reading user-defined spheres from input:
 ISph  on   Nord    Re0     Alpha      Xe            Ye            Ze
 --- end of user-defined spheres data.
 ------------------------------------------------------------------------------
 Polarizable Continuum Model (PCM)
 =================================
 Model                : PCM.
 Atomic radii         : UA0 (Simple United Atom Topological Model).
 Polarization charges : Total charges.
 Charge compensation  : None.
 Solution method      : On-the-fly selection.
 Cavity type          : VdW (van der Waals Surface) (Alpha=1.000).
 Cavity algorithm     : GePol (No added spheres)
                        User-defined sphere list used, NSphG=   28.
                        Tesserae with average area of 0.075 Ang**2.
                        Smoothing algorithm: None.
                        Polarization charges: point-like.
                        Self-potential: constant (ISelfS= 1).
                        Self-field    : global E.n sum rule (ISelfD= 3).
 Solvent              : CycloHexane, Eps=   2.016500 Eps(inf)=   2.035188
 ------------------------------------------------------------------------------
 GePol: Number of generator spheres                  =      28
 GePol: Total number of spheres                      =      28
 GePol: Number of exposed spheres                    =      28 (100.00%)
 GePol: Number of tesserae                           =    4084
 GePol: Average area of tesserae                     =       0.06 Ang**2
 GePol: Minimum area of tessera                      =   0.10D-02 Ang**2
 GePol: Maximum area of tessera                      =    0.12395 Ang**2
 GePol: Number of small tesserae                     =       0
 GePol: Fraction of small tesserae (<1% of avg)      =       0.00%
 GePol: Total count of vertices                      =   13532
 GePol: Maximum number of vertices in a tessera      =       6
 GePol: Cavity surface area                          =    244.831 Ang**2
 GePol: Cavity volume                                =    246.964 Ang**3
 PCM non-electrostatic energy =         0.0541334387 Hartrees.
 Nuclear repulsion after PCM non-electrostatic terms =      667.3014426258 Hartrees.
 Leave Link  301 at Tue Aug  4 21:32:31 2020, MaxMem=  6442450944 cpu:               3.1 elap:               0.2
 (Enter /scratch/scicomp/CentOS/7.3.1611/Haswell/software/Gaussian/g16/l302.exe)
 NPDir=0 NMtPBC=     1 NCelOv=     1 NCel=       1 NClECP=     1 NCelD=      1
         NCelK=      1 NCelE2=     1 NClLst=     1 CellRange=     0.0.
 One-electron integrals computed using PRISM.
   1 Symmetry operations used in ECPInt.
 ECPInt:  NShTT=   19306 NPrTT=   56928 LenC2=   18448 LenP2D=   41592.
 LDataN:  DoStor=T MaxTD1= 6 Len=  172
 NBasis=   468 RedAO= T EigKep=  2.81D-05  NBF=   468
 NBsUse=   468 1.00D-06 EigRej= -1.00D+00 NBFU=   468
 Precomputing XC quadrature grid using
 IXCGrd= 4 IRadAn=           5 IRanWt=          -1 IRanGd=           0 AccXCQ= 0.00D+00.
 Generated NRdTot=       0 NPtTot=           0 NUsed=           0 NTot=          32
 NSgBfM=   526   526   526   526   526 MxSgAt=    28 MxSgA2=    28.
 Leave Link  302 at Tue Aug  4 21:32:32 2020, MaxMem=  6442450944 cpu:              14.3 elap:               0.7
 (Enter /scratch/scicomp/CentOS/7.3.1611/Haswell/software/Gaussian/g16/l401.exe)
 ExpMin= 9.52D-02 ExpMax= 1.36D+04 ExpMxC= 4.63D+02 IAcc=3 IRadAn=         5 AccDes= 0.00D+00
 Harris functional with IExCor= 4639 and IRadAn=       5 diagonalized for initial guess.
 HarFok:  IExCor= 4639 AccDes= 0.00D+00 IRadAn=         5 IDoV= 1 UseB2=F ITyADJ=14
 ICtDFT=  3500011 ScaDFX=  1.000000  1.000000  1.000000  1.000000
 FoFCou: FMM=F IPFlag=           0 FMFlag=      100000 FMFlg1=           0
         NFxFlg=           0 DoJE=T BraDBF=F KetDBF=T FulRan=T
         wScrn=  0.000000 ICntrl=       500 IOpCl=  0 I1Cent=   200000004 NGrid=           0
         NMat0=    1 NMatS0=      1 NMatT0=    0 NMatD0=    1 NMtDS0=    0 NMtDT0=    0
 Symmetry not used in FoFCou.
 Harris En= -444.585068262552    
 JPrj=0 DoOrth=F DoCkMO=T.
 Mixing orbitals, IMix= 1 IMixAn=  0 NRI=1 NE=   44 Coef=  7.07106781D-01  7.07106781D-01
 Mixing orbitals, IMix= 1 IMixAn=  0 NRI=1 NE=   44 Coef= -7.07106781D-01  7.07106781D-01
 Initial guess <Sx>= 0.0000 <Sy>= 0.0000 <Sz>= 0.0000 <S**2>= 1.0000 S= 0.6180
 Leave Link  401 at Tue Aug  4 21:32:34 2020, MaxMem=  6442450944 cpu:              46.8 elap:               2.0
 (Enter /scratch/scicomp/CentOS/7.3.1611/Haswell/software/Gaussian/g16/l9999.exe)

 This type of calculation cannot be archived.


 THE CHYMISTS ARE A STRANGE CLASS OF MORTALS IMPELLED
 BY AN ALMOST INSANE IMPULSE TO SEEK THEIR PLEASURE
 AMONG SMOKE AND VAPOR, SOOT AND FLAME, POISONS AND
 POVERTY; YET AMONG ALL THESE EVILS I SEEM TO LIVE
 SO SWEETLY, THAT I MAY DIE IF I WOULD CHANGE PLACES
 WITH THE PERSIAN KING.
   --  JOHANN JOACHIM BECHER, 1635-1682
 ACTA LABORATORII CHYMICA MONACENSIS, 1669
 Job cpu time:       0 days  0 hours  1 minutes  9.2 seconds.
 Elapsed time:       0 days  0 hours  0 minutes  3.2 seconds.
 File lengths (MBytes):  RWF=    312 Int=      0 D2E=      0 Chk=      1 Scr=      1
 Normal termination of Gaussian 16 at Tue Aug  4 21:32:34 2020.
 Initial command:
 /scratch/scicomp/CentOS/7.3.1611/Haswell/software/Gaussian/g16/l1.exe "/scratch/bochen/cyclohexadiene-dimerization/wb97xd-def2tzvp/xp-pcm/meso/Gau-57456.inp" -scrdir="/scratch/bochen/cyclohexadiene-dimerization/wb97xd-def2tzvp/xp-pcm/meso/"
 Entering Link 1 = /scratch/scicomp/CentOS/7.3.1611/Haswell/software/Gaussian/g16/l1.exe PID=     57949.
  
 Copyright (c) 1988-2017, Gaussian, Inc.  All Rights Reserved.
  
 This is part of the Gaussian(R) 16 program.  It is based on
 the Gaussian(R) 09 system (copyright 2009, Gaussian, Inc.),
 the Gaussian(R) 03 system (copyright 2003, Gaussian, Inc.),
 the Gaussian(R) 98 system (copyright 1998, Gaussian, Inc.),
 the Gaussian(R) 94 system (copyright 1995, Gaussian, Inc.),
 the Gaussian 92(TM) system (copyright 1992, Gaussian, Inc.),
 the Gaussian 90(TM) system (copyright 1990, Gaussian, Inc.),
 the Gaussian 88(TM) system (copyright 1988, Gaussian, Inc.),
 the Gaussian 86(TM) system (copyright 1986, Carnegie Mellon
 University), and the Gaussian 82(TM) system (copyright 1983,
 Carnegie Mellon University). Gaussian is a federally registered
 trademark of Gaussian, Inc.
  
 This software contains proprietary and confidential information,
 including trade secrets, belonging to Gaussian, Inc.
  
 This software is provided under written license and may be
 used, copied, transmitted, or stored only in accord with that
 written license.
  
 The following legend is applicable only to US Government
 contracts under FAR:
  
                    RESTRICTED RIGHTS LEGEND
  
 Use, reproduction and disclosure by the US Government is
 subject to restrictions as set forth in subparagraphs (a)
 and (c) of the Commercial Computer Software - Restricted
 Rights clause in FAR 52.227-19.
  
 Gaussian, Inc.
 340 Quinnipiac St., Bldg. 40, Wallingford CT 06492
  
  
 ---------------------------------------------------------------
 Warning -- This program may not be used in any manner that
 competes with the business of Gaussian, Inc. or will provide
 assistance to any competitor of Gaussian, Inc.  The licensee
 of this program is prohibited from giving any competitor of
 Gaussian, Inc. access to this program.  By using this program,
 the user acknowledges that Gaussian, Inc. is engaged in the
 business of creating and licensing software in the field of
 computational chemistry and represents and warrants to the
 licensee that it is not a competitor of Gaussian, Inc. and that
 it will not use this program in any manner prohibited above.
 ---------------------------------------------------------------
  

 Cite this work as:
 Gaussian 16, Revision B.01,
 M. J. Frisch, G. W. Trucks, H. B. Schlegel, G. E. Scuseria, 
 M. A. Robb, J. R. Cheeseman, G. Scalmani, V. Barone, 
 G. A. Petersson, H. Nakatsuji, X. Li, M. Caricato, A. V. Marenich, 
 J. Bloino, B. G. Janesko, R. Gomperts, B. Mennucci, H. P. Hratchian, 
 J. V. Ortiz, A. F. Izmaylov, J. L. Sonnenberg, D. Williams-Young, 
 F. Ding, F. Lipparini, F. Egidi, J. Goings, B. Peng, A. Petrone, 
 T. Henderson, D. Ranasinghe, V. G. Zakrzewski, J. Gao, N. Rega, 
 G. Zheng, W. Liang, M. Hada, M. Ehara, K. Toyota, R. Fukuda, 
 J. Hasegawa, M. Ishida, T. Nakajima, Y. Honda, O. Kitao, H. Nakai, 
 T. Vreven, K. Throssell, J. A. Montgomery, Jr., J. E. Peralta, 
 F. Ogliaro, M. J. Bearpark, J. J. Heyd, E. N. Brothers, K. N. Kudin, 
 V. N. Staroverov, T. A. Keith, R. Kobayashi, J. Normand, 
 K. Raghavachari, A. P. Rendell, J. C. Burant, S. S. Iyengar, 
 J. Tomasi, M. Cossi, J. M. Millam, M. Klene, C. Adamo, R. Cammi, 
 J. W. Ochterski, R. L. Martin, K. Morokuma, O. Farkas, 
 J. B. Foresman, and D. J. Fox, Gaussian, Inc., Wallingford CT, 2016.
 
 ******************************************
 Gaussian 16:  ES64L-G16RevB.01 20-Dec-2017
                 4-Aug-2020 
 ******************************************
 %chk=scr.chk
 %nproc=24
 Will use up to   24 processors via shared memory.
 %mem=48GB
 ----------------------------------------------------------------------
 #p uwb97xd guess=mix def2tzvp # scrf=(iefpcm,solvent=Cyclohexane,read)
  nosym guess=only pop=none
 ----------------------------------------------------------------------
 1/38=1,40=2,172=1/1;
 2/12=2,15=1,17=6,18=5,40=1/2;
 3/5=44,7=101,11=2,25=1,30=1,70=2203,72=17,74=-58,89=1,116=2/1,2;
 4/13=-1/1;
 99/5=2/99;
 Leave Link    1 at Tue Aug  4 21:32:34 2020, MaxMem=  6442450944 cpu:               1.4 elap:               0.1
 (Enter /scratch/scicomp/CentOS/7.3.1611/Haswell/software/Gaussian/g16/l101.exe)
 -----------------------------------------------
 endo-2 xp-pcm with Vmol=89.84123994485 cm^3/mol
 -----------------------------------------------
 Symbolic Z-matrix:
 Charge =  0 Multiplicity = 1
 6                    -3.10656  -0.43738   0.29194 
 6                    -0.84844  -0.28319  -1.41236 
 1                    -4.00958  -0.50962   0.88693 
 1                     0.05994  -0.21558  -1.99903 
 6                     1.25045   1.44814   0.9104 
[...]
 1                    -4.00958  -0.50962   0.88693 
 1                     0.05994  -0.21558  -1.99903 
 6                     1.25045   1.44814   0.9104 
 6                     0.84844   0.28319   1.41236 
 1                     0.67092   2.3492    1.07337 
 1                    -0.05994   0.21558   1.99903 
 6                     1.67109  -0.96135   1.23751 
 1                     2.31691  -1.06727   2.11928 
 1                     1.02412  -1.84005   1.22447 
 6                     2.49149   1.53748   0.13881 
 1                     2.89451   2.51724  -0.08812 
 6                     3.10656   0.43738  -0.29194 
 1                     4.00958   0.50962  -0.88693 
 6                     2.52739  -0.92595  -0.03 
 1                     1.91689  -1.21141  -0.89542 
 1                     3.32181  -1.67133   0.03759 
 6                    -1.25045  -1.44814  -0.9104 
 1                    -0.67092  -2.3492   -1.07337 
 6                    -2.49149  -1.53748  -0.13881 
 1                    -2.89451  -2.51724   0.08812 
 6                    -1.67109   0.96135  -1.23751 
 1                    -1.02412   1.84005  -1.22447 
 1                    -2.31691   1.06727  -2.11928 
 6                    -2.52739   0.92595   0.03 
 1                    -3.32181   1.67133  -0.03759 
 1                    -1.91689   1.21141   0.89542 
 
 ITRead=  0  0  0  0  0  0  0  0  0  0  0  0  0  0  0  0  0  0  0  0
 ITRead=  0  0  0  0  0  0  0  0
 MicOpt= -1 -1 -1 -1 -1 -1 -1 -1 -1 -1 -1 -1 -1 -1 -1 -1 -1 -1 -1 -1
 MicOpt= -1 -1 -1 -1 -1 -1 -1 -1
 NAtoms=     28 NQM=       28 NQMF=       0 NMMI=      0 NMMIF=      0
                NMic=       0 NMicF=      0.
                    Isotopes and Nuclear Properties:
 (Nuclear quadrupole moments (NQMom) in fm**2, nuclear magnetic moments (NMagM)
  in nuclear magnetons)

  Atom         1           2           3           4           5           6           7           8           9          10
 IAtWgt=          12          12           1           1          12          12           1           1          12           1
 AtmWgt=  12.0000000  12.0000000   1.0078250   1.0078250  12.0000000  12.0000000   1.0078250   1.0078250  12.0000000   1.0078250
 NucSpn=           0           0           1           1           0           0           1           1           0           1
 AtZEff=  -0.0000000  -0.0000000  -0.0000000  -0.0000000  -0.0000000  -0.0000000  -0.0000000  -0.0000000  -0.0000000  -0.0000000
 NQMom=    0.0000000   0.0000000   0.0000000   0.0000000   0.0000000   0.0000000   0.0000000   0.0000000   0.0000000   0.0000000
 NMagM=    0.0000000   0.0000000   2.7928460   2.7928460   0.0000000   0.0000000   2.7928460   2.7928460   0.0000000   2.7928460
 AtZNuc=   6.0000000   6.0000000   1.0000000   1.0000000   6.0000000   6.0000000   1.0000000   1.0000000   6.0000000   1.0000000

  Atom        11          12          13          14          15          16          17          18          19          20
 IAtWgt=           1          12           1          12           1          12           1           1          12           1
 AtmWgt=   1.0078250  12.0000000   1.0078250  12.0000000   1.0078250  12.0000000   1.0078250   1.0078250  12.0000000   1.0078250
 NucSpn=           1           0           1           0           1           0           1           1           0           1
 AtZEff=  -0.0000000  -0.0000000  -0.0000000  -0.0000000  -0.0000000  -0.0000000  -0.0000000  -0.0000000  -0.0000000  -0.0000000
 NQMom=    0.0000000   0.0000000   0.0000000   0.0000000   0.0000000   0.0000000   0.0000000   0.0000000   0.0000000   0.0000000
 NMagM=    2.7928460   0.0000000   2.7928460   0.0000000   2.7928460   0.0000000   2.7928460   2.7928460   0.0000000   2.7928460
 AtZNuc=   1.0000000   6.0000000   1.0000000   6.0000000   1.0000000   6.0000000   1.0000000   1.0000000   6.0000000   1.0000000

  Atom        21          22          23          24          25          26          27          28
 IAtWgt=          12           1          12           1           1          12           1           1
 AtmWgt=  12.0000000   1.0078250  12.0000000   1.0078250   1.0078250  12.0000000   1.0078250   1.0078250
 NucSpn=           0           1           0           1           1           0           1           1
 AtZEff=  -0.0000000  -0.0000000  -0.0000000  -0.0000000  -0.0000000  -0.0000000  -0.0000000  -0.0000000
 NQMom=    0.0000000   0.0000000   0.0000000   0.0000000   0.0000000   0.0000000   0.0000000   0.0000000
 NMagM=    0.0000000   2.7928460   0.0000000   2.7928460   2.7928460   0.0000000   2.7928460   2.7928460
 AtZNuc=   6.0000000   1.0000000   6.0000000   1.0000000   1.0000000   6.0000000   1.0000000   1.0000000
 Leave Link  101 at Tue Aug  4 21:32:45 2020, MaxMem=  6442450944 cpu:               2.4 elap:               0.1
 (Enter /scratch/scicomp/CentOS/7.3.1611/Haswell/software/Gaussian/g16/l202.exe)
                          Input orientation:                          
 ---------------------------------------------------------------------
 Center     Atomic      Atomic             Coordinates (Angstroms)
 Number     Number       Type             X           Y           Z
 ---------------------------------------------------------------------
      1          6           0       -3.106560   -0.437378    0.291938
      2          6           0       -0.848443   -0.283188   -1.412362
      3          1           0       -4.009580   -0.509623    0.886930
      4          1           0        0.059937   -0.215575   -1.999027
      5          6           0        1.250446    1.448137    0.910401
      6          6           0        0.848443    0.283188    1.412362
      7          1           0        0.670918    2.349204    1.073365
      8          1           0       -0.059937    0.215575    1.999027
      9          6           0        1.671088   -0.961349    1.237510
     10          1           0        2.316912   -1.067273    2.119278
     11          1           0        1.024124   -1.840049    1.224471
     12          6           0        2.491494    1.537477    0.138807
     13          1           0        2.894509    2.517243   -0.088123
     14          6           0        3.106560    0.437378   -0.291938
     15          1           0        4.009580    0.509623   -0.886930
     16          6           0        2.527393   -0.925952   -0.029998
     17          1           0        1.916886   -1.211409   -0.895423
     18          1           0        3.321807   -1.671334    0.037592
     19          6           0       -1.250446   -1.448137   -0.910401
     20          1           0       -0.670918   -2.349204   -1.073365
     21          6           0       -2.491494   -1.537477   -0.138807
     22          1           0       -2.894509   -2.517243    0.088123
     23          6           0       -1.671088    0.961349   -1.237510
     24          1           0       -1.024124    1.840049   -1.224471
     25          1           0       -2.316912    1.067273   -2.119278
     26          6           0       -2.527393    0.925952    0.029998
     27          1           0       -3.321807    1.671334   -0.037592
     28          1           0       -1.916886    1.211409    0.895423
 ---------------------------------------------------------------------
                    Distance matrix (angstroms):
                    1          2          3          4          5
     1  C    0.000000
     2  C    2.833285   0.000000
     3  H    1.083827   3.915457   0.000000
     4  H    3.914642   1.083467   4.997617   0.000000
     5  C    4.787605   3.577436   5.612597   3.556687   0.000000
     6  C    4.173322   3.343541   4.950254   3.536677   1.330668
     7  H    4.758677   3.926421   5.487687   4.048578   1.083666
     8  H    3.552803   3.536677   4.166816   4.023021   2.102717
     9  C    4.898426   3.718839   5.709374   3.691498   2.467704
    10  H    5.757603   4.806947   6.469479   4.772815   2.987645
    11  H    4.460903   3.589319   5.217484   3.736243   3.310895
    12  C    5.938157   4.108056   6.856695   3.681847   1.464083
    13  H    6.699781   4.858571   7.601256   4.376602   2.200677
    14  C    6.301505   4.173322   7.275025   3.552803   2.431545
    15  H    7.275025   4.950254   8.276012   4.166816   3.424037
    16  C    5.664254   3.704098   6.614084   3.235746   2.855038
    17  H    5.219575   2.962409   6.228345   2.378631   3.283036
    18  H    6.550667   4.628207   7.471291   4.111794   3.844923
    19  C    2.431545   1.330668   3.424037   2.102717   4.237710
    20  H    3.384004   2.101156   4.286430   2.437903   4.695398
    21  C    1.331940   2.427921   2.100763   3.423104   4.900698
    22  H    2.100558   3.380657   2.431463   4.287496   5.794914
    23  C    2.521156   1.502062   3.485046   2.227444   3.658667
    24  H    3.438417   2.138762   4.346484   2.449636   3.144033
    25  H    2.949827   2.116572   3.793285   2.703622   4.695749
    26  C    1.504233   2.522161   2.234298   3.480561   3.914059
    27  H    2.145131   3.439139   2.466647   4.340950   4.674827
    28  H    2.120853   2.949790   2.709500   3.784436   3.176202
                    6          7          8          9         10
     6  C    0.000000
     7  H    2.101156   0.000000
     8  H    1.083467   2.437903   0.000000
     9  C    1.502062   3.462231   2.227444   0.000000
    10  H    2.116572   3.933897   2.703622   1.098100   0.000000
    11  H    2.138762   4.206831   2.449636   1.091259   1.751903
    12  C    2.427921   2.201544   3.423104   2.850324   3.276807
    13  H    3.380657   2.514289   4.287496   3.918503   4.249117
    14  C    2.833285   3.384004   3.914642   2.521156   2.949827
    15  H    3.915457   4.286430   4.997617   3.485046   3.793285
    16  C    2.522161   3.923080   3.480561   1.530061   2.164177
    17  H    2.949790   4.255177   3.784436   2.161562   3.044539
    18  H    3.439139   4.925928   4.340950   2.160730   2.389167
    19  C    3.577436   4.695398   3.556687   3.658667   4.695749
    20  H    3.926421   5.337041   4.048578   3.570893   4.556692
    21  C    4.108056   5.155240   3.681847   4.421907   5.332992
    22  H    4.858571   6.112714   4.376602   4.958485   5.778141
    23  C    3.718839   3.570893   3.691498   4.581772   5.593521
    24  H    3.589319   2.900423   3.736243   4.601451   5.549387
    25  H    4.806947   4.556692   4.772815   5.593521   6.632795
    26  C    3.704098   3.652869   3.235746   4.758911   5.639621
    27  H    4.628207   4.199475   4.111794   5.786701   6.629269
    28  H    2.962409   2.832485   2.378631   4.208498   4.961377
                   11         12         13         14         15
    11  H    0.000000
    12  C    3.839209   0.000000
    13  H    4.920085   1.083448   0.000000
    14  C    3.438417   1.331940   2.100558   0.000000
    15  H    4.346484   2.100763   2.431463   1.083827   0.000000
    16  C    2.160806   2.469467   3.463199   1.504233   2.234298
    17  H    2.384568   2.992688   3.938315   2.120853   2.709500
    18  H    2.591620   3.316042   4.212192   2.145131   2.466647
    19  C    3.144033   4.900698   5.794914   4.787605   5.612597
    20  H    2.900423   5.155240   6.112714   4.758677   5.487687
    21  C    3.782809   5.861961   6.741836   5.938157   6.856695
    22  H    4.135887   6.741836   7.673972   6.699781   7.601256
    23  C    4.601451   4.421907   4.958485   4.898426   5.709374
    24  H    4.871936   3.782809   4.135887   4.460903   5.217484
    25  H    5.549387   5.332992   5.778141   5.757603   6.469479
    26  C    4.657338   5.057176   5.651830   5.664254   6.614084
    27  H    5.727978   5.817517   6.273811   6.550667   7.471291
    28  H    4.250789   4.484708   5.081544   5.219575   6.228345
                   16         17         18         19         20
    16  C    0.000000
    17  H    1.096889   0.000000
    18  H    1.091447   1.748099   0.000000
    19  C    3.914059   3.176202   4.674827   0.000000
    20  H    3.652869   2.832485   4.199475   1.083666   0.000000
    21  C    5.057176   4.484708   5.817517   1.464083   2.201544
    22  H    5.651830   5.081544   6.273811   2.200677   2.514289
    23  C    4.758911   4.208498   5.786701   2.467704   3.462231
    24  H    4.657338   4.250789   5.727978   3.310895   4.206831
    25  H    5.639621   4.961377   6.629269   2.987645   3.933897
    26  C    5.383680   5.017602   6.399929   2.855038   3.923080
    27  H    6.399929   6.040694   7.437519   3.844923   4.925928
    28  H    5.017602   4.875960   6.040694   3.283036   4.255177
                   21         22         23         24         25
    21  C    0.000000
    22  H    1.083448   0.000000
    23  C    2.850324   3.918503   0.000000
    24  H    3.839209   4.920085   1.091259   0.000000
    25  H    3.276807   4.249117   1.098100   1.751903   0.000000
    26  C    2.469467   3.463199   1.530061   2.160806   2.164177
    27  H    3.316042   4.212192   2.160730   2.591620   2.389167
    28  H    2.992688   3.938315   2.161562   2.384568   3.044539
                   26         27         28
    26  C    0.000000
    27  H    1.091447   0.000000
    28  H    1.096889   1.748099   0.000000
 Symmetry turned off by external request.
 Stoichiometry    C12H16
 Framework group  CI[X(C12H16)]
 Deg. of freedom    39
 Full point group                 CI      NOp   2
 Rotational constants (GHZ):           1.6459081           0.5667964           0.5259422
 Leave Link  202 at Tue Aug  4 21:32:45 2020, MaxMem=  6442450944 cpu:               0.3 elap:               0.0
 (Enter /scratch/scicomp/CentOS/7.3.1611/Haswell/software/Gaussian/g16/l301.exe)
 Standard basis: def2TZVP (5D, 7F)
 Ernie: Thresh=  0.10000D-02 Tol=  0.10000D-05 Strict=F.
   468 basis functions,   740 primitive gaussians,   528 cartesian basis functions
    44 alpha electrons       44 beta electrons
       nuclear repulsion energy       667.2678745036 Hartrees.
 IExCor= 4639 DFT=T Ex+Corr=wB97XD ExCW=0 ScaHFX=  1.000000
 ScaDFX=  1.000000  1.000000  1.000000  1.000000 ScalE2=  1.000000  1.000000
 IRadAn=      5 IRanWt=     -1 IRanGd=            0 ICorTp=0 IEmpDi=121
 HFx  wShort=  0.000000 wLong=  0.200000 cFull=  0.222036 cShort=  0.000000 cLong=  0.777964
 DFx  wShort=  0.000000 wLong=  0.200000 cFull=  0.000000 cShort=  0.000000 cLong=  1.000000
 NAtoms=   28 NActive=   28 NUniq=   28 SFac= 1.00D+00 NAtFMM=   60 NAOKFM=F Big=F
 Integral buffers will be    131072 words long.
 Raffenetti 2 integral format.
 Two-electron integral symmetry is turned off.
 R6Disp:  Grimme-D2 Dispersion energy=       -0.0205653165 Hartrees.
 Nuclear repulsion after empirical dispersion term =      667.2473091871 Hartrees.
 Using the following non-standard input for PCM:
 norep  pcmdoc geomview  nodis cav g03defaults noaddsph  tsare=0.075
 Warning! Using old PCM defaults because the g03defaults keyword was found.
 These settings can be overridden by following keywords.
 nsfe=28
 Vmol=78.9041178242053 Rsolv=2.815
 --- end of non-standard input.
 Reading user-defined spheres from input:
 ISph  on   Nord    Re0     Alpha      Xe            Ye            Ze
 --- end of user-defined spheres data.
 ------------------------------------------------------------------------------
 Polarizable Continuum Model (PCM)
 =================================
 Model                : PCM.
 Atomic radii         : UA0 (Simple United Atom Topological Model).
 Polarization charges : Total charges.
 Charge compensation  : None.
 Solution method      : On-the-fly selection.
 Cavity type          : VdW (van der Waals Surface) (Alpha=1.000).
 Cavity algorithm     : GePol (No added spheres)
                        User-defined sphere list used, NSphG=   28.
                        Tesserae with average area of 0.075 Ang**2.
                        Smoothing algorithm: None.
                        Polarization charges: point-like.
                        Self-potential: constant (ISelfS= 1).
                        Self-field    : global E.n sum rule (ISelfD= 3).
 Solvent              : CycloHexane, Eps=   2.016500 Eps(inf)=   2.035188
 ------------------------------------------------------------------------------
 GePol: Number of generator spheres                  =      28
 GePol: Total number of spheres                      =      28
 GePol: Number of exposed spheres                    =      28 (100.00%)
 GePol: Number of tesserae                           =    4084
 GePol: Average area of tesserae                     =       0.06 Ang**2
 GePol: Minimum area of tessera                      =   0.10D-02 Ang**2
 GePol: Maximum area of tessera                      =    0.12395 Ang**2
 GePol: Number of small tesserae                     =       0
 GePol: Fraction of small tesserae (<1% of avg)      =       0.00%
 GePol: Total count of vertices                      =   13532
 GePol: Maximum number of vertices in a tessera      =       6
 GePol: Cavity surface area                          =    244.831 Ang**2
 GePol: Cavity volume                                =    246.964 Ang**3
 PCM non-electrostatic energy =         0.1200206272 Hartrees.
 Nuclear repulsion after PCM non-electrostatic terms =      667.3673298143 Hartrees.
 Leave Link  301 at Tue Aug  4 21:32:45 2020, MaxMem=  6442450944 cpu:               3.1 elap:               0.2
 (Enter /scratch/scicomp/CentOS/7.3.1611/Haswell/software/Gaussian/g16/l302.exe)
 NPDir=0 NMtPBC=     1 NCelOv=     1 NCel=       1 NClECP=     1 NCelD=      1
         NCelK=      1 NCelE2=     1 NClLst=     1 CellRange=     0.0.
 One-electron integrals computed using PRISM.
   1 Symmetry operations used in ECPInt.
 ECPInt:  NShTT=   19306 NPrTT=   56928 LenC2=   18448 LenP2D=   41592.
 LDataN:  DoStor=T MaxTD1= 6 Len=  172
 NBasis=   468 RedAO= T EigKep=  2.81D-05  NBF=   468
 NBsUse=   468 1.00D-06 EigRej= -1.00D+00 NBFU=   468
 Precomputing XC quadrature grid using
 IXCGrd= 4 IRadAn=           5 IRanWt=          -1 IRanGd=           0 AccXCQ= 0.00D+00.
 Generated NRdTot=       0 NPtTot=           0 NUsed=           0 NTot=          32
 NSgBfM=   526   526   526   526   526 MxSgAt=    28 MxSgA2=    28.
 Leave Link  302 at Tue Aug  4 21:32:46 2020, MaxMem=  6442450944 cpu:              13.0 elap:               0.6
 (Enter /scratch/scicomp/CentOS/7.3.1611/Haswell/software/Gaussian/g16/l401.exe)
 ExpMin= 9.52D-02 ExpMax= 1.36D+04 ExpMxC= 4.63D+02 IAcc=3 IRadAn=         5 AccDes= 0.00D+00
 Harris functional with IExCor= 4639 and IRadAn=       5 diagonalized for initial guess.
 HarFok:  IExCor= 4639 AccDes= 0.00D+00 IRadAn=         5 IDoV= 1 UseB2=F ITyADJ=14
 ICtDFT=  3500011 ScaDFX=  1.000000  1.000000  1.000000  1.000000
 FoFCou: FMM=F IPFlag=           0 FMFlag=      100000 FMFlg1=           0
         NFxFlg=           0 DoJE=T BraDBF=F KetDBF=T FulRan=T
         wScrn=  0.000000 ICntrl=       500 IOpCl=  0 I1Cent=   200000004 NGrid=           0
         NMat0=    1 NMatS0=      1 NMatT0=    0 NMatD0=    1 NMtDS0=    0 NMtDT0=    0
 Symmetry not used in FoFCou.
 Harris En= -444.519181074014    
 JPrj=0 DoOrth=F DoCkMO=T.
 Mixing orbitals, IMix= 1 IMixAn=  0 NRI=1 NE=   44 Coef=  7.07106781D-01  7.07106781D-01
 Mixing orbitals, IMix= 1 IMixAn=  0 NRI=1 NE=   44 Coef= -7.07106781D-01  7.07106781D-01
 Initial guess <Sx>= 0.0000 <Sy>= 0.0000 <Sz>= 0.0000 <S**2>= 1.0000 S= 0.6180
 Leave Link  401 at Tue Aug  4 21:32:48 2020, MaxMem=  6442450944 cpu:              46.5 elap:               2.0
 (Enter /scratch/scicomp/CentOS/7.3.1611/Haswell/software/Gaussian/g16/l9999.exe)

 This type of calculation cannot be archived.


 Time has a wonderful way of weeding out the trivial.
                                -- Richard Ben Sapir
 Job cpu time:       0 days  0 hours  1 minutes  7.6 seconds.
 Elapsed time:       0 days  0 hours  0 minutes  3.1 seconds.
 File lengths (MBytes):  RWF=    312 Int=      0 D2E=      0 Chk=      1 Scr=      1
 Normal termination of Gaussian 16 at Tue Aug  4 21:32:48 2020.
