 Entering Gaussian System, Link 0=g16
 Input=meso-TS_91_2_xp-Ger.com
 Output=meso-TS_91_2_xp-Ger.log
 Initial command:
 /scratch/scicomp/CentOS/7.3.1611/Haswell/software/Gaussian/g16/l1.exe "/scratch/bochen/cyclohexadiene-dimerization/wb97xd-def2tzvp/xp-pcm/meso/Gau-127675.inp" -scrdir="/scratch/bochen/cyclohexadiene-dimerization/wb97xd-def2tzvp/xp-pcm/meso/"
 Entering Link 1 = /scratch/scicomp/CentOS/7.3.1611/Haswell/software/Gaussian/g16/l1.exe PID=    127676.
  
 Copyright (c) 1988-2017, Gaussian, Inc.  All Rights Reserved.
  
 This is part of the Gaussian(R) 16 program.  It is based on
 the Gaussian(R) 09 system (copyright 2009, Gaussian, Inc.),
 the Gaussian(R) 03 system (copyright 2003, Gaussian, Inc.),
 the Gaussian(R) 98 system (copyright 1998, Gaussian, Inc.),
 the Gaussian(R) 94 system (copyright 1995, Gaussian, Inc.),
 the Gaussian 92(TM) system (copyright 1992, Gaussian, Inc.),
 the Gaussian 90(TM) system (copyright 1990, Gaussian, Inc.),
 the Gaussian 88(TM) system (copyright 1988, Gaussian, Inc.),
 the Gaussian 86(TM) system (copyright 1986, Carnegie Mellon
 University), and the Gaussian 82(TM) system (copyright 1983,
 Carnegie Mellon University). Gaussian is a federally registered
 trademark of Gaussian, Inc.
  
 This software contains proprietary and confidential information,
 including trade secrets, belonging to Gaussian, Inc.
  
 This software is provided under written license and may be
 used, copied, transmitted, or stored only in accord with that
 written license.
  
 The following legend is applicable only to US Government
 contracts under FAR:
  
                    RESTRICTED RIGHTS LEGEND
  
 Use, reproduction and disclosure by the US Government is
 subject to restrictions as set forth in subparagraphs (a)
 and (c) of the Commercial Computer Software - Restricted
 Rights clause in FAR 52.227-19.
  
 Gaussian, Inc.
 340 Quinnipiac St., Bldg. 40, Wallingford CT 06492
  
  
 ---------------------------------------------------------------
 Warning -- This program may not be used in any manner that
 competes with the business of Gaussian, Inc. or will provide
 assistance to any competitor of Gaussian, Inc.  The licensee
 of this program is prohibited from giving any competitor of
 Gaussian, Inc. access to this program.  By using this program,
 the user acknowledges that Gaussian, Inc. is engaged in the
 business of creating and licensing software in the field of
 computational chemistry and represents and warrants to the
 licensee that it is not a competitor of Gaussian, Inc. and that
 it will not use this program in any manner prohibited above.
 ---------------------------------------------------------------
  

 Cite this work as:
 Gaussian 16, Revision B.01,
 M. J. Frisch, G. W. Trucks, H. B. Schlegel, G. E. Scuseria, 
 M. A. Robb, J. R. Cheeseman, G. Scalmani, V. Barone, 
 G. A. Petersson, H. Nakatsuji, X. Li, M. Caricato, A. V. Marenich, 
 J. Bloino, B. G. Janesko, R. Gomperts, B. Mennucci, H. P. Hratchian, 
 J. V. Ortiz, A. F. Izmaylov, J. L. Sonnenberg, D. Williams-Young, 
 F. Ding, F. Lipparini, F. Egidi, J. Goings, B. Peng, A. Petrone, 
 T. Henderson, D. Ranasinghe, V. G. Zakrzewski, J. Gao, N. Rega, 
 G. Zheng, W. Liang, M. Hada, M. Ehara, K. Toyota, R. Fukuda, 
 J. Hasegawa, M. Ishida, T. Nakajima, Y. Honda, O. Kitao, H. Nakai, 
 T. Vreven, K. Throssell, J. A. Montgomery, Jr., J. E. Peralta, 
 F. Ogliaro, M. J. Bearpark, J. J. Heyd, E. N. Brothers, K. N. Kudin, 
 V. N. Staroverov, T. A. Keith, R. Kobayashi, J. Normand, 
 K. Raghavachari, A. P. Rendell, J. C. Burant, S. S. Iyengar, 
 J. Tomasi, M. Cossi, J. M. Millam, M. Klene, C. Adamo, R. Cammi, 
 J. W. Ochterski, R. L. Martin, K. Morokuma, O. Farkas, 
 J. B. Foresman, and D. J. Fox, Gaussian, Inc., Wallingford CT, 2016.
 
 ******************************************
 Gaussian 16:  ES64L-G16RevB.01 20-Dec-2017
                 3-Aug-2020 
 ******************************************
 %chk=meso-TS_91_2_xp-12.chk
 %nproc=24
 Will use up to   24 processors via shared memory.
 %mem=48GB
 ----------------------------------------------------------------------
 #p uwb97xd guess=mix def2tzvp # scrf=(iefpcm,solvent=Cyclohexane,read)
  nosym 6d 10f
 ----------------------------------------------------------------------
 1/38=1,40=2,172=1/1;
 2/12=2,15=1,17=6,18=5,40=1/2;
 3/5=44,7=101,8=22,11=2,25=1,30=1,70=2203,72=17,74=-58,116=2/1,2,3;
 4/13=-1/1;
 5/5=2,38=5,53=17/2;
 6/7=2,8=2,9=2,10=2,28=1/1;
 99/5=1,9=1/99;
 Leave Link    1 at Mon Aug  3 17:52:57 2020, MaxMem=  6442450944 cpu:               2.0 elap:               0.1
 (Enter /scratch/scicomp/CentOS/7.3.1611/Haswell/software/Gaussian/g16/l101.exe)
 -----------------------
 endo-2 xp-pcm for eta=3
 -----------------------
 Symbolic Z-matrix:
 Charge =  0 Multiplicity = 1
 6                    -3.09327  -0.43597   0.30043 
 6                    -0.86674  -0.2891   -1.44543 
 1                    -3.98614  -0.5048    0.91094 
 1                     0.03031  -0.22494  -2.04978 
 6                     1.26235   1.45252   0.93454 
 6                     0.86674   0.2891    1.44543 
 1                     0.68836   2.35534   1.10715 
 1                    -0.03031   0.22494   2.04978 
 6                     1.68381  -0.95718   1.2565 
 1                     2.34862  -1.06206   2.12426 
 1                     1.03589  -1.8353    1.25879 
 6                     2.49032   1.53821   0.14185 
 1                     2.89306   2.51671  -0.09095 
 6                     3.09327   0.43597  -0.30043 
 1                     3.98614   0.5048   -0.91094 
 6                     2.51185  -0.92452  -0.02945 
 1                     1.87905  -1.20282  -0.881 
 1                     3.30259  -1.67529   0.01828 
 6                    -1.26235  -1.45252  -0.93454 
 1                    -0.68836  -2.35534  -1.10715 
 6                    -2.49032  -1.53821  -0.14185 
 1                    -2.89306  -2.51671   0.09095 
 6                    -1.68381   0.95718  -1.2565 
 1                    -1.03589   1.8353   -1.25879 
 1                    -2.34862   1.06206  -2.12426 
 6                    -2.51185   0.92452   0.02945 
 1                    -3.30259   1.67529  -0.01828 
 1                    -1.87905   1.20282   0.881 
 
 ITRead=  0  0  0  0  0  0  0  0  0  0  0  0  0  0  0  0  0  0  0  0
 ITRead=  0  0  0  0  0  0  0  0
 MicOpt= -1 -1 -1 -1 -1 -1 -1 -1 -1 -1 -1 -1 -1 -1 -1 -1 -1 -1 -1 -1
 MicOpt= -1 -1 -1 -1 -1 -1 -1 -1
 NAtoms=     28 NQM=       28 NQMF=       0 NMMI=      0 NMMIF=      0
                NMic=       0 NMicF=      0.
                    Isotopes and Nuclear Properties:
 (Nuclear quadrupole moments (NQMom) in fm**2, nuclear magnetic moments (NMagM)
  in nuclear magnetons)

  Atom         1           2           3           4           5           6           7           8           9          10
 IAtWgt=          12          12           1           1          12          12           1           1          12           1
 AtmWgt=  12.0000000  12.0000000   1.0078250   1.0078250  12.0000000  12.0000000   1.0078250   1.0078250  12.0000000   1.0078250
 NucSpn=           0           0           1           1           0           0           1           1           0           1
 AtZEff=  -0.0000000  -0.0000000  -0.0000000  -0.0000000  -0.0000000  -0.0000000  -0.0000000  -0.0000000  -0.0000000  -0.0000000
 NQMom=    0.0000000   0.0000000   0.0000000   0.0000000   0.0000000   0.0000000   0.0000000   0.0000000   0.0000000   0.0000000
 NMagM=    0.0000000   0.0000000   2.7928460   2.7928460   0.0000000   0.0000000   2.7928460   2.7928460   0.0000000   2.7928460
 AtZNuc=   6.0000000   6.0000000   1.0000000   1.0000000   6.0000000   6.0000000   1.0000000   1.0000000   6.0000000   1.0000000

  Atom        11          12          13          14          15          16          17          18          19          20
 IAtWgt=           1          12           1          12           1          12           1           1          12           1
 AtmWgt=   1.0078250  12.0000000   1.0078250  12.0000000   1.0078250  12.0000000   1.0078250   1.0078250  12.0000000   1.0078250
 NucSpn=           1           0           1           0           1           0           1           1           0           1
 AtZEff=  -0.0000000  -0.0000000  -0.0000000  -0.0000000  -0.0000000  -0.0000000  -0.0000000  -0.0000000  -0.0000000  -0.0000000
 NQMom=    0.0000000   0.0000000   0.0000000   0.0000000   0.0000000   0.0000000   0.0000000   0.0000000   0.0000000   0.0000000
 NMagM=    2.7928460   0.0000000   2.7928460   0.0000000   2.7928460   0.0000000   2.7928460   2.7928460   0.0000000   2.7928460
 AtZNuc=   1.0000000   6.0000000   1.0000000   6.0000000   1.0000000   6.0000000   1.0000000   1.0000000   6.0000000   1.0000000

  Atom        21          22          23          24          25          26          27          28
 IAtWgt=          12           1          12           1           1          12           1           1
 AtmWgt=  12.0000000   1.0078250  12.0000000   1.0078250   1.0078250  12.0000000   1.0078250   1.0078250
 NucSpn=           0           1           0           1           1           0           1           1
 AtZEff=  -0.0000000  -0.0000000  -0.0000000  -0.0000000  -0.0000000  -0.0000000  -0.0000000  -0.0000000
 NQMom=    0.0000000   0.0000000   0.0000000   0.0000000   0.0000000   0.0000000   0.0000000   0.0000000
 NMagM=    0.0000000   2.7928460   0.0000000   2.7928460   2.7928460   0.0000000   2.7928460   2.7928460
 AtZNuc=   6.0000000   1.0000000   6.0000000   1.0000000   1.0000000   6.0000000   1.0000000   1.0000000
 Leave Link  101 at Mon Aug  3 17:52:57 2020, MaxMem=  6442450944 cpu:               2.4 elap:               0.1
 (Enter /scratch/scicomp/CentOS/7.3.1611/Haswell/software/Gaussian/g16/l202.exe)
                          Input orientation:                          
 ---------------------------------------------------------------------
 Center     Atomic      Atomic             Coordinates (Angstroms)
 Number     Number       Type             X           Y           Z
 ---------------------------------------------------------------------
      1          6           0       -3.093267   -0.435973    0.300434
      2          6           0       -0.866740   -0.289096   -1.445431
      3          1           0       -3.986142   -0.504800    0.910939
      4          1           0        0.030308   -0.224943   -2.049778
      5          6           0        1.262349    1.452521    0.934535
      6          6           0        0.866740    0.289096    1.445431
      7          1           0        0.688360    2.355340    1.107147
      8          1           0       -0.030308    0.224943    2.049778
      9          6           0        1.683814   -0.957175    1.256502
     10          1           0        2.348618   -1.062059    2.124256
     11          1           0        1.035891   -1.835298    1.258793
     12          6           0        2.490317    1.538213    0.141849
     13          1           0        2.893062    2.516708   -0.090946
     14          6           0        3.093267    0.435973   -0.300434
     15          1           0        3.986142    0.504800   -0.910939
     16          6           0        2.511845   -0.924519   -0.029450
     17          1           0        1.879054   -1.202820   -0.880995
     18          1           0        3.302586   -1.675290    0.018282
     19          6           0       -1.262349   -1.452521   -0.934535
     20          1           0       -0.688360   -2.355340   -1.107147
     21          6           0       -2.490317   -1.538213   -0.141849
     22          1           0       -2.893062   -2.516708    0.090946
     23          6           0       -1.683814    0.957175   -1.256502
     24          1           0       -1.035891    1.835298   -1.258793
     25          1           0       -2.348618    1.062059   -2.124256
     26          6           0       -2.511845    0.924519    0.029450
     27          1           0       -3.302586    1.675290   -0.018282
     28          1           0       -1.879054    1.202820    0.880995
 ---------------------------------------------------------------------
                    Distance matrix (angstroms):
                    1          2          3          4          5
     1  C    0.000000
     2  C    2.833203   0.000000
     3  H    1.083826   3.915313   0.000000
     4  H    3.914684   1.083534   4.997603   0.000000
     5  C    4.789560   3.637374   5.601635   3.638397   0.000000
     6  C    4.185499   3.419992   4.946354   3.630474   1.330819
     7  H    4.768953   3.990869   5.483600   4.130020   1.083670
     8  H    3.588695   3.630474   4.180682   4.124613   2.102778
     9  C    4.899614   3.775195   5.698461   3.768519   2.467373
    10  H    5.773424   4.866073   6.473937   4.847462   2.986391
    11  H    4.463912   3.650147   5.206923   3.814588   3.311522
    12  C    5.924438   4.138641   6.834466   3.736789   1.464104
    13  H    6.686377   4.882958   7.580022   4.421429   2.200757
    14  C    6.276507   4.185499   7.243653   3.588695   2.431209
    15  H    7.243653   4.946354   8.239893   4.180682   3.423886
    16  C    5.636025   3.718010   6.579083   3.275539   2.853213
    17  H    5.167959   2.948366   6.172421   2.395863   3.275257
    18  H    6.520924   4.631120   7.435889   4.133785   3.845164
    19  C    2.431209   1.330819   3.423886   2.102778   4.278644
    20  H    3.383612   2.101338   4.286320   2.437956   4.740626
    21  C    1.331952   2.428090   2.100904   3.423218   4.917885
    22  H    2.100815   3.380635   2.432074   4.287304   5.808086
    23  C    2.520212   1.502164   3.483660   2.228206   3.704846
    24  H    3.438409   2.139275   4.346007   2.450924   3.199861
    25  H    2.945798   2.117165   3.788000   2.705773   4.748447
    26  C    1.504135   2.520815   2.234620   3.479511   3.916951
    27  H    2.145420   3.439319   2.466474   4.341203   4.668631
    28  H    2.120615   2.943272   2.712321   3.778042   3.151766
                    6          7          8          9         10
     6  C    0.000000
     7  H    2.101338   0.000000
     8  H    1.083534   2.437956   0.000000
     9  C    1.502164   3.462079   2.228206   0.000000
    10  H    2.117165   3.933139   2.705773   1.098163   0.000000
    11  H    2.139275   4.207757   2.450924   1.091288   1.752192
    12  C    2.428090   2.201487   3.423218   2.849537   3.272832
    13  H    3.380635   2.514394   4.287304   3.917366   4.243950
    14  C    2.833203   3.383612   3.914684   2.520212   2.945798
    15  H    3.915313   4.286320   4.997603   3.483660   3.788000
    16  C    2.520815   3.921024   3.479511   1.529828   2.164257
    17  H    2.943272   4.246288   3.778042   2.160406   3.044969
    18  H    3.439319   4.926031   4.341203   2.160856   2.391910
    19  C    3.637374   4.740626   3.638397   3.704846   4.748447
    20  H    3.990869   5.384140   4.130020   3.628899   4.619283
    21  C    4.138641   5.179163   3.736789   4.440311   5.364443
    22  H    4.882958   6.131566   4.421429   4.973777   5.807371
    23  C    3.775195   3.628899   3.768519   4.617450   5.636252
    24  H    3.650147   2.973408   3.814588   4.639117   5.594158
    25  H    4.866073   4.619283   4.847462   5.636252   6.680251
    26  C    3.718010   3.667423   3.275539   4.759200   5.653212
    27  H    4.631120   4.201989   4.133785   5.780928   6.634731
    28  H    2.948366   2.823307   2.395863   4.183373   4.954653
                   11         12         13         14         15
    11  H    0.000000
    12  C    3.839726   0.000000
    13  H    4.920451   1.083443   0.000000
    14  C    3.438409   1.331952   2.100815   0.000000
    15  H    4.346007   2.100904   2.432074   1.083826   0.000000
    16  C    2.160446   2.468776   3.462824   1.504135   2.234620
    17  H    2.385298   2.988832   3.935388   2.120615   2.712321
    18  H    2.588895   3.316874   4.213370   2.145420   2.466474
    19  C    3.199861   4.917885   5.808086   4.789560   5.601635
    20  H    2.973408   5.179163   6.131566   4.768953   5.483600
    21  C    3.805811   5.861024   6.739862   5.924438   6.834466
    22  H    4.155100   6.739862   7.671218   6.686377   7.580022
    23  C    4.639117   4.440311   4.973777   4.899614   5.698461
    24  H    4.909562   3.805811   4.155100   4.463912   5.206923
    25  H    5.594158   5.364443   5.807371   5.773424   6.473937
    26  C    4.659861   5.040920   5.635830   5.636025   6.579083
    27  H    5.725166   5.796737   6.252945   6.520924   7.435889
    28  H    4.227268   4.444123   5.044211   5.167959   6.172421
                   16         17         18         19         20
    16  C    0.000000
    17  H    1.096816   0.000000
    18  H    1.091424   1.748820   0.000000
    19  C    3.916951   3.151766   4.668631   0.000000
    20  H    3.667423   2.823307   4.201989   1.083670   0.000000
    21  C    5.040920   4.444123   5.796737   1.464104   2.201487
    22  H    5.635830   5.044211   6.252945   2.200757   2.514394
    23  C    4.759200   4.183373   5.780928   2.467373   3.462079
    24  H    4.659861   4.227268   5.725166   3.311522   4.207757
    25  H    5.653212   4.954653   6.634731   2.986391   3.933139
    26  C    5.353492   4.963313   6.369202   2.853213   3.921024
    27  H    6.369202   5.989757   7.406485   3.845164   4.926031
    28  H    4.963313   4.797404   5.989757   3.275257   4.246288
                   21         22         23         24         25
    21  C    0.000000
    22  H    1.083443   0.000000
    23  C    2.849537   3.917366   0.000000
    24  H    3.839726   4.920451   1.091288   0.000000
    25  H    3.272832   4.243950   1.098163   1.752192   0.000000
    26  C    2.468776   3.462824   1.529828   2.160446   2.164257
    27  H    3.316874   4.213370   2.160856   2.588895   2.391910
    28  H    2.988832   3.935388   2.160406   2.385298   3.044969
                   26         27         28
    26  C    0.000000
    27  H    1.091424   0.000000
    28  H    1.096816   1.748820   0.000000
 Symmetry turned off by external request.
 Stoichiometry    C12H16
 Framework group  CI[X(C12H16)]
 Deg. of freedom    39
 Full point group                 CI      NOp   2
 Rotational constants (GHZ):           1.6244635           0.5644758           0.5263311
 Leave Link  202 at Mon Aug  3 17:52:57 2020, MaxMem=  6442450944 cpu:               0.3 elap:               0.0
 (Enter /scratch/scicomp/CentOS/7.3.1611/Haswell/software/Gaussian/g16/l301.exe)
 Standard basis: def2TZVP (6D, 10F)
 Ernie: Thresh=  0.10000D-02 Tol=  0.10000D-05 Strict=F.
   528 basis functions,   740 primitive gaussians,   528 cartesian basis functions
    44 alpha electrons       44 beta electrons
       nuclear repulsion energy       666.2091593599 Hartrees.
 IExCor= 4639 DFT=T Ex+Corr=wB97XD ExCW=0 ScaHFX=  1.000000
 ScaDFX=  1.000000  1.000000  1.000000  1.000000 ScalE2=  1.000000  1.000000
 IRadAn=      5 IRanWt=     -1 IRanGd=            0 ICorTp=0 IEmpDi=121
 HFx  wShort=  0.000000 wLong=  0.200000 cFull=  0.222036 cShort=  0.000000 cLong=  0.777964
 DFx  wShort=  0.000000 wLong=  0.200000 cFull=  0.000000 cShort=  0.000000 cLong=  1.000000
 NAtoms=   28 NActive=   28 NUniq=   28 SFac= 1.00D+00 NAtFMM=   60 NAOKFM=F Big=F
 Integral buffers will be    131072 words long.
 Raffenetti 2 integral format.
 Two-electron integral symmetry is turned off.
 R6Disp:  Grimme-D2 Dispersion energy=       -0.0203121693 Hartrees.
 Nuclear repulsion after empirical dispersion term =      666.1888471906 Hartrees.
 Using the following non-standard input for PCM:
 qrep pcmdoc geomview  nodis nocav g03defaults tsare=0.075
 Warning! Using old PCM defaults because the g03defaults keyword was found.
 These settings can be overridden by following keywords.
 nsfe=28
 NVESolv=36  SolvMW=84.1595   Rsolv=2.815
 eps=2.0165 RhoS=0.778099999999998
 --- end of non-standard input.
 Reading user-defined spheres from input:
 ISph  on   Nord    Re0     Alpha      Xe            Ye            Ze
 --- end of user-defined spheres data.
 ------------------------------------------------------------------------------
 Polarizable Continuum Model (PCM)
 =================================
 Model                : PCM.
 Atomic radii         : UA0 (Simple United Atom Topological Model).
 Polarization charges : Total charges.
 Charge compensation  : None.
 Solution method      : On-the-fly selection.
 Cavity type          : SES (Solvent Excluding Surface) (Alpha=1.000).
 Cavity algorithm     : GePol (RMin=0.200 OFac=0.890).
                        User-defined sphere list used, NSphG=   28.
                        Tesserae with average area of 0.075 Ang**2.
                        Smoothing algorithm: None.
                        Polarization charges: point-like.
                        Self-potential: constant (ISelfS= 1).
                        Self-field    : global E.n sum rule (ISelfD= 3).
 Solvent              : CycloHexane, Eps=   2.016500 Eps(inf)=   2.035188
                        RSolv=   2.815000 Ang.
 ------------------------------------------------------------------------------
 GePol: Number of generator spheres                  =      28
 GePol: Total number of spheres                      =     211
 GePol: Number of exposed spheres                    =     140 ( 66.35%)
 GePol: Number of tesserae                           =    4771
 GePol: Average area of tesserae                     =       0.05 Ang**2
 GePol: Minimum area of tessera                      =   0.10D-02 Ang**2
 GePol: Maximum area of tessera                      =    0.12482 Ang**2
 GePol: Number of small tesserae                     =       0
 GePol: Fraction of small tesserae (<1% of avg)      =       0.00%
 GePol: Total count of vertices                      =   16853
 GePol: Maximum number of vertices in a tessera      =       9
 GePol: Cavity surface area                          =    226.558 Ang**2
 GePol: Cavity volume                                =    260.640 Ang**3
 Leave Link  301 at Mon Aug  3 17:52:58 2020, MaxMem=  6442450944 cpu:               8.6 elap:               0.4
 (Enter /scratch/scicomp/CentOS/7.3.1611/Haswell/software/Gaussian/g16/l302.exe)
 NPDir=0 NMtPBC=     1 NCelOv=     1 NCel=       1 NClECP=     1 NCelD=      1
         NCelK=      1 NCelE2=     1 NClLst=     1 CellRange=     0.0.
 One-electron integrals computed using PRISM.
   1 Symmetry operations used in ECPInt.
 ECPInt:  NShTT=   19306 NPrTT=   56928 LenC2=   18449 LenP2D=   41557.
 LDataN:  DoStor=T MaxTD1= 6 Len=  172
 NBasis=   528 RedAO= T EigKep=  2.14D-05  NBF=   528
 NBsUse=   528 1.00D-06 EigRej= -1.00D+00 NBFU=   528
 Precomputing XC quadrature grid using
 IXCGrd= 4 IRadAn=           5 IRanWt=          -1 IRanGd=           0 AccXCQ= 0.00D+00.
 Generated NRdTot=       0 NPtTot=           0 NUsed=           0 NTot=          32
 NSgBfM=   526   526   526   526   526 MxSgAt=    28 MxSgA2=    28.
 Leave Link  302 at Mon Aug  3 17:52:58 2020, MaxMem=  6442450944 cpu:              12.9 elap:               0.6
 (Enter /scratch/scicomp/CentOS/7.3.1611/Haswell/software/Gaussian/g16/l303.exe)
 DipDrv:  MaxL=1.
 Leave Link  303 at Mon Aug  3 17:52:58 2020, MaxMem=  6442450944 cpu:               1.5 elap:               0.1
 (Enter /scratch/scicomp/CentOS/7.3.1611/Haswell/software/Gaussian/g16/l401.exe)
 ExpMin= 9.52D-02 ExpMax= 1.36D+04 ExpMxC= 4.63D+02 IAcc=3 IRadAn=         5 AccDes= 0.00D+00
 Harris functional with IExCor= 4639 and IRadAn=       5 diagonalized for initial guess.
 HarFok:  IExCor= 4639 AccDes= 0.00D+00 IRadAn=         5 IDoV= 1 UseB2=F ITyADJ=14
 ICtDFT=  3500011 ScaDFX=  1.000000  1.000000  1.000000  1.000000
 FoFCou: FMM=F IPFlag=           0 FMFlag=      100000 FMFlg1=           0
         NFxFlg=           0 DoJE=T BraDBF=F KetDBF=T FulRan=T
         wScrn=  0.000000 ICntrl=       500 IOpCl=  0 I1Cent=   200000004 NGrid=           0
         NMat0=    1 NMatS0=      1 NMatT0=    0 NMatD0=    1 NMtDS0=    0 NMtDT0=    0
 Symmetry not used in FoFCou.
 Harris En= -444.661717998556    
 JPrj=0 DoOrth=F DoCkMO=T.
 Mixing orbitals, IMix= 1 IMixAn=  0 NRI=1 NE=   44 Coef=  7.07106781D-01  7.07106781D-01
 Mixing orbitals, IMix= 1 IMixAn=  0 NRI=1 NE=   44 Coef= -7.07106781D-01  7.07106781D-01
 Initial guess <Sx>= 0.0000 <Sy>= 0.0000 <Sz>= 0.0000 <S**2>= 1.0000 S= 0.6180
 Leave Link  401 at Mon Aug  3 17:53:00 2020, MaxMem=  6442450944 cpu:              48.6 elap:               2.1
 (Enter /scratch/scicomp/CentOS/7.3.1611/Haswell/software/Gaussian/g16/l502.exe)
 Two-electron integral symmetry not used.
 UHF open shell SCF:
 Using DIIS extrapolation, IDIIS=  1040.
 NGot=  6442450944 LenX=  6441877030 LenY=  6441597718
 Requested convergence on RMS density matrix=1.00D-08 within 128 cycles.
 Requested convergence on MAX density matrix=1.00D-06.
 Requested convergence on             energy=1.00D-06.
 No special actions if energy rises.
 Fock matrices will be formed incrementally for  20 cycles.

 Cycle   1  Pass 1  IDiag  1:
 FoFJK:  IHMeth= 1 ICntrl=       0 DoSepK=T KAlg= 0 I1Cent=           0 FoldK=F
 IRaf=         1 NMat=       1 IRICut=       1 DoRegI=T DoRafI=F ISym2E= 0 IDoP0=0 IntGTp=1.
 FoFCou: FMM=F IPFlag=           0 FMFlag=      100000 FMFlg1=           0
         NFxFlg=           0 DoJE=T BraDBF=F KetDBF=F FulRan=T
         wScrn=  0.000000 ICntrl=       500 IOpCl=  0 I1Cent=           0 NGrid=           0
         NMat0=    1 NMatS0=      1 NMatT0=    0 NMatD0=    1 NMtDS0=    0 NMtDT0=    0
 Symmetry not used in FoFCou.
 Inv3:  Mode=1 IEnd=    68287323.
 Iteration    1 A*A^-1 deviation from unit magnitude is 1.37D-13 for   2385.
 Iteration    1 A*A^-1 deviation from orthogonality  is 3.02D-13 for   3459   2385.
 Iteration    1 A^-1*A deviation from unit magnitude is 4.20D-14 for   3459.
 Iteration    1 A^-1*A deviation from orthogonality  is 8.18D-14 for   3459   2385.
 E= -466.560600929015    
 DIIS: error= 5.41D-02 at cycle   1 NSaved=   1.
 NSaved= 1 IEnMin= 1 EnMin= -466.560600929015     IErMin= 1 ErrMin= 5.41D-02
 ErrMax= 5.41D-02  0.00D+00 EMaxC= 1.00D-01 BMatC= 4.12D+00 BMatP= 4.12D+00
 IDIUse=3 WtCom= 4.59D-01 WtEn= 5.41D-01
 Coeff-Com:  0.100D+01
 Coeff-En:   0.100D+01
 Coeff:      0.100D+01
 Gap=     0.178 Goal=   None    Shift=    0.000
 Gap=     0.178 Goal=   None    Shift=    0.000
 GapD=    0.178 DampG=1.000 DampE=0.500 DampFc=0.5000 IDamp=-1.
 Damping current iteration by 5.00D-01
 RMSDP=1.73D-03 MaxDP=9.37D-02              OVMax= 3.72D-01

 Cycle   2  Pass 1  IDiag  1:
 RMSU=  8.27D-04    CP:  9.59D-01
 E= -466.677730668243     Delta-E=       -0.117129739229 Rises=F Damp=T
 DIIS: error= 2.56D-02 at cycle   2 NSaved=   2.
 NSaved= 2 IEnMin= 2 EnMin= -466.677730668243     IErMin= 2 ErrMin= 2.56D-02
 ErrMax= 2.56D-02  0.00D+00 EMaxC= 1.00D-01 BMatC= 9.38D-01 BMatP= 4.12D+00
 IDIUse=3 WtCom= 7.44D-01 WtEn= 2.56D-01
 Coeff-Com: -0.870D+00 0.187D+01
 Coeff-En:   0.000D+00 0.100D+01
 Coeff:     -0.647D+00 0.165D+01
 Gap=     0.287 Goal=   None    Shift=    0.000
 Gap=     0.287 Goal=   None    Shift=    0.000
 RMSDP=1.24D-03 MaxDP=4.94D-02 DE=-1.17D-01 OVMax= 1.39D-01

 Cycle   3  Pass 1  IDiag  1:
 RMSU=  5.88D-04    CP:  8.98D-01  2.24D+00
 E= -466.831926790366     Delta-E=       -0.154196122123 Rises=F Damp=F
 DIIS: error= 7.83D-03 at cycle   3 NSaved=   3.
 NSaved= 3 IEnMin= 3 EnMin= -466.831926790366     IErMin= 3 ErrMin= 7.83D-03
 ErrMax= 7.83D-03  0.00D+00 EMaxC= 1.00D-01 BMatC= 2.30D-02 BMatP= 9.38D-01
 IDIUse=3 WtCom= 9.22D-01 WtEn= 7.83D-02
 Coeff-Com: -0.309D+00 0.662D+00 0.647D+00
 Coeff-En:   0.000D+00 0.000D+00 0.100D+01
 Coeff:     -0.285D+00 0.610D+00 0.675D+00
 Gap=     0.310 Goal=   None    Shift=    0.000
 Gap=     0.310 Goal=   None    Shift=    0.000
 RMSDP=2.01D-04 MaxDP=9.09D-03 DE=-1.54D-01 OVMax= 6.33D-02

 Cycle   4  Pass 1  IDiag  1:
 RMSU=  1.82D-04    CP:  8.91D-01  2.32D+00  1.02D+00
 E= -466.842284774119     Delta-E=       -0.010357983753 Rises=F Damp=F
 DIIS: error= 5.03D-03 at cycle   4 NSaved=   4.
 NSaved= 4 IEnMin= 4 EnMin= -466.842284774119     IErMin= 4 ErrMin= 5.03D-03
 ErrMax= 5.03D-03  0.00D+00 EMaxC= 1.00D-01 BMatC= 1.98D-03 BMatP= 2.30D-02
 IDIUse=3 WtCom= 9.50D-01 WtEn= 5.03D-02
 Coeff-Com:  0.152D+00-0.326D+00-0.815D-01 0.126D+01
 Coeff-En:   0.000D+00 0.000D+00 0.000D+00 0.100D+01
 Coeff:      0.145D+00-0.310D+00-0.774D-01 0.124D+01
 Gap=     0.321 Goal=   None    Shift=    0.000
 Gap=     0.321 Goal=   None    Shift=    0.000
 RMSDP=2.06D-04 MaxDP=1.01D-02 DE=-1.04D-02 OVMax= 7.46D-02

 Cycle   5  Pass 1  IDiag  1:
 RMSU=  7.89D-05    CP:  8.84D-01  2.38D+00  1.25D+00  1.64D+00
 E= -466.846706992952     Delta-E=       -0.004422218833 Rises=F Damp=F
 DIIS: error= 2.11D-03 at cycle   5 NSaved=   5.
 NSaved= 5 IEnMin= 5 EnMin= -466.846706992952     IErMin= 5 ErrMin= 2.11D-03
 ErrMax= 2.11D-03  0.00D+00 EMaxC= 1.00D-01 BMatC= 7.21D-04 BMatP= 1.98D-03
 IDIUse=3 WtCom= 9.79D-01 WtEn= 2.11D-02
 Coeff-Com:  0.422D-01-0.906D-01-0.501D-01 0.220D+00 0.879D+00
 Coeff-En:   0.000D+00 0.000D+00 0.000D+00 0.000D+00 0.100D+01
 Coeff:      0.413D-01-0.887D-01-0.491D-01 0.215D+00 0.882D+00
 Gap=     0.323 Goal=   None    Shift=    0.000
 Gap=     0.323 Goal=   None    Shift=    0.000
 RMSDP=6.94D-05 MaxDP=2.63D-03 DE=-4.42D-03 OVMax= 2.62D-02

 Cycle   6  Pass 1  IDiag  1:
 RMSU=  3.01D-05    CP:  8.83D-01  2.39D+00  1.29D+00  1.89D+00  1.44D+00
 E= -466.848005260529     Delta-E=       -0.001298267577 Rises=F Damp=F
 DIIS: error= 1.45D-03 at cycle   6 NSaved=   6.
 NSaved= 6 IEnMin= 6 EnMin= -466.848005260529     IErMin= 6 ErrMin= 1.45D-03
 ErrMax= 1.45D-03  0.00D+00 EMaxC= 1.00D-01 BMatC= 4.91D-04 BMatP= 7.21D-04
 IDIUse=3 WtCom= 9.85D-01 WtEn= 1.45D-02
 Coeff-Com: -0.867D-01 0.186D+00 0.559D-01-0.659D+00 0.141D+00 0.136D+01
 Coeff-En:   0.000D+00 0.000D+00 0.000D+00 0.000D+00 0.000D+00 0.100D+01
 Coeff:     -0.855D-01 0.183D+00 0.551D-01-0.650D+00 0.139D+00 0.136D+01
 Gap=     0.319 Goal=   None    Shift=    0.000
 Gap=     0.319 Goal=   None    Shift=    0.000
 RMSDP=9.48D-05 MaxDP=3.81D-03 DE=-1.30D-03 OVMax= 3.58D-02

 Cycle   7  Pass 1  IDiag  1:
 RMSU=  2.79D-05    CP:  8.81D-01  2.39D+00  1.32D+00  2.17D+00  2.17D+00
                    CP:  2.37D+00
 E= -466.849546907836     Delta-E=       -0.001541647306 Rises=F Damp=F
 DIIS: error= 1.07D-03 at cycle   7 NSaved=   7.
 NSaved= 7 IEnMin= 7 EnMin= -466.849546907836     IErMin= 7 ErrMin= 1.07D-03
 ErrMax= 1.07D-03  0.00D+00 EMaxC= 1.00D-01 BMatC= 2.41D-04 BMatP= 4.91D-04
 IDIUse=3 WtCom= 9.89D-01 WtEn= 1.07D-02
 Coeff-Com: -0.232D-01 0.503D-01 0.390D-01-0.480D-02-0.841D+00-0.215D+00
 Coeff-Com:  0.200D+01
 Coeff-En:   0.000D+00 0.000D+00 0.000D+00 0.000D+00 0.000D+00 0.000D+00
 Coeff-En:   0.100D+01
 Coeff:     -0.229D-01 0.497D-01 0.386D-01-0.475D-02-0.832D+00-0.213D+00
 Coeff:      0.198D+01
 Gap=     0.320 Goal=   None    Shift=    0.000
 Gap=     0.320 Goal=   None    Shift=    0.000
 RMSDP=1.27D-04 MaxDP=5.75D-03 DE=-1.54D-03 OVMax= 4.73D-02

 Cycle   8  Pass 1  IDiag  1:
 RMSU=  5.77D-05    CP:  8.79D-01  2.38D+00  1.36D+00  2.48D+00  3.00D+00
                    CP:  3.00D+00  2.50D+00
 E= -466.850785674791     Delta-E=       -0.001238766955 Rises=F Damp=F
 DIIS: error= 3.60D-04 at cycle   8 NSaved=   8.
 NSaved= 8 IEnMin= 8 EnMin= -466.850785674791     IErMin= 8 ErrMin= 3.60D-04
 ErrMax= 3.60D-04  0.00D+00 EMaxC= 1.00D-01 BMatC= 5.08D-05 BMatP= 2.41D-04
 IDIUse=3 WtCom= 9.96D-01 WtEn= 3.60D-03
 Coeff-Com:  0.236D-01-0.508D-01-0.584D-02 0.251D+00-0.283D+00-0.565D+00
 Coeff-Com:  0.551D+00 0.108D+01
 Coeff-En:   0.000D+00 0.000D+00 0.000D+00 0.000D+00 0.000D+00 0.000D+00
 Coeff-En:   0.000D+00 0.100D+01
 Coeff:      0.236D-01-0.506D-01-0.582D-02 0.250D+00-0.282D+00-0.563D+00
 Coeff:      0.549D+00 0.108D+01
 Gap=     0.321 Goal=   None    Shift=    0.000
 Gap=     0.321 Goal=   None    Shift=    0.000
 RMSDP=5.21D-05 MaxDP=2.50D-03 DE=-1.24D-03 OVMax= 1.90D-02

 Cycle   9  Pass 1  IDiag  1:
 RMSU=  2.55D-05    CP:  8.78D-01  2.38D+00  1.37D+00  2.56D+00  3.00D+00
                    CP:  3.00D+00  3.00D+00  1.63D+00
 E= -466.850962508019     Delta-E=       -0.000176833228 Rises=F Damp=F
 DIIS: error= 1.03D-04 at cycle   9 NSaved=   9.
 NSaved= 9 IEnMin= 9 EnMin= -466.850962508019     IErMin= 9 ErrMin= 1.03D-04
 ErrMax= 1.03D-04  0.00D+00 EMaxC= 1.00D-01 BMatC= 6.82D-06 BMatP= 5.08D-05
 IDIUse=3 WtCom= 9.99D-01 WtEn= 1.03D-03
 Coeff-Com:  0.105D-01-0.225D-01-0.718D-02 0.717D-01 0.446D-01-0.122D+00
 Coeff-Com: -0.143D+00 0.242D+00 0.926D+00
 Coeff-En:   0.000D+00 0.000D+00 0.000D+00 0.000D+00 0.000D+00 0.000D+00
 Coeff-En:   0.000D+00 0.000D+00 0.100D+01
 Coeff:      0.105D-01-0.225D-01-0.717D-02 0.716D-01 0.446D-01-0.122D+00
 Coeff:     -0.143D+00 0.242D+00 0.926D+00
 Gap=     0.321 Goal=   None    Shift=    0.000
 Gap=     0.321 Goal=   None    Shift=    0.000
 RMSDP=1.28D-05 MaxDP=5.66D-04 DE=-1.77D-04 OVMax= 4.49D-03

 Cycle  10  Pass 1  IDiag  1:
 RMSU=  5.83D-06    CP:  8.78D-01  2.38D+00  1.38D+00  2.57D+00  3.00D+00
                    CP:  3.00D+00  3.00D+00  1.77D+00  1.28D+00
 E= -466.850974233650     Delta-E=       -0.000011725631 Rises=F Damp=F
 DIIS: error= 4.17D-05 at cycle  10 NSaved=  10.
 NSaved=10 IEnMin=10 EnMin= -466.850974233650     IErMin=10 ErrMin= 4.17D-05
 ErrMax= 4.17D-05  0.00D+00 EMaxC= 1.00D-01 BMatC= 9.37D-07 BMatP= 6.82D-06
 IDIUse=1 WtCom= 1.00D+00 WtEn= 0.00D+00
 Coeff-Com: -0.225D-02 0.486D-02-0.124D-03-0.323D-01 0.475D-01 0.781D-01
 Coeff-Com: -0.983D-01-0.183D+00 0.140D+00 0.105D+01
 Coeff:     -0.225D-02 0.486D-02-0.124D-03-0.323D-01 0.475D-01 0.781D-01
 Coeff:     -0.983D-01-0.183D+00 0.140D+00 0.105D+01
 Gap=     0.321 Goal=   None    Shift=    0.000
 Gap=     0.321 Goal=   None    Shift=    0.000
 RMSDP=4.92D-06 MaxDP=2.13D-04 DE=-1.17D-05 OVMax= 1.78D-03

 Cycle  11  Pass 1  IDiag  1:
 RMSU=  1.82D-06    CP:  8.78D-01  2.39D+00  1.38D+00  2.57D+00  3.00D+00
                    CP:  3.00D+00  3.00D+00  1.81D+00  1.40D+00  1.31D+00
 E= -466.850975572092     Delta-E=       -0.000001338442 Rises=F Damp=F
 DIIS: error= 1.50D-05 at cycle  11 NSaved=  11.
 NSaved=11 IEnMin=11 EnMin= -466.850975572092     IErMin=11 ErrMin= 1.50D-05
 ErrMax= 1.50D-05  0.00D+00 EMaxC= 1.00D-01 BMatC= 9.78D-08 BMatP= 9.37D-07
 IDIUse=1 WtCom= 1.00D+00 WtEn= 0.00D+00
 Coeff-Com: -0.317D-03 0.679D-03 0.764D-04-0.291D-02 0.974D-03 0.591D-02
 Coeff-Com:  0.266D-02-0.160D-01-0.339D-01 0.371D-01 0.101D+01
 Coeff:     -0.317D-03 0.679D-03 0.764D-04-0.291D-02 0.974D-03 0.591D-02
 Coeff:      0.266D-02-0.160D-01-0.339D-01 0.371D-01 0.101D+01
 Gap=     0.321 Goal=   None    Shift=    0.000
 Gap=     0.321 Goal=   None    Shift=    0.000
 RMSDP=9.55D-07 MaxDP=3.94D-05 DE=-1.34D-06 OVMax= 1.47D-04

 Cycle  12  Pass 1  IDiag  1:
 RMSU=  6.53D-07    CP:  8.78D-01  2.39D+00  1.38D+00  2.58D+00  3.00D+00
                    CP:  3.00D+00  3.00D+00  1.81D+00  1.39D+00  1.28D+00
                    CP:  1.32D+00
 E= -466.850975671248     Delta-E=       -0.000000099156 Rises=F Damp=F
 DIIS: error= 9.62D-06 at cycle  12 NSaved=  12.
 NSaved=12 IEnMin=12 EnMin= -466.850975671248     IErMin=12 ErrMin= 9.62D-06
 ErrMax= 9.62D-06  0.00D+00 EMaxC= 1.00D-01 BMatC= 5.60D-08 BMatP= 9.78D-08
 IDIUse=1 WtCom= 1.00D+00 WtEn= 0.00D+00
 Coeff-Com:  0.407D-03-0.882D-03 0.334D-04 0.641D-02-0.100D-01-0.160D-01
 Coeff-Com:  0.237D-01 0.368D-01-0.485D-01-0.244D+00 0.459D+00 0.793D+00
 Coeff:      0.407D-03-0.882D-03 0.334D-04 0.641D-02-0.100D-01-0.160D-01
 Coeff:      0.237D-01 0.368D-01-0.485D-01-0.244D+00 0.459D+00 0.793D+00
 Gap=     0.321 Goal=   None    Shift=    0.000
 Gap=     0.321 Goal=   None    Shift=    0.000
 RMSDP=5.02D-07 MaxDP=2.19D-05 DE=-9.92D-08 OVMax= 9.92D-05

 Cycle  13  Pass 1  IDiag  1:
 RMSU=  2.52D-07    CP:  8.78D-01  2.39D+00  1.38D+00  2.58D+00  3.00D+00
                    CP:  3.00D+00  3.00D+00  1.81D+00  1.39D+00  1.27D+00
                    CP:  1.48D+00  1.41D+00
 E= -466.850975720031     Delta-E=       -0.000000048783 Rises=F Damp=F
 DIIS: error= 5.95D-06 at cycle  13 NSaved=  13.
 NSaved=13 IEnMin=13 EnMin= -466.850975720031     IErMin=13 ErrMin= 5.95D-06
 ErrMax= 5.95D-06  0.00D+00 EMaxC= 1.00D-01 BMatC= 1.25D-08 BMatP= 5.60D-08
 IDIUse=1 WtCom= 1.00D+00 WtEn= 0.00D+00
 Coeff-Com: -0.674D-04 0.147D-03 0.644D-04-0.655D-03 0.803D-03 0.105D-02
 Coeff-Com: -0.245D-02-0.879D-03 0.665D-02 0.686D-02-0.276D+00 0.659D-02
 Coeff-Com:  0.126D+01
 Coeff:     -0.674D-04 0.147D-03 0.644D-04-0.655D-03 0.803D-03 0.105D-02
 Coeff:     -0.245D-02-0.879D-03 0.665D-02 0.686D-02-0.276D+00 0.659D-02
 Coeff:      0.126D+01
 Gap=     0.321 Goal=   None    Shift=    0.000
 Gap=     0.321 Goal=   None    Shift=    0.000
 RMSDP=3.24D-07 MaxDP=1.82D-05 DE=-4.88D-08 OVMax= 8.52D-05

 Cycle  14  Pass 1  IDiag  1:
 RMSU=  2.16D-07    CP:  8.78D-01  2.39D+00  1.38D+00  2.58D+00  3.00D+00
                    CP:  3.00D+00  3.00D+00  1.81D+00  1.39D+00  1.27D+00
                    CP:  1.52D+00  1.65D+00  1.64D+00
 E= -466.850975743754     Delta-E=       -0.000000023722 Rises=F Damp=F
 DIIS: error= 3.22D-06 at cycle  14 NSaved=  14.
 NSaved=14 IEnMin=14 EnMin= -466.850975743754     IErMin=14 ErrMin= 3.22D-06
 ErrMax= 3.22D-06  0.00D+00 EMaxC= 1.00D-01 BMatC= 3.70D-09 BMatP= 1.25D-08
 IDIUse=1 WtCom= 1.00D+00 WtEn= 0.00D+00
 Coeff-Com: -0.160D-03 0.346D-03 0.356D-04-0.213D-02 0.290D-02 0.502D-02
 Coeff-Com: -0.740D-02-0.111D-01 0.171D-01 0.786D-01-0.212D+00-0.273D+00
 Coeff-Com:  0.201D+00 0.120D+01
 Coeff:     -0.160D-03 0.346D-03 0.356D-04-0.213D-02 0.290D-02 0.502D-02
 Coeff:     -0.740D-02-0.111D-01 0.171D-01 0.786D-01-0.212D+00-0.273D+00
 Coeff:      0.201D+00 0.120D+01
 Gap=     0.321 Goal=   None    Shift=    0.000
 Gap=     0.321 Goal=   None    Shift=    0.000
 RMSDP=2.45D-07 MaxDP=1.18D-05 DE=-2.37D-08 OVMax= 6.37D-05

 Cycle  15  Pass 1  IDiag  1:
 RMSU=  8.44D-08    CP:  8.78D-01  2.39D+00  1.38D+00  2.58D+00  3.00D+00
                    CP:  3.00D+00  3.00D+00  1.81D+00  1.39D+00  1.28D+00
                    CP:  1.53D+00  1.78D+00  2.15D+00  1.76D+00
 E= -466.850975751751     Delta-E=       -0.000000007997 Rises=F Damp=F
 DIIS: error= 1.07D-06 at cycle  15 NSaved=  15.
 NSaved=15 IEnMin=15 EnMin= -466.850975751751     IErMin=15 ErrMin= 1.07D-06
 ErrMax= 1.07D-06  0.00D+00 EMaxC= 1.00D-01 BMatC= 5.26D-10 BMatP= 3.70D-09
 IDIUse=1 WtCom= 1.00D+00 WtEn= 0.00D+00
 Coeff-Com:  0.167D-04-0.363D-04-0.270D-04 0.691D-04 0.118D-03 0.570D-04
 Coeff-Com: -0.479D-03-0.384D-03 0.215D-02 0.767D-02 0.239D-01-0.474D-01
 Coeff-Com: -0.244D+00 0.188D+00 0.107D+01
 Coeff:      0.167D-04-0.363D-04-0.270D-04 0.691D-04 0.118D-03 0.570D-04
 Coeff:     -0.479D-03-0.384D-03 0.215D-02 0.767D-02 0.239D-01-0.474D-01
 Coeff:     -0.244D+00 0.188D+00 0.107D+01
 Gap=     0.321 Goal=   None    Shift=    0.000
 Gap=     0.321 Goal=   None    Shift=    0.000
 RMSDP=1.04D-07 MaxDP=4.54D-06 DE=-8.00D-09 OVMax= 2.48D-05

 Cycle  16  Pass 1  IDiag  1:
 RMSU=  3.84D-08    CP:  8.78D-01  2.39D+00  1.38D+00  2.58D+00  3.00D+00
                    CP:  3.00D+00  3.00D+00  1.81D+00  1.39D+00  1.28D+00
                    CP:  1.53D+00  1.82D+00  2.33D+00  2.07D+00  1.48D+00
 E= -466.850975752658     Delta-E=       -0.000000000907 Rises=F Damp=F
 DIIS: error= 2.11D-07 at cycle  16 NSaved=  16.
 NSaved=16 IEnMin=16 EnMin= -466.850975752658     IErMin=16 ErrMin= 2.11D-07
 ErrMax= 2.11D-07  0.00D+00 EMaxC= 1.00D-01 BMatC= 5.16D-11 BMatP= 5.26D-10
 IDIUse=1 WtCom= 1.00D+00 WtEn= 0.00D+00
 Coeff-Com:  0.109D-04-0.235D-04-0.736D-05 0.135D-03-0.156D-03-0.269D-03
 Coeff-Com:  0.358D-03 0.662D-03-0.994D-03-0.433D-02 0.233D-01 0.121D-01
 Coeff-Com: -0.680D-01-0.687D-01 0.229D+00 0.877D+00
 Coeff:      0.109D-04-0.235D-04-0.736D-05 0.135D-03-0.156D-03-0.269D-03
 Coeff:      0.358D-03 0.662D-03-0.994D-03-0.433D-02 0.233D-01 0.121D-01
 Coeff:     -0.680D-01-0.687D-01 0.229D+00 0.877D+00
 Gap=     0.321 Goal=   None    Shift=    0.000
 Gap=     0.321 Goal=   None    Shift=    0.000
 RMSDP=2.41D-08 MaxDP=8.90D-07 DE=-9.07D-10 OVMax= 3.75D-06

 Cycle  17  Pass 1  IDiag  1:
 RMSU=  1.03D-08    CP:  8.78D-01  2.39D+00  1.38D+00  2.58D+00  3.00D+00
                    CP:  3.00D+00  3.00D+00  1.81D+00  1.39D+00  1.28D+00
                    CP:  1.53D+00  1.82D+00  2.34D+00  2.11D+00  1.60D+00
                    CP:  1.31D+00
 E= -466.850975752690     Delta-E=       -0.000000000032 Rises=F Damp=F
 DIIS: error= 9.44D-08 at cycle  17 NSaved=  17.
 NSaved=17 IEnMin=17 EnMin= -466.850975752690     IErMin=17 ErrMin= 9.44D-08
 ErrMax= 9.44D-08  0.00D+00 EMaxC= 1.00D-01 BMatC= 7.28D-12 BMatP= 5.16D-11
 IDIUse=1 WtCom= 1.00D+00 WtEn= 0.00D+00
 Coeff-Com: -0.257D-06 0.595D-06 0.159D-05 0.687D-05-0.329D-04-0.197D-04
 Coeff-Com:  0.812D-04 0.127D-03-0.501D-03-0.157D-02 0.697D-03 0.847D-02
 Coeff-Com:  0.238D-01-0.389D-01-0.120D+00 0.166D+00 0.962D+00
 Coeff:     -0.257D-06 0.595D-06 0.159D-05 0.687D-05-0.329D-04-0.197D-04
 Coeff:      0.812D-04 0.127D-03-0.501D-03-0.157D-02 0.697D-03 0.847D-02
 Coeff:      0.238D-01-0.389D-01-0.120D+00 0.166D+00 0.962D+00
 Gap=     0.321 Goal=   None    Shift=    0.000
 Gap=     0.321 Goal=   None    Shift=    0.000
 RMSDP=8.54D-09 MaxDP=2.74D-07 DE=-3.18D-11 OVMax= 1.30D-06

 Error on total polarization charges =  0.01113
 SCF Done:  E(UwB97XD) =  -466.850975753     A.U. after   17 cycles
            NFock= 17  Conv=0.85D-08     -V/T= 2.0058
 <Sx>= 0.0000 <Sy>= 0.0000 <Sz>= 0.0000 <S**2>= 0.0000 S= 0.0000
 <L.S>=  0.00000000000    
 KE= 4.641627286695D+02 PE=-2.414299162950D+03 EE= 8.170966113376D+02
 --------------------------------------------------------------------
 Variational PCM results
 =======================
 <psi(f)|   H    |psi(f)>                     (a.u.) =    -466.858860
 <psi(f)|H+V(f)/2|psi(f)>                     (a.u.) =    -466.860343
 Total free energy in solution:
 - with all non electrostatic terms           (a.u.) =    -466.850976
 --------------------------------------------------------------------
 (Polarized solute)-Solvent               (kcal/mol) =      -0.93
 --------------------------------------------------------------------
 Quantum repulsion energy                 (kcal/mol) =       5.88
 Total non electrostatic                  (kcal/mol) =       5.88
 --------------------------------------------------------------------
 Partition over spheres:
 Sphere  on Atom  Surface  Charge   GEl     GCav    GDR
    1               7.50   0.012   -0.06    0.00    0.00
    2               4.58   0.007   -0.04    0.00    0.00
    3               7.52  -0.010   -0.04    0.00    0.00
    4               3.69  -0.005   -0.01    0.00    0.00
    5               4.68   0.007   -0.05    0.00    0.00
    6               4.28   0.005   -0.03    0.00    0.00
    7               5.91  -0.008   -0.03    0.00    0.00
    8               4.56  -0.006   -0.02    0.00    0.00
    9               3.86   0.002    0.00    0.00    0.00
   10               7.15  -0.007   -0.01    0.00    0.00
   11               4.16  -0.004   -0.01    0.00    0.00
   12               6.61   0.010   -0.06    0.00    0.00
   13               7.52  -0.010   -0.03    0.00    0.00
   14               6.77   0.010   -0.05    0.00    0.00
   15               7.51  -0.010   -0.04    0.00    0.00
   16               3.60   0.002    0.00    0.00    0.00
   17               2.36  -0.001   -0.00    0.00    0.00
   18               7.34  -0.008   -0.03    0.00    0.00
   19               5.10   0.009   -0.06    0.00    0.00
   20               5.41  -0.008   -0.03    0.00    0.00
   21               6.66   0.011   -0.07    0.00    0.00
   22               7.51  -0.010   -0.03    0.00    0.00
   23               3.59   0.002    0.00    0.00    0.00
   24               3.42  -0.003   -0.01    0.00    0.00
   25               7.15  -0.007   -0.01    0.00    0.00
   26               3.68   0.002    0.00    0.00    0.00
   27               7.45  -0.008   -0.03    0.00    0.00
   28               2.32  -0.001   -0.00    0.00    0.00
 Added spheres:    74.66   0.019   -0.19    0.00    0.00
 --------------------------------------------------------------------
 After PCM corrections, the energy is  -466.850975753     a.u.
 --------------------------------------------------------------------
 Annihilation of the first spin contaminant:
 S**2 before annihilation     0.0000,   after    -0.0000
 Leave Link  502 at Mon Aug  3 17:58:10 2020, MaxMem=  6442450944 cpu:            7348.9 elap:             309.0
 (Enter /scratch/scicomp/CentOS/7.3.1611/Haswell/software/Gaussian/g16/l601.exe)
 Copying SCF densities to generalized density rwf, IOpCl= 1 IROHF=0.

 **********************************************************************

            Population analysis using the SCF Density.

 **********************************************************************

 Alpha  occ. eigenvalues --  -10.28190 -10.28190 -10.28135 -10.28133 -10.28095
 Alpha  occ. eigenvalues --  -10.28094 -10.28054 -10.28053 -10.27799 -10.27798
 Alpha  occ. eigenvalues --  -10.27599 -10.27598  -0.93959  -0.93655  -0.83928
 Alpha  occ. eigenvalues --   -0.83914  -0.83792  -0.83589  -0.71117  -0.71052
 Alpha  occ. eigenvalues --   -0.67802  -0.67766  -0.59611  -0.59480  -0.57343
 Alpha  occ. eigenvalues --   -0.56888  -0.53173  -0.52526  -0.50742  -0.50684
 Alpha  occ. eigenvalues --   -0.49858  -0.49471  -0.47129  -0.46922  -0.45047
 Alpha  occ. eigenvalues --   -0.44757  -0.41045  -0.40947  -0.39449  -0.39145
 Alpha  occ. eigenvalues --   -0.39034  -0.39007  -0.29599  -0.27859
 Alpha virt. eigenvalues --    0.04203   0.04624   0.11365   0.12923   0.14216
 Alpha virt. eigenvalues --    0.15146   0.15155   0.16235   0.16364   0.16916
 Alpha virt. eigenvalues --    0.17796   0.17811   0.18073   0.19228   0.20863
 Alpha virt. eigenvalues --    0.21463   0.22518   0.23238   0.23290   0.24403
 Alpha virt. eigenvalues --    0.25790   0.26511   0.26701   0.27443   0.28343
 Alpha virt. eigenvalues --    0.28688   0.29590   0.29657   0.30400   0.30954
 Alpha virt. eigenvalues --    0.31585   0.31919   0.32265   0.32696   0.33292
 Alpha virt. eigenvalues --    0.33534   0.34734   0.35311   0.35714   0.37769
 Alpha virt. eigenvalues --    0.38070   0.38378   0.40518   0.41406   0.41705
 Alpha virt. eigenvalues --    0.42130   0.43440   0.44492   0.45676   0.46169
 Alpha virt. eigenvalues --    0.46521   0.46926   0.48047   0.48567   0.48686
 Alpha virt. eigenvalues --    0.49235   0.49580   0.49818   0.50401   0.50456
 Alpha virt. eigenvalues --    0.51327   0.51441   0.51645   0.52310   0.52935
 Alpha virt. eigenvalues --    0.53044   0.53635   0.54742   0.55024   0.55632
 Alpha virt. eigenvalues --    0.57314   0.57634   0.57843   0.59651   0.59762
 Alpha virt. eigenvalues --    0.60656   0.61822   0.62946   0.63515   0.64252
 Alpha virt. eigenvalues --    0.64850   0.66530   0.68106   0.68840   0.69716
 Alpha virt. eigenvalues --    0.70422   0.72952   0.73516   0.73981   0.75596
 Alpha virt. eigenvalues --    0.76652   0.78671   0.78757   0.79932   0.81793
 Alpha virt. eigenvalues --    0.81967   0.82867   0.84289   0.85576   0.85822
 Alpha virt. eigenvalues --    0.86605   0.89440   0.91051   0.91163   0.92815
 Alpha virt. eigenvalues --    0.93278   0.95397   0.96189   0.98510   0.99195
 Alpha virt. eigenvalues --    1.01400   1.02719   1.04090   1.04115   1.04478
 Alpha virt. eigenvalues --    1.06807   1.07826   1.08852   1.10128   1.11354
 Alpha virt. eigenvalues --    1.12787   1.13058   1.14388   1.15063   1.15854
 Alpha virt. eigenvalues --    1.16223   1.16326   1.17373   1.19473   1.20379
 Alpha virt. eigenvalues --    1.21603   1.22741   1.22907   1.24053   1.24643
 Alpha virt. eigenvalues --    1.24918   1.25952   1.26733   1.27798   1.29155
 Alpha virt. eigenvalues --    1.29567   1.30331   1.32340   1.32397   1.33314
 Alpha virt. eigenvalues --    1.34753   1.34990   1.35452   1.37316   1.38295
 Alpha virt. eigenvalues --    1.39160   1.39401   1.40511   1.41016   1.41751
 Alpha virt. eigenvalues --    1.42379   1.42554   1.43768   1.44911   1.45573
 Alpha virt. eigenvalues --    1.45929   1.46254   1.46586   1.47395   1.47860
 Alpha virt. eigenvalues --    1.49871   1.50905   1.52607   1.52806   1.55531
 Alpha virt. eigenvalues --    1.56692   1.57051   1.57416   1.58532   1.60324
 Alpha virt. eigenvalues --    1.60975   1.62260   1.62673   1.64603   1.65089
 Alpha virt. eigenvalues --    1.68665   1.69286   1.69465   1.71024   1.74873
 Alpha virt. eigenvalues --    1.75972   1.79550   1.80945   1.82194   1.82637
 Alpha virt. eigenvalues --    1.87397   1.88282   1.88424   1.89339   1.91189
 Alpha virt. eigenvalues --    1.91962   1.96091   2.00137   2.01054   2.02027
 Alpha virt. eigenvalues --    2.03944   2.04605   2.06201   2.07418   2.09097
 Alpha virt. eigenvalues --    2.09220   2.11935   2.12379   2.13313   2.15287
 Alpha virt. eigenvalues --    2.19126   2.19185   2.20244   2.20442   2.22148
 Alpha virt. eigenvalues --    2.22986   2.23159   2.23723   2.24693   2.26074
 Alpha virt. eigenvalues --    2.28943   2.30989   2.37308   2.38125   2.39974
 Alpha virt. eigenvalues --    2.41911   2.45958   2.47569   2.48648   2.49211
 Alpha virt. eigenvalues --    2.50139   2.50223   2.51300   2.54282   2.54908
 Alpha virt. eigenvalues --    2.56067   2.57235   2.57656   2.59941   2.60063
 Alpha virt. eigenvalues --    2.61889   2.63696   2.64397   2.65323   2.66833
 Alpha virt. eigenvalues --    2.67811   2.69151   2.69757   2.72150   2.72343
 Alpha virt. eigenvalues --    2.73358   2.73376   2.75393   2.75861   2.76238
 Alpha virt. eigenvalues --    2.77229   2.78449   2.78962   2.79836   2.80808
 Alpha virt. eigenvalues --    2.80834   2.81669   2.82920   2.83742   2.83813
 Alpha virt. eigenvalues --    2.85270   2.85454   2.86524   2.88777   2.88926
 Alpha virt. eigenvalues --    2.89637   2.89916   2.92006   2.92566   2.92845
 Alpha virt. eigenvalues --    2.93835   2.94725   2.94784   2.95885   2.99250
 Alpha virt. eigenvalues --    3.00955   3.01857   3.03191   3.03440   3.06788
 Alpha virt. eigenvalues --    3.06846   3.07836   3.08316   3.09616   3.10614
 Alpha virt. eigenvalues --    3.11633   3.11957   3.12537   3.13882   3.14819
 Alpha virt. eigenvalues --    3.15036   3.16730   3.17156   3.18499   3.18600
 Alpha virt. eigenvalues --    3.19354   3.19495   3.19967   3.20768   3.21138
 Alpha virt. eigenvalues --    3.21896   3.22615   3.23434   3.23773   3.24247
 Alpha virt. eigenvalues --    3.25117   3.25576   3.27454   3.28301   3.28394
 Alpha virt. eigenvalues --    3.28904   3.28934   3.29862   3.31124   3.31473
 Alpha virt. eigenvalues --    3.32768   3.33218   3.33563   3.34009   3.34423
 Alpha virt. eigenvalues --    3.34679   3.35097   3.36212   3.38128   3.38353
 Alpha virt. eigenvalues --    3.39171   3.39350   3.41572   3.42558   3.43732
 Alpha virt. eigenvalues --    3.44966   3.46110   3.46268   3.47156   3.47336
 Alpha virt. eigenvalues --    3.47751   3.48334   3.49099   3.49583   3.50573
 Alpha virt. eigenvalues --    3.51552   3.51612   3.51917   3.52487   3.53850
 Alpha virt. eigenvalues --    3.55276   3.55788   3.59944   3.60495   3.60771
 Alpha virt. eigenvalues --    3.62900   3.63626   3.64110   3.64461   3.64730
 Alpha virt. eigenvalues --    3.67444   3.68334   3.69213   3.71070   3.71355
 Alpha virt. eigenvalues --    3.73437   3.75349   3.76325   3.76827   3.77031
 Alpha virt. eigenvalues --    3.83416   3.84146   3.85085   3.86140   3.86156
 Alpha virt. eigenvalues --    3.87070   3.88255   3.89253   3.92340   3.93139
 Alpha virt. eigenvalues --    3.93646   3.95198   3.98725   3.98977   4.01179
 Alpha virt. eigenvalues --    4.03457   4.07993   4.09378   4.09959   4.10601
 Alpha virt. eigenvalues --    4.12026   4.12260   4.13371   4.14709   4.18971
 Alpha virt. eigenvalues --    4.19789   4.20621   4.21696   4.22439   4.22935
 Alpha virt. eigenvalues --    4.24320   4.26604   4.30759   4.31310   4.33429
 Alpha virt. eigenvalues --    4.35796   4.36101   4.37131   4.39206   4.39265
 Alpha virt. eigenvalues --    4.44200   4.44870   4.45920   4.46028   4.47021
 Alpha virt. eigenvalues --    4.47911   4.59639   4.60246   4.61140   4.63366
 Alpha virt. eigenvalues --    4.69240   4.69937   4.71957   4.71993   4.73606
 Alpha virt. eigenvalues --    4.74008   4.75904   4.76962   4.78620   4.80842
 Alpha virt. eigenvalues --    4.83164   4.84400   4.88473   4.89127   4.93981
 Alpha virt. eigenvalues --    4.94701   4.94767   4.95467   5.04598   5.07016
 Alpha virt. eigenvalues --    5.08740   5.09748   5.18131   5.18762   5.23312
 Alpha virt. eigenvalues --    5.24075   5.28186   5.30970   5.39669   5.39820
 Alpha virt. eigenvalues --    5.43794   5.44802   5.47444   5.48301   5.65941
 Alpha virt. eigenvalues --    5.69288   5.74405   5.75469   5.90975   5.94715
 Alpha virt. eigenvalues --    7.94363   7.95998   7.99995   8.02691   8.06046
 Alpha virt. eigenvalues --    8.07487   8.11154   8.11612   8.17208   8.17855
 Alpha virt. eigenvalues --    8.33322   8.35343  34.76436  34.78080  34.81402
 Alpha virt. eigenvalues --   34.82002  34.83490  34.86838  34.97519  34.97911
 Alpha virt. eigenvalues --   35.00303  35.00979  35.15334  35.17886
  Beta  occ. eigenvalues --  -10.28190 -10.28190 -10.28135 -10.28133 -10.28095
  Beta  occ. eigenvalues --  -10.28094 -10.28054 -10.28053 -10.27799 -10.27798
  Beta  occ. eigenvalues --  -10.27599 -10.27598  -0.93959  -0.93655  -0.83928
  Beta  occ. eigenvalues --   -0.83914  -0.83792  -0.83589  -0.71117  -0.71052
  Beta  occ. eigenvalues --   -0.67802  -0.67766  -0.59611  -0.59480  -0.57343
  Beta  occ. eigenvalues --   -0.56888  -0.53173  -0.52526  -0.50742  -0.50684
  Beta  occ. eigenvalues --   -0.49858  -0.49471  -0.47129  -0.46922  -0.45047
  Beta  occ. eigenvalues --   -0.44757  -0.41045  -0.40947  -0.39449  -0.39145
  Beta  occ. eigenvalues --   -0.39034  -0.39007  -0.29599  -0.27859
  Beta virt. eigenvalues --    0.04203   0.04624   0.11365   0.12923   0.14216
  Beta virt. eigenvalues --    0.15146   0.15155   0.16235   0.16364   0.16916
  Beta virt. eigenvalues --    0.17796   0.17811   0.18073   0.19228   0.20863
  Beta virt. eigenvalues --    0.21463   0.22518   0.23238   0.23290   0.24403
  Beta virt. eigenvalues --    0.25790   0.26511   0.26701   0.27443   0.28343
  Beta virt. eigenvalues --    0.28688   0.29590   0.29657   0.30400   0.30954
  Beta virt. eigenvalues --    0.31585   0.31919   0.32265   0.32696   0.33292
  Beta virt. eigenvalues --    0.33534   0.34734   0.35311   0.35714   0.37769
  Beta virt. eigenvalues --    0.38070   0.38378   0.40518   0.41406   0.41705
  Beta virt. eigenvalues --    0.42130   0.43440   0.44492   0.45676   0.46169
  Beta virt. eigenvalues --    0.46521   0.46926   0.48047   0.48567   0.48686
  Beta virt. eigenvalues --    0.49235   0.49580   0.49818   0.50401   0.50456
  Beta virt. eigenvalues --    0.51327   0.51441   0.51645   0.52310   0.52935
  Beta virt. eigenvalues --    0.53044   0.53635   0.54742   0.55024   0.55632
  Beta virt. eigenvalues --    0.57314   0.57634   0.57843   0.59651   0.59762
  Beta virt. eigenvalues --    0.60656   0.61822   0.62946   0.63515   0.64252
  Beta virt. eigenvalues --    0.64850   0.66530   0.68106   0.68840   0.69716
  Beta virt. eigenvalues --    0.70422   0.72952   0.73516   0.73981   0.75596
  Beta virt. eigenvalues --    0.76652   0.78671   0.78757   0.79932   0.81793
  Beta virt. eigenvalues --    0.81967   0.82867   0.84289   0.85576   0.85822
  Beta virt. eigenvalues --    0.86605   0.89440   0.91051   0.91163   0.92815
  Beta virt. eigenvalues --    0.93278   0.95397   0.96189   0.98510   0.99195
  Beta virt. eigenvalues --    1.01400   1.02719   1.04090   1.04115   1.04478
  Beta virt. eigenvalues --    1.06807   1.07826   1.08852   1.10128   1.11354
  Beta virt. eigenvalues --    1.12787   1.13058   1.14388   1.15063   1.15854
  Beta virt. eigenvalues --    1.16223   1.16326   1.17373   1.19473   1.20379
  Beta virt. eigenvalues --    1.21603   1.22741   1.22907   1.24053   1.24643
  Beta virt. eigenvalues --    1.24918   1.25952   1.26733   1.27798   1.29155
  Beta virt. eigenvalues --    1.29567   1.30331   1.32340   1.32397   1.33314
  Beta virt. eigenvalues --    1.34753   1.34990   1.35452   1.37316   1.38295
  Beta virt. eigenvalues --    1.39160   1.39401   1.40511   1.41016   1.41751
  Beta virt. eigenvalues --    1.42379   1.42554   1.43768   1.44911   1.45573
  Beta virt. eigenvalues --    1.45929   1.46254   1.46586   1.47395   1.47860
  Beta virt. eigenvalues --    1.49871   1.50905   1.52607   1.52806   1.55531
  Beta virt. eigenvalues --    1.56692   1.57051   1.57416   1.58532   1.60324
  Beta virt. eigenvalues --    1.60975   1.62260   1.62673   1.64603   1.65089
  Beta virt. eigenvalues --    1.68665   1.69286   1.69465   1.71024   1.74873
  Beta virt. eigenvalues --    1.75972   1.79550   1.80945   1.82194   1.82637
  Beta virt. eigenvalues --    1.87397   1.88282   1.88424   1.89339   1.91189
  Beta virt. eigenvalues --    1.91962   1.96091   2.00137   2.01054   2.02027
  Beta virt. eigenvalues --    2.03944   2.04605   2.06201   2.07418   2.09097
  Beta virt. eigenvalues --    2.09220   2.11935   2.12379   2.13313   2.15287
  Beta virt. eigenvalues --    2.19126   2.19185   2.20244   2.20442   2.22148
  Beta virt. eigenvalues --    2.22986   2.23159   2.23723   2.24693   2.26074
  Beta virt. eigenvalues --    2.28943   2.30989   2.37308   2.38125   2.39974
  Beta virt. eigenvalues --    2.41911   2.45958   2.47569   2.48648   2.49211
  Beta virt. eigenvalues --    2.50139   2.50223   2.51300   2.54282   2.54908
  Beta virt. eigenvalues --    2.56067   2.57235   2.57656   2.59941   2.60063
  Beta virt. eigenvalues --    2.61889   2.63696   2.64397   2.65323   2.66833
  Beta virt. eigenvalues --    2.67811   2.69151   2.69757   2.72150   2.72343
  Beta virt. eigenvalues --    2.73358   2.73376   2.75393   2.75861   2.76238
  Beta virt. eigenvalues --    2.77229   2.78449   2.78962   2.79836   2.80808
  Beta virt. eigenvalues --    2.80834   2.81669   2.82920   2.83742   2.83813
  Beta virt. eigenvalues --    2.85270   2.85454   2.86524   2.88777   2.88926
  Beta virt. eigenvalues --    2.89637   2.89916   2.92006   2.92566   2.92845
  Beta virt. eigenvalues --    2.93835   2.94725   2.94784   2.95885   2.99250
  Beta virt. eigenvalues --    3.00955   3.01857   3.03191   3.03440   3.06788
  Beta virt. eigenvalues --    3.06846   3.07836   3.08316   3.09616   3.10614
  Beta virt. eigenvalues --    3.11633   3.11957   3.12537   3.13882   3.14819
  Beta virt. eigenvalues --    3.15036   3.16730   3.17156   3.18499   3.18600
  Beta virt. eigenvalues --    3.19354   3.19495   3.19967   3.20768   3.21138
  Beta virt. eigenvalues --    3.21896   3.22615   3.23434   3.23773   3.24247
  Beta virt. eigenvalues --    3.25117   3.25576   3.27454   3.28301   3.28394
  Beta virt. eigenvalues --    3.28904   3.28934   3.29862   3.31124   3.31473
  Beta virt. eigenvalues --    3.32768   3.33218   3.33563   3.34009   3.34423
  Beta virt. eigenvalues --    3.34679   3.35097   3.36212   3.38128   3.38353
  Beta virt. eigenvalues --    3.39171   3.39350   3.41572   3.42558   3.43732
  Beta virt. eigenvalues --    3.44966   3.46110   3.46268   3.47156   3.47336
  Beta virt. eigenvalues --    3.47751   3.48334   3.49099   3.49583   3.50573
  Beta virt. eigenvalues --    3.51552   3.51612   3.51917   3.52487   3.53850
  Beta virt. eigenvalues --    3.55276   3.55788   3.59944   3.60495   3.60771
  Beta virt. eigenvalues --    3.62900   3.63626   3.64110   3.64461   3.64730
  Beta virt. eigenvalues --    3.67444   3.68334   3.69213   3.71070   3.71355
  Beta virt. eigenvalues --    3.73437   3.75349   3.76325   3.76827   3.77031
  Beta virt. eigenvalues --    3.83416   3.84146   3.85085   3.86140   3.86156
  Beta virt. eigenvalues --    3.87070   3.88255   3.89253   3.92340   3.93139
  Beta virt. eigenvalues --    3.93646   3.95198   3.98725   3.98977   4.01179
  Beta virt. eigenvalues --    4.03457   4.07993   4.09378   4.09959   4.10601
  Beta virt. eigenvalues --    4.12026   4.12260   4.13371   4.14709   4.18971
  Beta virt. eigenvalues --    4.19789   4.20621   4.21696   4.22439   4.22935
  Beta virt. eigenvalues --    4.24320   4.26604   4.30759   4.31310   4.33429
  Beta virt. eigenvalues --    4.35796   4.36101   4.37131   4.39206   4.39265
  Beta virt. eigenvalues --    4.44200   4.44870   4.45920   4.46028   4.47021
  Beta virt. eigenvalues --    4.47911   4.59639   4.60246   4.61140   4.63366
  Beta virt. eigenvalues --    4.69240   4.69937   4.71957   4.71993   4.73606
  Beta virt. eigenvalues --    4.74008   4.75904   4.76962   4.78620   4.80842
  Beta virt. eigenvalues --    4.83164   4.84400   4.88473   4.89127   4.93981
  Beta virt. eigenvalues --    4.94701   4.94767   4.95467   5.04598   5.07016
  Beta virt. eigenvalues --    5.08740   5.09748   5.18131   5.18762   5.23312
  Beta virt. eigenvalues --    5.24075   5.28186   5.30970   5.39669   5.39820
  Beta virt. eigenvalues --    5.43794   5.44802   5.47444   5.48301   5.65941
  Beta virt. eigenvalues --    5.69288   5.74405   5.75469   5.90975   5.94715
  Beta virt. eigenvalues --    7.94363   7.95998   7.99995   8.02691   8.06046
  Beta virt. eigenvalues --    8.07487   8.11154   8.11612   8.17208   8.17855
  Beta virt. eigenvalues --    8.33322   8.35343  34.76436  34.78080  34.81402
  Beta virt. eigenvalues --   34.82002  34.83490  34.86838  34.97519  34.97911
  Beta virt. eigenvalues --   35.00303  35.00979  35.15334  35.17886
          Condensed to atoms (all electrons):
               1          2          3          4          5          6
     1  C    5.144317   0.012655   0.420924  -0.001840   0.000029  -0.002188
     2  C    0.012655   5.220882  -0.001586   0.422807  -0.012667  -0.030059
     3  H    0.420924  -0.001586   0.490381   0.000027  -0.000041  -0.000052
     4  H   -0.001840   0.422807   0.000027   0.474329  -0.000872   0.000355
     5  C    0.000029  -0.012667  -0.000041  -0.000872   5.086008   0.547042
     6  C   -0.002188  -0.030059  -0.000052   0.000355   0.547042   5.221954
     7  H    0.000159  -0.000474  -0.000000  -0.000037   0.422442  -0.027563
     8  H   -0.000015   0.000356   0.000015   0.000001  -0.040463   0.422797
     9  C    0.000683   0.000171   0.000001  -0.000314  -0.075525   0.271563
    10  H   -0.000005  -0.000276  -0.000001  -0.000027  -0.002899  -0.034122
    11  H   -0.000003  -0.000626  -0.000001  -0.000008   0.007637  -0.049741
    12  C   -0.000080   0.004599   0.000002   0.000591   0.314136  -0.072884
    13  H   -0.000000   0.000015   0.000000  -0.000012  -0.032705   0.003747
    14  C    0.000090  -0.002186   0.000000  -0.000016  -0.068173   0.012183
    15  H    0.000000  -0.000052  -0.000000   0.000015   0.006227  -0.001565
    16  C   -0.000425   0.003123  -0.000001   0.000332   0.011292  -0.073415
    17  H   -0.000073  -0.001195  -0.000001  -0.000459   0.010714  -0.001435
    18  H   -0.000000   0.000631   0.000000   0.000055  -0.002698   0.011119
    19  C   -0.068246   0.547598   0.006305  -0.040462   0.001637  -0.012720
    20  H    0.003216  -0.027547  -0.000097  -0.004792   0.000044  -0.000475
    21  C    0.580267  -0.073265  -0.030619   0.005502   0.000262   0.004623
    22  H   -0.023637   0.003719  -0.005244  -0.000067   0.000004   0.000015
    23  C   -0.084710   0.271831   0.004520  -0.014425  -0.000372   0.000172
    24  H    0.012767  -0.049745  -0.000099  -0.003961   0.002945  -0.000621
    25  H    0.005368  -0.034155   0.000023  -0.000176   0.000127  -0.000276
    26  C    0.281123  -0.073451  -0.025957   0.003751  -0.001188   0.003126
    27  H   -0.039604   0.011081  -0.004527  -0.000107   0.000364   0.000630
    28  H   -0.035253  -0.001414   0.001109  -0.000145  -0.000864  -0.001163
               7          8          9         10         11         12
     1  C    0.000159  -0.000015   0.000683  -0.000005  -0.000003  -0.000080
     2  C   -0.000474   0.000356   0.000171  -0.000276  -0.000626   0.004599
     3  H   -0.000000   0.000015   0.000001  -0.000001  -0.000001   0.000002
     4  H   -0.000037   0.000001  -0.000314  -0.000027  -0.000008   0.000591
     5  C    0.422442  -0.040463  -0.075525  -0.002899   0.007637   0.314136
     6  C   -0.027563   0.422797   0.271563  -0.034122  -0.049741  -0.072884
     7  H    0.479191  -0.004787   0.003012  -0.000264  -0.000037  -0.027901
     8  H   -0.004787   0.474091  -0.014346  -0.000180  -0.003958   0.005484
     9  C    0.003012  -0.014346   4.924264   0.386640   0.445111   0.035783
    10  H   -0.000264  -0.000180   0.386640   0.569891  -0.019783   0.001413
    11  H   -0.000037  -0.003958   0.445111  -0.019783   0.538386  -0.003822
    12  C   -0.027901   0.005484   0.035783   0.001413  -0.003822   5.006074
    13  H   -0.003009  -0.000066  -0.000165  -0.000056   0.000028   0.421865
    14  C    0.003230  -0.001841  -0.084325   0.005351   0.012773   0.580579
    15  H   -0.000098   0.000027   0.004509   0.000023  -0.000099  -0.030131
    16  C   -0.000589   0.003746   0.367401  -0.027813  -0.049465  -0.066131
    17  H    0.000034  -0.000145  -0.036774   0.007188  -0.007565  -0.014896
    18  H    0.000028  -0.000106  -0.044849  -0.007101  -0.001778   0.006588
    19  C    0.000045  -0.000879  -0.000372   0.000127   0.002938   0.000258
    20  H    0.000005  -0.000037   0.000628   0.000034  -0.000122  -0.000054
    21  C   -0.000055   0.000595   0.000070   0.000022  -0.000483  -0.000169
    22  H   -0.000000  -0.000011  -0.000016  -0.000000  -0.000006  -0.000000
    23  C    0.000628  -0.000312   0.000021  -0.000004   0.000009   0.000066
    24  H   -0.000126  -0.000008   0.000008   0.000004  -0.000009  -0.000470
    25  H    0.000034  -0.000027  -0.000004   0.000000   0.000004   0.000022
    26  C   -0.000682   0.000321  -0.000344   0.000010   0.000022   0.000452
    27  H   -0.000015   0.000055  -0.000022   0.000001  -0.000001  -0.000050
    28  H    0.001060  -0.000454   0.000164  -0.000002   0.000030   0.000494
              13         14         15         16         17         18
     1  C   -0.000000   0.000090   0.000000  -0.000425  -0.000073  -0.000000
     2  C    0.000015  -0.002186  -0.000052   0.003123  -0.001195   0.000631
     3  H    0.000000   0.000000  -0.000000  -0.000001  -0.000001   0.000000
     4  H   -0.000012  -0.000016   0.000015   0.000332  -0.000459   0.000055
     5  C   -0.032705  -0.068173   0.006227   0.011292   0.010714  -0.002698
     6  C    0.003747   0.012183  -0.001565  -0.073415  -0.001435   0.011119
     7  H   -0.003009   0.003230  -0.000098  -0.000589   0.000034   0.000028
     8  H   -0.000066  -0.001841   0.000027   0.003746  -0.000145  -0.000106
     9  C   -0.000165  -0.084325   0.004509   0.367401  -0.036774  -0.044849
    10  H   -0.000056   0.005351   0.000023  -0.027813   0.007188  -0.007101
    11  H    0.000028   0.012773  -0.000099  -0.049465  -0.007565  -0.001778
    12  C    0.421865   0.580579  -0.030131  -0.066131  -0.014896   0.006588
    13  H    0.487670  -0.023561  -0.005238   0.003569  -0.000352  -0.000090
    14  C   -0.023561   5.144389   0.420642   0.280913  -0.035131  -0.039799
    15  H   -0.005238   0.420642   0.490214  -0.026136   0.001111  -0.004534
    16  C    0.003569   0.280913  -0.026136   4.922882   0.398615   0.436706
    17  H   -0.000352  -0.035131   0.001111   0.398615   0.592672  -0.020989
    18  H   -0.000090  -0.039799  -0.004534   0.436706  -0.020989   0.538417
    19  C    0.000004   0.000038  -0.000042  -0.001167  -0.000838   0.000363
    20  H   -0.000000   0.000159  -0.000000  -0.000683   0.001058  -0.000014
    21  C   -0.000000  -0.000080   0.000002   0.000448   0.000493  -0.000050
    22  H    0.000000  -0.000000   0.000000   0.000004  -0.000006  -0.000001
    23  C   -0.000017   0.000679   0.000001  -0.000347   0.000163  -0.000022
    24  H   -0.000006  -0.000002  -0.000001   0.000022   0.000030  -0.000001
    25  H   -0.000000  -0.000005  -0.000001   0.000010  -0.000002   0.000001
    26  C    0.000004  -0.000426  -0.000001   0.000905   0.000125  -0.000001
    27  H   -0.000001  -0.000000   0.000000  -0.000001   0.000004  -0.000000
    28  H   -0.000006  -0.000074  -0.000001   0.000126  -0.000016   0.000004
              19         20         21         22         23         24
     1  C   -0.068246   0.003216   0.580267  -0.023637  -0.084710   0.012767
     2  C    0.547598  -0.027547  -0.073265   0.003719   0.271831  -0.049745
     3  H    0.006305  -0.000097  -0.030619  -0.005244   0.004520  -0.000099
     4  H   -0.040462  -0.004792   0.005502  -0.000067  -0.014425  -0.003961
     5  C    0.001637   0.000044   0.000262   0.000004  -0.000372   0.002945
     6  C   -0.012720  -0.000475   0.004623   0.000015   0.000172  -0.000621
     7  H    0.000045   0.000005  -0.000055  -0.000000   0.000628  -0.000126
     8  H   -0.000879  -0.000037   0.000595  -0.000011  -0.000312  -0.000008
     9  C   -0.000372   0.000628   0.000070  -0.000016   0.000021   0.000008
    10  H    0.000127   0.000034   0.000022  -0.000000  -0.000004   0.000004
    11  H    0.002938  -0.000122  -0.000483  -0.000006   0.000009  -0.000009
    12  C    0.000258  -0.000054  -0.000169  -0.000000   0.000066  -0.000470
    13  H    0.000004  -0.000000  -0.000000   0.000000  -0.000017  -0.000006
    14  C    0.000038   0.000159  -0.000080  -0.000000   0.000679  -0.000002
    15  H   -0.000042  -0.000000   0.000002   0.000000   0.000001  -0.000001
    16  C   -0.001167  -0.000683   0.000448   0.000004  -0.000347   0.000022
    17  H   -0.000838   0.001058   0.000493  -0.000006   0.000163   0.000030
    18  H    0.000363  -0.000014  -0.000050  -0.000001  -0.000022  -0.000001
    19  C    5.085447   0.422455   0.314390  -0.032430  -0.075557   0.007607
    20  H    0.422455   0.479290  -0.027909  -0.002999   0.003011  -0.000037
    21  C    0.314390  -0.027909   5.006202   0.421650   0.035903  -0.003806
    22  H   -0.032430  -0.002999   0.421650   0.487580  -0.000155   0.000028
    23  C   -0.075557   0.003011   0.035903  -0.000155   4.923931   0.444987
    24  H    0.007607  -0.000037  -0.003806   0.000028   0.444987   0.538834
    25  H   -0.002883  -0.000264   0.001396  -0.000056   0.386695  -0.019832
    26  C    0.011160  -0.000595  -0.066015   0.003585   0.367722  -0.049435
    27  H   -0.002665   0.000028   0.006444  -0.000091  -0.044805  -0.001772
    28  H    0.010697   0.000034  -0.014811  -0.000352  -0.036785  -0.007579
              25         26         27         28
     1  C    0.005368   0.281123  -0.039604  -0.035253
     2  C   -0.034155  -0.073451   0.011081  -0.001414
     3  H    0.000023  -0.025957  -0.004527   0.001109
     4  H   -0.000176   0.003751  -0.000107  -0.000145
     5  C    0.000127  -0.001188   0.000364  -0.000864
     6  C   -0.000276   0.003126   0.000630  -0.001163
     7  H    0.000034  -0.000682  -0.000015   0.001060
     8  H   -0.000027   0.000321   0.000055  -0.000454
     9  C   -0.000004  -0.000344  -0.000022   0.000164
    10  H    0.000000   0.000010   0.000001  -0.000002
    11  H    0.000004   0.000022  -0.000001   0.000030
    12  C    0.000022   0.000452  -0.000050   0.000494
    13  H   -0.000000   0.000004  -0.000001  -0.000006
    14  C   -0.000005  -0.000426  -0.000000  -0.000074
    15  H   -0.000001  -0.000001   0.000000  -0.000001
    16  C    0.000010   0.000905  -0.000001   0.000126
    17  H   -0.000002   0.000125   0.000004  -0.000016
    18  H    0.000001  -0.000001  -0.000000   0.000004
    19  C   -0.002883   0.011160  -0.002665   0.010697
    20  H   -0.000264  -0.000595   0.000028   0.000034
    21  C    0.001396  -0.066015   0.006444  -0.014811
    22  H   -0.000056   0.003585  -0.000091  -0.000352
    23  C    0.386695   0.367722  -0.044805  -0.036785
    24  H   -0.019832  -0.049435  -0.001772  -0.007579
    25  H    0.569880  -0.027841  -0.007110   0.007193
    26  C   -0.027841   4.922249   0.436566   0.398663
    27  H   -0.007110   0.436566   0.538501  -0.020971
    28  H    0.007193   0.398663  -0.020971   0.592771
          Atomic-Atomic Spin Densities.
               1          2          3          4          5          6
     1  C   -0.000001  -0.000000   0.000000  -0.000000   0.000000  -0.000000
     2  C   -0.000000   0.000000   0.000000   0.000000  -0.000000  -0.000000
     3  H    0.000000   0.000000   0.000000  -0.000000  -0.000000   0.000000
     4  H   -0.000000   0.000000  -0.000000   0.000000   0.000000  -0.000000
     5  C    0.000000  -0.000000  -0.000000   0.000000  -0.000001   0.000000
     6  C   -0.000000  -0.000000   0.000000  -0.000000   0.000000   0.000000
     7  H   -0.000000   0.000000   0.000000  -0.000000  -0.000000  -0.000000
     8  H    0.000000   0.000000  -0.000000  -0.000000  -0.000000  -0.000000
     9  C   -0.000000   0.000000  -0.000000  -0.000000   0.000000   0.000000
    10  H    0.000000  -0.000000  -0.000000   0.000000  -0.000000   0.000000
    11  H    0.000000  -0.000000   0.000000   0.000000   0.000000  -0.000000
    12  C   -0.000000   0.000000  -0.000000  -0.000000   0.000000  -0.000000
    13  H    0.000000   0.000000   0.000000   0.000000   0.000000  -0.000000
    14  C    0.000000   0.000000  -0.000000  -0.000000   0.000000   0.000000
    15  H    0.000000  -0.000000   0.000000   0.000000  -0.000000  -0.000000
    16  C    0.000000   0.000000   0.000000   0.000000  -0.000000  -0.000000
    17  H    0.000000  -0.000000   0.000000   0.000000   0.000000   0.000000
    18  H   -0.000000  -0.000000   0.000000   0.000000   0.000000  -0.000000
    19  C   -0.000000  -0.000000   0.000000   0.000000  -0.000000   0.000000
    20  H   -0.000000   0.000000   0.000000   0.000000  -0.000000  -0.000000
    21  C    0.000000   0.000000  -0.000000  -0.000000   0.000000  -0.000000
    22  H   -0.000000   0.000000  -0.000000  -0.000000   0.000000  -0.000000
    23  C   -0.000000  -0.000000   0.000000  -0.000000   0.000000  -0.000000
    24  H   -0.000000   0.000000  -0.000000   0.000000   0.000000   0.000000
    25  H   -0.000000  -0.000000   0.000000   0.000000  -0.000000   0.000000
    26  C    0.000000   0.000000   0.000000  -0.000000  -0.000000  -0.000000
    27  H    0.000000   0.000000  -0.000000   0.000000   0.000000   0.000000
    28  H    0.000000  -0.000000  -0.000000   0.000000  -0.000000   0.000000
               7          8          9         10         11         12
     1  C   -0.000000   0.000000  -0.000000   0.000000   0.000000  -0.000000
     2  C    0.000000   0.000000   0.000000  -0.000000  -0.000000   0.000000
     3  H    0.000000  -0.000000  -0.000000  -0.000000   0.000000  -0.000000
     4  H   -0.000000  -0.000000  -0.000000   0.000000   0.000000  -0.000000
     5  C   -0.000000  -0.000000   0.000000  -0.000000   0.000000   0.000000
     6  C   -0.000000  -0.000000   0.000000   0.000000  -0.000000  -0.000000
     7  H    0.000000  -0.000000   0.000000  -0.000000  -0.000000  -0.000000
     8  H   -0.000000  -0.000000   0.000000  -0.000000  -0.000000   0.000000
     9  C    0.000000   0.000000  -0.000001  -0.000000   0.000000  -0.000000
    10  H   -0.000000  -0.000000  -0.000000   0.000000  -0.000000   0.000000
    11  H   -0.000000  -0.000000   0.000000  -0.000000   0.000000  -0.000000
    12  C   -0.000000   0.000000  -0.000000   0.000000  -0.000000   0.000000
    13  H    0.000000   0.000000   0.000000  -0.000000  -0.000000  -0.000000
    14  C    0.000000   0.000000   0.000000   0.000000   0.000000  -0.000000
    15  H   -0.000000   0.000000  -0.000000  -0.000000   0.000000   0.000000
    16  C   -0.000000   0.000000   0.000000  -0.000000  -0.000000   0.000000
    17  H   -0.000000  -0.000000   0.000000   0.000000  -0.000000   0.000000
    18  H    0.000000  -0.000000   0.000000   0.000000  -0.000000  -0.000000
    19  C    0.000000  -0.000000  -0.000000   0.000000  -0.000000  -0.000000
    20  H    0.000000   0.000000  -0.000000  -0.000000   0.000000   0.000000
    21  C   -0.000000   0.000000  -0.000000  -0.000000   0.000000  -0.000000
    22  H    0.000000  -0.000000  -0.000000  -0.000000   0.000000   0.000000
    23  C    0.000000   0.000000  -0.000000   0.000000   0.000000  -0.000000
    24  H   -0.000000  -0.000000  -0.000000   0.000000  -0.000000  -0.000000
    25  H    0.000000  -0.000000  -0.000000  -0.000000  -0.000000   0.000000
    26  C   -0.000000  -0.000000   0.000000   0.000000  -0.000000   0.000000
    27  H   -0.000000  -0.000000  -0.000000   0.000000  -0.000000  -0.000000
    28  H    0.000000  -0.000000  -0.000000   0.000000  -0.000000  -0.000000
              13         14         15         16         17         18
     1  C    0.000000   0.000000   0.000000   0.000000   0.000000  -0.000000
     2  C    0.000000   0.000000  -0.000000   0.000000  -0.000000  -0.000000
     3  H    0.000000  -0.000000   0.000000   0.000000   0.000000   0.000000
     4  H    0.000000  -0.000000   0.000000   0.000000   0.000000   0.000000
     5  C    0.000000   0.000000  -0.000000  -0.000000   0.000000   0.000000
     6  C   -0.000000   0.000000  -0.000000  -0.000000   0.000000  -0.000000
     7  H    0.000000   0.000000  -0.000000  -0.000000  -0.000000   0.000000
     8  H    0.000000   0.000000   0.000000   0.000000  -0.000000  -0.000000
     9  C    0.000000   0.000000  -0.000000   0.000000   0.000000   0.000000
    10  H   -0.000000   0.000000  -0.000000  -0.000000   0.000000   0.000000
    11  H   -0.000000   0.000000   0.000000  -0.000000  -0.000000  -0.000000
    12  C   -0.000000  -0.000000   0.000000   0.000000   0.000000  -0.000000
    13  H   -0.000000   0.000000   0.000000  -0.000000  -0.000000   0.000000
    14  C    0.000000   0.000000  -0.000000  -0.000000  -0.000000  -0.000000
    15  H    0.000000  -0.000000  -0.000000  -0.000000   0.000000   0.000000
    16  C   -0.000000  -0.000000  -0.000000   0.000001  -0.000000  -0.000000
    17  H   -0.000000  -0.000000   0.000000  -0.000000   0.000000   0.000000
    18  H    0.000000  -0.000000   0.000000  -0.000000   0.000000  -0.000000
    19  C   -0.000000  -0.000000   0.000000   0.000000   0.000000  -0.000000
    20  H   -0.000000   0.000000  -0.000000   0.000000  -0.000000   0.000000
    21  C   -0.000000   0.000000   0.000000  -0.000000   0.000000   0.000000
    22  H   -0.000000  -0.000000  -0.000000   0.000000  -0.000000   0.000000
    23  C    0.000000   0.000000   0.000000  -0.000000   0.000000   0.000000
    24  H   -0.000000  -0.000000  -0.000000   0.000000   0.000000   0.000000
    25  H    0.000000  -0.000000   0.000000  -0.000000  -0.000000  -0.000000
    26  C   -0.000000  -0.000000  -0.000000  -0.000000   0.000000   0.000000
    27  H   -0.000000   0.000000  -0.000000  -0.000000   0.000000   0.000000
    28  H    0.000000  -0.000000  -0.000000  -0.000000   0.000000  -0.000000
              19         20         21         22         23         24
     1  C   -0.000000  -0.000000   0.000000  -0.000000  -0.000000  -0.000000
     2  C   -0.000000   0.000000   0.000000   0.000000  -0.000000   0.000000
     3  H    0.000000   0.000000  -0.000000  -0.000000   0.000000  -0.000000
     4  H    0.000000   0.000000  -0.000000  -0.000000  -0.000000   0.000000
     5  C   -0.000000  -0.000000   0.000000   0.000000   0.000000   0.000000
     6  C    0.000000  -0.000000  -0.000000  -0.000000  -0.000000   0.000000
     7  H    0.000000   0.000000  -0.000000   0.000000   0.000000  -0.000000
     8  H   -0.000000   0.000000   0.000000  -0.000000   0.000000  -0.000000
     9  C   -0.000000  -0.000000  -0.000000  -0.000000  -0.000000  -0.000000
    10  H    0.000000  -0.000000  -0.000000  -0.000000   0.000000   0.000000
    11  H   -0.000000   0.000000   0.000000   0.000000   0.000000  -0.000000
    12  C   -0.000000   0.000000  -0.000000   0.000000  -0.000000  -0.000000
    13  H   -0.000000  -0.000000  -0.000000  -0.000000   0.000000  -0.000000
    14  C   -0.000000   0.000000   0.000000  -0.000000   0.000000  -0.000000
[...]
     2  C    0.000000   0.000000   0.000000  -0.000000
     3  H    0.000000   0.000000  -0.000000  -0.000000
     4  H    0.000000  -0.000000   0.000000   0.000000
     5  C   -0.000000  -0.000000   0.000000  -0.000000
     6  C    0.000000  -0.000000  -0.000000   0.000000
     7  H    0.000000  -0.000000  -0.000000   0.000000
     8  H   -0.000000  -0.000000  -0.000000  -0.000000
     9  C   -0.000000   0.000000   0.000000  -0.000000
    10  H    0.000000   0.000000   0.000000   0.000000
    11  H   -0.000000   0.000000  -0.000000  -0.000000
    12  C    0.000000   0.000000  -0.000000   0.000000
    13  H    0.000000  -0.000000  -0.000000   0.000000
    14  C   -0.000000  -0.000000   0.000000  -0.000000
    15  H    0.000000  -0.000000   0.000000  -0.000000
    16  C    0.000000   0.000000  -0.000000  -0.000000
    17  H   -0.000000   0.000000   0.000000  -0.000000
    18  H   -0.000000   0.000000  -0.000000  -0.000000
    19  C    0.000000   0.000000  -0.000000   0.000000
    20  H    0.000000   0.000000  -0.000000   0.000000
    21  C   -0.000000   0.000000   0.000000  -0.000000
    22  H    0.000000   0.000000  -0.000000   0.000000
    23  C    0.000000  -0.000000  -0.000000  -0.000000
    24  H    0.000000   0.000000   0.000000   0.000000
    25  H   -0.000000   0.000000  -0.000000  -0.000000
    26  C    0.000000  -0.000001   0.000000   0.000000
    27  H   -0.000000   0.000000   0.000000  -0.000000
    28  H   -0.000000   0.000000  -0.000000   0.000000
 Mulliken charges and spin densities:
               1          2
     1  C   -0.204163   0.000001
     2  C   -0.202268  -0.000001
     3  H    0.148865  -0.000000
     4  H    0.170317   0.000000
     5  C   -0.188061   0.000001
     6  C   -0.203963  -0.000001
     7  H    0.166244   0.000000
     8  H    0.170181   0.000000
     9  C   -0.196853  -0.000001
    10  H    0.130317   0.000000
    11  H    0.135966   0.000000
    12  C   -0.167473  -0.000001
    13  H    0.152442  -0.000000
    14  C   -0.203606   0.000002
    15  H    0.148881  -0.000000
    16  C   -0.186253   0.000000
    17  H    0.109636   0.000000
    18  H    0.132566  -0.000000
    19  C   -0.189319   0.000002
    20  H    0.166140  -0.000000
    21  C   -0.164885  -0.000001
    22  H    0.150898   0.000000
    23  C   -0.196944   0.000001
    24  H    0.134947  -0.000000
    25  H    0.130128  -0.000000
    26  C   -0.185356  -0.000001
    27  H    0.132353   0.000000
    28  H    0.109265   0.000000
 Sum of Mulliken charges =  -0.00000   0.00000
 Mulliken charges and spin densities with hydrogens summed into heavy atoms:
               1          2
     1  C   -0.055298   0.000001
     2  C   -0.031951  -0.000001
     5  C   -0.021817   0.000001
     6  C   -0.033782  -0.000001
     9  C    0.069429  -0.000000
    12  C   -0.015031  -0.000001
    14  C   -0.054725   0.000002
    16  C    0.055949   0.000000
    19  C   -0.023179   0.000001
    21  C   -0.013987  -0.000001
    23  C    0.068131   0.000000
    26  C    0.056262  -0.000000
 Electronic spatial extent (au):  <R**2>=           2375.8178
 Charge=             -0.0000 electrons
 Dipole moment (field-independent basis, Debye):
    X=             -0.0004    Y=             -0.0043    Z=             -0.0001  Tot=              0.0044
 Quadrupole moment (field-independent basis, Debye-Ang):
   XX=            -70.9615   YY=            -68.0142   ZZ=            -74.4501
   XY=             -3.1769   XZ=             -4.1548   YZ=             -1.6275
 Traceless Quadrupole moment (field-independent basis, Debye-Ang):
   XX=              0.1804   YY=              3.1277   ZZ=             -3.3082
   XY=             -3.1769   XZ=             -4.1548   YZ=             -1.6275
 Octapole moment (field-independent basis, Debye-Ang**2):
  XXX=              0.0310  YYY=             -0.0420  ZZZ=             -0.0165  XYY=             -0.0085
  XXY=              0.0032  XXZ=             -0.0072  XZZ=             -0.0174  YZZ=             -0.0011
  YYZ=              0.0179  XYZ=              0.0072
 Hexadecapole moment (field-independent basis, Debye-Ang**3):
 XXXX=          -2087.9930 YYYY=           -607.7178 ZZZZ=           -491.1523 XXXY=           -125.8365
 XXXZ=           -195.3504 YYYX=            -73.7678 YYYZ=            -14.1668 ZZZX=           -134.7551
 ZZZY=            -29.2210 XXYY=           -440.6260 XXZZ=           -445.0255 YYZZ=           -197.9903
 XXYZ=            -29.3661 YYXZ=            -47.1891 ZZXY=            -49.7706
 N-N= 6.661888471906D+02 E-N=-2.414976421565D+03  KE= 4.642765835420D+02
                          Isotropic Fermi Contact Couplings
        Atom                 a.u.       MegaHertz       Gauss      10(-4) cm-1
     1  C(13)              0.00000       0.00007       0.00003       0.00002
     2  C(13)             -0.00000      -0.00014      -0.00005      -0.00005
     3  H(1)              -0.00000      -0.00006      -0.00002      -0.00002
     4  H(1)               0.00000       0.00011       0.00004       0.00004
     5  C(13)             -0.00000      -0.00004      -0.00002      -0.00001
     6  C(13)             -0.00000      -0.00004      -0.00002      -0.00001
     7  H(1)               0.00000       0.00018       0.00006       0.00006
     8  H(1)               0.00000       0.00000       0.00000       0.00000
     9  C(13)             -0.00000      -0.00016      -0.00006      -0.00005
    10  H(1)               0.00000       0.00001       0.00000       0.00000
    11  H(1)               0.00000       0.00008       0.00003       0.00003
    12  C(13)              0.00000       0.00000       0.00000       0.00000
    13  H(1)              -0.00000      -0.00014      -0.00005      -0.00005
    14  C(13)              0.00000       0.00011       0.00004       0.00004
    15  H(1)              -0.00000      -0.00006      -0.00002      -0.00002
    16  C(13)              0.00000       0.00009       0.00003       0.00003
    17  H(1)               0.00000       0.00003       0.00001       0.00001
    18  H(1)              -0.00000      -0.00003      -0.00001      -0.00001
    19  C(13)              0.00000       0.00023       0.00008       0.00008
    20  H(1)              -0.00000      -0.00027      -0.00010      -0.00009
    21  C(13)             -0.00000      -0.00019      -0.00007      -0.00006
    22  H(1)               0.00000       0.00024       0.00009       0.00008
    23  C(13)              0.00000       0.00024       0.00009       0.00008
    24  H(1)              -0.00000      -0.00013      -0.00005      -0.00004
    25  H(1)              -0.00000      -0.00016      -0.00006      -0.00005
    26  C(13)             -0.00000      -0.00017      -0.00006      -0.00006
    27  H(1)               0.00000       0.00008       0.00003       0.00003
    28  H(1)               0.00000       0.00013       0.00005       0.00004
 --------------------------------------------------------
       Center         ----  Spin Dipole Couplings  ----
                      3XX-RR        3YY-RR        3ZZ-RR
 --------------------------------------------------------
     1   Atom       -0.000000     -0.000000      0.000001
     2   Atom        0.000000      0.000001     -0.000001
     3   Atom        0.000000     -0.000000     -0.000000
     4   Atom       -0.000000      0.000000      0.000000
     5   Atom       -0.000000     -0.000001      0.000001
     6   Atom       -0.000000      0.000001     -0.000000
     7   Atom        0.000000     -0.000000      0.000000
     8   Atom       -0.000000      0.000000     -0.000000
     9   Atom       -0.000000      0.000000     -0.000000
    10   Atom       -0.000000      0.000000     -0.000000
    11   Atom        0.000000     -0.000000      0.000000
    12   Atom        0.000000      0.000001     -0.000001
    13   Atom        0.000000      0.000000     -0.000000
    14   Atom        0.000000     -0.000001      0.000001
    15   Atom        0.000000     -0.000000      0.000000
    16   Atom        0.000000     -0.000000      0.000000
    17   Atom        0.000000      0.000000     -0.000000
    18   Atom       -0.000000      0.000000     -0.000000
    19   Atom        0.000000     -0.000000      0.000000
    20   Atom       -0.000000      0.000000     -0.000000
    21   Atom       -0.000000      0.000000      0.000000
    22   Atom        0.000000     -0.000000      0.000000
    23   Atom        0.000000     -0.000000      0.000000
    24   Atom        0.000000      0.000000     -0.000000
    25   Atom       -0.000000     -0.000000      0.000000
    26   Atom       -0.000000      0.000000     -0.000000
    27   Atom       -0.000000     -0.000000      0.000000
    28   Atom       -0.000000      0.000000     -0.000000
 --------------------------------------------------------
                        XY            XZ            YZ
 --------------------------------------------------------
     1   Atom        0.000000      0.000001     -0.000000
     2   Atom       -0.000000     -0.000001     -0.000000
     3   Atom        0.000000     -0.000000      0.000000
     4   Atom       -0.000000      0.000000     -0.000000
     5   Atom        0.000000      0.000001      0.000000
     6   Atom       -0.000000     -0.000001     -0.000000
     7   Atom        0.000000      0.000000     -0.000000
     8   Atom       -0.000000      0.000000     -0.000000
     9   Atom       -0.000000      0.000000     -0.000000
    10   Atom        0.000000     -0.000000      0.000000
    11   Atom       -0.000000     -0.000000     -0.000000
    12   Atom        0.000000     -0.000001      0.000000
    13   Atom       -0.000000     -0.000000     -0.000000
    14   Atom       -0.000000      0.000001     -0.000000
    15   Atom        0.000000     -0.000000     -0.000000
    16   Atom       -0.000000     -0.000000     -0.000000
    17   Atom        0.000000      0.000000      0.000000
    18   Atom       -0.000000      0.000000     -0.000000
    19   Atom        0.000000      0.000001      0.000000
    20   Atom       -0.000000     -0.000000      0.000000
    21   Atom       -0.000000     -0.000001      0.000000
    22   Atom       -0.000000     -0.000000      0.000000
    23   Atom        0.000000     -0.000000      0.000000
    24   Atom        0.000000     -0.000000      0.000000
    25   Atom        0.000000      0.000000     -0.000000
    26   Atom        0.000000      0.000000      0.000000
    27   Atom        0.000000     -0.000000      0.000000
    28   Atom        0.000000     -0.000000     -0.000000
 --------------------------------------------------------


 ---------------------------------------------------------------------------------
              Anisotropic Spin Dipole Couplings in Principal Axis System
 ---------------------------------------------------------------------------------

       Atom             a.u.   MegaHertz   Gauss  10(-4) cm-1        Axes

              Baa    -0.0000    -0.000    -0.000    -0.000  0.8533 -0.4370 -0.2843
     1 C(13)  Bbb    -0.0000    -0.000    -0.000    -0.000  0.4187  0.8994 -0.1257
              Bcc     0.0000     0.000     0.000     0.000  0.3106 -0.0118  0.9505
 
              Baa    -0.0000    -0.000    -0.000    -0.000  0.3814  0.1783  0.9070
     2 C(13)  Bbb     0.0000     0.000     0.000     0.000  0.7162 -0.6774 -0.1680
              Bcc     0.0000     0.000     0.000     0.000  0.5845  0.7137 -0.3861
 
              Baa    -0.0000    -0.000    -0.000    -0.000 -0.0673  0.9929 -0.0986
     3 H(1)   Bbb    -0.0000    -0.000    -0.000    -0.000  0.0963  0.1048  0.9898
              Bcc     0.0000     0.000     0.000     0.000  0.9931  0.0571 -0.1026
 
              Baa    -0.0000    -0.000    -0.000    -0.000  0.9597  0.0957 -0.2643
     4 H(1)   Bbb     0.0000     0.000     0.000     0.000  0.2562  0.0894  0.9625
              Bcc     0.0000     0.000     0.000     0.000 -0.1157  0.9914 -0.0613
 
              Baa    -0.0000    -0.000    -0.000    -0.000 -0.3667  0.9296  0.0368
     5 C(13)  Bbb    -0.0000    -0.000    -0.000    -0.000  0.8729  0.3575 -0.3320
              Bcc     0.0000     0.000     0.000     0.000  0.3218  0.0897  0.9425
 
              Baa    -0.0000    -0.000    -0.000    -0.000  0.6634  0.2405  0.7085
     6 C(13)  Bbb     0.0000     0.000     0.000     0.000  0.2453  0.8247 -0.5096
              Bcc     0.0000     0.000     0.000     0.000  0.7069 -0.5119 -0.4881
 
              Baa    -0.0000    -0.000    -0.000    -0.000 -0.1889  0.9659  0.1768
     7 H(1)   Bbb    -0.0000    -0.000    -0.000    -0.000  0.7873  0.2566 -0.5607
              Bcc     0.0000     0.000     0.000     0.000  0.5870 -0.0333  0.8089
 
              Baa    -0.0000    -0.000    -0.000    -0.000 -0.4568  0.1188  0.8816
     8 H(1)   Bbb     0.0000     0.000     0.000     0.000  0.8796  0.2084  0.4277
              Bcc     0.0000     0.000     0.000     0.000 -0.1329  0.9708 -0.1997
 
              Baa    -0.0000    -0.000    -0.000    -0.000 -0.7044 -0.0843  0.7048
     9 C(13)  Bbb    -0.0000    -0.000    -0.000    -0.000  0.5608  0.5427  0.6253
              Bcc     0.0000     0.000     0.000     0.000 -0.4352  0.8357 -0.3350
 
              Baa    -0.0000    -0.000    -0.000    -0.000  0.6549 -0.2659  0.7074
    10 H(1)   Bbb     0.0000     0.000     0.000     0.000 -0.3168  0.7532  0.5765
              Bcc     0.0000     0.000     0.000     0.000  0.6861  0.6016 -0.4090
 
              Baa    -0.0000    -0.000    -0.000    -0.000  0.4590  0.8855  0.0715
    11 H(1)   Bbb     0.0000     0.000     0.000     0.000  0.7247 -0.3267 -0.6067
              Bcc     0.0000     0.000     0.000     0.000  0.5139 -0.3303  0.7917
 
              Baa    -0.0000    -0.000    -0.000    -0.000  0.3877 -0.0153  0.9217
    12 C(13)  Bbb     0.0000     0.000     0.000     0.000  0.8925 -0.2439 -0.3795
              Bcc     0.0000     0.000     0.000     0.000  0.2306  0.9697 -0.0809
 
              Baa    -0.0000    -0.000    -0.000    -0.000  0.6130  0.3045  0.7290
    13 H(1)   Bbb     0.0000     0.000     0.000     0.000  0.4230  0.6529 -0.6283
              Bcc     0.0000     0.000     0.000     0.000 -0.6673  0.6936  0.2715
 
              Baa    -0.0000    -0.000    -0.000    -0.000  0.6970  0.3339 -0.6346
    14 C(13)  Bbb    -0.0000    -0.000    -0.000    -0.000 -0.1810  0.9382  0.2949
              Bcc     0.0000     0.000     0.000     0.000  0.6938 -0.0907  0.7144
 
              Baa    -0.0000    -0.000    -0.000    -0.000 -0.0818  0.9879  0.1320
    15 H(1)   Bbb    -0.0000    -0.000    -0.000    -0.000  0.8643  0.0043  0.5030
              Bcc     0.0000     0.000     0.000     0.000 -0.4963 -0.1552  0.8542
 
              Baa    -0.0000    -0.000    -0.000    -0.000  0.3059  0.9134  0.2687
    16 C(13)  Bbb    -0.0000    -0.000    -0.000    -0.000  0.7043 -0.4070  0.5816
              Bcc     0.0000     0.000     0.000     0.000 -0.6406 -0.0113  0.7678
 
              Baa    -0.0000    -0.000    -0.000    -0.000  0.7314 -0.6668 -0.1433
    17 H(1)   Bbb    -0.0000    -0.000    -0.000    -0.000 -0.1632 -0.3752  0.9125
              Bcc     0.0000     0.000     0.000     0.000  0.6622  0.6439  0.3832
 
              Baa    -0.0000    -0.000    -0.000    -0.000  0.1469  0.3043  0.9412
    18 H(1)   Bbb    -0.0000    -0.000    -0.000    -0.000  0.8723  0.4088 -0.2683
              Bcc     0.0000     0.000     0.000     0.000 -0.4664  0.8604 -0.2054
 
              Baa    -0.0000    -0.000    -0.000    -0.000 -0.5223 -0.4531  0.7224
    19 C(13)  Bbb    -0.0000    -0.000    -0.000    -0.000 -0.4941  0.8513  0.1767
              Bcc     0.0000     0.000     0.000     0.000  0.6950  0.2646  0.6685
 
              Baa    -0.0000    -0.000    -0.000    -0.000 -0.5691 -0.5551  0.6066
    20 H(1)   Bbb    -0.0000    -0.000    -0.000    -0.000  0.6362  0.1702  0.7525
              Bcc     0.0000     0.000     0.000     0.000 -0.5210  0.8142  0.2563
 
              Baa    -0.0000    -0.000    -0.000    -0.000  0.8101 -0.0168  0.5861
    21 C(13)  Bbb     0.0000     0.000     0.000     0.000  0.2060  0.9440 -0.2576
              Bcc     0.0000     0.000     0.000     0.000 -0.5489  0.3294  0.7682
 
              Baa    -0.0000    -0.000    -0.000    -0.000  0.3047  0.8917 -0.3347
    22 H(1)   Bbb     0.0000     0.000     0.000     0.000  0.7196  0.0146  0.6942
              Bcc     0.0000     0.000     0.000     0.000 -0.6239  0.4524  0.6372
 
              Baa    -0.0000    -0.000    -0.000    -0.000 -0.5453  0.7225 -0.4251
    23 C(13)  Bbb    -0.0000    -0.000    -0.000    -0.000  0.4584  0.6816  0.5704
              Bcc     0.0000     0.000     0.000     0.000 -0.7018 -0.1162  0.7028
 
              Baa    -0.0000    -0.000    -0.000    -0.000  0.7320 -0.6460  0.2163
    24 H(1)   Bbb    -0.0000    -0.000    -0.000    -0.000 -0.1859  0.1160  0.9757
              Bcc     0.0000     0.000     0.000     0.000  0.6554  0.7545  0.0351
 
              Baa    -0.0000    -0.000    -0.000    -0.000 -0.4002  0.8662  0.2993
    25 H(1)   Bbb    -0.0000    -0.000    -0.000    -0.000  0.7965  0.4903 -0.3537
              Bcc     0.0000     0.000     0.000     0.000  0.4532 -0.0968  0.8862
 
              Baa    -0.0000    -0.000    -0.000    -0.000 -0.6360  0.0174  0.7715
    26 C(13)  Bbb     0.0000     0.000     0.000     0.000  0.6474 -0.5320  0.5457
              Bcc     0.0000     0.000     0.000     0.000  0.4200  0.8465  0.3271
 
              Baa    -0.0000    -0.000    -0.000    -0.000  0.7457 -0.6576  0.1073
    27 H(1)   Bbb     0.0000     0.000     0.000     0.000 -0.1792 -0.0428  0.9829
              Bcc     0.0000     0.000     0.000     0.000  0.6417  0.7522  0.1498
 
              Baa    -0.0000    -0.000    -0.000    -0.000  0.5007  0.2121  0.8392
    28 H(1)   Bbb    -0.0000    -0.000    -0.000    -0.000  0.8258 -0.4077 -0.3897
              Bcc     0.0000     0.000     0.000     0.000  0.2595  0.8882 -0.3793
 

 ---------------------------------------------------------------------------------

 No NMR shielding tensors so no spin-rotation constants.
 Leave Link  601 at Mon Aug  3 18:29:40 2020, MaxMem=  6442450944 cpu:               7.9 elap:               0.4
 (Enter /scratch/scicomp/CentOS/7.3.1611/Haswell/software/Gaussian/g16/l9999.exe)
 1\1\GINC-ATLAS-205\SP\UwB97XD\def2TZVP\C12H16\BOCHEN\03-Aug-2020\0\\#p
  uwb97xd guess=mix def2tzvp # scrf=(iefpcm,solvent=Cyclohexane,read) n
 osym 6d 10f\\endo-2 xp-pcm for eta=3\\0,1\C,0,-3.093267,-0.435973,0.30
 0434\C,0,-0.86674,-0.289096,-1.445431\H,0,-3.986142,-0.5048,0.910939\H
 ,0,0.030308,-0.224943,-2.049778\C,0,1.262349,1.452521,0.934535\C,0,0.8
 6674,0.289096,1.445431\H,0,0.68836,2.35534,1.107147\H,0,-0.030308,0.22
 4943,2.049778\C,0,1.683814,-0.957175,1.256502\H,0,2.348618,-1.062059,2
 .124256\H,0,1.035891,-1.835298,1.258793\C,0,2.490317,1.538213,0.141849
 \H,0,2.893062,2.516708,-0.090946\C,0,3.093267,0.435973,-0.300434\H,0,3
 .986142,0.5048,-0.910939\C,0,2.511845,-0.924519,-0.02945\H,0,1.879054,
 -1.20282,-0.880995\H,0,3.302586,-1.67529,0.018282\C,0,-1.262349,-1.452
 521,-0.934535\H,0,-0.68836,-2.35534,-1.107147\C,0,-2.490317,-1.538213,
 -0.141849\H,0,-2.893062,-2.516708,0.090946\C,0,-1.683814,0.957175,-1.2
 56502\H,0,-1.035891,1.835298,-1.258793\H,0,-2.348618,1.062059,-2.12425
 6\C,0,-2.511845,0.924519,0.02945\H,0,-3.302586,1.67529,-0.018282\H,0,-
 1.879054,1.20282,0.880995\\Version=ES64L-G16RevB.01\HF=-466.8126063\S2
 =0.\S2-1=0.\S2A=0.\RMSD=7.948e-09\Dipole=-0.0001378,-0.0017094,-0.0000
 571\Quadrupole=0.1341514,2.3253948,-2.4595462,-2.3619797,-3.088976,-1.
 2100122\PG=CI [X(C12H16)]\\@


  THE LARGE PRINT GIVETH,
  AND THE SMALL PRINT TAKETH AWAY.

                     -- TOM WAITS
 Job cpu time:       0 days  2 hours  3 minutes 46.6 seconds.
 Elapsed time:       0 days  0 hours  5 minutes 12.6 seconds.
 File lengths (MBytes):  RWF=    654 Int=      0 D2E=      0 Chk=     25 Scr=      1
 Normal termination of Gaussian 16 at Mon Aug  3 18:29:40 2020.
