 Entering Gaussian System, Link 0=g16
 Input=structure-1-Ger.gjf
 Output=structure-1-Ger.log
 Initial command:
 /scratch/scicomp/CentOS/7.3.1611/Haswell/software/Gaussian/g16/l1.exe "/scratch/bochen/test/xppcm/tmp/Gau-391388.inp" -scrdir="/scratch/bochen/test/xppcm/tmp/"
 Entering Link 1 = /scratch/scicomp/CentOS/7.3.1611/Haswell/software/Gaussian/g16/l1.exe PID=    391389.
  
 Copyright (c) 1988-2017, Gaussian, Inc.  All Rights Reserved.
  
 This is part of the Gaussian(R) 16 program.  It is based on
 the Gaussian(R) 09 system (copyright 2009, Gaussian, Inc.),
 the Gaussian(R) 03 system (copyright 2003, Gaussian, Inc.),
 the Gaussian(R) 98 system (copyright 1998, Gaussian, Inc.),
 the Gaussian(R) 94 system (copyright 1995, Gaussian, Inc.),
 the Gaussian 92(TM) system (copyright 1992, Gaussian, Inc.),
 the Gaussian 90(TM) system (copyright 1990, Gaussian, Inc.),
 the Gaussian 88(TM) system (copyright 1988, Gaussian, Inc.),
 the Gaussian 86(TM) system (copyright 1986, Carnegie Mellon
 University), and the Gaussian 82(TM) system (copyright 1983,
 Carnegie Mellon University). Gaussian is a federally registered
 trademark of Gaussian, Inc.
  
 This software contains proprietary and confidential information,
 including trade secrets, belonging to Gaussian, Inc.
  
 This software is provided under written license and may be
 used, copied, transmitted, or stored only in accord with that
 written license.
  
 The following legend is applicable only to US Government
 contracts under FAR:
  
                    RESTRICTED RIGHTS LEGEND
  
 Use, reproduction and disclosure by the US Government is
 subject to restrictions as set forth in subparagraphs (a)
 and (c) of the Commercial Computer Software - Restricted
 Rights clause in FAR 52.227-19.
  
 Gaussian, Inc.
 340 Quinnipiac St., Bldg. 40, Wallingford CT 06492
  
  
 ---------------------------------------------------------------
 Warning -- This program may not be used in any manner that
 competes with the business of Gaussian, Inc. or will provide
 assistance to any competitor of Gaussian, Inc.  The licensee
 of this program is prohibited from giving any competitor of
 Gaussian, Inc. access to this program.  By using this program,
 the user acknowledges that Gaussian, Inc. is engaged in the
 business of creating and licensing software in the field of
 computational chemistry and represents and warrants to the
 licensee that it is not a competitor of Gaussian, Inc. and that
 it will not use this program in any manner prohibited above.
 ---------------------------------------------------------------
  

 Cite this work as:
 Gaussian 16, Revision B.01,
 M. J. Frisch, G. W. Trucks, H. B. Schlegel, G. E. Scuseria, 
 M. A. Robb, J. R. Cheeseman, G. Scalmani, V. Barone, 
 G. A. Petersson, H. Nakatsuji, X. Li, M. Caricato, A. V. Marenich, 
 J. Bloino, B. G. Janesko, R. Gomperts, B. Mennucci, H. P. Hratchian, 
 J. V. Ortiz, A. F. Izmaylov, J. L. Sonnenberg, D. Williams-Young, 
 F. Ding, F. Lipparini, F. Egidi, J. Goings, B. Peng, A. Petrone, 
 T. Henderson, D. Ranasinghe, V. G. Zakrzewski, J. Gao, N. Rega, 
 G. Zheng, W. Liang, M. Hada, M. Ehara, K. Toyota, R. Fukuda, 
 J. Hasegawa, M. Ishida, T. Nakajima, Y. Honda, O. Kitao, H. Nakai, 
 T. Vreven, K. Throssell, J. A. Montgomery, Jr., J. E. Peralta, 
 F. Ogliaro, M. J. Bearpark, J. J. Heyd, E. N. Brothers, K. N. Kudin, 
 V. N. Staroverov, T. A. Keith, R. Kobayashi, J. Normand, 
 K. Raghavachari, A. P. Rendell, J. C. Burant, S. S. Iyengar, 
 J. Tomasi, M. Cossi, J. M. Millam, M. Klene, C. Adamo, R. Cammi, 
 J. W. Ochterski, R. L. Martin, K. Morokuma, O. Farkas, 
 J. B. Foresman, and D. J. Fox, Gaussian, Inc., Wallingford CT, 2016.
 
 ******************************************
 Gaussian 16:  ES64L-G16RevB.01 20-Dec-2017
                15-Sep-2020 
 ******************************************
 %kjob l502
 kjob at link  502 occurrence number     1
 %chk=structure-1-Ger.chk
 %nproc=24
 Will use up to   24 processors via shared memory.
 %mem=48gb
 ---------------------------------------------------------------------
 #p b3lyp 6-31g* # scrf=(iefpcm,solvent=cyclohexane,read) nosym 6d 10f
 ---------------------------------------------------------------------
 1/38=1,40=2,172=1/1;
 2/12=2,15=1,17=6,18=5,40=1/2;
 3/5=1,6=6,7=1,8=22,11=2,25=1,30=1,70=2203,72=17,74=-5/1,2,3;
 4//1;
 5/5=2,38=5,53=17/2;
 6/7=2,8=2,9=2,10=2,28=1/1;
 99/5=1,9=1/99;
 Leave Link    1 at Tue Sep 15 22:33:04 2020, MaxMem=  6442450944 cpu:               2.1 elap:               0.1
 (Enter /scratch/scicomp/CentOS/7.3.1611/Haswell/software/Gaussian/g16/l101.exe)
 -----
 title
 -----
 Symbolic Z-matrix:
 Charge =  0 Multiplicity = 1
 C                    -0.94124   0.70908  -1.4475 
 C                    -1.13014  -0.58644  -1.68876 
 H                    -0.18738   1.27001  -1.98589 
 H                    -0.54648  -1.09783  -2.44561 
 C                    -2.21372  -1.34936  -0.97802 
 H                    -3.12368  -1.30166  -1.59142 
 H                    -1.95315  -2.40636  -0.90133 
 C                    -1.7532    1.40646  -0.45097 
 H                    -1.71848   2.4886   -0.41654 
 C                    -2.49877   0.72317   0.4162 
 H                    -3.07235   1.24066   1.17649 
 C                    -2.49825  -0.78022   0.41217 
 H                    -3.44748  -1.16681   0.78712 
 H                    -1.72467  -1.12206   1.11127 
 C                     2.57601  -0.05843  -0.6248 
 C                     2.2592    1.24552   0.05234 
 C                     1.44333   1.28353   1.10478 
 C                     0.86446   0.05338   1.64254 
 C                     1.34311  -1.13538   1.28108 
 C                     2.51895  -1.23548   0.34881 
 H                     1.1756    2.2279    1.56276 
 H                     2.65828   2.16115  -0.36856 
 H                     1.84141  -0.21171  -1.4257 
 H                     3.55518  -0.01674  -1.10484 
 H                     0.04304   0.13194   2.3441 
 H                     0.93188  -2.04682   1.69955 
 H                     3.43502  -1.25998   0.95447 
 H                     2.49356  -2.17599  -0.20413 
 
 ITRead=  0  0  0  0  0  0  0  0  0  0  0  0  0  0  0  0  0  0  0  0
 ITRead=  0  0  0  0  0  0  0  0
 MicOpt= -1 -1 -1 -1 -1 -1 -1 -1 -1 -1 -1 -1 -1 -1 -1 -1 -1 -1 -1 -1
 MicOpt= -1 -1 -1 -1 -1 -1 -1 -1
 NAtoms=     28 NQM=       28 NQMF=       0 NMMI=      0 NMMIF=      0
                NMic=       0 NMicF=      0.
                    Isotopes and Nuclear Properties:
 (Nuclear quadrupole moments (NQMom) in fm**2, nuclear magnetic moments (NMagM)
  in nuclear magnetons)

  Atom         1           2           3           4           5           6           7           8           9          10
 IAtWgt=          12          12           1           1          12           1           1          12           1          12
 AtmWgt=  12.0000000  12.0000000   1.0078250   1.0078250  12.0000000   1.0078250   1.0078250  12.0000000   1.0078250  12.0000000
 NucSpn=           0           0           1           1           0           1           1           0           1           0
 AtZEff=  -0.0000000  -0.0000000  -0.0000000  -0.0000000  -0.0000000  -0.0000000  -0.0000000  -0.0000000  -0.0000000  -0.0000000
 NQMom=    0.0000000   0.0000000   0.0000000   0.0000000   0.0000000   0.0000000   0.0000000   0.0000000   0.0000000   0.0000000
 NMagM=    0.0000000   0.0000000   2.7928460   2.7928460   0.0000000   2.7928460   2.7928460   0.0000000   2.7928460   0.0000000
 AtZNuc=   6.0000000   6.0000000   1.0000000   1.0000000   6.0000000   1.0000000   1.0000000   6.0000000   1.0000000   6.0000000

  Atom        11          12          13          14          15          16          17          18          19          20
 IAtWgt=           1          12           1           1          12          12          12          12          12          12
 AtmWgt=   1.0078250  12.0000000   1.0078250   1.0078250  12.0000000  12.0000000  12.0000000  12.0000000  12.0000000  12.0000000
 NucSpn=           1           0           1           1           0           0           0           0           0           0
 AtZEff=  -0.0000000  -0.0000000  -0.0000000  -0.0000000  -0.0000000  -0.0000000  -0.0000000  -0.0000000  -0.0000000  -0.0000000
 NQMom=    0.0000000   0.0000000   0.0000000   0.0000000   0.0000000   0.0000000   0.0000000   0.0000000   0.0000000   0.0000000
 NMagM=    2.7928460   0.0000000   2.7928460   2.7928460   0.0000000   0.0000000   0.0000000   0.0000000   0.0000000   0.0000000
 AtZNuc=   1.0000000   6.0000000   1.0000000   1.0000000   6.0000000   6.0000000   6.0000000   6.0000000   6.0000000   6.0000000

  Atom        21          22          23          24          25          26          27          28
 IAtWgt=           1           1           1           1           1           1           1           1
 AtmWgt=   1.0078250   1.0078250   1.0078250   1.0078250   1.0078250   1.0078250   1.0078250   1.0078250
 NucSpn=           1           1           1           1           1           1           1           1
 AtZEff=  -0.0000000  -0.0000000  -0.0000000  -0.0000000  -0.0000000  -0.0000000  -0.0000000  -0.0000000
 NQMom=    0.0000000   0.0000000   0.0000000   0.0000000   0.0000000   0.0000000   0.0000000   0.0000000
 NMagM=    2.7928460   2.7928460   2.7928460   2.7928460   2.7928460   2.7928460   2.7928460   2.7928460
 AtZNuc=   1.0000000   1.0000000   1.0000000   1.0000000   1.0000000   1.0000000   1.0000000   1.0000000
 Leave Link  101 at Tue Sep 15 22:33:04 2020, MaxMem=  6442450944 cpu:               2.8 elap:               0.2
 (Enter /scratch/scicomp/CentOS/7.3.1611/Haswell/software/Gaussian/g16/l202.exe)
                          Input orientation:                          
 ---------------------------------------------------------------------
 Center     Atomic      Atomic             Coordinates (Angstroms)
 Number     Number       Type             X           Y           Z
 ---------------------------------------------------------------------
      1          6           0       -0.941240    0.709078   -1.447500
      2          6           0       -1.130144   -0.586439   -1.688764
      3          1           0       -0.187383    1.270013   -1.985885
      4          1           0       -0.546479   -1.097826   -2.445614
      5          6           0       -2.213721   -1.349362   -0.978023
      6          1           0       -3.123677   -1.301662   -1.591424
      7          1           0       -1.953148   -2.406359   -0.901332
      8          6           0       -1.753199    1.406457   -0.450967
      9          1           0       -1.718481    2.488604   -0.416537
     10          6           0       -2.498772    0.723169    0.416199
     11          1           0       -3.072350    1.240660    1.176490
     12          6           0       -2.498247   -0.780221    0.412174
     13          1           0       -3.447477   -1.166814    0.787115
     14          1           0       -1.724665   -1.122064    1.111268
     15          6           0        2.576005   -0.058432   -0.624796
     16          6           0        2.259201    1.245519    0.052337
     17          6           0        1.443331    1.283534    1.104783
     18          6           0        0.864455    0.053379    1.642538
     19          6           0        1.343111   -1.135379    1.281075
     20          6           0        2.518953   -1.235476    0.348814
     21          1           0        1.175601    2.227900    1.562761
     22          1           0        2.658280    2.161148   -0.368562
     23          1           0        1.841411   -0.211714   -1.425701
     24          1           0        3.555179   -0.016744   -1.104840
     25          1           0        0.043038    0.131938    2.344097
     26          1           0        0.931882   -2.046820    1.699547
     27          1           0        3.435020   -1.259975    0.954472
     28          1           0        2.493558   -2.175989   -0.204125
 ---------------------------------------------------------------------
                    Distance matrix (angstroms):
                    1          2          3          4          5
     1  C    0.000000
     2  C    1.331262   0.000000
     3  H    1.082962   2.103210   0.000000
     4  H    2.101659   1.083976   2.438639   0.000000
     5  C    2.465115   1.503776   3.461641   2.235350   0.000000
     6  H    2.970997   2.120187   3.923128   2.722708   1.098433
     7  H    3.320874   2.146973   4.220177   2.464910   1.091340
     8  C    1.462427   2.427339   2.196900   3.421436   2.843309
     9  H    2.198568   3.379437   2.508402   4.284066   3.910308
    10  C    2.428884   2.831799   3.378101   3.913751   2.514059
    11  H    3.421919   3.914094   4.280714   4.996817   3.476692
    12  C    2.846168   2.514597   3.910785   3.475230   1.528896
    13  H    3.846258   3.440472   4.925025   4.344086   2.161294
    14  H    3.242550   2.912135   4.204477   3.747015   2.157771
    15  C    3.692821   3.891832   3.354645   3.761067   4.973203
    16  C    3.574927   4.227903   3.184450   4.427512   5.272768
    17  C    3.539820   4.233613   3.494516   4.715457   4.964298
    18  C    3.638518   3.935145   3.968881   4.475376   4.279041
    19  C    4.008167   3.903623   4.336052   4.178537   4.219048
    20  C    4.356715   4.229525   4.364923   4.150259   4.916469
    21  H    3.981144   4.879486   3.920225   5.485716   5.544357
    22  H    4.028543   4.862543   3.392293   5.020512   6.035853
    23  H    2.931123   3.006619   2.573971   2.743617   4.235417
    24  H    4.567496   4.755814   4.054473   4.448597   5.922175
    25  H    3.959558   4.261031   4.482974   4.980078   4.280618
    26  H    4.583390   4.226738   5.082966   4.502055   4.189349
    27  H    5.366404   5.317995   5.307386   5.238245   5.970829
    28  H    4.654829   4.226350   4.715617   3.927917   4.841560
                    6          7          8          9         10
     6  H    0.000000
     7  H    1.751205   0.000000
     8  C    3.242339   3.844525   0.000000
     9  H    4.209638   4.924506   1.083251   0.000000
    10  C    2.919075   3.439119   1.332193   2.102157   0.000000
    11  H    3.758641   4.344042   2.101491   2.434761   1.083896
    12  C    2.162746   2.160268   2.466104   3.461216   1.503395
    13  H    2.404263   2.573003   3.320414   4.219039   2.147011
    14  H    3.048612   2.398370   2.972341   3.920606   2.118312
    15  C    5.913236   5.109057   4.573634   4.997337   5.239077
    16  C    6.177820   5.655933   4.047045   4.193693   4.800370
    17  C    5.900028   5.401470   3.557144   3.709941   4.040833
    18  C    5.310352   4.523325   3.614650   4.103860   3.641953
    19  C    5.313294   4.152543   4.364405   5.038699   4.354570
    20  C    5.967259   4.788895   5.086329   5.693012   5.386872
    21  H    6.394567   6.110416   3.647977   3.515864   4.132776
    22  H    6.849633   6.512391   4.476326   4.389256   5.410991
    23  H    5.086015   4.414760   4.060764   4.580716   4.806640
    24  H    6.818717   6.007773   5.534612   5.878947   6.285806
    25  H    5.250868   4.578266   3.558546   4.034591   3.244556
    26  H    5.275728   3.900928   4.874371   5.663242   4.592299
    27  H    7.035612   5.812965   6.000228   6.518442   6.279529
    28  H    5.851698   4.506924   5.561456   6.288467   5.806314
                   11         12         13         14         15
    11  H    0.000000
    12  C    2.235561   0.000000
    13  H    2.467441   1.091363   0.000000
    14  H    2.720841   1.097278   1.753613   0.000000
    15  C    6.069282   5.229180   6.285248   4.758255   0.000000
    16  C    5.448778   5.183282   6.239024   4.753732   1.503051
    17  C    4.516454   4.502758   5.479518   3.977831   2.464806
    18  C    4.138269   3.676472   4.562168   2.892656   2.843010
    19  C    5.015256   3.954385   4.816089   3.072501   2.512407
    20  C    6.170816   5.038211   5.982901   4.313061   1.528595
    21  H    4.378234   4.885673   5.787794   4.453947   3.460325
    22  H    6.006214   5.987568   7.049198   5.672705   2.235836
    23  H    5.746811   4.746959   5.812152   4.470106   1.097530
    24  H    7.121072   6.287145   7.344341   5.831777   1.091312
    25  H    3.506881   3.320014   4.036663   2.493424   3.907235
    26  H    5.207205   3.876517   4.559137   2.873758   3.472664
    27  H    6.974836   5.977283   6.885162   5.163909   2.162337
    28  H    6.675247   5.219781   6.107118   4.542513   2.160511
                   16         17         18         19         20
    16  C    0.000000
    17  C    1.332191   0.000000
    18  C    2.428014   1.462039   0.000000
    19  C    2.831553   2.427398   1.331508   0.000000
    20  C    2.512112   2.841454   2.464190   1.503906   0.000000
    21  H    2.102532   1.083167   2.198117   3.379209   3.908099
    22  H    1.083880   2.101679   3.421260   3.913830   3.474348
    23  H    2.117232   2.966072   3.230914   2.903118   2.157789
    24  H    2.147539   3.321605   3.846167   3.440520   2.161523
    25  H    3.376922   2.196109   1.083089   2.103877   3.461377
    26  H    3.913384   3.421488   2.102054   1.083952   2.236415
    27  H    2.910996   3.234016   2.967514   2.120914   1.098454
    28  H    3.439101   3.845064   3.321780   2.147607   1.091307
                   21         22         23         24         25
    21  H    0.000000
    22  H    2.435734   0.000000
    23  H    3.914834   2.723103   0.000000
    24  H    4.221009   2.467741   1.754413   0.000000
    25  H    2.507238   4.279685   4.190897   4.924673   0.000000
    26  H    4.283846   4.996451   3.736580   4.343672   2.439769
    27  H    4.200031   3.749377   3.050191   2.408491   3.920972
    28  H    4.924747   4.343378   2.403314   2.569176   4.221968
                   26         27         28
    26  H    0.000000
    27  H    2.727629   0.000000
    28  H    2.465661   1.751508   0.000000
 Symmetry turned off by external request.
 Stoichiometry    C12H16
 Framework group  C1[X(C12H16)]
 Deg. of freedom    78
 Full point group                 C1      NOp   1
 Rotational constants (GHZ):           1.4694618           0.6229074           0.6062348
 Leave Link  202 at Tue Sep 15 22:33:04 2020, MaxMem=  6442450944 cpu:               1.3 elap:               0.1
 (Enter /scratch/scicomp/CentOS/7.3.1611/Haswell/software/Gaussian/g16/l301.exe)
 Standard basis: 6-31G(d) (6D, 10F)
 Ernie: Thresh=  0.10000D-02 Tol=  0.10000D-05 Strict=F.
   212 basis functions,   400 primitive gaussians,   212 cartesian basis functions
    44 alpha electrons       44 beta electrons
       nuclear repulsion energy       674.0431799455 Hartrees.
 IExCor=  402 DFT=T Ex+Corr=B3LYP ExCW=0 ScaHFX=  0.200000
 ScaDFX=  0.800000  0.720000  1.000000  0.810000 ScalE2=  1.000000  1.000000
 IRadAn=      5 IRanWt=     -1 IRanGd=            0 ICorTp=0 IEmpDi=  4
 NAtoms=   28 NActive=   28 NUniq=   28 SFac= 1.00D+00 NAtFMM=   60 NAOKFM=F Big=F
 Integral buffers will be    131072 words long.
 Raffenetti 2 integral format.
 Two-electron integral symmetry is turned off.
 Using the following non-standard input for PCM:
 qrep pcmdoc geomview nodis nocav g03defaults tsare=0.075
 Warning! Using old PCM defaults because the g03defaults keyword was found.
 These settings can be overridden by following keywords.
 nsfe=28
 nvesolv=36 solvmw=84.1595 rsolv=2.815
 eps=2.0165 rhos=0.7781
 --- end of non-standard input.
 Reading user-defined spheres from input:
 ISph  on   Nord    Re0     Alpha      Xe            Ye            Ze
 --- end of user-defined spheres data.
 ------------------------------------------------------------------------------
 Polarizable Continuum Model (PCM)
 =================================
 Model                : PCM.
 Atomic radii         : UA0 (Simple United Atom Topological Model).
 Polarization charges : Total charges.
 Charge compensation  : None.
 Solution method      : On-the-fly selection.
 Cavity type          : SES (Solvent Excluding Surface) (Alpha=1.000).
 Cavity algorithm     : GePol (RMin=0.200 OFac=0.890).
                        User-defined sphere list used, NSphG=   28.
                        Tesserae with average area of 0.075 Ang**2.
                        Smoothing algorithm: None.
                        Polarization charges: point-like.
                        Self-potential: constant (ISelfS= 1).
                        Self-field    : global E.n sum rule (ISelfD= 3).
 Solvent              : CycloHexane, Eps=   2.016500 Eps(inf)=   2.035188
                        RSolv=   2.815000 Ang.
 ------------------------------------------------------------------------------
 GePol: Number of generator spheres                  =      28
 GePol: Total number of spheres                      =     237
 GePol: Number of exposed spheres                    =     148 ( 62.45%)
 GePol: Number of tesserae                           =    4635
 GePol: Average area of tesserae                     =       0.05 Ang**2
 GePol: Minimum area of tessera                      =   0.10D-02 Ang**2
 GePol: Maximum area of tessera                      =    0.12525 Ang**2
 GePol: Number of small tesserae                     =       0
 GePol: Fraction of small tesserae (<1% of avg)      =       0.00%
 GePol: Total count of vertices                      =   16491
 GePol: Maximum number of vertices in a tessera      =       7
 GePol: Cavity surface area                          =    224.927 Ang**2
 GePol: Cavity volume                                =    263.048 Ang**3
 Leave Link  301 at Tue Sep 15 22:33:04 2020, MaxMem=  6442450944 cpu:               9.7 elap:               0.5
 (Enter /scratch/scicomp/CentOS/7.3.1611/Haswell/software/Gaussian/g16/l302.exe)
 NPDir=0 NMtPBC=     1 NCelOv=     1 NCel=       1 NClECP=     1 NCelD=      1
         NCelK=      1 NCelE2=     1 NClLst=     1 CellRange=     0.0.
 One-electron integrals computed using PRISM.
 NBasis=   212 RedAO= T EigKep=  1.28D-03  NBF=   212
 NBsUse=   212 1.00D-06 EigRej= -1.00D+00 NBFU=   212
 Precomputing XC quadrature grid using
 IXCGrd= 4 IRadAn=           5 IRanWt=          -1 IRanGd=           0 AccXCQ= 0.00D+00.
 Generated NRdTot=       0 NPtTot=           0 NUsed=           0 NTot=          32
 NSgBfM=   212   212   212   212   212 MxSgAt=    28 MxSgA2=    28.
 Leave Link  302 at Tue Sep 15 22:33:05 2020, MaxMem=  6442450944 cpu:               6.9 elap:               0.4
 (Enter /scratch/scicomp/CentOS/7.3.1611/Haswell/software/Gaussian/g16/l303.exe)
 DipDrv:  MaxL=1.
 Leave Link  303 at Tue Sep 15 22:33:05 2020, MaxMem=  6442450944 cpu:               2.4 elap:               0.1
 (Enter /scratch/scicomp/CentOS/7.3.1611/Haswell/software/Gaussian/g16/l401.exe)
 ExpMin= 1.61D-01 ExpMax= 3.05D+03 ExpMxC= 4.57D+02 IAcc=3 IRadAn=         5 AccDes= 0.00D+00
 Harris functional with IExCor=  402 and IRadAn=       5 diagonalized for initial guess.
 HarFok:  IExCor=  402 AccDes= 0.00D+00 IRadAn=         5 IDoV= 1 UseB2=F ITyADJ=14
 ICtDFT=  3500011 ScaDFX=  1.000000  1.000000  1.000000  1.000000
 FoFCou: FMM=F IPFlag=           0 FMFlag=      100000 FMFlg1=           0
         NFxFlg=           0 DoJE=T BraDBF=F KetDBF=T FulRan=T
         wScrn=  0.000000 ICntrl=       500 IOpCl=  0 I1Cent=   200000004 NGrid=           0
         NMat0=    1 NMatS0=      1 NMatT0=    0 NMatD0=    1 NMtDS0=    0 NMtDT0=    0
 Symmetry not used in FoFCou.
 Harris En= -466.926982239521    
 JPrj=0 DoOrth=F DoCkMO=F.
 Leave Link  401 at Tue Sep 15 22:33:06 2020, MaxMem=  6442450944 cpu:              13.8 elap:               0.7
 (Enter /scratch/scicomp/CentOS/7.3.1611/Haswell/software/Gaussian/g16/l502.exe)
 Two-electron integral symmetry not used.
 Closed shell SCF:
 Using DIIS extrapolation, IDIIS=  1040.
 NGot=  6442450944 LenX=  6442353874 LenY=  6442308489
 Requested convergence on RMS density matrix=1.00D-08 within 128 cycles.
 Requested convergence on MAX density matrix=1.00D-06.
 Requested convergence on             energy=1.00D-06.
 No special actions if energy rises.
 Fock matrices will be formed incrementally for  20 cycles.

 Cycle   1  Pass 1  IDiag  1:
 FoFJK:  IHMeth= 1 ICntrl=       0 DoSepK=F KAlg= 0 I1Cent=           0 FoldK=F
 IRaf= 930000000 NMat=       1 IRICut=       1 DoRegI=T DoRafI=F ISym2E= 0 IDoP0=0 IntGTp=1.
 FoFCou: FMM=F IPFlag=           0 FMFlag=      100000 FMFlg1=           0
         NFxFlg=           0 DoJE=F BraDBF=F KetDBF=F FulRan=T
         wScrn=  0.000000 ICntrl=         0 IOpCl=  0 I1Cent=           0 NGrid=           0
         NMat0=    1 NMatS0=      1 NMatT0=    0 NMatD0=    1 NMtDS0=    0 NMtDT0=    0
 Symmetry not used in FoFCou.
 Inv3:  Mode=1 IEnd=    64449675.
 Iteration    1 A*A^-1 deviation from unit magnitude is 3.55D-15 for   2861.
 Iteration    1 A*A^-1 deviation from orthogonality  is 3.11D-15 for   2366   1172.
 Iteration    1 A^-1*A deviation from unit magnitude is 3.55D-15 for   2861.
 Iteration    1 A^-1*A deviation from orthogonality  is 2.80D-15 for   3446   2557.
 E= -466.450597295884    
 DIIS: error= 3.17D-02 at cycle   1 NSaved=   1.
 NSaved= 1 IEnMin= 1 EnMin= -466.450597295884     IErMin= 1 ErrMin= 3.17D-02
 ErrMax= 3.17D-02  0.00D+00 EMaxC= 1.00D-01 BMatC= 3.34D-01 BMatP= 3.34D-01
 IDIUse=3 WtCom= 6.83D-01 WtEn= 3.17D-01
 Coeff-Com:  0.100D+01
 Coeff-En:   0.100D+01
 Coeff:      0.100D+01
 Gap=     0.181 Goal=   None    Shift=    0.000
 GapD=    0.181 DampG=1.000 DampE=0.500 DampFc=0.5000 IDamp=-1.
 Damping current iteration by 5.00D-01
 RMSDP=6.70D-03 MaxDP=1.32D-01              OVMax= 1.65D-01

 Cycle   2  Pass 1  IDiag  1:
 RMSU=  3.29D-03    CP:  9.72D-01
 E= -466.618989435739     Delta-E=       -0.168392139855 Rises=F Damp=T
 DIIS: error= 6.42D-03 at cycle   2 NSaved=   2.
 NSaved= 2 IEnMin= 2 EnMin= -466.618989435739     IErMin= 2 ErrMin= 6.42D-03
 ErrMax= 6.42D-03  0.00D+00 EMaxC= 1.00D-01 BMatC= 1.86D-02 BMatP= 3.34D-01
 IDIUse=3 WtCom= 9.36D-01 WtEn= 6.42D-02
 Coeff-Com:  0.551D-01 0.945D+00
 Coeff-En:   0.941D-01 0.906D+00
 Coeff:      0.576D-01 0.942D+00
 Gap=     0.187 Goal=   None    Shift=    0.000
 RMSDP=1.70D-03 MaxDP=2.74D-02 DE=-1.68D-01 OVMax= 9.90D-02

 Cycle   3  Pass 1  IDiag  1:
 RMSU=  1.52D-03    CP:  9.67D-01  7.69D-01
 E= -466.823407233547     Delta-E=       -0.204417797809 Rises=F Damp=F
 DIIS: error= 3.04D-03 at cycle   3 NSaved=   3.
 NSaved= 3 IEnMin= 3 EnMin= -466.823407233547     IErMin= 3 ErrMin= 3.04D-03
 ErrMax= 3.04D-03  0.00D+00 EMaxC= 1.00D-01 BMatC= 4.42D-03 BMatP= 1.86D-02
 IDIUse=3 WtCom= 9.70D-01 WtEn= 3.04D-02
 Coeff-Com: -0.233D-01 0.295D+00 0.728D+00
 Coeff-En:   0.000D+00 0.000D+00 0.100D+01
 Coeff:     -0.226D-01 0.286D+00 0.736D+00
 Gap=     0.185 Goal=   None    Shift=    0.000
 RMSDP=5.08D-04 MaxDP=6.95D-03 DE=-2.04D-01 OVMax= 1.98D-02

 Cycle   4  Pass 1  IDiag  1:
 RMSU=  3.28D-04    CP:  9.67D-01  8.30D-01  7.82D-01
 E= -466.826718996482     Delta-E=       -0.003311762935 Rises=F Damp=F
 DIIS: error= 1.97D-03 at cycle   4 NSaved=   4.
 NSaved= 4 IEnMin= 4 EnMin= -466.826718996482     IErMin= 4 ErrMin= 1.97D-03
 ErrMax= 1.97D-03  0.00D+00 EMaxC= 1.00D-01 BMatC= 8.98D-04 BMatP= 4.42D-03
 IDIUse=3 WtCom= 9.80D-01 WtEn= 1.97D-02
 Coeff-Com: -0.135D-01 0.914D-01 0.354D+00 0.568D+00
 Coeff-En:   0.000D+00 0.000D+00 0.826D-01 0.917D+00
 Coeff:     -0.133D-01 0.896D-01 0.349D+00 0.575D+00
 Gap=     0.185 Goal=   None    Shift=    0.000
 RMSDP=1.94D-04 MaxDP=5.33D-03 DE=-3.31D-03 OVMax= 1.37D-02

 Cycle   5  Pass 1  IDiag  1:
 RMSU=  1.46D-04    CP:  9.66D-01  8.27D-01  8.15D-01  6.48D-01
 E= -466.827321330926     Delta-E=       -0.000602334444 Rises=F Damp=F
 DIIS: error= 1.14D-03 at cycle   5 NSaved=   5.
 NSaved= 5 IEnMin= 5 EnMin= -466.827321330926     IErMin= 5 ErrMin= 1.14D-03
 ErrMax= 1.14D-03  0.00D+00 EMaxC= 1.00D-01 BMatC= 2.95D-04 BMatP= 8.98D-04
 IDIUse=3 WtCom= 9.89D-01 WtEn= 1.14D-02
 Coeff-Com: -0.496D-02 0.102D-01 0.105D+00 0.382D+00 0.507D+00
 Coeff-En:   0.000D+00 0.000D+00 0.000D+00 0.283D+00 0.717D+00
 Coeff:     -0.490D-02 0.101D-01 0.104D+00 0.381D+00 0.509D+00
 Gap=     0.185 Goal=   None    Shift=    0.000
 RMSDP=8.04D-05 MaxDP=2.07D-03 DE=-6.02D-04 OVMax= 5.56D-03

 Cycle   6  Pass 1  IDiag  1:
 RMSU=  2.22D-05    CP:  9.66D-01  8.28D-01  8.20D-01  7.32D-01  5.09D-01
 E= -466.827621740678     Delta-E=       -0.000300409751 Rises=F Damp=F
 DIIS: error= 9.43D-05 at cycle   6 NSaved=   6.
 NSaved= 6 IEnMin= 6 EnMin= -466.827621740678     IErMin= 6 ErrMin= 9.43D-05
 ErrMax= 9.43D-05  0.00D+00 EMaxC= 1.00D-01 BMatC= 3.85D-06 BMatP= 2.95D-04
 IDIUse=1 WtCom= 1.00D+00 WtEn= 0.00D+00
 Coeff-Com: -0.219D-02 0.338D-02 0.453D-01 0.178D+00 0.258D+00 0.518D+00
 Coeff:     -0.219D-02 0.338D-02 0.453D-01 0.178D+00 0.258D+00 0.518D+00
 Gap=     0.185 Goal=   None    Shift=    0.000
 RMSDP=1.20D-05 MaxDP=2.33D-04 DE=-3.00D-04 OVMax= 6.04D-04

 Cycle   7  Pass 1  IDiag  1:
 RMSU=  5.83D-06    CP:  9.66D-01  8.27D-01  8.21D-01  7.32D-01  5.38D-01
                    CP:  5.84D-01
 E= -466.827625700790     Delta-E=       -0.000003960112 Rises=F Damp=F
 DIIS: error= 1.73D-05 at cycle   7 NSaved=   7.
 NSaved= 7 IEnMin= 7 EnMin= -466.827625700790     IErMin= 7 ErrMin= 1.73D-05
 ErrMax= 1.73D-05  0.00D+00 EMaxC= 1.00D-01 BMatC= 1.78D-07 BMatP= 3.85D-06
 IDIUse=1 WtCom= 1.00D+00 WtEn= 0.00D+00
 Coeff-Com: -0.487D-03 0.424D-03 0.999D-02 0.426D-01 0.676D-01 0.220D+00
 Coeff-Com:  0.660D+00
 Coeff:     -0.487D-03 0.424D-03 0.999D-02 0.426D-01 0.676D-01 0.220D+00
 Coeff:      0.660D+00
 Gap=     0.185 Goal=   None    Shift=    0.000
 RMSDP=2.92D-06 MaxDP=8.47D-05 DE=-3.96D-06 OVMax= 2.56D-04

 Cycle   8  Pass 1  IDiag  1:
 RMSU=  2.23D-06    CP:  9.66D-01  8.27D-01  8.21D-01  7.33D-01  5.39D-01
                    CP:  6.20D-01  7.09D-01
 E= -466.827625826303     Delta-E=       -0.000000125513 Rises=F Damp=F
 DIIS: error= 1.28D-05 at cycle   8 NSaved=   8.
 NSaved= 8 IEnMin= 8 EnMin= -466.827625826303     IErMin= 8 ErrMin= 1.28D-05
 ErrMax= 1.28D-05  0.00D+00 EMaxC= 1.00D-01 BMatC= 6.04D-08 BMatP= 1.78D-07
 IDIUse=1 WtCom= 1.00D+00 WtEn= 0.00D+00
 Coeff-Com: -0.490D-04-0.151D-03 0.933D-03 0.592D-02 0.125D-01 0.787D-01
 Coeff-Com:  0.415D+00 0.487D+00
 Coeff:     -0.490D-04-0.151D-03 0.933D-03 0.592D-02 0.125D-01 0.787D-01
 Coeff:      0.415D+00 0.487D+00
 Gap=     0.185 Goal=   None    Shift=    0.000
 RMSDP=1.22D-06 MaxDP=3.88D-05 DE=-1.26D-07 OVMax= 1.13D-04

 Cycle   9  Pass 1  IDiag  1:
 RMSU=  5.94D-07    CP:  9.66D-01  8.27D-01  8.21D-01  7.33D-01  5.39D-01
                    CP:  6.19D-01  7.89D-01  5.71D-01
 E= -466.827625888070     Delta-E=       -0.000000061767 Rises=F Damp=F
 DIIS: error= 2.15D-06 at cycle   9 NSaved=   9.
 NSaved= 9 IEnMin= 9 EnMin= -466.827625888070     IErMin= 9 ErrMin= 2.15D-06
 ErrMax= 2.15D-06  0.00D+00 EMaxC= 1.00D-01 BMatC= 1.96D-09 BMatP= 6.04D-08
 IDIUse=1 WtCom= 1.00D+00 WtEn= 0.00D+00
 Coeff-Com:  0.157D-04-0.967D-04-0.400D-03-0.817D-03 0.162D-03 0.176D-01
 Coeff-Com:  0.132D+00 0.221D+00 0.631D+00
 Coeff:      0.157D-04-0.967D-04-0.400D-03-0.817D-03 0.162D-03 0.176D-01
 Coeff:      0.132D+00 0.221D+00 0.631D+00
 Gap=     0.185 Goal=   None    Shift=    0.000
 RMSDP=2.83D-07 MaxDP=4.52D-06 DE=-6.18D-08 OVMax= 1.34D-05

 Cycle  10  Pass 1  IDiag  1:
 RMSU=  1.81D-07    CP:  9.66D-01  8.27D-01  8.21D-01  7.33D-01  5.39D-01
                    CP:  6.22D-01  7.90D-01  5.89D-01  6.86D-01
 E= -466.827625890030     Delta-E=       -0.000000001960 Rises=F Damp=F
 DIIS: error= 3.05D-07 at cycle  10 NSaved=  10.
 NSaved=10 IEnMin=10 EnMin= -466.827625890030     IErMin=10 ErrMin= 3.05D-07
 ErrMax= 3.05D-07  0.00D+00 EMaxC= 1.00D-01 BMatC= 4.92D-11 BMatP= 1.96D-09
 IDIUse=1 WtCom= 1.00D+00 WtEn= 0.00D+00
 Coeff-Com:  0.522D-05-0.123D-04-0.148D-03-0.516D-03-0.616D-03-0.137D-03
 Coeff-Com:  0.780D-02 0.278D-01 0.181D+00 0.784D+00
 Coeff:      0.522D-05-0.123D-04-0.148D-03-0.516D-03-0.616D-03-0.137D-03
 Coeff:      0.780D-02 0.278D-01 0.181D+00 0.784D+00
 Gap=     0.185 Goal=   None    Shift=    0.000
 RMSDP=4.98D-08 MaxDP=7.50D-07 DE=-1.96D-09 OVMax= 1.50D-06

 Cycle  11  Pass 1  IDiag  1:
 RMSU=  2.22D-08    CP:  9.66D-01  8.27D-01  8.21D-01  7.33D-01  5.39D-01
                    CP:  6.22D-01  7.91D-01  5.96D-01  7.33D-01  8.44D-01
 E= -466.827625890087     Delta-E=       -0.000000000057 Rises=F Damp=F
 DIIS: error= 5.54D-08 at cycle  11 NSaved=  11.
 NSaved=11 IEnMin=11 EnMin= -466.827625890087     IErMin=11 ErrMin= 5.54D-08
 ErrMax= 5.54D-08  0.00D+00 EMaxC= 1.00D-01 BMatC= 1.87D-12 BMatP= 4.92D-11
 IDIUse=1 WtCom= 1.00D+00 WtEn= 0.00D+00
 Coeff-Com:  0.152D-05-0.264D-05-0.460D-04-0.175D-03-0.217D-03-0.371D-03
 Coeff-Com:  0.533D-03 0.627D-02 0.550D-01 0.284D+00 0.655D+00
 Coeff:      0.152D-05-0.264D-05-0.460D-04-0.175D-03-0.217D-03-0.371D-03
 Coeff:      0.533D-03 0.627D-02 0.550D-01 0.284D+00 0.655D+00
 Gap=     0.185 Goal=   None    Shift=    0.000
 RMSDP=9.89D-09 MaxDP=2.77D-07 DE=-5.68D-11 OVMax= 7.20D-07

 Error on total polarization charges =  0.00813
 SCF Done:  E(RB3LYP) =  -466.827625890     A.U. after   11 cycles
            NFock= 11  Conv=0.99D-08     -V/T= 2.0093
 KE= 4.625398822967D+02 PE=-2.428419150822D+03 EE= 8.250084626896D+02
 --------------------------------------------------------------------
 Variational PCM results
 =======================
 <psi(f)|   H    |psi(f)>                     (a.u.) =    -466.834603
 <psi(f)|H+V(f)/2|psi(f)>                     (a.u.) =    -466.835597
 Total free energy in solution:
 - with all non electrostatic terms           (a.u.) =    -466.827626
 --------------------------------------------------------------------
 (Polarized solute)-Solvent               (kcal/mol) =      -0.62
 --------------------------------------------------------------------
 Quantum repulsion energy                 (kcal/mol) =       5.00
 Total non electrostatic                  (kcal/mol) =       5.00
 --------------------------------------------------------------------
 Partition over spheres:
 Sphere  on Atom  Surface  Charge   GEl     GCav    GDR
    1               5.39   0.008   -0.05    0.00    0.00
    2               4.71   0.006   -0.03    0.00    0.00
    3               4.10  -0.004   -0.01    0.00    0.00
    4               5.77  -0.007   -0.02    0.00    0.00
    5               3.62   0.002    0.00    0.00    0.00
    6               7.31  -0.006   -0.00    0.00    0.00
    7               6.23  -0.005   -0.02    0.00    0.00
    8               5.07   0.007   -0.04    0.00    0.00
    9               6.36  -0.007   -0.02    0.00    0.00
   10               4.44   0.006   -0.03    0.00    0.00
   11               7.52  -0.008   -0.02    0.00    0.00
   12               3.29   0.002    0.00    0.00    0.00
   13               7.48  -0.006   -0.02    0.00    0.00
   14               1.87  -0.001   -0.00    0.00    0.00
   15               3.69   0.002    0.00    0.00    0.00
   16               4.26   0.006   -0.03    0.00    0.00
   17               4.42   0.006   -0.04    0.00    0.00
   18               5.14   0.008   -0.05    0.00    0.00
   19               4.73   0.006   -0.03    0.00    0.00
   20               3.57   0.002    0.00    0.00    0.00
   21               6.16  -0.007   -0.02    0.00    0.00
   22               7.38  -0.008   -0.02    0.00    0.00
   23               2.06  -0.001   -0.00    0.00    0.00
   24               7.48  -0.006   -0.02    0.00    0.00
   25               3.91  -0.004   -0.01    0.00    0.00
   26               5.60  -0.007   -0.02    0.00    0.00
   27               7.65  -0.006   -0.00    0.00    0.00
   28               5.86  -0.005   -0.01    0.00    0.00
 Added spheres:    79.86   0.019   -0.11    0.00    0.00
 --------------------------------------------------------------------
 After PCM corrections, the energy is  -466.827625890     a.u.
 --------------------------------------------------------------------
 Leave Link  502 at Tue Sep 15 22:33:32 2020, MaxMem=  6442450944 cpu:             540.5 elap:              25.9
0******************
 *Kjob Termination*
 *  in Link    502*
 ******************
 Job cpu time:       0 days  0 hours  9 minutes 39.7 seconds.
 Elapsed time:       0 days  0 hours  0 minutes 28.0 seconds.
 File lengths (MBytes):  RWF=    396 Int=      0 D2E=      0 Chk=      2 Scr=      1
 Normal termination of Gaussian 16 at Tue Sep 15 22:33:32 2020.
 Initial command:
 /scratch/scicomp/CentOS/7.3.1611/Haswell/software/Gaussian/g16/l1.exe "/scratch/bochen/test/xppcm/tmp/Gau-391388.inp" -scrdir="/scratch/bochen/test/xppcm/tmp/"
 Entering Link 1 = /scratch/scicomp/CentOS/7.3.1611/Haswell/software/Gaussian/g16/l1.exe PID=    391578.
  
 Copyright (c) 1988-2017, Gaussian, Inc.  All Rights Reserved.
  
 This is part of the Gaussian(R) 16 program.  It is based on
 the Gaussian(R) 09 system (copyright 2009, Gaussian, Inc.),
 the Gaussian(R) 03 system (copyright 2003, Gaussian, Inc.),
 the Gaussian(R) 98 system (copyright 1998, Gaussian, Inc.),
 the Gaussian(R) 94 system (copyright 1995, Gaussian, Inc.),
 the Gaussian 92(TM) system (copyright 1992, Gaussian, Inc.),
 the Gaussian 90(TM) system (copyright 1990, Gaussian, Inc.),
 the Gaussian 88(TM) system (copyright 1988, Gaussian, Inc.),
 the Gaussian 86(TM) system (copyright 1986, Carnegie Mellon
 University), and the Gaussian 82(TM) system (copyright 1983,
 Carnegie Mellon University). Gaussian is a federally registered
 trademark of Gaussian, Inc.
  
 This software contains proprietary and confidential information,
 including trade secrets, belonging to Gaussian, Inc.
  
 This software is provided under written license and may be
 used, copied, transmitted, or stored only in accord with that
 written license.
  
 The following legend is applicable only to US Government
 contracts under FAR:
  
                    RESTRICTED RIGHTS LEGEND
  
 Use, reproduction and disclosure by the US Government is
 subject to restrictions as set forth in subparagraphs (a)
 and (c) of the Commercial Computer Software - Restricted
 Rights clause in FAR 52.227-19.
  
 Gaussian, Inc.
 340 Quinnipiac St., Bldg. 40, Wallingford CT 06492
  
  
 ---------------------------------------------------------------
 Warning -- This program may not be used in any manner that
 competes with the business of Gaussian, Inc. or will provide
 assistance to any competitor of Gaussian, Inc.  The licensee
 of this program is prohibited from giving any competitor of
 Gaussian, Inc. access to this program.  By using this program,
 the user acknowledges that Gaussian, Inc. is engaged in the
 business of creating and licensing software in the field of
 computational chemistry and represents and warrants to the
 licensee that it is not a competitor of Gaussian, Inc. and that
 it will not use this program in any manner prohibited above.
 ---------------------------------------------------------------
  

 Cite this work as:
 Gaussian 16, Revision B.01,
 M. J. Frisch, G. W. Trucks, H. B. Schlegel, G. E. Scuseria, 
 M. A. Robb, J. R. Cheeseman, G. Scalmani, V. Barone, 
 G. A. Petersson, H. Nakatsuji, X. Li, M. Caricato, A. V. Marenich, 
 J. Bloino, B. G. Janesko, R. Gomperts, B. Mennucci, H. P. Hratchian, 
 J. V. Ortiz, A. F. Izmaylov, J. L. Sonnenberg, D. Williams-Young, 
 F. Ding, F. Lipparini, F. Egidi, J. Goings, B. Peng, A. Petrone, 
 T. Henderson, D. Ranasinghe, V. G. Zakrzewski, J. Gao, N. Rega, 
 G. Zheng, W. Liang, M. Hada, M. Ehara, K. Toyota, R. Fukuda, 
 J. Hasegawa, M. Ishida, T. Nakajima, Y. Honda, O. Kitao, H. Nakai, 
 T. Vreven, K. Throssell, J. A. Montgomery, Jr., J. E. Peralta, 
 F. Ogliaro, M. J. Bearpark, J. J. Heyd, E. N. Brothers, K. N. Kudin, 
 V. N. Staroverov, T. A. Keith, R. Kobayashi, J. Normand, 
 K. Raghavachari, A. P. Rendell, J. C. Burant, S. S. Iyengar, 
 J. Tomasi, M. Cossi, J. M. Millam, M. Klene, C. Adamo, R. Cammi, 
 J. W. Ochterski, R. L. Martin, K. Morokuma, O. Farkas, 
 J. B. Foresman, and D. J. Fox, Gaussian, Inc., Wallingford CT, 2016.
 
 ******************************************
 Gaussian 16:  ES64L-G16RevB.01 20-Dec-2017
                15-Sep-2020 
 ******************************************
 %kjob l502
 kjob at link  502 occurrence number     1
 %chk=structure-1-Ger.chk
 %nproc=24
 Will use up to   24 processors via shared memory.
 %mem=48gb
 ---------------------------------------------------------------------
 #p b3lyp 6-31g* # scrf=(iefpcm,solvent=cyclohexane,read) nosym 6d 10f
 ---------------------------------------------------------------------
 1/38=1,40=2,172=1/1;
 2/12=2,15=1,17=6,18=5,40=1/2;
 3/5=1,6=6,7=1,8=22,11=2,25=1,30=1,70=2203,72=17,74=-5/1,2,3;
 4//1;
 5/5=2,38=5,53=17/2;
 6/7=2,8=2,9=2,10=2,28=1/1;
 99/5=1,9=1/99;
 Leave Link    1 at Tue Sep 15 22:33:32 2020, MaxMem=  6442450944 cpu:               1.8 elap:               0.1
 (Enter /scratch/scicomp/CentOS/7.3.1611/Haswell/software/Gaussian/g16/l101.exe)
 -----
 title
 -----
 Symbolic Z-matrix:
 Charge =  0 Multiplicity = 1
 C                    -0.94124   0.70908  -1.4475 
 C                    -1.13014  -0.58644  -1.68876 
 H                    -0.18738   1.27001  -1.98589 
 H                    -0.54648  -1.09783  -2.44561 
 C                    -2.21372  -1.34936  -0.97802 
 H                    -3.12368  -1.30166  -1.59142 
 H                    -1.95315  -2.40636  -0.90133 
 C                    -1.7532    1.40646  -0.45097 
 H                    -1.71848   2.4886   -0.41654 
 C                    -2.49877   0.72317   0.4162 
 H                    -3.07235   1.24066   1.17649 
 C                    -2.49825  -0.78022   0.41217 
 H                    -3.44748  -1.16681   0.78712 
 H                    -1.72467  -1.12206   1.11127 
 C                     2.57601  -0.05843  -0.6248 
 C                     2.2592    1.24552   0.05234 
 C                     1.44333   1.28353   1.10478 
 C                     0.86446   0.05338   1.64254 
 C                     1.34311  -1.13538   1.28108 
 C                     2.51895  -1.23548   0.34881 
 H                     1.1756    2.2279    1.56276 
 H                     2.65828   2.16115  -0.36856 
 H                     1.84141  -0.21171  -1.4257 
 H                     3.55518  -0.01674  -1.10484 
 H                     0.04304   0.13194   2.3441 
 H                     0.93188  -2.04682   1.69955 
 H                     3.43502  -1.25998   0.95447 
 H                     2.49356  -2.17599  -0.20413 
 
 ITRead=  0  0  0  0  0  0  0  0  0  0  0  0  0  0  0  0  0  0  0  0
 ITRead=  0  0  0  0  0  0  0  0
 MicOpt= -1 -1 -1 -1 -1 -1 -1 -1 -1 -1 -1 -1 -1 -1 -1 -1 -1 -1 -1 -1
 MicOpt= -1 -1 -1 -1 -1 -1 -1 -1
 NAtoms=     28 NQM=       28 NQMF=       0 NMMI=      0 NMMIF=      0
                NMic=       0 NMicF=      0.
                    Isotopes and Nuclear Properties:
 (Nuclear quadrupole moments (NQMom) in fm**2, nuclear magnetic moments (NMagM)
  in nuclear magnetons)

  Atom         1           2           3           4           5           6           7           8           9          10
 IAtWgt=          12          12           1           1          12           1           1          12           1          12
 AtmWgt=  12.0000000  12.0000000   1.0078250   1.0078250  12.0000000   1.0078250   1.0078250  12.0000000   1.0078250  12.0000000
 NucSpn=           0           0           1           1           0           1           1           0           1           0
 AtZEff=  -0.0000000  -0.0000000  -0.0000000  -0.0000000  -0.0000000  -0.0000000  -0.0000000  -0.0000000  -0.0000000  -0.0000000
 NQMom=    0.0000000   0.0000000   0.0000000   0.0000000   0.0000000   0.0000000   0.0000000   0.0000000   0.0000000   0.0000000
 NMagM=    0.0000000   0.0000000   2.7928460   2.7928460   0.0000000   2.7928460   2.7928460   0.0000000   2.7928460   0.0000000
 AtZNuc=   6.0000000   6.0000000   1.0000000   1.0000000   6.0000000   1.0000000   1.0000000   6.0000000   1.0000000   6.0000000

  Atom        11          12          13          14          15          16          17          18          19          20
 IAtWgt=           1          12           1           1          12          12          12          12          12          12
 AtmWgt=   1.0078250  12.0000000   1.0078250   1.0078250  12.0000000  12.0000000  12.0000000  12.0000000  12.0000000  12.0000000
 NucSpn=           1           0           1           1           0           0           0           0           0           0
 AtZEff=  -0.0000000  -0.0000000  -0.0000000  -0.0000000  -0.0000000  -0.0000000  -0.0000000  -0.0000000  -0.0000000  -0.0000000
 NQMom=    0.0000000   0.0000000   0.0000000   0.0000000   0.0000000   0.0000000   0.0000000   0.0000000   0.0000000   0.0000000
 NMagM=    2.7928460   0.0000000   2.7928460   2.7928460   0.0000000   0.0000000   0.0000000   0.0000000   0.0000000   0.0000000
 AtZNuc=   1.0000000   6.0000000   1.0000000   1.0000000   6.0000000   6.0000000   6.0000000   6.0000000   6.0000000   6.0000000

  Atom        21          22          23          24          25          26          27          28
 IAtWgt=           1           1           1           1           1           1           1           1
 AtmWgt=   1.0078250   1.0078250   1.0078250   1.0078250   1.0078250   1.0078250   1.0078250   1.0078250
 NucSpn=           1           1           1           1           1           1           1           1
 AtZEff=  -0.0000000  -0.0000000  -0.0000000  -0.0000000  -0.0000000  -0.0000000  -0.0000000  -0.0000000
 NQMom=    0.0000000   0.0000000   0.0000000   0.0000000   0.0000000   0.0000000   0.0000000   0.0000000
 NMagM=    2.7928460   2.7928460   2.7928460   2.7928460   2.7928460   2.7928460   2.7928460   2.7928460
 AtZNuc=   1.0000000   1.0000000   1.0000000   1.0000000   1.0000000   1.0000000   1.0000000   1.0000000
 Leave Link  101 at Tue Sep 15 22:33:32 2020, MaxMem=  6442450944 cpu:               2.8 elap:               0.2
 (Enter /scratch/scicomp/CentOS/7.3.1611/Haswell/software/Gaussian/g16/l202.exe)
                          Input orientation:                          
 ---------------------------------------------------------------------
 Center     Atomic      Atomic             Coordinates (Angstroms)
 Number     Number       Type             X           Y           Z
 ---------------------------------------------------------------------
      1          6           0       -0.941240    0.709078   -1.447500
      2          6           0       -1.130144   -0.586439   -1.688764
      3          1           0       -0.187383    1.270013   -1.985885
      4          1           0       -0.546479   -1.097826   -2.445614
      5          6           0       -2.213721   -1.349362   -0.978023
      6          1           0       -3.123677   -1.301662   -1.591424
      7          1           0       -1.953148   -2.406359   -0.901332
      8          6           0       -1.753199    1.406457   -0.450967
      9          1           0       -1.718481    2.488604   -0.416537
     10          6           0       -2.498772    0.723169    0.416199
     11          1           0       -3.072350    1.240660    1.176490
     12          6           0       -2.498247   -0.780221    0.412174
     13          1           0       -3.447477   -1.166814    0.787115
     14          1           0       -1.724665   -1.122064    1.111268
     15          6           0        2.576005   -0.058432   -0.624796
     16          6           0        2.259201    1.245519    0.052337
     17          6           0        1.443331    1.283534    1.104783
     18          6           0        0.864455    0.053379    1.642538
     19          6           0        1.343111   -1.135379    1.281075
     20          6           0        2.518953   -1.235476    0.348814
     21          1           0        1.175601    2.227900    1.562761
     22          1           0        2.658280    2.161148   -0.368562
     23          1           0        1.841411   -0.211714   -1.425701
     24          1           0        3.555179   -0.016744   -1.104840
     25          1           0        0.043038    0.131938    2.344097
     26          1           0        0.931882   -2.046820    1.699547
     27          1           0        3.435020   -1.259975    0.954472
     28          1           0        2.493558   -2.175989   -0.204125
 ---------------------------------------------------------------------
                    Distance matrix (angstroms):
                    1          2          3          4          5
     1  C    0.000000
     2  C    1.331262   0.000000
     3  H    1.082962   2.103210   0.000000
     4  H    2.101659   1.083976   2.438639   0.000000
     5  C    2.465115   1.503776   3.461641   2.235350   0.000000
     6  H    2.970997   2.120187   3.923128   2.722708   1.098433
     7  H    3.320874   2.146973   4.220177   2.464910   1.091340
     8  C    1.462427   2.427339   2.196900   3.421436   2.843309
     9  H    2.198568   3.379437   2.508402   4.284066   3.910308
    10  C    2.428884   2.831799   3.378101   3.913751   2.514059
    11  H    3.421919   3.914094   4.280714   4.996817   3.476692
    12  C    2.846168   2.514597   3.910785   3.475230   1.528896
    13  H    3.846258   3.440472   4.925025   4.344086   2.161294
    14  H    3.242550   2.912135   4.204477   3.747015   2.157771
    15  C    3.692821   3.891832   3.354645   3.761067   4.973203
    16  C    3.574927   4.227903   3.184450   4.427512   5.272768
    17  C    3.539820   4.233613   3.494516   4.715457   4.964298
    18  C    3.638518   3.935145   3.968881   4.475376   4.279041
    19  C    4.008167   3.903623   4.336052   4.178537   4.219048
    20  C    4.356715   4.229525   4.364923   4.150259   4.916469
    21  H    3.981144   4.879486   3.920225   5.485716   5.544357
    22  H    4.028543   4.862543   3.392293   5.020512   6.035853
    23  H    2.931123   3.006619   2.573971   2.743617   4.235417
    24  H    4.567496   4.755814   4.054473   4.448597   5.922175
    25  H    3.959558   4.261031   4.482974   4.980078   4.280618
    26  H    4.583390   4.226738   5.082966   4.502055   4.189349
    27  H    5.366404   5.317995   5.307386   5.238245   5.970829
    28  H    4.654829   4.226350   4.715617   3.927917   4.841560
                    6          7          8          9         10
     6  H    0.000000
     7  H    1.751205   0.000000
     8  C    3.242339   3.844525   0.000000
     9  H    4.209638   4.924506   1.083251   0.000000
    10  C    2.919075   3.439119   1.332193   2.102157   0.000000
    11  H    3.758641   4.344042   2.101491   2.434761   1.083896
    12  C    2.162746   2.160268   2.466104   3.461216   1.503395
    13  H    2.404263   2.573003   3.320414   4.219039   2.147011
    14  H    3.048612   2.398370   2.972341   3.920606   2.118312
    15  C    5.913236   5.109057   4.573634   4.997337   5.239077
    16  C    6.177820   5.655933   4.047045   4.193693   4.800370
    17  C    5.900028   5.401470   3.557144   3.709941   4.040833
    18  C    5.310352   4.523325   3.614650   4.103860   3.641953
    19  C    5.313294   4.152543   4.364405   5.038699   4.354570
    20  C    5.967259   4.788895   5.086329   5.693012   5.386872
    21  H    6.394567   6.110416   3.647977   3.515864   4.132776
    22  H    6.849633   6.512391   4.476326   4.389256   5.410991
    23  H    5.086015   4.414760   4.060764   4.580716   4.806640
    24  H    6.818717   6.007773   5.534612   5.878947   6.285806
    25  H    5.250868   4.578266   3.558546   4.034591   3.244556
    26  H    5.275728   3.900928   4.874371   5.663242   4.592299
    27  H    7.035612   5.812965   6.000228   6.518442   6.279529
    28  H    5.851698   4.506924   5.561456   6.288467   5.806314
                   11         12         13         14         15
    11  H    0.000000
    12  C    2.235561   0.000000
    13  H    2.467441   1.091363   0.000000
    14  H    2.720841   1.097278   1.753613   0.000000
    15  C    6.069282   5.229180   6.285248   4.758255   0.000000
    16  C    5.448778   5.183282   6.239024   4.753732   1.503051
    17  C    4.516454   4.502758   5.479518   3.977831   2.464806
    18  C    4.138269   3.676472   4.562168   2.892656   2.843010
    19  C    5.015256   3.954385   4.816089   3.072501   2.512407
    20  C    6.170816   5.038211   5.982901   4.313061   1.528595
    21  H    4.378234   4.885673   5.787794   4.453947   3.460325
    22  H    6.006214   5.987568   7.049198   5.672705   2.235836
    23  H    5.746811   4.746959   5.812152   4.470106   1.097530
    24  H    7.121072   6.287145   7.344341   5.831777   1.091312
    25  H    3.506881   3.320014   4.036663   2.493424   3.907235
    26  H    5.207205   3.876517   4.559137   2.873758   3.472664
    27  H    6.974836   5.977283   6.885162   5.163909   2.162337
    28  H    6.675247   5.219781   6.107118   4.542513   2.160511
                   16         17         18         19         20
    16  C    0.000000
    17  C    1.332191   0.000000
    18  C    2.428014   1.462039   0.000000
    19  C    2.831553   2.427398   1.331508   0.000000
    20  C    2.512112   2.841454   2.464190   1.503906   0.000000
    21  H    2.102532   1.083167   2.198117   3.379209   3.908099
    22  H    1.083880   2.101679   3.421260   3.913830   3.474348
    23  H    2.117232   2.966072   3.230914   2.903118   2.157789
    24  H    2.147539   3.321605   3.846167   3.440520   2.161523
    25  H    3.376922   2.196109   1.083089   2.103877   3.461377
    26  H    3.913384   3.421488   2.102054   1.083952   2.236415
    27  H    2.910996   3.234016   2.967514   2.120914   1.098454
    28  H    3.439101   3.845064   3.321780   2.147607   1.091307
                   21         22         23         24         25
    21  H    0.000000
    22  H    2.435734   0.000000
    23  H    3.914834   2.723103   0.000000
    24  H    4.221009   2.467741   1.754413   0.000000
    25  H    2.507238   4.279685   4.190897   4.924673   0.000000
    26  H    4.283846   4.996451   3.736580   4.343672   2.439769
    27  H    4.200031   3.749377   3.050191   2.408491   3.920972
    28  H    4.924747   4.343378   2.403314   2.569176   4.221968
                   26         27         28
    26  H    0.000000
    27  H    2.727629   0.000000
    28  H    2.465661   1.751508   0.000000
 Symmetry turned off by external request.
 Stoichiometry    C12H16
 Framework group  C1[X(C12H16)]
 Deg. of freedom    78
 Full point group                 C1      NOp   1
 Rotational constants (GHZ):           1.4694618           0.6229074           0.6062348
 Leave Link  202 at Tue Sep 15 22:33:33 2020, MaxMem=  6442450944 cpu:               1.3 elap:               0.1
 (Enter /scratch/scicomp/CentOS/7.3.1611/Haswell/software/Gaussian/g16/l301.exe)
 Standard basis: 6-31G(d) (6D, 10F)
 Ernie: Thresh=  0.10000D-02 Tol=  0.10000D-05 Strict=F.
   212 basis functions,   400 primitive gaussians,   212 cartesian basis functions
    44 alpha electrons       44 beta electrons
       nuclear repulsion energy       674.0431799455 Hartrees.
 IExCor=  402 DFT=T Ex+Corr=B3LYP ExCW=0 ScaHFX=  0.200000
 ScaDFX=  0.800000  0.720000  1.000000  0.810000 ScalE2=  1.000000  1.000000
 IRadAn=      5 IRanWt=     -1 IRanGd=            0 ICorTp=0 IEmpDi=  4
 NAtoms=   28 NActive=   28 NUniq=   28 SFac= 1.00D+00 NAtFMM=   60 NAOKFM=F Big=F
 Integral buffers will be    131072 words long.
 Raffenetti 2 integral format.
 Two-electron integral symmetry is turned off.
 Using the following non-standard input for PCM:
 qrep pcmdoc geomview nodis nocav g03defaults tsare=0.075
 Warning! Using old PCM defaults because the g03defaults keyword was found.
 These settings can be overridden by following keywords.
 nsfe=28
 nvesolv=36 solvmw=84.1595 rsolv=2.815
 eps=2.080846813330181 rhos=0.8797290682554403
 --- end of non-standard input.
 Reading user-defined spheres from input:
 ISph  on   Nord    Re0     Alpha      Xe            Ye            Ze
 --- end of user-defined spheres data.
 ------------------------------------------------------------------------------
 Polarizable Continuum Model (PCM)
 =================================
 Model                : PCM.
 Atomic radii         : UA0 (Simple United Atom Topological Model).
 Polarization charges : Total charges.
 Charge compensation  : None.
 Solution method      : On-the-fly selection.
 Cavity type          : SES (Solvent Excluding Surface) (Alpha=1.000).
 Cavity algorithm     : GePol (RMin=0.200 OFac=0.890).
                        User-defined sphere list used, NSphG=   28.
                        Tesserae with average area of 0.075 Ang**2.
                        Smoothing algorithm: None.
                        Polarization charges: point-like.
                        Self-potential: constant (ISelfS= 1).
                        Self-field    : global E.n sum rule (ISelfD= 3).
 Solvent              : CycloHexane, Eps=   2.080847 Eps(inf)=   2.035188
                        RSolv=   2.815000 Ang.
 ------------------------------------------------------------------------------
 GePol: Number of generator spheres                  =      28
 GePol: Total number of spheres                      =     282
 GePol: Number of exposed spheres                    =     169 ( 59.93%)
 GePol: Number of tesserae                           =    4913
 GePol: Average area of tesserae                     =       0.04 Ang**2
 GePol: Minimum area of tessera                      =   0.10D-02 Ang**2
 GePol: Maximum area of tessera                      =    0.12397 Ang**2
 GePol: Number of small tesserae                     =       0
 GePol: Fraction of small tesserae (<1% of avg)      =       0.00%
 GePol: Total count of vertices                      =   17511
 GePol: Maximum number of vertices in a tessera      =       7
 GePol: Cavity surface area                          =    217.479 Ang**2
 GePol: Cavity volume                                =    248.221 Ang**3
 Leave Link  301 at Tue Sep 15 22:33:33 2020, MaxMem=  6442450944 cpu:              10.7 elap:               0.5
 (Enter /scratch/scicomp/CentOS/7.3.1611/Haswell/software/Gaussian/g16/l302.exe)
 NPDir=0 NMtPBC=     1 NCelOv=     1 NCel=       1 NClECP=     1 NCelD=      1
         NCelK=      1 NCelE2=     1 NClLst=     1 CellRange=     0.0.
 One-electron integrals computed using PRISM.
 NBasis=   212 RedAO= T EigKep=  1.28D-03  NBF=   212
 NBsUse=   212 1.00D-06 EigRej= -1.00D+00 NBFU=   212
 Precomputing XC quadrature grid using
 IXCGrd= 4 IRadAn=           5 IRanWt=          -1 IRanGd=           0 AccXCQ= 0.00D+00.
 Generated NRdTot=       0 NPtTot=           0 NUsed=           0 NTot=          32
 NSgBfM=   212   212   212   212   212 MxSgAt=    28 MxSgA2=    28.
 Leave Link  302 at Tue Sep 15 22:33:33 2020, MaxMem=  6442450944 cpu:               6.8 elap:               0.3
 (Enter /scratch/scicomp/CentOS/7.3.1611/Haswell/software/Gaussian/g16/l303.exe)
 DipDrv:  MaxL=1.
 Leave Link  303 at Tue Sep 15 22:33:34 2020, MaxMem=  6442450944 cpu:               2.4 elap:               0.1
 (Enter /scratch/scicomp/CentOS/7.3.1611/Haswell/software/Gaussian/g16/l401.exe)
 ExpMin= 1.61D-01 ExpMax= 3.05D+03 ExpMxC= 4.57D+02 IAcc=3 IRadAn=         5 AccDes= 0.00D+00
 Harris functional with IExCor=  402 and IRadAn=       5 diagonalized for initial guess.
 HarFok:  IExCor=  402 AccDes= 0.00D+00 IRadAn=         5 IDoV= 1 UseB2=F ITyADJ=14
 ICtDFT=  3500011 ScaDFX=  1.000000  1.000000  1.000000  1.000000
 FoFCou: FMM=F IPFlag=           0 FMFlag=      100000 FMFlg1=           0
         NFxFlg=           0 DoJE=T BraDBF=F KetDBF=T FulRan=T
         wScrn=  0.000000 ICntrl=       500 IOpCl=  0 I1Cent=   200000004 NGrid=           0
         NMat0=    1 NMatS0=      1 NMatT0=    0 NMatD0=    1 NMtDS0=    0 NMtDT0=    0
 Symmetry not used in FoFCou.
 Harris En= -466.926982239521    
 JPrj=0 DoOrth=F DoCkMO=F.
 Leave Link  401 at Tue Sep 15 22:33:34 2020, MaxMem=  6442450944 cpu:              16.2 elap:               0.8
 (Enter /scratch/scicomp/CentOS/7.3.1611/Haswell/software/Gaussian/g16/l502.exe)
 Two-electron integral symmetry not used.
 Closed shell SCF:
 Using DIIS extrapolation, IDIIS=  1040.
 NGot=  6442450944 LenX=  6442353874 LenY=  6442308489
 Requested convergence on RMS density matrix=1.00D-08 within 128 cycles.
 Requested convergence on MAX density matrix=1.00D-06.
 Requested convergence on             energy=1.00D-06.
 No special actions if energy rises.
 Fock matrices will be formed incrementally for  20 cycles.

 Cycle   1  Pass 1  IDiag  1:
 FoFJK:  IHMeth= 1 ICntrl=       0 DoSepK=F KAlg= 0 I1Cent=           0 FoldK=F
 IRaf= 930000000 NMat=       1 IRICut=       1 DoRegI=T DoRafI=F ISym2E= 0 IDoP0=0 IntGTp=1.
 FoFCou: FMM=F IPFlag=           0 FMFlag=      100000 FMFlg1=           0
         NFxFlg=           0 DoJE=F BraDBF=F KetDBF=F FulRan=T
         wScrn=  0.000000 ICntrl=         0 IOpCl=  0 I1Cent=           0 NGrid=           0
         NMat0=    1 NMatS0=      1 NMatT0=    0 NMatD0=    1 NMtDS0=    0 NMtDT0=    0
 Symmetry not used in FoFCou.
 Inv3:  Mode=1 IEnd=    72412707.
 Iteration    1 A*A^-1 deviation from unit magnitude is 3.66D-15 for   2779.
 Iteration    1 A*A^-1 deviation from orthogonality  is 1.97D-15 for   4301   4129.
 Iteration    1 A^-1*A deviation from unit magnitude is 4.00D-15 for   1128.
 Iteration    1 A^-1*A deviation from orthogonality  is 1.79D-15 for   4625   4602.
 E= -466.449229207193    
 DIIS: error= 3.16D-02 at cycle   1 NSaved=   1.
 NSaved= 1 IEnMin= 1 EnMin= -466.449229207193     IErMin= 1 ErrMin= 3.16D-02
 ErrMax= 3.16D-02  0.00D+00 EMaxC= 1.00D-01 BMatC= 3.33D-01 BMatP= 3.33D-01
 IDIUse=3 WtCom= 6.84D-01 WtEn= 3.16D-01
 Coeff-Com:  0.100D+01
 Coeff-En:   0.100D+01
 Coeff:      0.100D+01
 Gap=     0.181 Goal=   None    Shift=    0.000
 GapD=    0.181 DampG=1.000 DampE=0.500 DampFc=0.5000 IDamp=-1.
 Damping current iteration by 5.00D-01
 RMSDP=6.62D-03 MaxDP=1.29D-01              OVMax= 1.64D-01

 Cycle   2  Pass 1  IDiag  1:
 RMSU=  3.25D-03    CP:  9.72D-01
 E= -466.617333478103     Delta-E=       -0.168104270910 Rises=F Damp=T
 DIIS: error= 6.41D-03 at cycle   2 NSaved=   2.
 NSaved= 2 IEnMin= 2 EnMin= -466.617333478103     IErMin= 2 ErrMin= 6.41D-03
 ErrMax= 6.41D-03  0.00D+00 EMaxC= 1.00D-01 BMatC= 1.84D-02 BMatP= 3.33D-01
 IDIUse=3 WtCom= 9.36D-01 WtEn= 6.41D-02
 Coeff-Com:  0.531D-01 0.947D+00
 Coeff-En:   0.907D-01 0.909D+00
 Coeff:      0.555D-01 0.945D+00
 Gap=     0.187 Goal=   None    Shift=    0.000
 RMSDP=1.69D-03 MaxDP=2.69D-02 DE=-1.68D-01 OVMax= 9.83D-02

 Cycle   3  Pass 1  IDiag  1:
 RMSU=  1.51D-03    CP:  9.66D-01  7.72D-01
 E= -466.820300654863     Delta-E=       -0.202967176760 Rises=F Damp=F
 DIIS: error= 3.02D-03 at cycle   3 NSaved=   3.
 NSaved= 3 IEnMin= 3 EnMin= -466.820300654863     IErMin= 3 ErrMin= 3.02D-03
 ErrMax= 3.02D-03  0.00D+00 EMaxC= 1.00D-01 BMatC= 4.38D-03 BMatP= 1.84D-02
 IDIUse=3 WtCom= 9.70D-01 WtEn= 3.02D-02
 Coeff-Com: -0.240D-01 0.295D+00 0.729D+00
 Coeff-En:   0.000D+00 0.000D+00 0.100D+01
 Coeff:     -0.233D-01 0.286D+00 0.737D+00
 Gap=     0.185 Goal=   None    Shift=    0.000
 RMSDP=5.02D-04 MaxDP=6.91D-03 DE=-2.03D-01 OVMax= 1.93D-02

 Cycle   4  Pass 1  IDiag  1:
 RMSU=  3.24D-04    CP:  9.67D-01  8.33D-01  7.83D-01
 E= -466.823607939760     Delta-E=       -0.003307284898 Rises=F Damp=F
 DIIS: error= 1.90D-03 at cycle   4 NSaved=   4.
 NSaved= 4 IEnMin= 4 EnMin= -466.823607939760     IErMin= 4 ErrMin= 1.90D-03
 ErrMax= 1.90D-03  0.00D+00 EMaxC= 1.00D-01 BMatC= 8.53D-04 BMatP= 4.38D-03
 IDIUse=3 WtCom= 9.81D-01 WtEn= 1.90D-02
 Coeff-Com: -0.136D-01 0.896D-01 0.350D+00 0.574D+00
 Coeff-En:   0.000D+00 0.000D+00 0.706D-01 0.929D+00
 Coeff:     -0.134D-01 0.879D-01 0.345D+00 0.581D+00
 Gap=     0.185 Goal=   None    Shift=    0.000
 RMSDP=1.89D-04 MaxDP=5.25D-03 DE=-3.31D-03 OVMax= 1.33D-02

 Cycle   5  Pass 1  IDiag  1:
 RMSU=  1.43D-04    CP:  9.66D-01  8.31D-01  8.16D-01  6.57D-01
 E= -466.824170213243     Delta-E=       -0.000562273482 Rises=F Damp=F
 DIIS: error= 1.12D-03 at cycle   5 NSaved=   5.
 NSaved= 5 IEnMin= 5 EnMin= -466.824170213243     IErMin= 5 ErrMin= 1.12D-03
 ErrMax= 1.12D-03  0.00D+00 EMaxC= 1.00D-01 BMatC= 2.88D-04 BMatP= 8.53D-04
 IDIUse=3 WtCom= 9.89D-01 WtEn= 1.12D-02
 Coeff-Com: -0.499D-02 0.102D-01 0.105D+00 0.386D+00 0.504D+00
 Coeff-En:   0.000D+00 0.000D+00 0.000D+00 0.288D+00 0.712D+00
 Coeff:     -0.493D-02 0.101D-01 0.104D+00 0.385D+00 0.506D+00
 Gap=     0.185 Goal=   None    Shift=    0.000
 RMSDP=7.90D-05 MaxDP=2.05D-03 DE=-5.62D-04 OVMax= 5.49D-03

 Cycle   6  Pass 1  IDiag  1:
 RMSU=  2.19D-05    CP:  9.66D-01  8.31D-01  8.21D-01  7.37D-01  5.05D-01
 E= -466.824463151201     Delta-E=       -0.000292937959 Rises=F Damp=F
 DIIS: error= 9.26D-05 at cycle   6 NSaved=   6.
 NSaved= 6 IEnMin= 6 EnMin= -466.824463151201     IErMin= 6 ErrMin= 9.26D-05
 ErrMax= 9.26D-05  0.00D+00 EMaxC= 1.00D-01 BMatC= 3.79D-06 BMatP= 2.88D-04
 IDIUse=1 WtCom= 1.00D+00 WtEn= 0.00D+00
 Coeff-Com: -0.220D-02 0.340D-02 0.451D-01 0.179D+00 0.256D+00 0.518D+00
 Coeff:     -0.220D-02 0.340D-02 0.451D-01 0.179D+00 0.256D+00 0.518D+00
 Gap=     0.185 Goal=   None    Shift=    0.000
 RMSDP=1.18D-05 MaxDP=2.28D-04 DE=-2.93D-04 OVMax= 5.87D-04

 Cycle   7  Pass 1  IDiag  1:
 RMSU=  5.70D-06    CP:  9.66D-01  8.30D-01  8.22D-01  7.38D-01  5.35D-01
                    CP:  5.85D-01
 E= -466.824467055024     Delta-E=       -0.000003903822 Rises=F Damp=F
 DIIS: error= 1.64D-05 at cycle   7 NSaved=   7.
 NSaved= 7 IEnMin= 7 EnMin= -466.824467055024     IErMin= 7 ErrMin= 1.64D-05
 ErrMax= 1.64D-05  0.00D+00 EMaxC= 1.00D-01 BMatC= 1.69D-07 BMatP= 3.79D-06
 IDIUse=1 WtCom= 1.00D+00 WtEn= 0.00D+00
 Coeff-Com: -0.478D-03 0.411D-03 0.970D-02 0.419D-01 0.658D-01 0.217D+00
 Coeff-Com:  0.666D+00
 Coeff:     -0.478D-03 0.411D-03 0.970D-02 0.419D-01 0.658D-01 0.217D+00
 Coeff:      0.666D+00
 Gap=     0.185 Goal=   None    Shift=    0.000
 RMSDP=2.83D-06 MaxDP=8.23D-05 DE=-3.90D-06 OVMax= 2.46D-04

 Cycle   8  Pass 1  IDiag  1:
 RMSU=  2.17D-06    CP:  9.66D-01  8.30D-01  8.22D-01  7.39D-01  5.36D-01
                    CP:  6.20D-01  7.15D-01
 E= -466.824467173297     Delta-E=       -0.000000118273 Rises=F Damp=F
 DIIS: error= 1.24D-05 at cycle   8 NSaved=   8.
 NSaved= 8 IEnMin= 8 EnMin= -466.824467173297     IErMin= 8 ErrMin= 1.24D-05
 ErrMax= 1.24D-05  0.00D+00 EMaxC= 1.00D-01 BMatC= 5.68D-08 BMatP= 1.69D-07
 IDIUse=1 WtCom= 1.00D+00 WtEn= 0.00D+00
 Coeff-Com: -0.502D-04-0.146D-03 0.919D-03 0.590D-02 0.123D-01 0.779D-01
 Coeff-Com:  0.416D+00 0.487D+00
 Coeff:     -0.502D-04-0.146D-03 0.919D-03 0.590D-02 0.123D-01 0.779D-01
 Coeff:      0.416D+00 0.487D+00
 Gap=     0.185 Goal=   None    Shift=    0.000
 RMSDP=1.19D-06 MaxDP=3.81D-05 DE=-1.18D-07 OVMax= 1.11D-04

 Cycle   9  Pass 1  IDiag  1:
 RMSU=  5.89D-07    CP:  9.66D-01  8.30D-01  8.22D-01  7.39D-01  5.36D-01
                    CP:  6.20D-01  7.94D-01  5.72D-01
 E= -466.824467231228     Delta-E=       -0.000000057932 Rises=F Damp=F
 DIIS: error= 2.20D-06 at cycle   9 NSaved=   9.
 NSaved= 9 IEnMin= 9 EnMin= -466.824467231228     IErMin= 9 ErrMin= 2.20D-06
 ErrMax= 2.20D-06  0.00D+00 EMaxC= 1.00D-01 BMatC= 2.02D-09 BMatP= 5.68D-08
 IDIUse=1 WtCom= 1.00D+00 WtEn= 0.00D+00
 Coeff-Com:  0.158D-04-0.964D-04-0.412D-03-0.879D-03 0.998D-04 0.173D-01
 Coeff-Com:  0.133D+00 0.225D+00 0.626D+00
 Coeff:      0.158D-04-0.964D-04-0.412D-03-0.879D-03 0.998D-04 0.173D-01
 Coeff:      0.133D+00 0.225D+00 0.626D+00
 Gap=     0.185 Goal=   None    Shift=    0.000
 RMSDP=2.82D-07 MaxDP=4.63D-06 DE=-5.79D-08 OVMax= 1.39D-05

 Cycle  10  Pass 1  IDiag  1:
 RMSU=  1.77D-07    CP:  9.66D-01  8.30D-01  8.22D-01  7.39D-01  5.36D-01
                    CP:  6.23D-01  7.94D-01  5.91D-01  6.79D-01
 E= -466.824467233252     Delta-E=       -0.000000002024 Rises=F Damp=F
 DIIS: error= 2.94D-07 at cycle  10 NSaved=  10.
 NSaved=10 IEnMin=10 EnMin= -466.824467233252     IErMin=10 ErrMin= 2.94D-07
 ErrMax= 2.94D-07  0.00D+00 EMaxC= 1.00D-01 BMatC= 4.59D-11 BMatP= 2.02D-09
 IDIUse=1 WtCom= 1.00D+00 WtEn= 0.00D+00
 Coeff-Com:  0.520D-05-0.121D-04-0.147D-03-0.519D-03-0.611D-03-0.143D-03
 Coeff-Com:  0.780D-02 0.284D-01 0.176D+00 0.789D+00
 Coeff:      0.520D-05-0.121D-04-0.147D-03-0.519D-03-0.611D-03-0.143D-03
 Coeff:      0.780D-02 0.284D-01 0.176D+00 0.789D+00
 Gap=     0.185 Goal=   None    Shift=    0.000
 RMSDP=4.82D-08 MaxDP=7.29D-07 DE=-2.02D-09 OVMax= 1.49D-06

 Cycle  11  Pass 1  IDiag  1:
 RMSU=  2.16D-08    CP:  9.66D-01  8.30D-01  8.22D-01  7.39D-01  5.36D-01
                    CP:  6.22D-01  7.95D-01  5.98D-01  7.25D-01  8.50D-01
 E= -466.824467233303     Delta-E=       -0.000000000052 Rises=F Damp=F
 DIIS: error= 5.36D-08 at cycle  11 NSaved=  11.
 NSaved=11 IEnMin=11 EnMin= -466.824467233303     IErMin=11 ErrMin= 5.36D-08
 ErrMax= 5.36D-08  0.00D+00 EMaxC= 1.00D-01 BMatC= 1.76D-12 BMatP= 4.59D-11
 IDIUse=1 WtCom= 1.00D+00 WtEn= 0.00D+00
 Coeff-Com:  0.149D-05-0.255D-05-0.449D-04-0.173D-03-0.211D-03-0.370D-03
 Coeff-Com:  0.485D-03 0.633D-02 0.526D-01 0.283D+00 0.659D+00
 Coeff:      0.149D-05-0.255D-05-0.449D-04-0.173D-03-0.211D-03-0.370D-03
 Coeff:      0.485D-03 0.633D-02 0.526D-01 0.283D+00 0.659D+00
 Gap=     0.185 Goal=   None    Shift=    0.000
 RMSDP=9.52D-09 MaxDP=2.65D-07 DE=-5.16D-11 OVMax= 6.77D-07

 Error on total polarization charges =  0.01124
 SCF Done:  E(RB3LYP) =  -466.824467233     A.U. after   11 cycles
            NFock= 11  Conv=0.95D-08     -V/T= 2.0092
 KE= 4.625502115266D+02 PE=-2.428475428816D+03 EE= 8.250575701108D+02
 --------------------------------------------------------------------
 Variational PCM results
 =======================
 <psi(f)|   H    |psi(f)>                     (a.u.) =    -466.834544
 <psi(f)|H+V(f)/2|psi(f)>                     (a.u.) =    -466.835783
 Total free energy in solution:
 - with all non electrostatic terms           (a.u.) =    -466.824467
 --------------------------------------------------------------------
 (Polarized solute)-Solvent               (kcal/mol) =      -0.78
 --------------------------------------------------------------------
 Quantum repulsion energy                 (kcal/mol) =       7.10
 Total non electrostatic                  (kcal/mol) =       7.10
 --------------------------------------------------------------------
 Partition over spheres:
 Sphere  on Atom  Surface  Charge   GEl     GCav    GDR
    1               4.86   0.009   -0.06    0.00    0.00
    2               3.97   0.007   -0.04    0.00    0.00
    3               4.06  -0.006   -0.02    0.00    0.00
    4               5.60  -0.008   -0.03    0.00    0.00
    5               3.05   0.002    0.00    0.00    0.00
    6               6.53  -0.006   -0.01    0.00    0.00
    7               5.40  -0.005   -0.02    0.00    0.00
    8               4.63   0.008   -0.05    0.00    0.00
    9               6.27  -0.009   -0.02    0.00    0.00
   10               4.04   0.006   -0.03    0.00    0.00
   11               7.31  -0.009   -0.03    0.00    0.00
   12               2.70   0.002    0.00    0.00    0.00
   13               6.93  -0.006   -0.02    0.00    0.00
   14               2.47  -0.001   -0.00    0.00    0.00
   15               2.67   0.002    0.00    0.00    0.00
   16               3.41   0.006   -0.03    0.00    0.00
   17               4.00   0.007   -0.04    0.00    0.00
   18               4.12   0.008   -0.05    0.00    0.00
   19               4.32   0.007   -0.04    0.00    0.00
   20               3.14   0.002    0.00    0.00    0.00
   21               6.15  -0.009   -0.02    0.00    0.00
   22               6.94  -0.009   -0.03    0.00    0.00
   23               1.98  -0.001   -0.00    0.00    0.00
   24               7.38  -0.007   -0.02    0.00    0.00
   25               3.95  -0.005   -0.02    0.00    0.00
   26               5.52  -0.008   -0.03    0.00    0.00
   27               6.95  -0.006   -0.01    0.00    0.00
   28               5.68  -0.006   -0.02    0.00    0.00
 Added spheres:    83.44   0.027   -0.15    0.00    0.00
 --------------------------------------------------------------------
 After PCM corrections, the energy is  -466.824467233     a.u.
 --------------------------------------------------------------------
 Leave Link  502 at Tue Sep 15 22:34:46 2020, MaxMem=  6442450944 cpu:            1579.2 elap:              70.9
0******************
 *Kjob Termination*
 *  in Link    502*
 ******************
 Job cpu time:       0 days  0 hours 27 minutes  1.4 seconds.
 Elapsed time:       0 days  0 hours  1 minutes 13.0 seconds.
 File lengths (MBytes):  RWF=    445 Int=      0 D2E=      0 Chk=      2 Scr=      1
 Normal termination of Gaussian 16 at Tue Sep 15 22:34:46 2020.
 Initial command:
 /scratch/scicomp/CentOS/7.3.1611/Haswell/software/Gaussian/g16/l1.exe "/scratch/bochen/test/xppcm/tmp/Gau-391388.inp" -scrdir="/scratch/bochen/test/xppcm/tmp/"
 Entering Link 1 = /scratch/scicomp/CentOS/7.3.1611/Haswell/software/Gaussian/g16/l1.exe PID=    391772.
  
 Copyright (c) 1988-2017, Gaussian, Inc.  All Rights Reserved.
  
 This is part of the Gaussian(R) 16 program.  It is based on
 the Gaussian(R) 09 system (copyright 2009, Gaussian, Inc.),
 the Gaussian(R) 03 system (copyright 2003, Gaussian, Inc.),
 the Gaussian(R) 98 system (copyright 1998, Gaussian, Inc.),
 the Gaussian(R) 94 system (copyright 1995, Gaussian, Inc.),
 the Gaussian 92(TM) system (copyright 1992, Gaussian, Inc.),
 the Gaussian 90(TM) system (copyright 1990, Gaussian, Inc.),
 the Gaussian 88(TM) system (copyright 1988, Gaussian, Inc.),
 the Gaussian 86(TM) system (copyright 1986, Carnegie Mellon
 University), and the Gaussian 82(TM) system (copyright 1983,
 Carnegie Mellon University). Gaussian is a federally registered
 trademark of Gaussian, Inc.
  
 This software contains proprietary and confidential information,
 including trade secrets, belonging to Gaussian, Inc.
  
 This software is provided under written license and may be
 used, copied, transmitted, or stored only in accord with that
 written license.
  
 The following legend is applicable only to US Government
 contracts under FAR:
  
                    RESTRICTED RIGHTS LEGEND
  
 Use, reproduction and disclosure by the US Government is
 subject to restrictions as set forth in subparagraphs (a)
 and (c) of the Commercial Computer Software - Restricted
 Rights clause in FAR 52.227-19.
  
 Gaussian, Inc.
 340 Quinnipiac St., Bldg. 40, Wallingford CT 06492
  
  
 ---------------------------------------------------------------
 Warning -- This program may not be used in any manner that
 competes with the business of Gaussian, Inc. or will provide
 assistance to any competitor of Gaussian, Inc.  The licensee
 of this program is prohibited from giving any competitor of
 Gaussian, Inc. access to this program.  By using this program,
 the user acknowledges that Gaussian, Inc. is engaged in the
 business of creating and licensing software in the field of
 computational chemistry and represents and warrants to the
 licensee that it is not a competitor of Gaussian, Inc. and that
 it will not use this program in any manner prohibited above.
 ---------------------------------------------------------------
  

 Cite this work as:
 Gaussian 16, Revision B.01,
 M. J. Frisch, G. W. Trucks, H. B. Schlegel, G. E. Scuseria, 
 M. A. Robb, J. R. Cheeseman, G. Scalmani, V. Barone, 
 G. A. Petersson, H. Nakatsuji, X. Li, M. Caricato, A. V. Marenich, 
 J. Bloino, B. G. Janesko, R. Gomperts, B. Mennucci, H. P. Hratchian, 
 J. V. Ortiz, A. F. Izmaylov, J. L. Sonnenberg, D. Williams-Young, 
 F. Ding, F. Lipparini, F. Egidi, J. Goings, B. Peng, A. Petrone, 
 T. Henderson, D. Ranasinghe, V. G. Zakrzewski, J. Gao, N. Rega, 
 G. Zheng, W. Liang, M. Hada, M. Ehara, K. Toyota, R. Fukuda, 
 J. Hasegawa, M. Ishida, T. Nakajima, Y. Honda, O. Kitao, H. Nakai, 
 T. Vreven, K. Throssell, J. A. Montgomery, Jr., J. E. Peralta, 
 F. Ogliaro, M. J. Bearpark, J. J. Heyd, E. N. Brothers, K. N. Kudin, 
 V. N. Staroverov, T. A. Keith, R. Kobayashi, J. Normand, 
 K. Raghavachari, A. P. Rendell, J. C. Burant, S. S. Iyengar, 
 J. Tomasi, M. Cossi, J. M. Millam, M. Klene, C. Adamo, R. Cammi, 
 J. W. Ochterski, R. L. Martin, K. Morokuma, O. Farkas, 
 J. B. Foresman, and D. J. Fox, Gaussian, Inc., Wallingford CT, 2016.
 
 ******************************************
 Gaussian 16:  ES64L-G16RevB.01 20-Dec-2017
                15-Sep-2020 
 ******************************************
 %kjob l502
 kjob at link  502 occurrence number     1
 %chk=structure-1-Ger.chk
 %nproc=24
 Will use up to   24 processors via shared memory.
 %mem=48gb
 ---------------------------------------------------------------------
 #p b3lyp 6-31g* # scrf=(iefpcm,solvent=cyclohexane,read) nosym 6d 10f
 ---------------------------------------------------------------------
 1/38=1,40=2,172=1/1;
 2/12=2,15=1,17=6,18=5,40=1/2;
 3/5=1,6=6,7=1,8=22,11=2,25=1,30=1,70=2203,72=17,74=-5/1,2,3;
 4//1;
 5/5=2,38=5,53=17/2;
 6/7=2,8=2,9=2,10=2,28=1/1;
 99/5=1,9=1/99;
 Leave Link    1 at Tue Sep 15 22:34:57 2020, MaxMem=  6442450944 cpu:             127.1 elap:               6.2
 (Enter /scratch/scicomp/CentOS/7.3.1611/Haswell/software/Gaussian/g16/l101.exe)
 -----
 title
 -----
 Symbolic Z-matrix:
 Charge =  0 Multiplicity = 1
 C                    -0.94124   0.70908  -1.4475 
 C                    -1.13014  -0.58644  -1.68876 
 H                    -0.18738   1.27001  -1.98589 
 H                    -0.54648  -1.09783  -2.44561 
 C                    -2.21372  -1.34936  -0.97802 
 H                    -3.12368  -1.30166  -1.59142 
 H                    -1.95315  -2.40636  -0.90133 
 C                    -1.7532    1.40646  -0.45097 
 H                    -1.71848   2.4886   -0.41654 
 C                    -2.49877   0.72317   0.4162 
 H                    -3.07235   1.24066   1.17649 
 C                    -2.49825  -0.78022   0.41217 
 H                    -3.44748  -1.16681   0.78712 
 H                    -1.72467  -1.12206   1.11127 
 C                     2.57601  -0.05843  -0.6248 
 C                     2.2592    1.24552   0.05234 
 C                     1.44333   1.28353   1.10478 
 C                     0.86446   0.05338   1.64254 
 C                     1.34311  -1.13538   1.28108 
 C                     2.51895  -1.23548   0.34881 
 H                     1.1756    2.2279    1.56276 
 H                     2.65828   2.16115  -0.36856 
 H                     1.84141  -0.21171  -1.4257 
 H                     3.55518  -0.01674  -1.10484 
 H                     0.04304   0.13194   2.3441 
 H                     0.93188  -2.04682   1.69955 
 H                     3.43502  -1.25998   0.95447 
 H                     2.49356  -2.17599  -0.20413 
 
 ITRead=  0  0  0  0  0  0  0  0  0  0  0  0  0  0  0  0  0  0  0  0
 ITRead=  0  0  0  0  0  0  0  0
 MicOpt= -1 -1 -1 -1 -1 -1 -1 -1 -1 -1 -1 -1 -1 -1 -1 -1 -1 -1 -1 -1
 MicOpt= -1 -1 -1 -1 -1 -1 -1 -1
 NAtoms=     28 NQM=       28 NQMF=       0 NMMI=      0 NMMIF=      0
                NMic=       0 NMicF=      0.
                    Isotopes and Nuclear Properties:
 (Nuclear quadrupole moments (NQMom) in fm**2, nuclear magnetic moments (NMagM)
  in nuclear magnetons)

  Atom         1           2           3           4           5           6           7           8           9          10
 IAtWgt=          12          12           1           1          12           1           1          12           1          12
 AtmWgt=  12.0000000  12.0000000   1.0078250   1.0078250  12.0000000   1.0078250   1.0078250  12.0000000   1.0078250  12.0000000
 NucSpn=           0           0           1           1           0           1           1           0           1           0
 AtZEff=  -0.0000000  -0.0000000  -0.0000000  -0.0000000  -0.0000000  -0.0000000  -0.0000000  -0.0000000  -0.0000000  -0.0000000
 NQMom=    0.0000000   0.0000000   0.0000000   0.0000000   0.0000000   0.0000000   0.0000000   0.0000000   0.0000000   0.0000000
[...]
    27  H    6.974836   5.977283   6.885162   5.163909   2.162337
    28  H    6.675247   5.219781   6.107118   4.542513   2.160511
                   16         17         18         19         20
    16  C    0.000000
    17  C    1.332191   0.000000
    18  C    2.428014   1.462039   0.000000
    19  C    2.831553   2.427398   1.331508   0.000000
    20  C    2.512112   2.841454   2.464190   1.503906   0.000000
    21  H    2.102532   1.083167   2.198117   3.379209   3.908099
    22  H    1.083880   2.101679   3.421260   3.913830   3.474348
    23  H    2.117232   2.966072   3.230914   2.903118   2.157789
    24  H    2.147539   3.321605   3.846167   3.440520   2.161523
    25  H    3.376922   2.196109   1.083089   2.103877   3.461377
    26  H    3.913384   3.421488   2.102054   1.083952   2.236415
    27  H    2.910996   3.234016   2.967514   2.120914   1.098454
    28  H    3.439101   3.845064   3.321780   2.147607   1.091307
                   21         22         23         24         25
    21  H    0.000000
    22  H    2.435734   0.000000
    23  H    3.914834   2.723103   0.000000
    24  H    4.221009   2.467741   1.754413   0.000000
    25  H    2.507238   4.279685   4.190897   4.924673   0.000000
    26  H    4.283846   4.996451   3.736580   4.343672   2.439769
    27  H    4.200031   3.749377   3.050191   2.408491   3.920972
    28  H    4.924747   4.343378   2.403314   2.569176   4.221968
                   26         27         28
    26  H    0.000000
    27  H    2.727629   0.000000
    28  H    2.465661   1.751508   0.000000
 Symmetry turned off by external request.
 Stoichiometry    C12H16
 Framework group  C1[X(C12H16)]
 Deg. of freedom    78
 Full point group                 C1      NOp   1
 Rotational constants (GHZ):           1.4694618           0.6229074           0.6062348
 Leave Link  202 at Tue Sep 15 22:42:31 2020, MaxMem=  6442450944 cpu:               1.3 elap:               0.1
 (Enter /scratch/scicomp/CentOS/7.3.1611/Haswell/software/Gaussian/g16/l301.exe)
 Standard basis: 6-31G(d) (6D, 10F)
 Ernie: Thresh=  0.10000D-02 Tol=  0.10000D-05 Strict=F.
   212 basis functions,   400 primitive gaussians,   212 cartesian basis functions
    44 alpha electrons       44 beta electrons
       nuclear repulsion energy       674.0431799455 Hartrees.
 IExCor=  402 DFT=T Ex+Corr=B3LYP ExCW=0 ScaHFX=  0.200000
 ScaDFX=  0.800000  0.720000  1.000000  0.810000 ScalE2=  1.000000  1.000000
 IRadAn=      5 IRanWt=     -1 IRanGd=            0 ICorTp=0 IEmpDi=  4
 NAtoms=   28 NActive=   28 NUniq=   28 SFac= 1.00D+00 NAtFMM=   60 NAOKFM=F Big=F
 Integral buffers will be    131072 words long.
 Raffenetti 2 integral format.
 Two-electron integral symmetry is turned off.
 Using the following non-standard input for PCM:
 qrep pcmdoc geomview nodis nocav g03defaults tsare=0.075
 Warning! Using old PCM defaults because the g03defaults keyword was found.
 These settings can be overridden by following keywords.
 nsfe=28
 nvesolv=36 solvmw=84.1595 rsolv=2.815
 eps=2.387393701544771 rhos=1.449506230685373
 --- end of non-standard input.
 Reading user-defined spheres from input:
 ISph  on   Nord    Re0     Alpha      Xe            Ye            Ze
 --- end of user-defined spheres data.
 ------------------------------------------------------------------------------
 Polarizable Continuum Model (PCM)
 =================================
 Model                : PCM.
 Atomic radii         : UA0 (Simple United Atom Topological Model).
 Polarization charges : Total charges.
 Charge compensation  : None.
 Solution method      : On-the-fly selection.
 Cavity type          : SES (Solvent Excluding Surface) (Alpha=1.000).
 Cavity algorithm     : GePol (RMin=0.200 OFac=0.890).
                        User-defined sphere list used, NSphG=   28.
                        Tesserae with average area of 0.075 Ang**2.
                        Smoothing algorithm: None.
                        Polarization charges: point-like.
                        Self-potential: constant (ISelfS= 1).
                        Self-field    : global E.n sum rule (ISelfD= 3).
 Solvent              : CycloHexane, Eps=   2.387394 Eps(inf)=   2.035188
                        RSolv=   2.815000 Ang.
 ------------------------------------------------------------------------------
 GePol: Number of generator spheres                  =      28
 GePol: Total number of spheres                      =     566
 GePol: Number of exposed spheres                    =     311 ( 54.95%)
 GePol: Number of tesserae                           =    4634
 GePol: Average area of tesserae                     =       0.04 Ang**2
 GePol: Minimum area of tessera                      =   0.10D-02 Ang**2
 GePol: Maximum area of tessera                      =    0.12513 Ang**2
 GePol: Number of small tesserae                     =       0
 GePol: Fraction of small tesserae (<1% of avg)      =       0.00%
 GePol: Total count of vertices                      =   17405
 GePol: Maximum number of vertices in a tessera      =       8
 GePol: Cavity surface area                          =    189.471 Ang**2
 GePol: Cavity volume                                =    196.939 Ang**3
 Leave Link  301 at Tue Sep 15 22:42:32 2020, MaxMem=  6442450944 cpu:              15.1 elap:               0.7
 (Enter /scratch/scicomp/CentOS/7.3.1611/Haswell/software/Gaussian/g16/l302.exe)
 NPDir=0 NMtPBC=     1 NCelOv=     1 NCel=       1 NClECP=     1 NCelD=      1
         NCelK=      1 NCelE2=     1 NClLst=     1 CellRange=     0.0.
 One-electron integrals computed using PRISM.
 NBasis=   212 RedAO= T EigKep=  1.28D-03  NBF=   212
 NBsUse=   212 1.00D-06 EigRej= -1.00D+00 NBFU=   212
 Precomputing XC quadrature grid using
 IXCGrd= 4 IRadAn=           5 IRanWt=          -1 IRanGd=           0 AccXCQ= 0.00D+00.
 Generated NRdTot=       0 NPtTot=           0 NUsed=           0 NTot=          32
 NSgBfM=   212   212   212   212   212 MxSgAt=    28 MxSgA2=    28.
 Leave Link  302 at Tue Sep 15 22:42:32 2020, MaxMem=  6442450944 cpu:               6.8 elap:               0.3
 (Enter /scratch/scicomp/CentOS/7.3.1611/Haswell/software/Gaussian/g16/l303.exe)
 DipDrv:  MaxL=1.
 Leave Link  303 at Tue Sep 15 22:42:32 2020, MaxMem=  6442450944 cpu:               2.6 elap:               0.2
 (Enter /scratch/scicomp/CentOS/7.3.1611/Haswell/software/Gaussian/g16/l401.exe)
 ExpMin= 1.61D-01 ExpMax= 3.05D+03 ExpMxC= 4.57D+02 IAcc=3 IRadAn=         5 AccDes= 0.00D+00
 Harris functional with IExCor=  402 and IRadAn=       5 diagonalized for initial guess.
 HarFok:  IExCor=  402 AccDes= 0.00D+00 IRadAn=         5 IDoV= 1 UseB2=F ITyADJ=14
 ICtDFT=  3500011 ScaDFX=  1.000000  1.000000  1.000000  1.000000
 FoFCou: FMM=F IPFlag=           0 FMFlag=      100000 FMFlg1=           0
         NFxFlg=           0 DoJE=T BraDBF=F KetDBF=T FulRan=T
         wScrn=  0.000000 ICntrl=       500 IOpCl=  0 I1Cent=   200000004 NGrid=           0
         NMat0=    1 NMatS0=      1 NMatT0=    0 NMatD0=    1 NMtDS0=    0 NMtDT0=    0
 Symmetry not used in FoFCou.
 Harris En= -466.926982239521    
 JPrj=0 DoOrth=F DoCkMO=F.
 Leave Link  401 at Tue Sep 15 22:42:33 2020, MaxMem=  6442450944 cpu:              13.8 elap:               0.7
 (Enter /scratch/scicomp/CentOS/7.3.1611/Haswell/software/Gaussian/g16/l502.exe)
 Two-electron integral symmetry not used.
 Closed shell SCF:
 Using DIIS extrapolation, IDIIS=  1040.
 NGot=  6442450944 LenX=  6442353874 LenY=  6442308489
 Requested convergence on RMS density matrix=1.00D-08 within 128 cycles.
 Requested convergence on MAX density matrix=1.00D-06.
 Requested convergence on             energy=1.00D-06.
 No special actions if energy rises.
 Fock matrices will be formed incrementally for  20 cycles.

 Cycle   1  Pass 1  IDiag  1:
 FoFJK:  IHMeth= 1 ICntrl=       0 DoSepK=F KAlg= 0 I1Cent=           0 FoldK=F
 IRaf= 930000000 NMat=       1 IRICut=       1 DoRegI=T DoRafI=F ISym2E= 0 IDoP0=0 IntGTp=1.
 FoFCou: FMM=F IPFlag=           0 FMFlag=      100000 FMFlg1=           0
         NFxFlg=           0 DoJE=F BraDBF=F KetDBF=F FulRan=T
         wScrn=  0.000000 ICntrl=         0 IOpCl=  0 I1Cent=           0 NGrid=           0
         NMat0=    1 NMatS0=      1 NMatT0=    0 NMatD0=    1 NMtDS0=    0 NMtDT0=    0
 Symmetry not used in FoFCou.
 Inv3:  Mode=1 IEnd=    64421868.
 Iteration    1 A*A^-1 deviation from unit magnitude is 4.88D-15 for   2429.
 Iteration    1 A*A^-1 deviation from orthogonality  is 1.52D-15 for    938    505.
 Iteration    1 A^-1*A deviation from unit magnitude is 4.00D-15 for   2429.
 Iteration    1 A^-1*A deviation from orthogonality  is 2.44D-15 for   2874   2133.
 E= -466.432883613173    
 DIIS: error= 3.08D-02 at cycle   1 NSaved=   1.
 NSaved= 1 IEnMin= 1 EnMin= -466.432883613173     IErMin= 1 ErrMin= 3.08D-02
 ErrMax= 3.08D-02  0.00D+00 EMaxC= 1.00D-01 BMatC= 3.24D-01 BMatP= 3.24D-01
 IDIUse=3 WtCom= 6.92D-01 WtEn= 3.08D-01
 Coeff-Com:  0.100D+01
 Coeff-En:   0.100D+01
 Coeff:      0.100D+01
 Gap=     0.182 Goal=   None    Shift=    0.000
 GapD=    0.182 DampG=1.000 DampE=0.500 DampFc=0.5000 IDamp=-1.
 Damping current iteration by 5.00D-01
 RMSDP=6.13D-03 MaxDP=1.16D-01              OVMax= 1.60D-01

 Cycle   2  Pass 1  IDiag  1:
 RMSU=  3.00D-03    CP:  9.72D-01
 E= -466.597638878828     Delta-E=       -0.164755265655 Rises=F Damp=T
 DIIS: error= 6.32D-03 at cycle   2 NSaved=   2.
 NSaved= 2 IEnMin= 2 EnMin= -466.597638878828     IErMin= 2 ErrMin= 6.32D-03
 ErrMax= 6.32D-03  0.00D+00 EMaxC= 1.00D-01 BMatC= 1.71D-02 BMatP= 3.24D-01
 IDIUse=3 WtCom= 9.37D-01 WtEn= 6.32D-02
 Coeff-Com:  0.388D-01 0.961D+00
 Coeff-En:   0.675D-01 0.932D+00
 Coeff:      0.406D-01 0.959D+00
 Gap=     0.187 Goal=   None    Shift=    0.000
 RMSDP=1.61D-03 MaxDP=2.38D-02 DE=-1.65D-01 OVMax= 9.33D-02

 Cycle   3  Pass 1  IDiag  1:
 RMSU=  1.49D-03    CP:  9.66D-01  7.95D-01
 E= -466.789557423151     Delta-E=       -0.191918544323 Rises=F Damp=F
 DIIS: error= 2.91D-03 at cycle   3 NSaved=   3.
 NSaved= 3 IEnMin= 3 EnMin= -466.789557423151     IErMin= 3 ErrMin= 2.91D-03
 ErrMax= 2.91D-03  0.00D+00 EMaxC= 1.00D-01 BMatC= 4.10D-03 BMatP= 1.71D-02
 IDIUse=3 WtCom= 9.71D-01 WtEn= 2.91D-02
 Coeff-Com: -0.289D-01 0.297D+00 0.732D+00
 Coeff-En:   0.000D+00 0.000D+00 0.100D+01
 Coeff:     -0.281D-01 0.288D+00 0.740D+00
 Gap=     0.185 Goal=   None    Shift=    0.000
 RMSDP=4.75D-04 MaxDP=6.63D-03 DE=-1.92D-01 OVMax= 1.72D-02

 Cycle   4  Pass 1  IDiag  1:
 RMSU=  3.06D-04    CP:  9.66D-01  8.57D-01  7.90D-01
 E= -466.792775594173     Delta-E=       -0.003218171022 Rises=F Damp=F
 DIIS: error= 1.59D-03 at cycle   4 NSaved=   4.
 NSaved= 4 IEnMin= 4 EnMin= -466.792775594173     IErMin= 4 ErrMin= 1.59D-03
 ErrMax= 1.59D-03  0.00D+00 EMaxC= 1.00D-01 BMatC= 6.77D-04 BMatP= 4.10D-03
 IDIUse=3 WtCom= 9.84D-01 WtEn= 1.59D-02
 Coeff-Com: -0.145D-01 0.828D-01 0.333D+00 0.599D+00
 Coeff-En:   0.000D+00 0.000D+00 0.218D-01 0.978D+00
 Coeff:     -0.142D-01 0.815D-01 0.328D+00 0.605D+00
 Gap=     0.185 Goal=   None    Shift=    0.000
 RMSDP=1.66D-04 MaxDP=4.91D-03 DE=-3.22D-03 OVMax= 1.17D-02

 Cycle   5  Pass 1  IDiag  1:
 RMSU=  1.27D-04    CP:  9.66D-01  8.54D-01  8.21D-01  6.88D-01
 E= -466.793201467735     Delta-E=       -0.000425873562 Rises=F Damp=F
 DIIS: error= 1.00D-03 at cycle   5 NSaved=   5.
 NSaved= 5 IEnMin= 5 EnMin= -466.793201467735     IErMin= 5 ErrMin= 1.00D-03
 ErrMax= 1.00D-03  0.00D+00 EMaxC= 1.00D-01 BMatC= 2.44D-04 BMatP= 6.77D-04
 IDIUse=3 WtCom= 9.90D-01 WtEn= 1.00D-02
 Coeff-Com: -0.523D-02 0.106D-01 0.105D+00 0.397D+00 0.493D+00
 Coeff-En:   0.000D+00 0.000D+00 0.000D+00 0.296D+00 0.704D+00
 Coeff:     -0.518D-02 0.105D-01 0.104D+00 0.396D+00 0.495D+00
 Gap=     0.185 Goal=   None    Shift=    0.000
 RMSDP=7.10D-05 MaxDP=1.92D-03 DE=-4.26D-04 OVMax= 5.05D-03

 Cycle   6  Pass 1  IDiag  1:
 RMSU=  2.06D-05    CP:  9.66D-01  8.54D-01  8.25D-01  7.58D-01  4.97D-01
 E= -466.793447907205     Delta-E=       -0.000246439470 Rises=F Damp=F
 DIIS: error= 8.65D-05 at cycle   6 NSaved=   6.
 NSaved= 6 IEnMin= 6 EnMin= -466.793447907205     IErMin= 6 ErrMin= 8.65D-05
 ErrMax= 8.65D-05  0.00D+00 EMaxC= 1.00D-01 BMatC= 3.39D-06 BMatP= 2.44D-04
 IDIUse=1 WtCom= 1.00D+00 WtEn= 0.00D+00
 Coeff-Com: -0.227D-02 0.352D-02 0.443D-01 0.181D+00 0.249D+00 0.524D+00
 Coeff:     -0.227D-02 0.352D-02 0.443D-01 0.181D+00 0.249D+00 0.524D+00
 Gap=     0.185 Goal=   None    Shift=    0.000
 RMSDP=1.08D-05 MaxDP=2.16D-04 DE=-2.46D-04 OVMax= 5.20D-04

 Cycle   7  Pass 1  IDiag  1:
 RMSU=  5.05D-06    CP:  9.66D-01  8.54D-01  8.26D-01  7.60D-01  5.28D-01
                    CP:  5.91D-01
 E= -466.793451409370     Delta-E=       -0.000003502165 Rises=F Damp=F
 DIIS: error= 1.50D-05 at cycle   7 NSaved=   7.
 NSaved= 7 IEnMin= 7 EnMin= -466.793451409370     IErMin= 7 ErrMin= 1.50D-05
 ErrMax= 1.50D-05  0.00D+00 EMaxC= 1.00D-01 BMatC= 1.34D-07 BMatP= 3.39D-06
 IDIUse=1 WtCom= 1.00D+00 WtEn= 0.00D+00
 Coeff-Com: -0.470D-03 0.411D-03 0.884D-02 0.395D-01 0.604D-01 0.209D+00
 Coeff-Com:  0.682D+00
 Coeff:     -0.470D-03 0.411D-03 0.884D-02 0.395D-01 0.604D-01 0.209D+00
 Coeff:      0.682D+00
 Gap=     0.185 Goal=   None    Shift=    0.000
 RMSDP=2.43D-06 MaxDP=7.03D-05 DE=-3.50D-06 OVMax= 2.04D-04

 Cycle   8  Pass 1  IDiag  1:
 RMSU=  1.89D-06    CP:  9.66D-01  8.54D-01  8.27D-01  7.61D-01  5.29D-01
                    CP:  6.23D-01  7.32D-01
 E= -466.793451506915     Delta-E=       -0.000000097545 Rises=F Damp=F
 DIIS: error= 1.03D-05 at cycle   8 NSaved=   8.
 NSaved= 8 IEnMin= 8 EnMin= -466.793451506915     IErMin= 8 ErrMin= 1.03D-05
 ErrMax= 1.03D-05  0.00D+00 EMaxC= 1.00D-01 BMatC= 3.99D-08 BMatP= 1.34D-07
 IDIUse=1 WtCom= 1.00D+00 WtEn= 0.00D+00
 Coeff-Com: -0.578D-04-0.114D-03 0.871D-03 0.562D-02 0.116D-01 0.740D-01
 Coeff-Com:  0.408D+00 0.500D+00
 Coeff:     -0.578D-04-0.114D-03 0.871D-03 0.562D-02 0.116D-01 0.740D-01
 Coeff:      0.408D+00 0.500D+00
 Gap=     0.185 Goal=   None    Shift=    0.000
 RMSDP=1.03D-06 MaxDP=3.39D-05 DE=-9.75D-08 OVMax= 9.72D-05

 Cycle   9  Pass 1  IDiag  1:
 RMSU=  5.54D-07    CP:  9.66D-01  8.54D-01  8.27D-01  7.61D-01  5.29D-01
                    CP:  6.23D-01  8.07D-01  5.92D-01
 E= -466.793451546729     Delta-E=       -0.000000039814 Rises=F Damp=F
 DIIS: error= 2.32D-06 at cycle   9 NSaved=   9.
 NSaved= 9 IEnMin= 9 EnMin= -466.793451546729     IErMin= 9 ErrMin= 2.32D-06
 ErrMax= 2.32D-06  0.00D+00 EMaxC= 1.00D-01 BMatC= 2.25D-09 BMatP= 3.99D-08
 IDIUse=1 WtCom= 1.00D+00 WtEn= 0.00D+00
 Coeff-Com:  0.174D-04-0.945D-04-0.481D-03-0.127D-02-0.335D-03 0.159D-01
 Coeff-Com:  0.134D+00 0.252D+00 0.600D+00
 Coeff:      0.174D-04-0.945D-04-0.481D-03-0.127D-02-0.335D-03 0.159D-01
 Coeff:      0.134D+00 0.252D+00 0.600D+00
 Gap=     0.185 Goal=   None    Shift=    0.000
 RMSDP=2.73D-07 MaxDP=5.20D-06 DE=-3.98D-08 OVMax= 1.58D-05

 Cycle  10  Pass 1  IDiag  1:
 RMSU=  1.55D-07    CP:  9.66D-01  8.54D-01  8.27D-01  7.61D-01  5.30D-01
                    CP:  6.26D-01  8.08D-01  6.15D-01  6.46D-01
 E= -466.793451549005     Delta-E=       -0.000000002275 Rises=F Damp=F
 DIIS: error= 2.31D-07 at cycle  10 NSaved=  10.
 NSaved=10 IEnMin=10 EnMin= -466.793451549005     IErMin=10 ErrMin= 2.31D-07
 ErrMax= 2.31D-07  0.00D+00 EMaxC= 1.00D-01 BMatC= 3.05D-11 BMatP= 2.25D-09
 IDIUse=1 WtCom= 1.00D+00 WtEn= 0.00D+00
 Coeff-Com:  0.517D-05-0.115D-04-0.142D-03-0.524D-03-0.593D-03-0.194D-03
 Coeff-Com:  0.756D-02 0.313D-01 0.150D+00 0.812D+00
 Coeff:      0.517D-05-0.115D-04-0.142D-03-0.524D-03-0.593D-03-0.194D-03
 Coeff:      0.756D-02 0.313D-01 0.150D+00 0.812D+00
 Gap=     0.185 Goal=   None    Shift=    0.000
 RMSDP=3.95D-08 MaxDP=6.11D-07 DE=-2.28D-09 OVMax= 1.41D-06

 Cycle  11  Pass 1  IDiag  1:
 RMSU=  1.86D-08    CP:  9.66D-01  8.54D-01  8.27D-01  7.61D-01  5.30D-01
                    CP:  6.26D-01  8.08D-01  6.23D-01  6.87D-01  8.82D-01
 E= -466.793451549037     Delta-E=       -0.000000000032 Rises=F Damp=F
 DIIS: error= 4.42D-08 at cycle  11 NSaved=  11.
 NSaved=11 IEnMin=11 EnMin= -466.793451549037     IErMin=11 ErrMin= 4.42D-08
 ErrMax= 4.42D-08  0.00D+00 EMaxC= 1.00D-01 BMatC= 1.24D-12 BMatP= 3.05D-11
 IDIUse=1 WtCom= 1.00D+00 WtEn= 0.00D+00
 Coeff-Com:  0.139D-05-0.216D-05-0.396D-04-0.159D-03-0.188D-03-0.367D-03
 Coeff-Com:  0.220D-03 0.633D-02 0.407D-01 0.276D+00 0.678D+00
 Coeff:      0.139D-05-0.216D-05-0.396D-04-0.159D-03-0.188D-03-0.367D-03
 Coeff:      0.220D-03 0.633D-02 0.407D-01 0.276D+00 0.678D+00
 Gap=     0.185 Goal=   None    Shift=    0.000
 RMSDP=7.73D-09 MaxDP=2.01D-07 DE=-3.21D-11 OVMax= 4.52D-07

 Error on total polarization charges =  0.03602
 SCF Done:  E(RB3LYP) =  -466.793451549     A.U. after   11 cycles
            NFock= 11  Conv=0.77D-08     -V/T= 2.0090
 KE= 4.626471866107D+02 PE=-2.428946164806D+03 EE= 8.254623467003D+02
 --------------------------------------------------------------------
 Variational PCM results
 =======================
 <psi(f)|   H    |psi(f)>                     (a.u.) =    -466.833675
 <psi(f)|H+V(f)/2|psi(f)>                     (a.u.) =    -466.836774
 Total free energy in solution:
 - with all non electrostatic terms           (a.u.) =    -466.793452
 --------------------------------------------------------------------
 (Polarized solute)-Solvent               (kcal/mol) =      -1.94
 --------------------------------------------------------------------
 Quantum repulsion energy                 (kcal/mol) =      27.19
 Total non electrostatic                  (kcal/mol) =      27.19
 --------------------------------------------------------------------
 Partition over spheres:
 Sphere  on Atom  Surface  Charge   GEl     GCav    GDR
    1               2.68   0.009   -0.07    0.00    0.00
    2               2.30   0.007   -0.04    0.00    0.00
    3               3.41  -0.011   -0.06    0.00    0.00
    4               3.99  -0.013   -0.09    0.00    0.00
    5               0.90   0.001    0.00    0.00    0.00
    6               5.20  -0.012   -0.05    0.00    0.00
    7               4.44  -0.011   -0.07    0.00    0.00
    8               2.70   0.008   -0.07    0.00    0.00
    9               4.71  -0.016   -0.10    0.00    0.00
   10               2.15   0.007   -0.05    0.00    0.00
   11               5.54  -0.018   -0.11    0.00    0.00
   12               1.21   0.001    0.00    0.00    0.00
   13               5.57  -0.013   -0.08    0.00    0.00
   14               1.92  -0.002   -0.01    0.00    0.00
   15               1.08   0.001    0.00    0.00    0.00
   16               2.18   0.007   -0.05    0.00    0.00
   17               2.77   0.008   -0.07    0.00    0.00
   18               2.65   0.009   -0.07    0.00    0.00
   19               2.43   0.008   -0.05    0.00    0.00
   20               0.83   0.001    0.00    0.00    0.00
   21               4.37  -0.015   -0.09    0.00    0.00
   22               5.19  -0.017   -0.11    0.00    0.00
   23               1.75  -0.002   -0.01    0.00    0.00
   24               5.43  -0.012   -0.08    0.00    0.00
   25               3.00  -0.010   -0.06    0.00    0.00
   26               4.23  -0.014   -0.09    0.00    0.00
   27               5.25  -0.012   -0.05    0.00    0.00
   28               4.38  -0.011   -0.07    0.00    0.00
 Added spheres:    97.19   0.085   -0.37    0.00    0.00
 --------------------------------------------------------------------
 After PCM corrections, the energy is  -466.793451549     a.u.
 --------------------------------------------------------------------
 Leave Link  502 at Tue Sep 15 22:43:01 2020, MaxMem=  6442450944 cpu:             605.1 elap:              28.0
0******************
 *Kjob Termination*
 *  in Link    502*
 ******************
 Job cpu time:       0 days  0 hours 10 minutes 53.9 seconds.
 Elapsed time:       0 days  0 hours  0 minutes 30.5 seconds.
 File lengths (MBytes):  RWF=    397 Int=      0 D2E=      0 Chk=      2 Scr=      1
 Normal termination of Gaussian 16 at Tue Sep 15 22:43:01 2020.
