 Entering Gaussian System, Link 0=g16
 Input=meso-TS_76_2_xp-Vc.com
 Output=meso-TS_76_2_xp-Vc.log
 Initial command:
 /scratch/scicomp/CentOS/7.3.1611/Haswell/software/Gaussian/g16/l1.exe "/scratch/bochen/cyclohexadiene-dimerization/wb97xd-def2tzvp/xp-pcm/meso/Gau-74098.inp" -scrdir="/scratch/bochen/cyclohexadiene-dimerization/wb97xd-def2tzvp/xp-pcm/meso/"
 Entering Link 1 = /scratch/scicomp/CentOS/7.3.1611/Haswell/software/Gaussian/g16/l1.exe PID=     74099.
  
 Copyright (c) 1988-2017, Gaussian, Inc.  All Rights Reserved.
  
 This is part of the Gaussian(R) 16 program.  It is based on
 the Gaussian(R) 09 system (copyright 2009, Gaussian, Inc.),
 the Gaussian(R) 03 system (copyright 2003, Gaussian, Inc.),
 the Gaussian(R) 98 system (copyright 1998, Gaussian, Inc.),
 the Gaussian(R) 94 system (copyright 1995, Gaussian, Inc.),
 the Gaussian 92(TM) system (copyright 1992, Gaussian, Inc.),
 the Gaussian 90(TM) system (copyright 1990, Gaussian, Inc.),
 the Gaussian 88(TM) system (copyright 1988, Gaussian, Inc.),
 the Gaussian 86(TM) system (copyright 1986, Carnegie Mellon
 University), and the Gaussian 82(TM) system (copyright 1983,
 Carnegie Mellon University). Gaussian is a federally registered
 trademark of Gaussian, Inc.
  
 This software contains proprietary and confidential information,
 including trade secrets, belonging to Gaussian, Inc.
  
 This software is provided under written license and may be
 used, copied, transmitted, or stored only in accord with that
 written license.
  
 The following legend is applicable only to US Government
 contracts under FAR:
  
                    RESTRICTED RIGHTS LEGEND
  
 Use, reproduction and disclosure by the US Government is
 subject to restrictions as set forth in subparagraphs (a)
 and (c) of the Commercial Computer Software - Restricted
 Rights clause in FAR 52.227-19.
  
 Gaussian, Inc.
 340 Quinnipiac St., Bldg. 40, Wallingford CT 06492
  
  
 ---------------------------------------------------------------
 Warning -- This program may not be used in any manner that
 competes with the business of Gaussian, Inc. or will provide
 assistance to any competitor of Gaussian, Inc.  The licensee
 of this program is prohibited from giving any competitor of
 Gaussian, Inc. access to this program.  By using this program,
 the user acknowledges that Gaussian, Inc. is engaged in the
 business of creating and licensing software in the field of
 computational chemistry and represents and warrants to the
 licensee that it is not a competitor of Gaussian, Inc. and that
 it will not use this program in any manner prohibited above.
 ---------------------------------------------------------------
  

 Cite this work as:
 Gaussian 16, Revision B.01,
 M. J. Frisch, G. W. Trucks, H. B. Schlegel, G. E. Scuseria, 
 M. A. Robb, J. R. Cheeseman, G. Scalmani, V. Barone, 
 G. A. Petersson, H. Nakatsuji, X. Li, M. Caricato, A. V. Marenich, 
 J. Bloino, B. G. Janesko, R. Gomperts, B. Mennucci, H. P. Hratchian, 
 J. V. Ortiz, A. F. Izmaylov, J. L. Sonnenberg, D. Williams-Young, 
 F. Ding, F. Lipparini, F. Egidi, J. Goings, B. Peng, A. Petrone, 
 T. Henderson, D. Ranasinghe, V. G. Zakrzewski, J. Gao, N. Rega, 
 G. Zheng, W. Liang, M. Hada, M. Ehara, K. Toyota, R. Fukuda, 
 J. Hasegawa, M. Ishida, T. Nakajima, Y. Honda, O. Kitao, H. Nakai, 
 T. Vreven, K. Throssell, J. A. Montgomery, Jr., J. E. Peralta, 
 F. Ogliaro, M. J. Bearpark, J. J. Heyd, E. N. Brothers, K. N. Kudin, 
 V. N. Staroverov, T. A. Keith, R. Kobayashi, J. Normand, 
 K. Raghavachari, A. P. Rendell, J. C. Burant, S. S. Iyengar, 
 J. Tomasi, M. Cossi, J. M. Millam, M. Klene, C. Adamo, R. Cammi, 
 J. W. Ochterski, R. L. Martin, K. Morokuma, O. Farkas, 
 J. B. Foresman, and D. J. Fox, Gaussian, Inc., Wallingford CT, 2016.
 
 ******************************************
 Gaussian 16:  ES64L-G16RevB.01 20-Dec-2017
                 3-Aug-2020 
 ******************************************
 %chk=meso-TS_76_2_xp-12.chk
 %nproc=24
 Will use up to   24 processors via shared memory.
 %mem=48GB
 ----------------------------------------------------------------------
 #p uwb97xd guess=mix def2tzvp # scrf=(iefpcm,solvent=Cyclohexane,read)
  nosym guess=only pop=none
 ----------------------------------------------------------------------
 1/38=1,40=2,172=1/1;
 2/12=2,15=1,17=6,18=5,40=1/2;
 3/5=44,7=101,11=2,25=1,30=1,70=2203,72=17,74=-58,89=1,116=2/1,2;
 4/13=-1/1;
 99/5=2/99;
 Leave Link    1 at Mon Aug  3 17:19:09 2020, MaxMem=  6442450944 cpu:               1.5 elap:               0.1
 (Enter /scratch/scicomp/CentOS/7.3.1611/Haswell/software/Gaussian/g16/l101.exe)
 -----------------------
 endo-2 xp-pcm for eta=3
 -----------------------
 Symbolic Z-matrix:
 Charge =  0 Multiplicity = 1
 6                    -3.1179   -0.43907   0.28272 
 6                    -0.81852  -0.27359  -1.3649 
 1                    -4.03333  -0.51712   0.85772 
 1                     0.10337  -0.20137  -1.92934 
 6                     1.2289    1.44101   0.87645 
 6                     0.81852   0.27359   1.3649 
 1                     0.64341   2.33995   1.02944 
 1                    -0.10337   0.20137   1.92934 
 6                     1.6454   -0.97004   1.20615 
 1                     2.25973  -1.0838    2.10902 
 1                     0.99746  -1.8471    1.16556 
 6                     2.4852    1.53568   0.1308 
 1                     2.8865    2.5174   -0.09068 
 6                     3.1179    0.43907  -0.28272 
 1                     4.03333   0.51712  -0.85772 
 6                     2.54629  -0.92942  -0.03076 
 1                     1.97376  -1.23029  -0.9167 
 1                     3.3478   -1.66337   0.07074 
 6                    -1.2289   -1.44101  -0.87645 
 1                    -0.64341  -2.33995  -1.02944 
 6                    -2.4852   -1.53568  -0.1308 
 1                    -2.8865   -2.5174    0.09068 
 6                    -1.6454    0.97004  -1.20615 
 1                    -0.99746   1.8471   -1.16556 
 1                    -2.25973   1.0838   -2.10902 
 6                    -2.54629   0.92942   0.03076 
 1                    -3.3478    1.66337  -0.07074 
 1                    -1.97376   1.23029   0.9167 
 
 ITRead=  0  0  0  0  0  0  0  0  0  0  0  0  0  0  0  0  0  0  0  0
 ITRead=  0  0  0  0  0  0  0  0
 MicOpt= -1 -1 -1 -1 -1 -1 -1 -1 -1 -1 -1 -1 -1 -1 -1 -1 -1 -1 -1 -1
 MicOpt= -1 -1 -1 -1 -1 -1 -1 -1
 NAtoms=     28 NQM=       28 NQMF=       0 NMMI=      0 NMMIF=      0
                NMic=       0 NMicF=      0.
                    Isotopes and Nuclear Properties:
 (Nuclear quadrupole moments (NQMom) in fm**2, nuclear magnetic moments (NMagM)
  in nuclear magnetons)

  Atom         1           2           3           4           5           6           7           8           9          10
 IAtWgt=          12          12           1           1          12          12           1           1          12           1
 AtmWgt=  12.0000000  12.0000000   1.0078250   1.0078250  12.0000000  12.0000000   1.0078250   1.0078250  12.0000000   1.0078250
 NucSpn=           0           0           1           1           0           0           1           1           0           1
 AtZEff=  -0.0000000  -0.0000000  -0.0000000  -0.0000000  -0.0000000  -0.0000000  -0.0000000  -0.0000000  -0.0000000  -0.0000000
 NQMom=    0.0000000   0.0000000   0.0000000   0.0000000   0.0000000   0.0000000   0.0000000   0.0000000   0.0000000   0.0000000
 NMagM=    0.0000000   0.0000000   2.7928460   2.7928460   0.0000000   0.0000000   2.7928460   2.7928460   0.0000000   2.7928460
 AtZNuc=   6.0000000   6.0000000   1.0000000   1.0000000   6.0000000   6.0000000   1.0000000   1.0000000   6.0000000   1.0000000

  Atom        11          12          13          14          15          16          17          18          19          20
 IAtWgt=           1          12           1          12           1          12           1           1          12           1
 AtmWgt=   1.0078250  12.0000000   1.0078250  12.0000000   1.0078250  12.0000000   1.0078250   1.0078250  12.0000000   1.0078250
 NucSpn=           1           0           1           0           1           0           1           1           0           1
 AtZEff=  -0.0000000  -0.0000000  -0.0000000  -0.0000000  -0.0000000  -0.0000000  -0.0000000  -0.0000000  -0.0000000  -0.0000000
 NQMom=    0.0000000   0.0000000   0.0000000   0.0000000   0.0000000   0.0000000   0.0000000   0.0000000   0.0000000   0.0000000
 NMagM=    2.7928460   0.0000000   2.7928460   0.0000000   2.7928460   0.0000000   2.7928460   2.7928460   0.0000000   2.7928460
 AtZNuc=   1.0000000   6.0000000   1.0000000   6.0000000   1.0000000   6.0000000   1.0000000   1.0000000   6.0000000   1.0000000

  Atom        21          22          23          24          25          26          27          28
 IAtWgt=          12           1          12           1           1          12           1           1
 AtmWgt=  12.0000000   1.0078250  12.0000000   1.0078250   1.0078250  12.0000000   1.0078250   1.0078250
 NucSpn=           0           1           0           1           1           0           1           1
 AtZEff=  -0.0000000  -0.0000000  -0.0000000  -0.0000000  -0.0000000  -0.0000000  -0.0000000  -0.0000000
 NQMom=    0.0000000   0.0000000   0.0000000   0.0000000   0.0000000   0.0000000   0.0000000   0.0000000
 NMagM=    0.0000000   2.7928460   0.0000000   2.7928460   2.7928460   0.0000000   2.7928460   2.7928460
 AtZNuc=   6.0000000   1.0000000   6.0000000   1.0000000   1.0000000   6.0000000   1.0000000   1.0000000
 Leave Link  101 at Mon Aug  3 17:19:09 2020, MaxMem=  6442450944 cpu:               2.4 elap:               0.1
 (Enter /scratch/scicomp/CentOS/7.3.1611/Haswell/software/Gaussian/g16/l202.exe)
                          Input orientation:                          
 ---------------------------------------------------------------------
 Center     Atomic      Atomic             Coordinates (Angstroms)
 Number     Number       Type             X           Y           Z
 ---------------------------------------------------------------------
      1          6           0       -3.117905   -0.439074    0.282722
      2          6           0       -0.818524   -0.273593   -1.364901
      3          1           0       -4.033330   -0.517117    0.857717
      4          1           0        0.103373   -0.201366   -1.929344
      5          6           0        1.228903    1.441011    0.876454
      6          6           0        0.818524    0.273593    1.364901
      7          1           0        0.643410    2.339945    1.029443
      8          1           0       -0.103373    0.201366    1.929344
      9          6           0        1.645400   -0.970035    1.206150
     10          1           0        2.259726   -1.083800    2.109018
     11          1           0        0.997461   -1.847095    1.165558
     12          6           0        2.485196    1.535682    0.130802
     13          1           0        2.886502    2.517404   -0.090679
     14          6           0        3.117905    0.439074   -0.282722
     15          1           0        4.033330    0.517117   -0.857717
     16          6           0        2.546291   -0.929423   -0.030764
     17          1           0        1.973763   -1.230286   -0.916701
     18          1           0        3.347800   -1.663372    0.070740
     19          6           0       -1.228903   -1.441011   -0.876454
     20          1           0       -0.643410   -2.339945   -1.029443
     21          6           0       -2.485196   -1.535682   -0.130802
     22          1           0       -2.886502   -2.517404    0.090679
     23          6           0       -1.645400    0.970035   -1.206150
     24          1           0       -0.997461    1.847095   -1.165558
     25          1           0       -2.259726    1.083800   -2.109018
     26          6           0       -2.546291    0.929423    0.030764
     27          1           0       -3.347800    1.663372   -0.070740
     28          1           0       -1.973763    1.230286    0.916701
 ---------------------------------------------------------------------
                    Distance matrix (angstroms):
                    1          2          3          4          5
     1  C    0.000000
     2  C    2.833584   0.000000
     3  H    1.083842   3.915905   0.000000
     4  H    3.914891   1.083377   4.997972   0.000000
     5  C    4.773047   3.486473   5.614776   3.440454   0.000000
     6  C    4.144210   3.229730   4.941958   3.404273   1.330359
     7  H    4.735824   3.834151   5.483082   3.937553   1.083647
     8  H    3.494128   3.404273   4.136323   3.885153   2.102441
     9  C    4.880954   3.628534   5.707409   3.577712   2.468869
    10  H    5.715763   4.711706   6.441230   4.662287   2.992738
    11  H    4.438261   3.489546   5.212722   3.617490   3.308895
    12  C    5.942851   4.052798   6.872668   3.596473   1.463978
    13  H    6.703215   4.810460   7.615238   4.303279   2.200364
    14  C    6.322673   4.144210   7.304455   3.494128   2.432261
    15  H    7.304455   4.941958   8.311640   4.136323   3.424287
    16  C    5.694017   3.678589   6.652128   3.178446   2.859635
    17  H    5.290531   2.985467   6.304152   2.362727   3.302431
    18  H    6.584010   4.620693   7.510946   4.082169   3.843968
    19  C    2.432261   1.330359   3.424287   2.102441   4.173673
    20  H    3.384998   2.100716   4.286681   2.437422   4.629647
    21  C    1.331868   2.427687   2.100325   3.422841   4.865162
    22  H    2.099972   3.380819   2.429961   4.287642   5.763944
    23  C    2.524005   1.501844   3.489037   2.225623   3.580597
    24  H    3.438076   2.137539   4.347372   2.447733   3.048182
    25  H    2.962438   2.115015   3.809216   2.695955   4.605559
    26  C    1.504330   2.525927   2.233297   3.484455   3.902436
    27  H    2.144310   3.438593   2.467087   4.340766   4.678978
    28  H    2.120791   2.966806   2.701613   3.803169   3.209843
                    6          7          8          9         10
     6  C    0.000000
     7  H    2.100716   0.000000
     8  H    1.083377   2.437422   0.000000
     9  C    1.501844   3.462828   2.225623   0.000000
    10  H    2.115015   3.937003   2.695955   1.097957   0.000000
    11  H    2.137539   4.204186   2.447733   1.091195   1.751014
    12  C    2.427687   2.201493   3.422841   2.853112   3.290268
    13  H    3.380819   2.513489   4.287642   3.922286   4.266168
    14  C    2.833584   3.384998   3.914891   2.524005   2.962438
    15  H    3.915905   4.286681   4.997972   3.489037   3.809216
    16  C    2.525927   3.928583   3.484455   1.530755   2.164398
    17  H    2.966806   4.278302   3.803169   2.163804   3.042730
    18  H    3.438593   4.925382   4.340766   2.160564   2.382097
    19  C    3.486473   4.629647   3.440454   3.580597   4.605559
    20  H    3.834151   5.272218   3.937553   3.480400   4.456011
    21  C    4.052798   5.114179   3.596473   4.378267   5.266429
    22  H    4.810460   6.077450   4.303279   4.916987   5.710742
    23  C    3.628534   3.480400   3.577712   4.518011   5.518930
    24  H    3.489546   2.784491   3.617490   4.532762   5.470124
    25  H    4.711706   4.456011   4.662287   5.518930   6.551012
    26  C    3.678589   3.627826   3.178446   4.749710   5.609813
    27  H    4.620693   4.194986   4.082169   5.787688   6.613822
    28  H    2.985467   2.844934   2.362727   4.245413   4.969813
                   11         12         13         14         15
    11  H    0.000000
    12  C    3.837611   0.000000
    13  H    4.918888   1.083457   0.000000
    14  C    3.438076   1.331868   2.099972   0.000000
    15  H    4.347372   2.100325   2.429961   1.083842   0.000000
    16  C    2.161523   2.471149   3.464094   1.504330   2.233297
    17  H    2.381055   3.001567   3.944691   2.120791   2.701613
    18  H    2.599322   3.313856   4.209245   2.144310   2.467087
    19  C    3.048182   4.865162   5.763944   4.773047   5.614776
    20  H    2.784491   5.114179   6.077450   4.735824   5.483082
    21  C    3.729132   5.848633   6.729358   5.942851   6.872668
    22  H    4.085321   6.729358   7.662229   6.703215   7.615238
    23  C    4.532762   4.378267   4.916987   4.880954   5.707409
    24  H    4.802172   3.729132   4.085321   4.438261   5.212722
    25  H    5.470124   5.266429   5.710742   5.715763   6.441230
    26  C    4.642735   5.068868   5.661420   5.694017   6.652128
    27  H    5.721285   5.837873   6.292558   6.584010   7.510946
    28  H    4.284901   4.537975   5.127735   5.290531   6.304152
                   16         17         18         19         20
    16  C    0.000000
    17  H    1.096901   0.000000
    18  H    1.091513   1.746591   0.000000
    19  C    3.902436   3.209843   4.678978   0.000000
    20  H    3.627826   2.844934   4.194986   1.083647   0.000000
    21  C    5.068868   4.537975   5.837873   1.463978   2.201493
    22  H    5.661420   5.127735   6.292558   2.200364   2.513489
    23  C    4.749710   4.245413   5.787688   2.468869   3.462828
    24  H    4.642735   4.284901   5.721285   3.308895   4.204186
    25  H    5.609813   4.969813   6.613822   2.992738   3.937003
    26  C    5.421576   5.098325   6.439293   2.859635   3.928583
    27  H    6.439293   6.116203   7.477854   3.843968   4.925382
    28  H    5.098325   4.999874   6.116203   3.302431   4.278302
                   21         22         23         24         25
    21  C    0.000000
    22  H    1.083457   0.000000
    23  C    2.853112   3.922286   0.000000
    24  H    3.837611   4.918888   1.091195   0.000000
    25  H    3.290268   4.266168   1.097957   1.751014   0.000000
    26  C    2.471149   3.464094   1.530755   2.161523   2.164398
    27  H    3.313856   4.209245   2.160564   2.599322   2.382097
    28  H    3.001567   3.944691   2.163804   2.381055   3.042730
                   26         27         28
    26  C    0.000000
    27  H    1.091513   0.000000
    28  H    1.096901   1.746591   0.000000
 Symmetry turned off by external request.
 Stoichiometry    C12H16
 Framework group  CI[X(C12H16)]
 Deg. of freedom    39
 Full point group                 CI      NOp   2
 Rotational constants (GHZ):           1.6759010           0.5726930           0.5274709
 Leave Link  202 at Mon Aug  3 17:19:09 2020, MaxMem=  6442450944 cpu:               0.3 elap:               0.0
 (Enter /scratch/scicomp/CentOS/7.3.1611/Haswell/software/Gaussian/g16/l301.exe)
 Standard basis: def2TZVP (5D, 7F)
 Ernie: Thresh=  0.10000D-02 Tol=  0.10000D-05 Strict=F.
   468 basis functions,   740 primitive gaussians,   528 cartesian basis functions
    44 alpha electrons       44 beta electrons
       nuclear repulsion energy       669.2814376279 Hartrees.
 IExCor= 4639 DFT=T Ex+Corr=wB97XD ExCW=0 ScaHFX=  1.000000
 ScaDFX=  1.000000  1.000000  1.000000  1.000000 ScalE2=  1.000000  1.000000
 IRadAn=      5 IRanWt=     -1 IRanGd=            0 ICorTp=0 IEmpDi=121
 HFx  wShort=  0.000000 wLong=  0.200000 cFull=  0.222036 cShort=  0.000000 cLong=  0.777964
 DFx  wShort=  0.000000 wLong=  0.200000 cFull=  0.000000 cShort=  0.000000 cLong=  1.000000
 NAtoms=   28 NActive=   28 NUniq=   28 SFac= 1.00D+00 NAtFMM=   60 NAOKFM=F Big=F
 Integral buffers will be    131072 words long.
 Raffenetti 2 integral format.
 Two-electron integral symmetry is turned off.
 R6Disp:  Grimme-D2 Dispersion energy=       -0.0209958483 Hartrees.
 Nuclear repulsion after empirical dispersion term =      669.2604417796 Hartrees.
 Using the following non-standard input for PCM:
 qrep pcmdoc geomview  nodis nocav g03defaults tsare=0.075
 Warning! Using old PCM defaults because the g03defaults keyword was found.
 These settings can be overridden by following keywords.
 nsfe=28
 NVESolv=36  SolvMW=84.1595   Rsolv=2.815
 eps=2.0165 RhoS=0.7781
 --- end of non-standard input.
 Reading user-defined spheres from input:
 ISph  on   Nord    Re0     Alpha      Xe            Ye            Ze
 --- end of user-defined spheres data.
 ------------------------------------------------------------------------------
 Polarizable Continuum Model (PCM)
 =================================
 Model                : PCM.
 Atomic radii         : UA0 (Simple United Atom Topological Model).
 Polarization charges : Total charges.
 Charge compensation  : None.
 Solution method      : On-the-fly selection.
 Cavity type          : SES (Solvent Excluding Surface) (Alpha=1.000).
 Cavity algorithm     : GePol (RMin=0.200 OFac=0.890).
                        User-defined sphere list used, NSphG=   28.
                        Tesserae with average area of 0.075 Ang**2.
                        Smoothing algorithm: None.
                        Polarization charges: point-like.
                        Self-potential: constant (ISelfS= 1).
                        Self-field    : global E.n sum rule (ISelfD= 3).
 Solvent              : CycloHexane, Eps=   2.016500 Eps(inf)=   2.035188
                        RSolv=   2.815000 Ang.
 ------------------------------------------------------------------------------
 GePol: Number of generator spheres                  =      28
 GePol: Total number of spheres                      =     189
 GePol: Number of exposed spheres                    =     129 ( 68.25%)
 GePol: Number of tesserae                           =    4750
 GePol: Average area of tesserae                     =       0.05 Ang**2
 GePol: Minimum area of tessera                      =   0.10D-02 Ang**2
 GePol: Maximum area of tessera                      =    0.12622 Ang**2
 GePol: Number of small tesserae                     =       0
 GePol: Fraction of small tesserae (<1% of avg)      =       0.00%
 GePol: Total count of vertices                      =   16811
 GePol: Maximum number of vertices in a tessera      =       7
 GePol: Cavity surface area                          =    224.963 Ang**2
 GePol: Cavity volume                                =    257.820 Ang**3
 Leave Link  301 at Mon Aug  3 17:19:10 2020, MaxMem=  6442450944 cpu:               8.3 elap:               0.4
 (Enter /scratch/scicomp/CentOS/7.3.1611/Haswell/software/Gaussian/g16/l302.exe)
 NPDir=0 NMtPBC=     1 NCelOv=     1 NCel=       1 NClECP=     1 NCelD=      1
         NCelK=      1 NCelE2=     1 NClLst=     1 CellRange=     0.0.
 One-electron integrals computed using PRISM.
   1 Symmetry operations used in ECPInt.
 ECPInt:  NShTT=   19306 NPrTT=   56928 LenC2=   18448 LenP2D=   41684.
 LDataN:  DoStor=T MaxTD1= 6 Len=  172
 NBasis=   468 RedAO= T EigKep=  2.69D-05  NBF=   468
 NBsUse=   468 1.00D-06 EigRej= -1.00D+00 NBFU=   468
 Precomputing XC quadrature grid using
 IXCGrd= 4 IRadAn=           5 IRanWt=          -1 IRanGd=           0 AccXCQ= 0.00D+00.
 Generated NRdTot=       0 NPtTot=           0 NUsed=           0 NTot=          32
 NSgBfM=   526   526   526   526   526 MxSgAt=    28 MxSgA2=    28.
 Leave Link  302 at Mon Aug  3 17:19:10 2020, MaxMem=  6442450944 cpu:              11.7 elap:               0.5
 (Enter /scratch/scicomp/CentOS/7.3.1611/Haswell/software/Gaussian/g16/l401.exe)
 ExpMin= 9.52D-02 ExpMax= 1.36D+04 ExpMxC= 4.63D+02 IAcc=3 IRadAn=         5 AccDes= 0.00D+00
 Harris functional with IExCor= 4639 and IRadAn=       5 diagonalized for initial guess.
 HarFok:  IExCor= 4639 AccDes= 0.00D+00 IRadAn=         5 IDoV= 1 UseB2=F ITyADJ=14
 ICtDFT=  3500011 ScaDFX=  1.000000  1.000000  1.000000  1.000000
 FoFCou: FMM=F IPFlag=           0 FMFlag=      100000 FMFlg1=           0
         NFxFlg=           0 DoJE=T BraDBF=F KetDBF=T FulRan=T
         wScrn=  0.000000 ICntrl=       500 IOpCl=  0 I1Cent=   200000004 NGrid=           0
         NMat0=    1 NMatS0=      1 NMatT0=    0 NMatD0=    1 NMtDS0=    0 NMtDT0=    0
 Symmetry not used in FoFCou.
 Harris En= -444.638666443684    
 JPrj=0 DoOrth=F DoCkMO=T.
 Mixing orbitals, IMix= 1 IMixAn=  0 NRI=1 NE=   44 Coef=  7.07106781D-01  7.07106781D-01
 Mixing orbitals, IMix= 1 IMixAn=  0 NRI=1 NE=   44 Coef= -7.07106781D-01  7.07106781D-01
 Initial guess <Sx>= 0.0000 <Sy>= 0.0000 <Sz>= 0.0000 <S**2>= 1.0000 S= 0.6180
 Leave Link  401 at Mon Aug  3 17:19:12 2020, MaxMem=  6442450944 cpu:              47.3 elap:               2.0
 (Enter /scratch/scicomp/CentOS/7.3.1611/Haswell/software/Gaussian/g16/l9999.exe)

 This type of calculation cannot be archived.


 EVERY WORD THAT YOU WRITE IS A BLOW THAT SMITES THE DEVIL.
     -- ST. BERNARD OF CLAIRVAUX
 Job cpu time:       0 days  0 hours  1 minutes 12.6 seconds.
 Elapsed time:       0 days  0 hours  0 minutes  3.3 seconds.
 File lengths (MBytes):  RWF=    411 Int=      0 D2E=      0 Chk=      1 Scr=      1
 Normal termination of Gaussian 16 at Mon Aug  3 17:19:12 2020.
 Initial command:
 /scratch/scicomp/CentOS/7.3.1611/Haswell/software/Gaussian/g16/l1.exe "/scratch/bochen/cyclohexadiene-dimerization/wb97xd-def2tzvp/xp-pcm/meso/Gau-74098.inp" -scrdir="/scratch/bochen/cyclohexadiene-dimerization/wb97xd-def2tzvp/xp-pcm/meso/"
 Entering Link 1 = /scratch/scicomp/CentOS/7.3.1611/Haswell/software/Gaussian/g16/l1.exe PID=     74261.
  
 Copyright (c) 1988-2017, Gaussian, Inc.  All Rights Reserved.
  
 This is part of the Gaussian(R) 16 program.  It is based on
 the Gaussian(R) 09 system (copyright 2009, Gaussian, Inc.),
 the Gaussian(R) 03 system (copyright 2003, Gaussian, Inc.),
 the Gaussian(R) 98 system (copyright 1998, Gaussian, Inc.),
 the Gaussian(R) 94 system (copyright 1995, Gaussian, Inc.),
 the Gaussian 92(TM) system (copyright 1992, Gaussian, Inc.),
 the Gaussian 90(TM) system (copyright 1990, Gaussian, Inc.),
 the Gaussian 88(TM) system (copyright 1988, Gaussian, Inc.),
 the Gaussian 86(TM) system (copyright 1986, Carnegie Mellon
 University), and the Gaussian 82(TM) system (copyright 1983,
 Carnegie Mellon University). Gaussian is a federally registered
 trademark of Gaussian, Inc.
  
 This software contains proprietary and confidential information,
 including trade secrets, belonging to Gaussian, Inc.
  
 This software is provided under written license and may be
 used, copied, transmitted, or stored only in accord with that
 written license.
  
 The following legend is applicable only to US Government
 contracts under FAR:
  
                    RESTRICTED RIGHTS LEGEND
  
 Use, reproduction and disclosure by the US Government is
 subject to restrictions as set forth in subparagraphs (a)
 and (c) of the Commercial Computer Software - Restricted
 Rights clause in FAR 52.227-19.
  
 Gaussian, Inc.
 340 Quinnipiac St., Bldg. 40, Wallingford CT 06492
  
  
 ---------------------------------------------------------------
 Warning -- This program may not be used in any manner that
 competes with the business of Gaussian, Inc. or will provide
 assistance to any competitor of Gaussian, Inc.  The licensee
 of this program is prohibited from giving any competitor of
 Gaussian, Inc. access to this program.  By using this program,
 the user acknowledges that Gaussian, Inc. is engaged in the
 business of creating and licensing software in the field of
 computational chemistry and represents and warrants to the
 licensee that it is not a competitor of Gaussian, Inc. and that
 it will not use this program in any manner prohibited above.
 ---------------------------------------------------------------
  

 Cite this work as:
 Gaussian 16, Revision B.01,
 M. J. Frisch, G. W. Trucks, H. B. Schlegel, G. E. Scuseria, 
 M. A. Robb, J. R. Cheeseman, G. Scalmani, V. Barone, 
 G. A. Petersson, H. Nakatsuji, X. Li, M. Caricato, A. V. Marenich, 
 J. Bloino, B. G. Janesko, R. Gomperts, B. Mennucci, H. P. Hratchian, 
 J. V. Ortiz, A. F. Izmaylov, J. L. Sonnenberg, D. Williams-Young, 
 F. Ding, F. Lipparini, F. Egidi, J. Goings, B. Peng, A. Petrone, 
 T. Henderson, D. Ranasinghe, V. G. Zakrzewski, J. Gao, N. Rega, 
 G. Zheng, W. Liang, M. Hada, M. Ehara, K. Toyota, R. Fukuda, 
 J. Hasegawa, M. Ishida, T. Nakajima, Y. Honda, O. Kitao, H. Nakai, 
 T. Vreven, K. Throssell, J. A. Montgomery, Jr., J. E. Peralta, 
 F. Ogliaro, M. J. Bearpark, J. J. Heyd, E. N. Brothers, K. N. Kudin, 
 V. N. Staroverov, T. A. Keith, R. Kobayashi, J. Normand, 
 K. Raghavachari, A. P. Rendell, J. C. Burant, S. S. Iyengar, 
 J. Tomasi, M. Cossi, J. M. Millam, M. Klene, C. Adamo, R. Cammi, 
 J. W. Ochterski, R. L. Martin, K. Morokuma, O. Farkas, 
 J. B. Foresman, and D. J. Fox, Gaussian, Inc., Wallingford CT, 2016.
 
 ******************************************
 Gaussian 16:  ES64L-G16RevB.01 20-Dec-2017
                 3-Aug-2020 
 ******************************************
 %chk=meso-TS_76_2_xp-115.chk
 %nproc=24
 Will use up to   24 processors via shared memory.
 %mem=48GB
 ----------------------------------------------------------------------
 #p uwb97xd guess=mix def2tzvp # scrf=(iefpcm,solvent=Cyclohexane,read)
  nosym guess=only pop=none
 ----------------------------------------------------------------------
 1/38=1,40=2,172=1/1;
 2/12=2,15=1,17=6,18=5,40=1/2;
 3/5=44,7=101,11=2,25=1,30=1,70=2203,72=17,74=-58,89=1,116=2/1,2;
 4/13=-1/1;
 99/5=2/99;
 Leave Link    1 at Mon Aug  3 17:19:13 2020, MaxMem=  6442450944 cpu:               1.6 elap:               0.1
 (Enter /scratch/scicomp/CentOS/7.3.1611/Haswell/software/Gaussian/g16/l101.exe)
 -----------------------
 endo-2 xp-pcm for eta=3
 -----------------------
 Symbolic Z-matrix:
 Charge =  0 Multiplicity = 1
 6                    -3.1179   -0.43907   0.28272 
 6                    -0.81852  -0.27359  -1.3649 
 1                    -4.03333  -0.51712   0.85772 
 1                     0.10337  -0.20137  -1.92934 
 6                     1.2289    1.44101   0.87645 
 6                     0.81852   0.27359   1.3649 
 1                     0.64341   2.33995   1.02944 
 1                    -0.10337   0.20137   1.92934 
 6                     1.6454   -0.97004   1.20615 
 1                     2.25973  -1.0838    2.10902 
 1                     0.99746  -1.8471    1.16556 
 6                     2.4852    1.53568   0.1308 
 1                     2.8865    2.5174   -0.09068 
 6                     3.1179    0.43907  -0.28272 
 1                     4.03333   0.51712  -0.85772 
 6                     2.54629  -0.92942  -0.03076 
 1                     1.97376  -1.23029  -0.9167 
 1                     3.3478   -1.66337   0.07074 
 6                    -1.2289   -1.44101  -0.87645 
 1                    -0.64341  -2.33995  -1.02944 
 6                    -2.4852   -1.53568  -0.1308 
 1                    -2.8865   -2.5174    0.09068 
 6                    -1.6454    0.97004  -1.20615 
 1                    -0.99746   1.8471   -1.16556 
 1                    -2.25973   1.0838   -2.10902 
 6                    -2.54629   0.92942   0.03076 
 1                    -3.3478    1.66337  -0.07074 
 1                    -1.97376   1.23029   0.9167 
 
 ITRead=  0  0  0  0  0  0  0  0  0  0  0  0  0  0  0  0  0  0  0  0
 ITRead=  0  0  0  0  0  0  0  0
 MicOpt= -1 -1 -1 -1 -1 -1 -1 -1 -1 -1 -1 -1 -1 -1 -1 -1 -1 -1 -1 -1
 MicOpt= -1 -1 -1 -1 -1 -1 -1 -1
 NAtoms=     28 NQM=       28 NQMF=       0 NMMI=      0 NMMIF=      0
                NMic=       0 NMicF=      0.
                    Isotopes and Nuclear Properties:
 (Nuclear quadrupole moments (NQMom) in fm**2, nuclear magnetic moments (NMagM)
  in nuclear magnetons)

  Atom         1           2           3           4           5           6           7           8           9          10
 IAtWgt=          12          12           1           1          12          12           1           1          12           1
 AtmWgt=  12.0000000  12.0000000   1.0078250   1.0078250  12.0000000  12.0000000   1.0078250   1.0078250  12.0000000   1.0078250
 NucSpn=           0           0           1           1           0           0           1           1           0           1
 AtZEff=  -0.0000000  -0.0000000  -0.0000000  -0.0000000  -0.0000000  -0.0000000  -0.0000000  -0.0000000  -0.0000000  -0.0000000
 NQMom=    0.0000000   0.0000000   0.0000000   0.0000000   0.0000000   0.0000000   0.0000000   0.0000000   0.0000000   0.0000000
 NMagM=    0.0000000   0.0000000   2.7928460   2.7928460   0.0000000   0.0000000   2.7928460   2.7928460   0.0000000   2.7928460
 AtZNuc=   6.0000000   6.0000000   1.0000000   1.0000000   6.0000000   6.0000000   1.0000000   1.0000000   6.0000000   1.0000000

  Atom        11          12          13          14          15          16          17          18          19          20
 IAtWgt=           1          12           1          12           1          12           1           1          12           1
 AtmWgt=   1.0078250  12.0000000   1.0078250  12.0000000   1.0078250  12.0000000   1.0078250   1.0078250  12.0000000   1.0078250
 NucSpn=           1           0           1           0           1           0           1           1           0           1
 AtZEff=  -0.0000000  -0.0000000  -0.0000000  -0.0000000  -0.0000000  -0.0000000  -0.0000000  -0.0000000  -0.0000000  -0.0000000
 NQMom=    0.0000000   0.0000000   0.0000000   0.0000000   0.0000000   0.0000000   0.0000000   0.0000000   0.0000000   0.0000000
 NMagM=    2.7928460   0.0000000   2.7928460   0.0000000   2.7928460   0.0000000   2.7928460   2.7928460   0.0000000   2.7928460
 AtZNuc=   1.0000000   6.0000000   1.0000000   6.0000000   1.0000000   6.0000000   1.0000000   1.0000000   6.0000000   1.0000000

  Atom        21          22          23          24          25          26          27          28
 IAtWgt=          12           1          12           1           1          12           1           1
 AtmWgt=  12.0000000   1.0078250  12.0000000   1.0078250   1.0078250  12.0000000   1.0078250   1.0078250
 NucSpn=           0           1           0           1           1           0           1           1
 AtZEff=  -0.0000000  -0.0000000  -0.0000000  -0.0000000  -0.0000000  -0.0000000  -0.0000000  -0.0000000
 NQMom=    0.0000000   0.0000000   0.0000000   0.0000000   0.0000000   0.0000000   0.0000000   0.0000000
 NMagM=    0.0000000   2.7928460   0.0000000   2.7928460   2.7928460   0.0000000   2.7928460   2.7928460
 AtZNuc=   6.0000000   1.0000000   6.0000000   1.0000000   1.0000000   6.0000000   1.0000000   1.0000000
 Leave Link  101 at Mon Aug  3 17:19:13 2020, MaxMem=  6442450944 cpu:               2.4 elap:               0.1
 (Enter /scratch/scicomp/CentOS/7.3.1611/Haswell/software/Gaussian/g16/l202.exe)
                          Input orientation:                          
 ---------------------------------------------------------------------
 Center     Atomic      Atomic             Coordinates (Angstroms)
 Number     Number       Type             X           Y           Z
 ---------------------------------------------------------------------
      1          6           0       -3.117905   -0.439074    0.282722
      2          6           0       -0.818524   -0.273593   -1.364901
      3          1           0       -4.033330   -0.517117    0.857717
      4          1           0        0.103373   -0.201366   -1.929344
      5          6           0        1.228903    1.441011    0.876454
      6          6           0        0.818524    0.273593    1.364901
      7          1           0        0.643410    2.339945    1.029443
      8          1           0       -0.103373    0.201366    1.929344
      9          6           0        1.645400   -0.970035    1.206150
     10          1           0        2.259726   -1.083800    2.109018
     11          1           0        0.997461   -1.847095    1.165558
     12          6           0        2.485196    1.535682    0.130802
     13          1           0        2.886502    2.517404   -0.090679
     14          6           0        3.117905    0.439074   -0.282722
     15          1           0        4.033330    0.517117   -0.857717
     16          6           0        2.546291   -0.929423   -0.030764
     17          1           0        1.973763   -1.230286   -0.916701
     18          1           0        3.347800   -1.663372    0.070740
     19          6           0       -1.228903   -1.441011   -0.876454
     20          1           0       -0.643410   -2.339945   -1.029443
     21          6           0       -2.485196   -1.535682   -0.130802
     22          1           0       -2.886502   -2.517404    0.090679
     23          6           0       -1.645400    0.970035   -1.206150
     24          1           0       -0.997461    1.847095   -1.165558
     25          1           0       -2.259726    1.083800   -2.109018
     26          6           0       -2.546291    0.929423    0.030764
     27          1           0       -3.347800    1.663372   -0.070740
     28          1           0       -1.973763    1.230286    0.916701
 ---------------------------------------------------------------------
                    Distance matrix (angstroms):
                    1          2          3          4          5
     1  C    0.000000
     2  C    2.833584   0.000000
     3  H    1.083842   3.915905   0.000000
     4  H    3.914891   1.083377   4.997972   0.000000
     5  C    4.773047   3.486473   5.614776   3.440454   0.000000
     6  C    4.144210   3.229730   4.941958   3.404273   1.330359
     7  H    4.735824   3.834151   5.483082   3.937553   1.083647
     8  H    3.494128   3.404273   4.136323   3.885153   2.102441
     9  C    4.880954   3.628534   5.707409   3.577712   2.468869
    10  H    5.715763   4.711706   6.441230   4.662287   2.992738
    11  H    4.438261   3.489546   5.212722   3.617490   3.308895
    12  C    5.942851   4.052798   6.872668   3.596473   1.463978
    13  H    6.703215   4.810460   7.615238   4.303279   2.200364
    14  C    6.322673   4.144210   7.304455   3.494128   2.432261
    15  H    7.304455   4.941958   8.311640   4.136323   3.424287
    16  C    5.694017   3.678589   6.652128   3.178446   2.859635
    17  H    5.290531   2.985467   6.304152   2.362727   3.302431
    18  H    6.584010   4.620693   7.510946   4.082169   3.843968
    19  C    2.432261   1.330359   3.424287   2.102441   4.173673
    20  H    3.384998   2.100716   4.286681   2.437422   4.629647
    21  C    1.331868   2.427687   2.100325   3.422841   4.865162
    22  H    2.099972   3.380819   2.429961   4.287642   5.763944
    23  C    2.524005   1.501844   3.489037   2.225623   3.580597
    24  H    3.438076   2.137539   4.347372   2.447733   3.048182
    25  H    2.962438   2.115015   3.809216   2.695955   4.605559
    26  C    1.504330   2.525927   2.233297   3.484455   3.902436
    27  H    2.144310   3.438593   2.467087   4.340766   4.678978
    28  H    2.120791   2.966806   2.701613   3.803169   3.209843
                    6          7          8          9         10
     6  C    0.000000
     7  H    2.100716   0.000000
     8  H    1.083377   2.437422   0.000000
     9  C    1.501844   3.462828   2.225623   0.000000
    10  H    2.115015   3.937003   2.695955   1.097957   0.000000
    11  H    2.137539   4.204186   2.447733   1.091195   1.751014
    12  C    2.427687   2.201493   3.422841   2.853112   3.290268
    13  H    3.380819   2.513489   4.287642   3.922286   4.266168
    14  C    2.833584   3.384998   3.914891   2.524005   2.962438
    15  H    3.915905   4.286681   4.997972   3.489037   3.809216
    16  C    2.525927   3.928583   3.484455   1.530755   2.164398
    17  H    2.966806   4.278302   3.803169   2.163804   3.042730
    18  H    3.438593   4.925382   4.340766   2.160564   2.382097
    19  C    3.486473   4.629647   3.440454   3.580597   4.605559
    20  H    3.834151   5.272218   3.937553   3.480400   4.456011
    21  C    4.052798   5.114179   3.596473   4.378267   5.266429
    22  H    4.810460   6.077450   4.303279   4.916987   5.710742
    23  C    3.628534   3.480400   3.577712   4.518011   5.518930
    24  H    3.489546   2.784491   3.617490   4.532762   5.470124
    25  H    4.711706   4.456011   4.662287   5.518930   6.551012
    26  C    3.678589   3.627826   3.178446   4.749710   5.609813
    27  H    4.620693   4.194986   4.082169   5.787688   6.613822
    28  H    2.985467   2.844934   2.362727   4.245413   4.969813
                   11         12         13         14         15
    11  H    0.000000
    12  C    3.837611   0.000000
    13  H    4.918888   1.083457   0.000000
    14  C    3.438076   1.331868   2.099972   0.000000
    15  H    4.347372   2.100325   2.429961   1.083842   0.000000
    16  C    2.161523   2.471149   3.464094   1.504330   2.233297
    17  H    2.381055   3.001567   3.944691   2.120791   2.701613
    18  H    2.599322   3.313856   4.209245   2.144310   2.467087
    19  C    3.048182   4.865162   5.763944   4.773047   5.614776
    20  H    2.784491   5.114179   6.077450   4.735824   5.483082
    21  C    3.729132   5.848633   6.729358   5.942851   6.872668
    22  H    4.085321   6.729358   7.662229   6.703215   7.615238
    23  C    4.532762   4.378267   4.916987   4.880954   5.707409
    24  H    4.802172   3.729132   4.085321   4.438261   5.212722
    25  H    5.470124   5.266429   5.710742   5.715763   6.441230
    26  C    4.642735   5.068868   5.661420   5.694017   6.652128
    27  H    5.721285   5.837873   6.292558   6.584010   7.510946
    28  H    4.284901   4.537975   5.127735   5.290531   6.304152
                   16         17         18         19         20
    16  C    0.000000
    17  H    1.096901   0.000000
    18  H    1.091513   1.746591   0.000000
    19  C    3.902436   3.209843   4.678978   0.000000
    20  H    3.627826   2.844934   4.194986   1.083647   0.000000
    21  C    5.068868   4.537975   5.837873   1.463978   2.201493
    22  H    5.661420   5.127735   6.292558   2.200364   2.513489
    23  C    4.749710   4.245413   5.787688   2.468869   3.462828
    24  H    4.642735   4.284901   5.721285   3.308895   4.204186
    25  H    5.609813   4.969813   6.613822   2.992738   3.937003
    26  C    5.421576   5.098325   6.439293   2.859635   3.928583
    27  H    6.439293   6.116203   7.477854   3.843968   4.925382
    28  H    5.098325   4.999874   6.116203   3.302431   4.278302
                   21         22         23         24         25
    21  C    0.000000
    22  H    1.083457   0.000000
    23  C    2.853112   3.922286   0.000000
    24  H    3.837611   4.918888   1.091195   0.000000
    25  H    3.290268   4.266168   1.097957   1.751014   0.000000
    26  C    2.471149   3.464094   1.530755   2.161523   2.164398
    27  H    3.313856   4.209245   2.160564   2.599322   2.382097
    28  H    3.001567   3.944691   2.163804   2.381055   3.042730
                   26         27         28
    26  C    0.000000
    27  H    1.091513   0.000000
    28  H    1.096901   1.746591   0.000000
 Symmetry turned off by external request.
 Stoichiometry    C12H16
 Framework group  CI[X(C12H16)]
 Deg. of freedom    39
 Full point group                 CI      NOp   2
 Rotational constants (GHZ):           1.6759010           0.5726930           0.5274709
 Leave Link  202 at Mon Aug  3 17:19:13 2020, MaxMem=  6442450944 cpu:               0.3 elap:               0.0
 (Enter /scratch/scicomp/CentOS/7.3.1611/Haswell/software/Gaussian/g16/l301.exe)
 Standard basis: def2TZVP (5D, 7F)
 Ernie: Thresh=  0.10000D-02 Tol=  0.10000D-05 Strict=F.
   468 basis functions,   740 primitive gaussians,   528 cartesian basis functions
    44 alpha electrons       44 beta electrons
       nuclear repulsion energy       669.2814376279 Hartrees.
 IExCor= 4639 DFT=T Ex+Corr=wB97XD ExCW=0 ScaHFX=  1.000000
 ScaDFX=  1.000000  1.000000  1.000000  1.000000 ScalE2=  1.000000  1.000000
 IRadAn=      5 IRanWt=     -1 IRanGd=            0 ICorTp=0 IEmpDi=121
 HFx  wShort=  0.000000 wLong=  0.200000 cFull=  0.222036 cShort=  0.000000 cLong=  0.777964
 DFx  wShort=  0.000000 wLong=  0.200000 cFull=  0.000000 cShort=  0.000000 cLong=  1.000000
 NAtoms=   28 NActive=   28 NUniq=   28 SFac= 1.00D+00 NAtFMM=   60 NAOKFM=F Big=F
 Integral buffers will be    131072 words long.
 Raffenetti 2 integral format.
 Two-electron integral symmetry is turned off.
 R6Disp:  Grimme-D2 Dispersion energy=       -0.0209958483 Hartrees.
 Nuclear repulsion after empirical dispersion term =      669.2604417796 Hartrees.
 Using the following non-standard input for PCM:
 qrep pcmdoc geomview  nodis nocav g03defaults tsare=0.075
 Warning! Using old PCM defaults because the g03defaults keyword was found.
 These settings can be overridden by following keywords.
 nsfe=28
 NVESolv=36  SolvMW=84.1595   Rsolv=2.815
 eps=2.0165 RhoS=0.7781
 --- end of non-standard input.
 Reading user-defined spheres from input:
 ISph  on   Nord    Re0     Alpha      Xe            Ye            Ze
 --- end of user-defined spheres data.
 ------------------------------------------------------------------------------
 Polarizable Continuum Model (PCM)
 =================================
 Model                : PCM.
 Atomic radii         : UA0 (Simple United Atom Topological Model).
 Polarization charges : Total charges.
 Charge compensation  : None.
 Solution method      : On-the-fly selection.
 Cavity type          : SES (Solvent Excluding Surface) (Alpha=1.000).
 Cavity algorithm     : GePol (RMin=0.200 OFac=0.890).
                        User-defined sphere list used, NSphG=   28.
                        Tesserae with average area of 0.075 Ang**2.
                        Smoothing algorithm: None.
                        Polarization charges: point-like.
                        Self-potential: constant (ISelfS= 1).
                        Self-field    : global E.n sum rule (ISelfD= 3).
 Solvent              : CycloHexane, Eps=   2.016500 Eps(inf)=   2.035188
                        RSolv=   2.815000 Ang.
 ------------------------------------------------------------------------------
 GePol: Number of generator spheres                  =      28
 GePol: Total number of spheres                      =     243
 GePol: Number of exposed spheres                    =     167 ( 68.72%)
 GePol: Number of tesserae                           =    4934
 GePol: Average area of tesserae                     =       0.04 Ang**2
 GePol: Minimum area of tessera                      =   0.10D-02 Ang**2
 GePol: Maximum area of tessera                      =    0.11915 Ang**2
 GePol: Number of small tesserae                     =       0
 GePol: Fraction of small tesserae (<1% of avg)      =       0.00%
 GePol: Total count of vertices                      =   17599
 GePol: Maximum number of vertices in a tessera      =       7
 GePol: Cavity surface area                          =    217.497 Ang**2
 GePol: Cavity volume                                =    242.961 Ang**3
 Leave Link  301 at Mon Aug  3 17:19:13 2020, MaxMem=  6442450944 cpu:               9.6 elap:               0.4
 (Enter /scratch/scicomp/CentOS/7.3.1611/Haswell/software/Gaussian/g16/l302.exe)
 NPDir=0 NMtPBC=     1 NCelOv=     1 NCel=       1 NClECP=     1 NCelD=      1
         NCelK=      1 NCelE2=     1 NClLst=     1 CellRange=     0.0.
 One-electron integrals computed using PRISM.
   1 Symmetry operations used in ECPInt.
 ECPInt:  NShTT=   19306 NPrTT=   56928 LenC2=   18448 LenP2D=   41684.
 LDataN:  DoStor=T MaxTD1= 6 Len=  172
 NBasis=   468 RedAO= T EigKep=  2.69D-05  NBF=   468
 NBsUse=   468 1.00D-06 EigRej= -1.00D+00 NBFU=   468
 Precomputing XC quadrature grid using
 IXCGrd= 4 IRadAn=           5 IRanWt=          -1 IRanGd=           0 AccXCQ= 0.00D+00.
 Generated NRdTot=       0 NPtTot=           0 NUsed=           0 NTot=          32
 NSgBfM=   526   526   526   526   526 MxSgAt=    28 MxSgA2=    28.
 Leave Link  302 at Mon Aug  3 17:19:14 2020, MaxMem=  6442450944 cpu:              11.8 elap:               0.5
 (Enter /scratch/scicomp/CentOS/7.3.1611/Haswell/software/Gaussian/g16/l401.exe)
 ExpMin= 9.52D-02 ExpMax= 1.36D+04 ExpMxC= 4.63D+02 IAcc=3 IRadAn=         5 AccDes= 0.00D+00
 Harris functional with IExCor= 4639 and IRadAn=       5 diagonalized for initial guess.
 HarFok:  IExCor= 4639 AccDes= 0.00D+00 IRadAn=         5 IDoV= 1 UseB2=F ITyADJ=14
 ICtDFT=  3500011 ScaDFX=  1.000000  1.000000  1.000000  1.000000
 FoFCou: FMM=F IPFlag=           0 FMFlag=      100000 FMFlg1=           0
         NFxFlg=           0 DoJE=T BraDBF=F KetDBF=T FulRan=T
         wScrn=  0.000000 ICntrl=       500 IOpCl=  0 I1Cent=   200000004 NGrid=           0
         NMat0=    1 NMatS0=      1 NMatT0=    0 NMatD0=    1 NMtDS0=    0 NMtDT0=    0
 Symmetry not used in FoFCou.
 Harris En= -444.638666443684    
 JPrj=0 DoOrth=F DoCkMO=T.
 Mixing orbitals, IMix= 1 IMixAn=  0 NRI=1 NE=   44 Coef=  7.07106781D-01  7.07106781D-01
 Mixing orbitals, IMix= 1 IMixAn=  0 NRI=1 NE=   44 Coef= -7.07106781D-01  7.07106781D-01
 Initial guess <Sx>= 0.0000 <Sy>= 0.0000 <Sz>= 0.0000 <S**2>= 1.0000 S= 0.6180
 Leave Link  401 at Mon Aug  3 17:19:16 2020, MaxMem=  6442450944 cpu:              47.1 elap:               2.0
 (Enter /scratch/scicomp/CentOS/7.3.1611/Haswell/software/Gaussian/g16/l9999.exe)

 This type of calculation cannot be archived.


 I am not a vegetarian because I love animals;
 I am a vegetarian because I hate plants.
                               -- A. Whitney Brown
 Job cpu time:       0 days  0 hours  1 minutes 13.8 seconds.
 Elapsed time:       0 days  0 hours  0 minutes  3.4 seconds.
 File lengths (MBytes):  RWF=    443 Int=      0 D2E=      0 Chk=      1 Scr=      1
 Normal termination of Gaussian 16 at Mon Aug  3 17:19:16 2020.
 Initial command:
 /scratch/scicomp/CentOS/7.3.1611/Haswell/software/Gaussian/g16/l1.exe "/scratch/bochen/cyclohexadiene-dimerization/wb97xd-def2tzvp/xp-pcm/meso/Gau-74098.inp" -scrdir="/scratch/bochen/cyclohexadiene-dimerization/wb97xd-def2tzvp/xp-pcm/meso/"
 Entering Link 1 = /scratch/scicomp/CentOS/7.3.1611/Haswell/software/Gaussian/g16/l1.exe PID=     74423.
  
 Copyright (c) 1988-2017, Gaussian, Inc.  All Rights Reserved.
  
 This is part of the Gaussian(R) 16 program.  It is based on
 the Gaussian(R) 09 system (copyright 2009, Gaussian, Inc.),
 the Gaussian(R) 03 system (copyright 2003, Gaussian, Inc.),
 the Gaussian(R) 98 system (copyright 1998, Gaussian, Inc.),
 the Gaussian(R) 94 system (copyright 1995, Gaussian, Inc.),
 the Gaussian 92(TM) system (copyright 1992, Gaussian, Inc.),
 the Gaussian 90(TM) system (copyright 1990, Gaussian, Inc.),
 the Gaussian 88(TM) system (copyright 1988, Gaussian, Inc.),
 the Gaussian 86(TM) system (copyright 1986, Carnegie Mellon
 University), and the Gaussian 82(TM) system (copyright 1983,
 Carnegie Mellon University). Gaussian is a federally registered
 trademark of Gaussian, Inc.
  
 This software contains proprietary and confidential information,
 including trade secrets, belonging to Gaussian, Inc.
  
 This software is provided under written license and may be
 used, copied, transmitted, or stored only in accord with that
 written license.
  
 The following legend is applicable only to US Government
 contracts under FAR:
  
                    RESTRICTED RIGHTS LEGEND
  
 Use, reproduction and disclosure by the US Government is
 subject to restrictions as set forth in subparagraphs (a)
 and (c) of the Commercial Computer Software - Restricted
 Rights clause in FAR 52.227-19.
  
 Gaussian, Inc.
 340 Quinnipiac St., Bldg. 40, Wallingford CT 06492
  
  
 ---------------------------------------------------------------
 Warning -- This program may not be used in any manner that
 competes with the business of Gaussian, Inc. or will provide
 assistance to any competitor of Gaussian, Inc.  The licensee
 of this program is prohibited from giving any competitor of
 Gaussian, Inc. access to this program.  By using this program,
 the user acknowledges that Gaussian, Inc. is engaged in the
 business of creating and licensing software in the field of
 computational chemistry and represents and warrants to the
 licensee that it is not a competitor of Gaussian, Inc. and that
 it will not use this program in any manner prohibited above.
 ---------------------------------------------------------------
  

 Cite this work as:
 Gaussian 16, Revision B.01,
 M. J. Frisch, G. W. Trucks, H. B. Schlegel, G. E. Scuseria, 
 M. A. Robb, J. R. Cheeseman, G. Scalmani, V. Barone, 
 G. A. Petersson, H. Nakatsuji, X. Li, M. Caricato, A. V. Marenich, 
 J. Bloino, B. G. Janesko, R. Gomperts, B. Mennucci, H. P. Hratchian, 
 J. V. Ortiz, A. F. Izmaylov, J. L. Sonnenberg, D. Williams-Young, 
 F. Ding, F. Lipparini, F. Egidi, J. Goings, B. Peng, A. Petrone, 
 T. Henderson, D. Ranasinghe, V. G. Zakrzewski, J. Gao, N. Rega, 
 G. Zheng, W. Liang, M. Hada, M. Ehara, K. Toyota, R. Fukuda, 
 J. Hasegawa, M. Ishida, T. Nakajima, Y. Honda, O. Kitao, H. Nakai, 
 T. Vreven, K. Throssell, J. A. Montgomery, Jr., J. E. Peralta, 
 F. Ogliaro, M. J. Bearpark, J. J. Heyd, E. N. Brothers, K. N. Kudin, 
 V. N. Staroverov, T. A. Keith, R. Kobayashi, J. Normand, 
 K. Raghavachari, A. P. Rendell, J. C. Burant, S. S. Iyengar, 
 J. Tomasi, M. Cossi, J. M. Millam, M. Klene, C. Adamo, R. Cammi, 
 J. W. Ochterski, R. L. Martin, K. Morokuma, O. Farkas, 
 J. B. Foresman, and D. J. Fox, Gaussian, Inc., Wallingford CT, 2016.
 
 ******************************************
 Gaussian 16:  ES64L-G16RevB.01 20-Dec-2017
                 3-Aug-2020 
 ******************************************
 %chk=meso-TS_76_2_xp-110.chk
 %nproc=24
 Will use up to   24 processors via shared memory.
 %mem=48GB
 ----------------------------------------------------------------------
 #p uwb97xd guess=mix def2tzvp # scrf=(iefpcm,solvent=Cyclohexane,read)
  nosym guess=only pop=none
 ----------------------------------------------------------------------
 1/38=1,40=2,172=1/1;
 2/12=2,15=1,17=6,18=5,40=1/2;
 3/5=44,7=101,11=2,25=1,30=1,70=2203,72=17,74=-58,89=1,116=2/1,2;
 4/13=-1/1;
 99/5=2/99;
 Leave Link    1 at Mon Aug  3 17:19:16 2020, MaxMem=  6442450944 cpu:               1.5 elap:               0.1
 (Enter /scratch/scicomp/CentOS/7.3.1611/Haswell/software/Gaussian/g16/l101.exe)
 -----------------------
 endo-2 xp-pcm for eta=3
 -----------------------
 Symbolic Z-matrix:
 Charge =  0 Multiplicity = 1
 6                    -3.1179   -0.43907   0.28272 
 6                    -0.81852  -0.27359  -1.3649 
 1                    -4.03333  -0.51712   0.85772 
 1                     0.10337  -0.20137  -1.92934 
 6                     1.2289    1.44101   0.87645 
 6                     0.81852   0.27359   1.3649 
 1                     0.64341   2.33995   1.02944 
 1                    -0.10337   0.20137   1.92934 
 6                     1.6454   -0.97004   1.20615 
 1                     2.25973  -1.0838    2.10902 
 1                     0.99746  -1.8471    1.16556 
 6                     2.4852    1.53568   0.1308 
 1                     2.8865    2.5174   -0.09068 
 6                     3.1179    0.43907  -0.28272 
 1                     4.03333   0.51712  -0.85772 
 6                     2.54629  -0.92942  -0.03076 
 1                     1.97376  -1.23029  -0.9167 
 1                     3.3478   -1.66337   0.07074 
 6                    -1.2289   -1.44101  -0.87645 
 1                    -0.64341  -2.33995  -1.02944 
 6                    -2.4852   -1.53568  -0.1308 
 1                    -2.8865   -2.5174    0.09068 
 6                    -1.6454    0.97004  -1.20615 
 1                    -0.99746   1.8471   -1.16556 
 1                    -2.25973   1.0838   -2.10902 
 6                    -2.54629   0.92942   0.03076 
 1                    -3.3478    1.66337  -0.07074 
 1                    -1.97376   1.23029   0.9167 
 
 ITRead=  0  0  0  0  0  0  0  0  0  0  0  0  0  0  0  0  0  0  0  0
 ITRead=  0  0  0  0  0  0  0  0
 MicOpt= -1 -1 -1 -1 -1 -1 -1 -1 -1 -1 -1 -1 -1 -1 -1 -1 -1 -1 -1 -1
 MicOpt= -1 -1 -1 -1 -1 -1 -1 -1
 NAtoms=     28 NQM=       28 NQMF=       0 NMMI=      0 NMMIF=      0
                NMic=       0 NMicF=      0.
                    Isotopes and Nuclear Properties:
 (Nuclear quadrupole moments (NQMom) in fm**2, nuclear magnetic moments (NMagM)
  in nuclear magnetons)

  Atom         1           2           3           4           5           6           7           8           9          10
 IAtWgt=          12          12           1           1          12          12           1           1          12           1
 AtmWgt=  12.0000000  12.0000000   1.0078250   1.0078250  12.0000000  12.0000000   1.0078250   1.0078250  12.0000000   1.0078250
 NucSpn=           0           0           1           1           0           0           1           1           0           1
 AtZEff=  -0.0000000  -0.0000000  -0.0000000  -0.0000000  -0.0000000  -0.0000000  -0.0000000  -0.0000000  -0.0000000  -0.0000000
 NQMom=    0.0000000   0.0000000   0.0000000   0.0000000   0.0000000   0.0000000   0.0000000   0.0000000   0.0000000   0.0000000
 NMagM=    0.0000000   0.0000000   2.7928460   2.7928460   0.0000000   0.0000000   2.7928460   2.7928460   0.0000000   2.7928460
 AtZNuc=   6.0000000   6.0000000   1.0000000   1.0000000   6.0000000   6.0000000   1.0000000   1.0000000   6.0000000   1.0000000

  Atom        11          12          13          14          15          16          17          18          19          20
 IAtWgt=           1          12           1          12           1          12           1           1          12           1
 AtmWgt=   1.0078250  12.0000000   1.0078250  12.0000000   1.0078250  12.0000000   1.0078250   1.0078250  12.0000000   1.0078250
 NucSpn=           1           0           1           0           1           0           1           1           0           1
 AtZEff=  -0.0000000  -0.0000000  -0.0000000  -0.0000000  -0.0000000  -0.0000000  -0.0000000  -0.0000000  -0.0000000  -0.0000000
 NQMom=    0.0000000   0.0000000   0.0000000   0.0000000   0.0000000   0.0000000   0.0000000   0.0000000   0.0000000   0.0000000
 NMagM=    2.7928460   0.0000000   2.7928460   0.0000000   2.7928460   0.0000000   2.7928460   2.7928460   0.0000000   2.7928460
 AtZNuc=   1.0000000   6.0000000   1.0000000   6.0000000   1.0000000   6.0000000   1.0000000   1.0000000   6.0000000   1.0000000

  Atom        21          22          23          24          25          26          27          28
 IAtWgt=          12           1          12           1           1          12           1           1
 AtmWgt=  12.0000000   1.0078250  12.0000000   1.0078250   1.0078250  12.0000000   1.0078250   1.0078250
 NucSpn=           0           1           0           1           1           0           1           1
 AtZEff=  -0.0000000  -0.0000000  -0.0000000  -0.0000000  -0.0000000  -0.0000000  -0.0000000  -0.0000000
 NQMom=    0.0000000   0.0000000   0.0000000   0.0000000   0.0000000   0.0000000   0.0000000   0.0000000
 NMagM=    0.0000000   2.7928460   0.0000000   2.7928460   2.7928460   0.0000000   2.7928460   2.7928460
 AtZNuc=   6.0000000   1.0000000   6.0000000   1.0000000   1.0000000   6.0000000   1.0000000   1.0000000
 Leave Link  101 at Mon Aug  3 17:19:17 2020, MaxMem=  6442450944 cpu:               2.4 elap:               0.1
 (Enter /scratch/scicomp/CentOS/7.3.1611/Haswell/software/Gaussian/g16/l202.exe)
                          Input orientation:                          
 ---------------------------------------------------------------------
 Center     Atomic      Atomic             Coordinates (Angstroms)
 Number     Number       Type             X           Y           Z
 ---------------------------------------------------------------------
      1          6           0       -3.117905   -0.439074    0.282722
      2          6           0       -0.818524   -0.273593   -1.364901
      3          1           0       -4.033330   -0.517117    0.857717
      4          1           0        0.103373   -0.201366   -1.929344
      5          6           0        1.228903    1.441011    0.876454
      6          6           0        0.818524    0.273593    1.364901
      7          1           0        0.643410    2.339945    1.029443
      8          1           0       -0.103373    0.201366    1.929344
      9          6           0        1.645400   -0.970035    1.206150
     10          1           0        2.259726   -1.083800    2.109018
     11          1           0        0.997461   -1.847095    1.165558
     12          6           0        2.485196    1.535682    0.130802
     13          1           0        2.886502    2.517404   -0.090679
     14          6           0        3.117905    0.439074   -0.282722
     15          1           0        4.033330    0.517117   -0.857717
     16          6           0        2.546291   -0.929423   -0.030764
     17          1           0        1.973763   -1.230286   -0.916701
     18          1           0        3.347800   -1.663372    0.070740
     19          6           0       -1.228903   -1.441011   -0.876454
     20          1           0       -0.643410   -2.339945   -1.029443
     21          6           0       -2.485196   -1.535682   -0.130802
     22          1           0       -2.886502   -2.517404    0.090679
     23          6           0       -1.645400    0.970035   -1.206150
     24          1           0       -0.997461    1.847095   -1.165558
     25          1           0       -2.259726    1.083800   -2.109018
     26          6           0       -2.546291    0.929423    0.030764
     27          1           0       -3.347800    1.663372   -0.070740
     28          1           0       -1.973763    1.230286    0.916701
 ---------------------------------------------------------------------
                    Distance matrix (angstroms):
                    1          2          3          4          5
     1  C    0.000000
     2  C    2.833584   0.000000
     3  H    1.083842   3.915905   0.000000
     4  H    3.914891   1.083377   4.997972   0.000000
     5  C    4.773047   3.486473   5.614776   3.440454   0.000000
     6  C    4.144210   3.229730   4.941958   3.404273   1.330359
     7  H    4.735824   3.834151   5.483082   3.937553   1.083647
     8  H    3.494128   3.404273   4.136323   3.885153   2.102441
     9  C    4.880954   3.628534   5.707409   3.577712   2.468869
    10  H    5.715763   4.711706   6.441230   4.662287   2.992738
    11  H    4.438261   3.489546   5.212722   3.617490   3.308895
    12  C    5.942851   4.052798   6.872668   3.596473   1.463978
    13  H    6.703215   4.810460   7.615238   4.303279   2.200364
    14  C    6.322673   4.144210   7.304455   3.494128   2.432261
    15  H    7.304455   4.941958   8.311640   4.136323   3.424287
    16  C    5.694017   3.678589   6.652128   3.178446   2.859635
    17  H    5.290531   2.985467   6.304152   2.362727   3.302431
    18  H    6.584010   4.620693   7.510946   4.082169   3.843968
    19  C    2.432261   1.330359   3.424287   2.102441   4.173673
    20  H    3.384998   2.100716   4.286681   2.437422   4.629647
    21  C    1.331868   2.427687   2.100325   3.422841   4.865162
    22  H    2.099972   3.380819   2.429961   4.287642   5.763944
    23  C    2.524005   1.501844   3.489037   2.225623   3.580597
    24  H    3.438076   2.137539   4.347372   2.447733   3.048182
    25  H    2.962438   2.115015   3.809216   2.695955   4.605559
    26  C    1.504330   2.525927   2.233297   3.484455   3.902436
    27  H    2.144310   3.438593   2.467087   4.340766   4.678978
    28  H    2.120791   2.966806   2.701613   3.803169   3.209843
                    6          7          8          9         10
     6  C    0.000000
     7  H    2.100716   0.000000
     8  H    1.083377   2.437422   0.000000
     9  C    1.501844   3.462828   2.225623   0.000000
    10  H    2.115015   3.937003   2.695955   1.097957   0.000000
    11  H    2.137539   4.204186   2.447733   1.091195   1.751014
    12  C    2.427687   2.201493   3.422841   2.853112   3.290268
    13  H    3.380819   2.513489   4.287642   3.922286   4.266168
    14  C    2.833584   3.384998   3.914891   2.524005   2.962438
    15  H    3.915905   4.286681   4.997972   3.489037   3.809216
    16  C    2.525927   3.928583   3.484455   1.530755   2.164398
    17  H    2.966806   4.278302   3.803169   2.163804   3.042730
    18  H    3.438593   4.925382   4.340766   2.160564   2.382097
    19  C    3.486473   4.629647   3.440454   3.580597   4.605559
    20  H    3.834151   5.272218   3.937553   3.480400   4.456011
    21  C    4.052798   5.114179   3.596473   4.378267   5.266429
    22  H    4.810460   6.077450   4.303279   4.916987   5.710742
    23  C    3.628534   3.480400   3.577712   4.518011   5.518930
    24  H    3.489546   2.784491   3.617490   4.532762   5.470124
    25  H    4.711706   4.456011   4.662287   5.518930   6.551012
    26  C    3.678589   3.627826   3.178446   4.749710   5.609813
    27  H    4.620693   4.194986   4.082169   5.787688   6.613822
    28  H    2.985467   2.844934   2.362727   4.245413   4.969813
                   11         12         13         14         15
    11  H    0.000000
    12  C    3.837611   0.000000
    13  H    4.918888   1.083457   0.000000
    14  C    3.438076   1.331868   2.099972   0.000000
    15  H    4.347372   2.100325   2.429961   1.083842   0.000000
    16  C    2.161523   2.471149   3.464094   1.504330   2.233297
    17  H    2.381055   3.001567   3.944691   2.120791   2.701613
    18  H    2.599322   3.313856   4.209245   2.144310   2.467087
    19  C    3.048182   4.865162   5.763944   4.773047   5.614776
    20  H    2.784491   5.114179   6.077450   4.735824   5.483082
    21  C    3.729132   5.848633   6.729358   5.942851   6.872668
    22  H    4.085321   6.729358   7.662229   6.703215   7.615238
    23  C    4.532762   4.378267   4.916987   4.880954   5.707409
    24  H    4.802172   3.729132   4.085321   4.438261   5.212722
    25  H    5.470124   5.266429   5.710742   5.715763   6.441230
    26  C    4.642735   5.068868   5.661420   5.694017   6.652128
    27  H    5.721285   5.837873   6.292558   6.584010   7.510946
    28  H    4.284901   4.537975   5.127735   5.290531   6.304152
                   16         17         18         19         20
    16  C    0.000000
    17  H    1.096901   0.000000
    18  H    1.091513   1.746591   0.000000
    19  C    3.902436   3.209843   4.678978   0.000000
    20  H    3.627826   2.844934   4.194986   1.083647   0.000000
    21  C    5.068868   4.537975   5.837873   1.463978   2.201493
    22  H    5.661420   5.127735   6.292558   2.200364   2.513489
    23  C    4.749710   4.245413   5.787688   2.468869   3.462828
    24  H    4.642735   4.284901   5.721285   3.308895   4.204186
    25  H    5.609813   4.969813   6.613822   2.992738   3.937003
    26  C    5.421576   5.098325   6.439293   2.859635   3.928583
    27  H    6.439293   6.116203   7.477854   3.843968   4.925382
    28  H    5.098325   4.999874   6.116203   3.302431   4.278302
                   21         22         23         24         25
    21  C    0.000000
    22  H    1.083457   0.000000
    23  C    2.853112   3.922286   0.000000
    24  H    3.837611   4.918888   1.091195   0.000000
    25  H    3.290268   4.266168   1.097957   1.751014   0.000000
    26  C    2.471149   3.464094   1.530755   2.161523   2.164398
    27  H    3.313856   4.209245   2.160564   2.599322   2.382097
    28  H    3.001567   3.944691   2.163804   2.381055   3.042730
                   26         27         28
    26  C    0.000000
    27  H    1.091513   0.000000
    28  H    1.096901   1.746591   0.000000
 Symmetry turned off by external request.
 Stoichiometry    C12H16
 Framework group  CI[X(C12H16)]
 Deg. of freedom    39
 Full point group                 CI      NOp   2
 Rotational constants (GHZ):           1.6759010           0.5726930           0.5274709
 Leave Link  202 at Mon Aug  3 17:19:17 2020, MaxMem=  6442450944 cpu:               0.3 elap:               0.0
 (Enter /scratch/scicomp/CentOS/7.3.1611/Haswell/software/Gaussian/g16/l301.exe)
 Standard basis: def2TZVP (5D, 7F)
 Ernie: Thresh=  0.10000D-02 Tol=  0.10000D-05 Strict=F.
   468 basis functions,   740 primitive gaussians,   528 cartesian basis functions
    44 alpha electrons       44 beta electrons
       nuclear repulsion energy       669.2814376279 Hartrees.
 IExCor= 4639 DFT=T Ex+Corr=wB97XD ExCW=0 ScaHFX=  1.000000
 ScaDFX=  1.000000  1.000000  1.000000  1.000000 ScalE2=  1.000000  1.000000
 IRadAn=      5 IRanWt=     -1 IRanGd=            0 ICorTp=0 IEmpDi=121
 HFx  wShort=  0.000000 wLong=  0.200000 cFull=  0.222036 cShort=  0.000000 cLong=  0.777964
 DFx  wShort=  0.000000 wLong=  0.200000 cFull=  0.000000 cShort=  0.000000 cLong=  1.000000
 NAtoms=   28 NActive=   28 NUniq=   28 SFac= 1.00D+00 NAtFMM=   60 NAOKFM=F Big=F
 Integral buffers will be    131072 words long.
 Raffenetti 2 integral format.
 Two-electron integral symmetry is turned off.
 R6Disp:  Grimme-D2 Dispersion energy=       -0.0209958483 Hartrees.
 Nuclear repulsion after empirical dispersion term =      669.2604417796 Hartrees.
 Using the following non-standard input for PCM:
 qrep pcmdoc geomview  nodis nocav g03defaults tsare=0.075
 Warning! Using old PCM defaults because the g03defaults keyword was found.
 These settings can be overridden by following keywords.
 nsfe=28
 NVESolv=36  SolvMW=84.1595   Rsolv=2.815
 eps=2.0165 RhoS=0.7781
 --- end of non-standard input.
 Reading user-defined spheres from input:
 ISph  on   Nord    Re0     Alpha      Xe            Ye            Ze
 --- end of user-defined spheres data.
 ------------------------------------------------------------------------------
 Polarizable Continuum Model (PCM)
 =================================
 Model                : PCM.
 Atomic radii         : UA0 (Simple United Atom Topological Model).
 Polarization charges : Total charges.
 Charge compensation  : None.
 Solution method      : On-the-fly selection.
 Cavity type          : SES (Solvent Excluding Surface) (Alpha=1.000).
 Cavity algorithm     : GePol (RMin=0.200 OFac=0.890).
                        User-defined sphere list used, NSphG=   28.
                        Tesserae with average area of 0.075 Ang**2.
                        Smoothing algorithm: None.
                        Polarization charges: point-like.
                        Self-potential: constant (ISelfS= 1).
                        Self-field    : global E.n sum rule (ISelfD= 3).
 Solvent              : CycloHexane, Eps=   2.016500 Eps(inf)=   2.035188
                        RSolv=   2.815000 Ang.
 ------------------------------------------------------------------------------
 GePol: Number of generator spheres                  =      28
 GePol: Total number of spheres                      =     286
 GePol: Number of exposed spheres                    =     185 ( 64.69%)
 GePol: Number of tesserae                           =    4726
 GePol: Average area of tesserae                     =       0.04 Ang**2
 GePol: Minimum area of tessera                      =   0.10D-02 Ang**2
 GePol: Maximum area of tessera                      =    0.11641 Ang**2
 GePol: Number of small tesserae                     =       0
 GePol: Fraction of small tesserae (<1% of avg)      =       0.00%
 GePol: Total count of vertices                      =   17063
 GePol: Maximum number of vertices in a tessera      =       8
 GePol: Cavity surface area                          =    210.262 Ang**2
 GePol: Cavity volume                                =    228.682 Ang**3
 Leave Link  301 at Mon Aug  3 17:19:17 2020, MaxMem=  6442450944 cpu:               9.5 elap:               0.4
 (Enter /scratch/scicomp/CentOS/7.3.1611/Haswell/software/Gaussian/g16/l302.exe)
 NPDir=0 NMtPBC=     1 NCelOv=     1 NCel=       1 NClECP=     1 NCelD=      1
         NCelK=      1 NCelE2=     1 NClLst=     1 CellRange=     0.0.
 One-electron integrals computed using PRISM.
   1 Symmetry operations used in ECPInt.
 ECPInt:  NShTT=   19306 NPrTT=   56928 LenC2=   18448 LenP2D=   41684.
 LDataN:  DoStor=T MaxTD1= 6 Len=  172
 NBasis=   468 RedAO= T EigKep=  2.69D-05  NBF=   468
 NBsUse=   468 1.00D-06 EigRej= -1.00D+00 NBFU=   468
 Precomputing XC quadrature grid using
 IXCGrd= 4 IRadAn=           5 IRanWt=          -1 IRanGd=           0 AccXCQ= 0.00D+00.
 Generated NRdTot=       0 NPtTot=           0 NUsed=           0 NTot=          32
 NSgBfM=   526   526   526   526   526 MxSgAt=    28 MxSgA2=    28.
 Leave Link  302 at Mon Aug  3 17:19:18 2020, MaxMem=  6442450944 cpu:              11.8 elap:               0.5
 (Enter /scratch/scicomp/CentOS/7.3.1611/Haswell/software/Gaussian/g16/l401.exe)
 ExpMin= 9.52D-02 ExpMax= 1.36D+04 ExpMxC= 4.63D+02 IAcc=3 IRadAn=         5 AccDes= 0.00D+00
 Harris functional with IExCor= 4639 and IRadAn=       5 diagonalized for initial guess.
 HarFok:  IExCor= 4639 AccDes= 0.00D+00 IRadAn=         5 IDoV= 1 UseB2=F ITyADJ=14
 ICtDFT=  3500011 ScaDFX=  1.000000  1.000000  1.000000  1.000000
 FoFCou: FMM=F IPFlag=           0 FMFlag=      100000 FMFlg1=           0
         NFxFlg=           0 DoJE=T BraDBF=F KetDBF=T FulRan=T
         wScrn=  0.000000 ICntrl=       500 IOpCl=  0 I1Cent=   200000004 NGrid=           0
         NMat0=    1 NMatS0=      1 NMatT0=    0 NMatD0=    1 NMtDS0=    0 NMtDT0=    0
 Symmetry not used in FoFCou.
 Harris En= -444.638666443684    
 JPrj=0 DoOrth=F DoCkMO=T.
 Mixing orbitals, IMix= 1 IMixAn=  0 NRI=1 NE=   44 Coef=  7.07106781D-01  7.07106781D-01
 Mixing orbitals, IMix= 1 IMixAn=  0 NRI=1 NE=   44 Coef= -7.07106781D-01  7.07106781D-01
 Initial guess <Sx>= 0.0000 <Sy>= 0.0000 <Sz>= 0.0000 <S**2>= 1.0000 S= 0.6180
 Leave Link  401 at Mon Aug  3 17:19:20 2020, MaxMem=  6442450944 cpu:              46.9 elap:               2.0
 (Enter /scratch/scicomp/CentOS/7.3.1611/Haswell/software/Gaussian/g16/l9999.exe)

 This type of calculation cannot be archived.


 THE HURRIEDER I GO, THE BEHINDER I GET.
 Job cpu time:       0 days  0 hours  1 minutes 13.3 seconds.
 Elapsed time:       0 days  0 hours  0 minutes  3.3 seconds.
 File lengths (MBytes):  RWF=    407 Int=      0 D2E=      0 Chk=      1 Scr=      1
 Normal termination of Gaussian 16 at Mon Aug  3 17:19:20 2020.
 Initial command:
 /scratch/scicomp/CentOS/7.3.1611/Haswell/software/Gaussian/g16/l1.exe "/scratch/bochen/cyclohexadiene-dimerization/wb97xd-def2tzvp/xp-pcm/meso/Gau-74098.inp" -scrdir="/scratch/bochen/cyclohexadiene-dimerization/wb97xd-def2tzvp/xp-pcm/meso/"
 Entering Link 1 = /scratch/scicomp/CentOS/7.3.1611/Haswell/software/Gaussian/g16/l1.exe PID=     74585.
  
 Copyright (c) 1988-2017, Gaussian, Inc.  All Rights Reserved.
  
 This is part of the Gaussian(R) 16 program.  It is based on
 the Gaussian(R) 09 system (copyright 2009, Gaussian, Inc.),
 the Gaussian(R) 03 system (copyright 2003, Gaussian, Inc.),
 the Gaussian(R) 98 system (copyright 1998, Gaussian, Inc.),
 the Gaussian(R) 94 system (copyright 1995, Gaussian, Inc.),
 the Gaussian 92(TM) system (copyright 1992, Gaussian, Inc.),
 the Gaussian 90(TM) system (copyright 1990, Gaussian, Inc.),
 the Gaussian 88(TM) system (copyright 1988, Gaussian, Inc.),
 the Gaussian 86(TM) system (copyright 1986, Carnegie Mellon
 University), and the Gaussian 82(TM) system (copyright 1983,
 Carnegie Mellon University). Gaussian is a federally registered
 trademark of Gaussian, Inc.
  
 This software contains proprietary and confidential information,
 including trade secrets, belonging to Gaussian, Inc.
  
 This software is provided under written license and may be
 used, copied, transmitted, or stored only in accord with that
 written license.
  
 The following legend is applicable only to US Government
 contracts under FAR:
  
                    RESTRICTED RIGHTS LEGEND
  
 Use, reproduction and disclosure by the US Government is
 subject to restrictions as set forth in subparagraphs (a)
 and (c) of the Commercial Computer Software - Restricted
 Rights clause in FAR 52.227-19.
  
 Gaussian, Inc.
 340 Quinnipiac St., Bldg. 40, Wallingford CT 06492
  
  
 ---------------------------------------------------------------
 Warning -- This program may not be used in any manner that
 competes with the business of Gaussian, Inc. or will provide
 assistance to any competitor of Gaussian, Inc.  The licensee
 of this program is prohibited from giving any competitor of
 Gaussian, Inc. access to this program.  By using this program,
 the user acknowledges that Gaussian, Inc. is engaged in the
 business of creating and licensing software in the field of
 computational chemistry and represents and warrants to the
 licensee that it is not a competitor of Gaussian, Inc. and that
 it will not use this program in any manner prohibited above.
 ---------------------------------------------------------------
  

 Cite this work as:
 Gaussian 16, Revision B.01,
 M. J. Frisch, G. W. Trucks, H. B. Schlegel, G. E. Scuseria, 
 M. A. Robb, J. R. Cheeseman, G. Scalmani, V. Barone, 
 G. A. Petersson, H. Nakatsuji, X. Li, M. Caricato, A. V. Marenich, 
 J. Bloino, B. G. Janesko, R. Gomperts, B. Mennucci, H. P. Hratchian, 
 J. V. Ortiz, A. F. Izmaylov, J. L. Sonnenberg, D. Williams-Young, 
 F. Ding, F. Lipparini, F. Egidi, J. Goings, B. Peng, A. Petrone, 
 T. Henderson, D. Ranasinghe, V. G. Zakrzewski, J. Gao, N. Rega, 
 G. Zheng, W. Liang, M. Hada, M. Ehara, K. Toyota, R. Fukuda, 
 J. Hasegawa, M. Ishida, T. Nakajima, Y. Honda, O. Kitao, H. Nakai, 
 T. Vreven, K. Throssell, J. A. Montgomery, Jr., J. E. Peralta, 
 F. Ogliaro, M. J. Bearpark, J. J. Heyd, E. N. Brothers, K. N. Kudin, 
 V. N. Staroverov, T. A. Keith, R. Kobayashi, J. Normand, 
 K. Raghavachari, A. P. Rendell, J. C. Burant, S. S. Iyengar, 
 J. Tomasi, M. Cossi, J. M. Millam, M. Klene, C. Adamo, R. Cammi, 
 J. W. Ochterski, R. L. Martin, K. Morokuma, O. Farkas, 
 J. B. Foresman, and D. J. Fox, Gaussian, Inc., Wallingford CT, 2016.
 
 ******************************************
 Gaussian 16:  ES64L-G16RevB.01 20-Dec-2017
                 3-Aug-2020 
 ******************************************
 %chk=meso-TS_76_2_xp-105.chk
 %nproc=24
 Will use up to   24 processors via shared memory.
 %mem=48GB
 ----------------------------------------------------------------------
 #p uwb97xd guess=mix def2tzvp # scrf=(iefpcm,solvent=Cyclohexane,read)
  nosym guess=only pop=none
 ----------------------------------------------------------------------
 1/38=1,40=2,172=1/1;
 2/12=2,15=1,17=6,18=5,40=1/2;
 3/5=44,7=101,11=2,25=1,30=1,70=2203,72=17,74=-58,89=1,116=2/1,2;
 4/13=-1/1;
 99/5=2/99;
 Leave Link    1 at Mon Aug  3 17:19:20 2020, MaxMem=  6442450944 cpu:               1.5 elap:               0.1
 (Enter /scratch/scicomp/CentOS/7.3.1611/Haswell/software/Gaussian/g16/l101.exe)
 -----------------------
 endo-2 xp-pcm for eta=3
 -----------------------
 Symbolic Z-matrix:
 Charge =  0 Multiplicity = 1
 6                    -3.1179   -0.43907   0.28272 
 6                    -0.81852  -0.27359  -1.3649 
 1                    -4.03333  -0.51712   0.85772 
 1                     0.10337  -0.20137  -1.92934 
 6                     1.2289    1.44101   0.87645 
 6                     0.81852   0.27359   1.3649 
 1                     0.64341   2.33995   1.02944 
 1                    -0.10337   0.20137   1.92934 
 6                     1.6454   -0.97004   1.20615 
 1                     2.25973  -1.0838    2.10902 
 1                     0.99746  -1.8471    1.16556 
 6                     2.4852    1.53568   0.1308 
 1                     2.8865    2.5174   -0.09068 
 6                     3.1179    0.43907  -0.28272 
 1                     4.03333   0.51712  -0.85772 
 6                     2.54629  -0.92942  -0.03076 
 1                     1.97376  -1.23029  -0.9167 
 1                     3.3478   -1.66337   0.07074 
 6                    -1.2289   -1.44101  -0.87645 
 1                    -0.64341  -2.33995  -1.02944 
 6                    -2.4852   -1.53568  -0.1308 
 1                    -2.8865   -2.5174    0.09068 
 6                    -1.6454    0.97004  -1.20615 
 1                    -0.99746   1.8471   -1.16556 
[...]
 6                    -3.1179   -0.43907   0.28272 
 6                    -0.81852  -0.27359  -1.3649 
 1                    -4.03333  -0.51712   0.85772 
 1                     0.10337  -0.20137  -1.92934 
 6                     1.2289    1.44101   0.87645 
 6                     0.81852   0.27359   1.3649 
 1                     0.64341   2.33995   1.02944 
 1                    -0.10337   0.20137   1.92934 
 6                     1.6454   -0.97004   1.20615 
 1                     2.25973  -1.0838    2.10902 
 1                     0.99746  -1.8471    1.16556 
 6                     2.4852    1.53568   0.1308 
 1                     2.8865    2.5174   -0.09068 
 6                     3.1179    0.43907  -0.28272 
 1                     4.03333   0.51712  -0.85772 
 6                     2.54629  -0.92942  -0.03076 
 1                     1.97376  -1.23029  -0.9167 
 1                     3.3478   -1.66337   0.07074 
 6                    -1.2289   -1.44101  -0.87645 
 1                    -0.64341  -2.33995  -1.02944 
 6                    -2.4852   -1.53568  -0.1308 
 1                    -2.8865   -2.5174    0.09068 
 6                    -1.6454    0.97004  -1.20615 
 1                    -0.99746   1.8471   -1.16556 
 1                    -2.25973   1.0838   -2.10902 
 6                    -2.54629   0.92942   0.03076 
 1                    -3.3478    1.66337  -0.07074 
 1                    -1.97376   1.23029   0.9167 
 
 ITRead=  0  0  0  0  0  0  0  0  0  0  0  0  0  0  0  0  0  0  0  0
 ITRead=  0  0  0  0  0  0  0  0
 MicOpt= -1 -1 -1 -1 -1 -1 -1 -1 -1 -1 -1 -1 -1 -1 -1 -1 -1 -1 -1 -1
 MicOpt= -1 -1 -1 -1 -1 -1 -1 -1
 NAtoms=     28 NQM=       28 NQMF=       0 NMMI=      0 NMMIF=      0
                NMic=       0 NMicF=      0.
                    Isotopes and Nuclear Properties:
 (Nuclear quadrupole moments (NQMom) in fm**2, nuclear magnetic moments (NMagM)
  in nuclear magnetons)

  Atom         1           2           3           4           5           6           7           8           9          10
 IAtWgt=          12          12           1           1          12          12           1           1          12           1
 AtmWgt=  12.0000000  12.0000000   1.0078250   1.0078250  12.0000000  12.0000000   1.0078250   1.0078250  12.0000000   1.0078250
 NucSpn=           0           0           1           1           0           0           1           1           0           1
 AtZEff=  -0.0000000  -0.0000000  -0.0000000  -0.0000000  -0.0000000  -0.0000000  -0.0000000  -0.0000000  -0.0000000  -0.0000000
 NQMom=    0.0000000   0.0000000   0.0000000   0.0000000   0.0000000   0.0000000   0.0000000   0.0000000   0.0000000   0.0000000
 NMagM=    0.0000000   0.0000000   2.7928460   2.7928460   0.0000000   0.0000000   2.7928460   2.7928460   0.0000000   2.7928460
 AtZNuc=   6.0000000   6.0000000   1.0000000   1.0000000   6.0000000   6.0000000   1.0000000   1.0000000   6.0000000   1.0000000

  Atom        11          12          13          14          15          16          17          18          19          20
 IAtWgt=           1          12           1          12           1          12           1           1          12           1
 AtmWgt=   1.0078250  12.0000000   1.0078250  12.0000000   1.0078250  12.0000000   1.0078250   1.0078250  12.0000000   1.0078250
 NucSpn=           1           0           1           0           1           0           1           1           0           1
 AtZEff=  -0.0000000  -0.0000000  -0.0000000  -0.0000000  -0.0000000  -0.0000000  -0.0000000  -0.0000000  -0.0000000  -0.0000000
 NQMom=    0.0000000   0.0000000   0.0000000   0.0000000   0.0000000   0.0000000   0.0000000   0.0000000   0.0000000   0.0000000
 NMagM=    2.7928460   0.0000000   2.7928460   0.0000000   2.7928460   0.0000000   2.7928460   2.7928460   0.0000000   2.7928460
 AtZNuc=   1.0000000   6.0000000   1.0000000   6.0000000   1.0000000   6.0000000   1.0000000   1.0000000   6.0000000   1.0000000

  Atom        21          22          23          24          25          26          27          28
 IAtWgt=          12           1          12           1           1          12           1           1
 AtmWgt=  12.0000000   1.0078250  12.0000000   1.0078250   1.0078250  12.0000000   1.0078250   1.0078250
 NucSpn=           0           1           0           1           1           0           1           1
 AtZEff=  -0.0000000  -0.0000000  -0.0000000  -0.0000000  -0.0000000  -0.0000000  -0.0000000  -0.0000000
 NQMom=    0.0000000   0.0000000   0.0000000   0.0000000   0.0000000   0.0000000   0.0000000   0.0000000
 NMagM=    0.0000000   2.7928460   0.0000000   2.7928460   2.7928460   0.0000000   2.7928460   2.7928460
 AtZNuc=   6.0000000   1.0000000   6.0000000   1.0000000   1.0000000   6.0000000   1.0000000   1.0000000
 Leave Link  101 at Mon Aug  3 17:19:32 2020, MaxMem=  6442450944 cpu:               2.4 elap:               0.1
 (Enter /scratch/scicomp/CentOS/7.3.1611/Haswell/software/Gaussian/g16/l202.exe)
                          Input orientation:                          
 ---------------------------------------------------------------------
 Center     Atomic      Atomic             Coordinates (Angstroms)
 Number     Number       Type             X           Y           Z
 ---------------------------------------------------------------------
      1          6           0       -3.117905   -0.439074    0.282722
      2          6           0       -0.818524   -0.273593   -1.364901
      3          1           0       -4.033330   -0.517117    0.857717
      4          1           0        0.103373   -0.201366   -1.929344
      5          6           0        1.228903    1.441011    0.876454
      6          6           0        0.818524    0.273593    1.364901
      7          1           0        0.643410    2.339945    1.029443
      8          1           0       -0.103373    0.201366    1.929344
      9          6           0        1.645400   -0.970035    1.206150
     10          1           0        2.259726   -1.083800    2.109018
     11          1           0        0.997461   -1.847095    1.165558
     12          6           0        2.485196    1.535682    0.130802
     13          1           0        2.886502    2.517404   -0.090679
     14          6           0        3.117905    0.439074   -0.282722
     15          1           0        4.033330    0.517117   -0.857717
     16          6           0        2.546291   -0.929423   -0.030764
     17          1           0        1.973763   -1.230286   -0.916701
     18          1           0        3.347800   -1.663372    0.070740
     19          6           0       -1.228903   -1.441011   -0.876454
     20          1           0       -0.643410   -2.339945   -1.029443
     21          6           0       -2.485196   -1.535682   -0.130802
     22          1           0       -2.886502   -2.517404    0.090679
     23          6           0       -1.645400    0.970035   -1.206150
     24          1           0       -0.997461    1.847095   -1.165558
     25          1           0       -2.259726    1.083800   -2.109018
     26          6           0       -2.546291    0.929423    0.030764
     27          1           0       -3.347800    1.663372   -0.070740
     28          1           0       -1.973763    1.230286    0.916701
 ---------------------------------------------------------------------
                    Distance matrix (angstroms):
                    1          2          3          4          5
     1  C    0.000000
     2  C    2.833584   0.000000
     3  H    1.083842   3.915905   0.000000
     4  H    3.914891   1.083377   4.997972   0.000000
     5  C    4.773047   3.486473   5.614776   3.440454   0.000000
     6  C    4.144210   3.229730   4.941958   3.404273   1.330359
     7  H    4.735824   3.834151   5.483082   3.937553   1.083647
     8  H    3.494128   3.404273   4.136323   3.885153   2.102441
     9  C    4.880954   3.628534   5.707409   3.577712   2.468869
    10  H    5.715763   4.711706   6.441230   4.662287   2.992738
    11  H    4.438261   3.489546   5.212722   3.617490   3.308895
    12  C    5.942851   4.052798   6.872668   3.596473   1.463978
    13  H    6.703215   4.810460   7.615238   4.303279   2.200364
    14  C    6.322673   4.144210   7.304455   3.494128   2.432261
    15  H    7.304455   4.941958   8.311640   4.136323   3.424287
    16  C    5.694017   3.678589   6.652128   3.178446   2.859635
    17  H    5.290531   2.985467   6.304152   2.362727   3.302431
    18  H    6.584010   4.620693   7.510946   4.082169   3.843968
    19  C    2.432261   1.330359   3.424287   2.102441   4.173673
    20  H    3.384998   2.100716   4.286681   2.437422   4.629647
    21  C    1.331868   2.427687   2.100325   3.422841   4.865162
    22  H    2.099972   3.380819   2.429961   4.287642   5.763944
    23  C    2.524005   1.501844   3.489037   2.225623   3.580597
    24  H    3.438076   2.137539   4.347372   2.447733   3.048182
    25  H    2.962438   2.115015   3.809216   2.695955   4.605559
    26  C    1.504330   2.525927   2.233297   3.484455   3.902436
    27  H    2.144310   3.438593   2.467087   4.340766   4.678978
    28  H    2.120791   2.966806   2.701613   3.803169   3.209843
                    6          7          8          9         10
     6  C    0.000000
     7  H    2.100716   0.000000
     8  H    1.083377   2.437422   0.000000
     9  C    1.501844   3.462828   2.225623   0.000000
    10  H    2.115015   3.937003   2.695955   1.097957   0.000000
    11  H    2.137539   4.204186   2.447733   1.091195   1.751014
    12  C    2.427687   2.201493   3.422841   2.853112   3.290268
    13  H    3.380819   2.513489   4.287642   3.922286   4.266168
    14  C    2.833584   3.384998   3.914891   2.524005   2.962438
    15  H    3.915905   4.286681   4.997972   3.489037   3.809216
    16  C    2.525927   3.928583   3.484455   1.530755   2.164398
    17  H    2.966806   4.278302   3.803169   2.163804   3.042730
    18  H    3.438593   4.925382   4.340766   2.160564   2.382097
    19  C    3.486473   4.629647   3.440454   3.580597   4.605559
    20  H    3.834151   5.272218   3.937553   3.480400   4.456011
    21  C    4.052798   5.114179   3.596473   4.378267   5.266429
    22  H    4.810460   6.077450   4.303279   4.916987   5.710742
    23  C    3.628534   3.480400   3.577712   4.518011   5.518930
    24  H    3.489546   2.784491   3.617490   4.532762   5.470124
    25  H    4.711706   4.456011   4.662287   5.518930   6.551012
    26  C    3.678589   3.627826   3.178446   4.749710   5.609813
    27  H    4.620693   4.194986   4.082169   5.787688   6.613822
    28  H    2.985467   2.844934   2.362727   4.245413   4.969813
                   11         12         13         14         15
    11  H    0.000000
    12  C    3.837611   0.000000
    13  H    4.918888   1.083457   0.000000
    14  C    3.438076   1.331868   2.099972   0.000000
    15  H    4.347372   2.100325   2.429961   1.083842   0.000000
    16  C    2.161523   2.471149   3.464094   1.504330   2.233297
    17  H    2.381055   3.001567   3.944691   2.120791   2.701613
    18  H    2.599322   3.313856   4.209245   2.144310   2.467087
    19  C    3.048182   4.865162   5.763944   4.773047   5.614776
    20  H    2.784491   5.114179   6.077450   4.735824   5.483082
    21  C    3.729132   5.848633   6.729358   5.942851   6.872668
    22  H    4.085321   6.729358   7.662229   6.703215   7.615238
    23  C    4.532762   4.378267   4.916987   4.880954   5.707409
    24  H    4.802172   3.729132   4.085321   4.438261   5.212722
    25  H    5.470124   5.266429   5.710742   5.715763   6.441230
    26  C    4.642735   5.068868   5.661420   5.694017   6.652128
    27  H    5.721285   5.837873   6.292558   6.584010   7.510946
    28  H    4.284901   4.537975   5.127735   5.290531   6.304152
                   16         17         18         19         20
    16  C    0.000000
    17  H    1.096901   0.000000
    18  H    1.091513   1.746591   0.000000
    19  C    3.902436   3.209843   4.678978   0.000000
    20  H    3.627826   2.844934   4.194986   1.083647   0.000000
    21  C    5.068868   4.537975   5.837873   1.463978   2.201493
    22  H    5.661420   5.127735   6.292558   2.200364   2.513489
    23  C    4.749710   4.245413   5.787688   2.468869   3.462828
    24  H    4.642735   4.284901   5.721285   3.308895   4.204186
    25  H    5.609813   4.969813   6.613822   2.992738   3.937003
    26  C    5.421576   5.098325   6.439293   2.859635   3.928583
    27  H    6.439293   6.116203   7.477854   3.843968   4.925382
    28  H    5.098325   4.999874   6.116203   3.302431   4.278302
                   21         22         23         24         25
    21  C    0.000000
    22  H    1.083457   0.000000
    23  C    2.853112   3.922286   0.000000
    24  H    3.837611   4.918888   1.091195   0.000000
    25  H    3.290268   4.266168   1.097957   1.751014   0.000000
    26  C    2.471149   3.464094   1.530755   2.161523   2.164398
    27  H    3.313856   4.209245   2.160564   2.599322   2.382097
    28  H    3.001567   3.944691   2.163804   2.381055   3.042730
                   26         27         28
    26  C    0.000000
    27  H    1.091513   0.000000
    28  H    1.096901   1.746591   0.000000
 Symmetry turned off by external request.
 Stoichiometry    C12H16
 Framework group  CI[X(C12H16)]
 Deg. of freedom    39
 Full point group                 CI      NOp   2
 Rotational constants (GHZ):           1.6759010           0.5726930           0.5274709
 Leave Link  202 at Mon Aug  3 17:19:32 2020, MaxMem=  6442450944 cpu:               0.3 elap:               0.0
 (Enter /scratch/scicomp/CentOS/7.3.1611/Haswell/software/Gaussian/g16/l301.exe)
 Standard basis: def2TZVP (5D, 7F)
 Ernie: Thresh=  0.10000D-02 Tol=  0.10000D-05 Strict=F.
   468 basis functions,   740 primitive gaussians,   528 cartesian basis functions
    44 alpha electrons       44 beta electrons
       nuclear repulsion energy       669.2814376279 Hartrees.
 IExCor= 4639 DFT=T Ex+Corr=wB97XD ExCW=0 ScaHFX=  1.000000
 ScaDFX=  1.000000  1.000000  1.000000  1.000000 ScalE2=  1.000000  1.000000
 IRadAn=      5 IRanWt=     -1 IRanGd=            0 ICorTp=0 IEmpDi=121
 HFx  wShort=  0.000000 wLong=  0.200000 cFull=  0.222036 cShort=  0.000000 cLong=  0.777964
 DFx  wShort=  0.000000 wLong=  0.200000 cFull=  0.000000 cShort=  0.000000 cLong=  1.000000
 NAtoms=   28 NActive=   28 NUniq=   28 SFac= 1.00D+00 NAtFMM=   60 NAOKFM=F Big=F
 Integral buffers will be    131072 words long.
 Raffenetti 2 integral format.
 Two-electron integral symmetry is turned off.
 R6Disp:  Grimme-D2 Dispersion energy=       -0.0209958483 Hartrees.
 Nuclear repulsion after empirical dispersion term =      669.2604417796 Hartrees.
 Using the following non-standard input for PCM:
 qrep pcmdoc geomview  nodis nocav g03defaults tsare=0.075
 Warning! Using old PCM defaults because the g03defaults keyword was found.
 These settings can be overridden by following keywords.
 nsfe=28
 NVESolv=36  SolvMW=84.1595   Rsolv=2.815
 eps=2.0165 RhoS=0.7781
 --- end of non-standard input.
 Reading user-defined spheres from input:
 ISph  on   Nord    Re0     Alpha      Xe            Ye            Ze
 --- end of user-defined spheres data.
 ------------------------------------------------------------------------------
 Polarizable Continuum Model (PCM)
 =================================
 Model                : PCM.
 Atomic radii         : UA0 (Simple United Atom Topological Model).
 Polarization charges : Total charges.
 Charge compensation  : None.
 Solution method      : On-the-fly selection.
 Cavity type          : SES (Solvent Excluding Surface) (Alpha=1.000).
 Cavity algorithm     : GePol (RMin=0.200 OFac=0.890).
                        User-defined sphere list used, NSphG=   28.
                        Tesserae with average area of 0.075 Ang**2.
                        Smoothing algorithm: None.
                        Polarization charges: point-like.
                        Self-potential: constant (ISelfS= 1).
                        Self-field    : global E.n sum rule (ISelfD= 3).
 Solvent              : CycloHexane, Eps=   2.016500 Eps(inf)=   2.035188
                        RSolv=   2.815000 Ang.
 ------------------------------------------------------------------------------
 GePol: Number of generator spheres                  =      28
 GePol: Total number of spheres                      =     523
 GePol: Number of exposed spheres                    =     314 ( 60.04%)
 GePol: Number of tesserae                           =    4814
 GePol: Average area of tesserae                     =       0.04 Ang**2
 GePol: Minimum area of tessera                      =   0.10D-02 Ang**2
 GePol: Maximum area of tessera                      =    0.12513 Ang**2
 GePol: Number of small tesserae                     =       0
 GePol: Fraction of small tesserae (<1% of avg)      =       0.00%
 GePol: Total count of vertices                      =   18230
 GePol: Maximum number of vertices in a tessera      =       8
 GePol: Cavity surface area                          =    189.278 Ang**2
 GePol: Cavity volume                                =    189.460 Ang**3
 Leave Link  301 at Mon Aug  3 17:19:32 2020, MaxMem=  6442450944 cpu:              12.4 elap:               0.6
 (Enter /scratch/scicomp/CentOS/7.3.1611/Haswell/software/Gaussian/g16/l302.exe)
 NPDir=0 NMtPBC=     1 NCelOv=     1 NCel=       1 NClECP=     1 NCelD=      1
         NCelK=      1 NCelE2=     1 NClLst=     1 CellRange=     0.0.
 One-electron integrals computed using PRISM.
   1 Symmetry operations used in ECPInt.
 ECPInt:  NShTT=   19306 NPrTT=   56928 LenC2=   18448 LenP2D=   41684.
 LDataN:  DoStor=T MaxTD1= 6 Len=  172
 NBasis=   468 RedAO= T EigKep=  2.69D-05  NBF=   468
 NBsUse=   468 1.00D-06 EigRej= -1.00D+00 NBFU=   468
 Precomputing XC quadrature grid using
 IXCGrd= 4 IRadAn=           5 IRanWt=          -1 IRanGd=           0 AccXCQ= 0.00D+00.
 Generated NRdTot=       0 NPtTot=           0 NUsed=           0 NTot=          32
 NSgBfM=   526   526   526   526   526 MxSgAt=    28 MxSgA2=    28.
 Leave Link  302 at Mon Aug  3 17:19:33 2020, MaxMem=  6442450944 cpu:              11.8 elap:               0.5
 (Enter /scratch/scicomp/CentOS/7.3.1611/Haswell/software/Gaussian/g16/l401.exe)
 ExpMin= 9.52D-02 ExpMax= 1.36D+04 ExpMxC= 4.63D+02 IAcc=3 IRadAn=         5 AccDes= 0.00D+00
 Harris functional with IExCor= 4639 and IRadAn=       5 diagonalized for initial guess.
 HarFok:  IExCor= 4639 AccDes= 0.00D+00 IRadAn=         5 IDoV= 1 UseB2=F ITyADJ=14
 ICtDFT=  3500011 ScaDFX=  1.000000  1.000000  1.000000  1.000000
 FoFCou: FMM=F IPFlag=           0 FMFlag=      100000 FMFlg1=           0
         NFxFlg=           0 DoJE=T BraDBF=F KetDBF=T FulRan=T
         wScrn=  0.000000 ICntrl=       500 IOpCl=  0 I1Cent=   200000004 NGrid=           0
         NMat0=    1 NMatS0=      1 NMatT0=    0 NMatD0=    1 NMtDS0=    0 NMtDT0=    0
 Symmetry not used in FoFCou.
 Harris En= -444.638666443684    
 JPrj=0 DoOrth=F DoCkMO=T.
 Mixing orbitals, IMix= 1 IMixAn=  0 NRI=1 NE=   44 Coef=  7.07106781D-01  7.07106781D-01
 Mixing orbitals, IMix= 1 IMixAn=  0 NRI=1 NE=   44 Coef= -7.07106781D-01  7.07106781D-01
 Initial guess <Sx>= 0.0000 <Sy>= 0.0000 <Sz>= 0.0000 <S**2>= 1.0000 S= 0.6180
 Leave Link  401 at Mon Aug  3 17:19:35 2020, MaxMem=  6442450944 cpu:              47.0 elap:               2.0
 (Enter /scratch/scicomp/CentOS/7.3.1611/Haswell/software/Gaussian/g16/l9999.exe)

 This type of calculation cannot be archived.


 OLD AGE AND TREACHERY WILL ALWAYS PREVAIL OVER YOUTH AND SKILL.
 Job cpu time:       0 days  0 hours  1 minutes 16.8 seconds.
 Elapsed time:       0 days  0 hours  0 minutes  3.5 seconds.
 File lengths (MBytes):  RWF=    424 Int=      0 D2E=      0 Chk=      1 Scr=      1
 Normal termination of Gaussian 16 at Mon Aug  3 17:19:35 2020.
