 Entering Gaussian System, Link 0=g16
 Input=1b_xp-Ger.com
 Output=1b_xp-Ger.log
 Initial command:
 /home/roberto/software/g16A03/g16/l1.exe "/home/roberto/scr/Gau-21021.inp" -scrdir="/home/roberto/scr/"
 Entering Link 1 = /home/roberto/software/g16A03/g16/l1.exe PID=     21023.
  
 Copyright (c) 1988,1990,1992,1993,1995,1998,2003,2009,2016,
            Gaussian, Inc.  All Rights Reserved.
  
 This is part of the Gaussian(R) 16 program.  It is based on
 the Gaussian(R) 09 system (copyright 2009, Gaussian, Inc.),
 the Gaussian(R) 03 system (copyright 2003, Gaussian, Inc.),
 the Gaussian(R) 98 system (copyright 1998, Gaussian, Inc.),
 the Gaussian(R) 94 system (copyright 1995, Gaussian, Inc.),
 the Gaussian 92(TM) system (copyright 1992, Gaussian, Inc.),
 the Gaussian 90(TM) system (copyright 1990, Gaussian, Inc.),
 the Gaussian 88(TM) system (copyright 1988, Gaussian, Inc.),
 the Gaussian 86(TM) system (copyright 1986, Carnegie Mellon
 University), and the Gaussian 82(TM) system (copyright 1983,
 Carnegie Mellon University). Gaussian is a federally registered
 trademark of Gaussian, Inc.
  
 This software contains proprietary and confidential information,
 including trade secrets, belonging to Gaussian, Inc.
  
 This software is provided under written license and may be
 used, copied, transmitted, or stored only in accord with that
 written license.
  
 The following legend is applicable only to US Government
 contracts under FAR:
  
                    RESTRICTED RIGHTS LEGEND
  
 Use, reproduction and disclosure by the US Government is
 subject to restrictions as set forth in subparagraphs (a)
 and (c) of the Commercial Computer Software - Restricted
 Rights clause in FAR 52.227-19.
  
 Gaussian, Inc.
 340 Quinnipiac St., Bldg. 40, Wallingford CT 06492
  
  
 ---------------------------------------------------------------
 Warning -- This program may not be used in any manner that
 competes with the business of Gaussian, Inc. or will provide
 assistance to any competitor of Gaussian, Inc.  The licensee
 of this program is prohibited from giving any competitor of
 Gaussian, Inc. access to this program.  By using this program,
 the user acknowledges that Gaussian, Inc. is engaged in the
 business of creating and licensing software in the field of
 computational chemistry and represents and warrants to the
 licensee that it is not a competitor of Gaussian, Inc. and that
 it will not use this program in any manner prohibited above.
 ---------------------------------------------------------------
  

 Cite this work as:
 Gaussian 16, Revision A.03,
 M. J. Frisch, G. W. Trucks, H. B. Schlegel, G. E. Scuseria, 
 M. A. Robb, J. R. Cheeseman, G. Scalmani, V. Barone, 
 G. A. Petersson, H. Nakatsuji, X. Li, M. Caricato, A. V. Marenich, 
 J. Bloino, B. G. Janesko, R. Gomperts, B. Mennucci, H. P. Hratchian, 
 J. V. Ortiz, A. F. Izmaylov, J. L. Sonnenberg, D. Williams-Young, 
 F. Ding, F. Lipparini, F. Egidi, J. Goings, B. Peng, A. Petrone, 
 T. Henderson, D. Ranasinghe, V. G. Zakrzewski, J. Gao, N. Rega, 
 G. Zheng, W. Liang, M. Hada, M. Ehara, K. Toyota, R. Fukuda, 
 J. Hasegawa, M. Ishida, T. Nakajima, Y. Honda, O. Kitao, H. Nakai, 
 T. Vreven, K. Throssell, J. A. Montgomery, Jr., J. E. Peralta, 
 F. Ogliaro, M. J. Bearpark, J. J. Heyd, E. N. Brothers, K. N. Kudin, 
 V. N. Staroverov, T. A. Keith, R. Kobayashi, J. Normand, 
 K. Raghavachari, A. P. Rendell, J. C. Burant, S. S. Iyengar, 
 J. Tomasi, M. Cossi, J. M. Millam, M. Klene, C. Adamo, R. Cammi, 
 J. W. Ochterski, R. L. Martin, K. Morokuma, O. Farkas, 
 J. B. Foresman, and D. J. Fox, Gaussian, Inc., Wallingford CT, 2016.
 
 ******************************************
 Gaussian 16:  ES64L-G16RevA.03 25-Dec-2016
                 4-Jun-2020 
 ******************************************
 %chk=1b_xp-12.chk
 %nproc=6
 Will use up to    6 processors via shared memory.
 ----------------------------------------------------------------
 #p b3lyp/6-31g(d) # scrf=(iefpcm,solvent=Cyclohexane,read) nosym
 ----------------------------------------------------------------
 1/38=1,40=2,172=1/1;
 2/12=2,15=1,17=6,18=5,40=1/2;
 3/5=1,6=6,7=1,11=2,25=1,30=1,70=2203,72=17,74=-5/1,2,3;
 4//1;
 5/5=2,38=5,53=17/2;
 6/7=2,8=2,9=2,10=2,28=1/1;
 99/5=1,9=1/99;
 Leave Link    1 at Thu Jun  4 11:47:14 2020, MaxMem=           0 cpu:               0.0 elap:               0.0
 (Enter /home/roberto/software/g16A03/g16/l101.exe)
 -----------------------------------------------
 Cycloexadiene, E(B3LYP/6-31G*) xp-pcm for eta=3
 -----------------------------------------------
 Symbolic Z-matrix:
 Charge =  0 Multiplicity = 1
 C                     0.13841  -1.43021  -0.00014 
 C                    -1.22554  -0.78008   0.00041 
 C                    -1.22554   0.78008  -0.00041 
 C                     0.13841   1.43021   0.00014 
 C                     1.28267   0.7336    0.00019 
 C                     1.28268  -0.7336   -0.00019 
 H                     0.15723  -2.51872  -0.00033 
 H                    -1.78585  -1.15298  -0.86886 
 H                    -1.7847    1.15214  -0.8708 
 H                     0.15722   2.51872   0.0003 
 H                     2.24004   1.2496    0.00046 
 H                     2.24004  -1.24959  -0.00045 
 H                    -1.78584   1.15297   0.86888 
 H                    -1.78468  -1.15214   0.87081 
 
 ITRead=  0  0  0  0  0  0  0  0  0  0  0  0  0  0
 MicOpt= -1 -1 -1 -1 -1 -1 -1 -1 -1 -1 -1 -1 -1 -1
 NAtoms=     14 NQM=       14 NQMF=       0 NMMI=      0 NMMIF=      0
                NMic=       0 NMicF=      0.
                    Isotopes and Nuclear Properties:
 (Nuclear quadrupole moments (NQMom) in fm**2, nuclear magnetic moments (NMagM)
  in nuclear magnetons)

  Atom         1           2           3           4           5           6           7           8           9          10
 IAtWgt=          12          12          12          12          12          12           1           1           1           1
 AtmWgt=  12.0000000  12.0000000  12.0000000  12.0000000  12.0000000  12.0000000   1.0078250   1.0078250   1.0078250   1.0078250
 NucSpn=           0           0           0           0           0           0           1           1           1           1
 AtZEff=   0.0000000   0.0000000   0.0000000   0.0000000   0.0000000   0.0000000   0.0000000   0.0000000   0.0000000   0.0000000
 NQMom=    0.0000000   0.0000000   0.0000000   0.0000000   0.0000000   0.0000000   0.0000000   0.0000000   0.0000000   0.0000000
 NMagM=    0.0000000   0.0000000   0.0000000   0.0000000   0.0000000   0.0000000   2.7928460   2.7928460   2.7928460   2.7928460
 AtZNuc=   6.0000000   6.0000000   6.0000000   6.0000000   6.0000000   6.0000000   1.0000000   1.0000000   1.0000000   1.0000000

  Atom        11          12          13          14
 IAtWgt=           1           1           1           1
 AtmWgt=   1.0078250   1.0078250   1.0078250   1.0078250
 NucSpn=           1           1           1           1
 AtZEff=   0.0000000   0.0000000   0.0000000   0.0000000
 NQMom=    0.0000000   0.0000000   0.0000000   0.0000000
 NMagM=    2.7928460   2.7928460   2.7928460   2.7928460
 AtZNuc=   1.0000000   1.0000000   1.0000000   1.0000000
 Leave Link  101 at Thu Jun  4 11:47:15 2020, MaxMem=   104857600 cpu:               0.1 elap:               0.1
 (Enter /home/roberto/software/g16A03/g16/l202.exe)
                          Input orientation:                          
 ---------------------------------------------------------------------
 Center     Atomic      Atomic             Coordinates (Angstroms)
 Number     Number       Type             X           Y           Z
 ---------------------------------------------------------------------
      1          6           0        0.138413   -1.430211   -0.000144
      2          6           0       -1.225538   -0.780080    0.000407
      3          6           0       -1.225541    0.780077   -0.000405
      4          6           0        0.138410    1.430212    0.000135
      5          6           0        1.282673    0.733599    0.000192
      6          6           0        1.282675   -0.733596   -0.000186
      7          1           0        0.157225   -2.518723   -0.000332
      8          1           0       -1.785851   -1.152982   -0.868861
      9          1           0       -1.784697    1.152137   -0.870795
     10          1           0        0.157219    2.518724    0.000302
     11          1           0        2.240035    1.249598    0.000460
     12          1           0        2.240037   -1.249594   -0.000454
     13          1           0       -1.785840    1.152972    0.868876
     14          1           0       -1.784681   -1.152136    0.870808
 ---------------------------------------------------------------------
                    Distance matrix (angstroms):
                    1          2          3          4          5
     1  C    0.000000
     2  C    1.510971   0.000000
     3  C    2.597257   1.560157   0.000000
     4  C    2.860423   2.597257   1.510973   0.000000
     5  C    2.447735   2.929564   2.508645   1.339630   0.000000
     6  C    1.339630   2.508644   2.929565   2.447735   1.467195
     7  H    1.088675   2.221467   3.576887   3.948980   3.441545
     8  H    2.129394   1.099379   2.192004   3.336289   3.705439
     9  H    3.335402   2.192057   1.099392   2.129363   3.215984
    10  H    3.948980   3.576888   2.221468   1.088675   2.110289
    11  H    3.405612   4.016191   3.497237   2.109372   1.087565
    12  H    2.109371   3.497235   4.016192   3.405613   2.202181
    13  H    3.336282   2.192001   1.099379   2.129392   3.216560
    14  H    2.129360   1.099393   2.192053   3.335397   3.704407
                    6          7          8          9         10
     6  C    0.000000
     7  H    2.110288   0.000000
     8  H    3.216572   2.528861   0.000000
     9  H    3.704419   4.243110   2.305120   0.000000
    10  H    3.441546   5.037447   4.244101   2.529310   0.000000
    11  H    2.202180   4.305617   4.768214   4.119108   2.439017
    12  H    1.087564   2.439015   4.119616   4.767000   4.305619
    13  H    3.705427   4.244098   2.887413   1.739672   2.528869
    14  H    3.215972   2.529317   1.739670   2.888400   4.243108
                   11         12         13         14
    11  H    0.000000
    12  H    2.499192   0.000000
    13  H    4.119606   4.768201   0.000000
    14  H    4.766988   4.119096   2.305109   0.000000
 Symmetry turned off by external request.
 Stoichiometry    C6H8
 Framework group  C1[X(C6H8)]
 Deg. of freedom    36
 Full point group                 C1      NOp   1
 Rotational constants (GHZ):           5.0061053           4.9553097           2.5674659
 Leave Link  202 at Thu Jun  4 11:47:15 2020, MaxMem=   104857600 cpu:               0.0 elap:               0.0
 (Enter /home/roberto/software/g16A03/g16/l301.exe)
 Standard basis: 6-31G(d) (6D, 7F)
 Ernie: Thresh=  0.10000D-02 Tol=  0.10000D-05 Strict=F.
   106 basis functions,   200 primitive gaussians,   106 cartesian basis functions
    22 alpha electrons       22 beta electrons
       nuclear repulsion energy       217.0824484202 Hartrees.
 IExCor=  402 DFT=T Ex+Corr=B3LYP ExCW=0 ScaHFX=  0.200000
 ScaDFX=  0.800000  0.720000  1.000000  0.810000 ScalE2=  1.000000  1.000000
 IRadAn=      5 IRanWt=     -1 IRanGd=            0 ICorTp=0 IEmpDi=  4
 NAtoms=   14 NActive=   14 NUniq=   14 SFac= 1.00D+00 NAtFMM=   60 NAOKFM=F Big=F
 Integral buffers will be    131072 words long.
 Raffenetti 2 integral format.
 Two-electron integral symmetry is turned off.
 Using the following non-standard input for PCM:
 qrep pcmdoc geomview  nodis nocav g03defaults tsare=0.075
 Warning! Using old PCM defaults because the g03defaults keyword was found.
 These settings can be overridden by following keywords.
 nsfe=14
 NVESolv=36  SolvMW=84.1595   Rsolv=2.815
 eps=2.0165 RhoS=0.7781
 --- end of non-standard input.
 Reading user-defined spheres from input:
 ISph  on   Nord    Re0     Alpha      Xe            Ye            Ze
 --- end of user-defined spheres data.
 ------------------------------------------------------------------------------
 Polarizable Continuum Model (PCM)
 =================================
 Model                : PCM.
 Atomic radii         : UA0 (Simple United Atom Topological Model).
 Polarization charges : Total charges.
 Charge compensation  : None.
 Solution method      : On-the-fly selection.
 Cavity type          : SES (Solvent Excluding Surface) (Alpha=1.000).
 Cavity algorithm     : GePol (RMin=0.200 OFac=0.890).
                        User-defined sphere list used, NSphG=   14.
                        Tesserae with average area of 0.075 Ang**2.
                        Smoothing algorithm: None.
                        Polarization charges: point-like.
                        Self-potential: constant (ISelfS= 1).
                        Self-field    : global E.n sum rule (ISelfD= 3).
 Solvent              : CycloHexane, Eps=   2.016500 Eps(inf)=   2.035188
                        RSolv=   2.815000 Ang.
 ------------------------------------------------------------------------------
 Spheres list:
 ISph  on   Nord     Re0    Alpha      Xe            Ye            Ze
    1               1.7000  1.200      0.138413     -1.430211     -0.000144
    2               1.7000  1.200     -1.225538     -0.780080      0.000407
    3               1.7000  1.200     -1.225541      0.780077     -0.000405
    4               1.7000  1.200      0.138410      1.430212      0.000135
    5               1.7000  1.200      1.282673      0.733599      0.000192
    6               1.7000  1.200      1.282675     -0.733596     -0.000186
    7               1.2000  1.200      0.157225     -2.518723     -0.000332
    8               1.2000  1.200     -1.785851     -1.152982     -0.868861
    9               1.2000  1.200     -1.784697      1.152137     -0.870795
   10               1.2000  1.200      0.157219      2.518724      0.000302
   11               1.2000  1.200      2.240035      1.249598      0.000460
   12               1.2000  1.200      2.240037     -1.249594     -0.000454
   13               1.2000  1.200     -1.785840      1.152972      0.868876
   14               1.2000  1.200     -1.784681     -1.152136      0.870808
 ------------------------------------------------------------------------------
 GePol: Number of generator spheres                  =      14
 GePol: Total number of spheres                      =      46
 GePol: Number of exposed spheres                    =      45 ( 97.83%)
 GePol: Number of tesserae                           =    2876
 GePol: Average area of tesserae                     =       0.05 Ang**2
 GePol: Minimum area of tessera                      =   0.10D-02 Ang**2
 GePol: Maximum area of tessera                      =    0.12395 Ang**2
 GePol: Number of small tesserae                     =       0
 GePol: Fraction of small tesserae (<1% of avg)      =       0.00%
 GePol: Total count of vertices                      =   10096
 GePol: Maximum number of vertices in a tessera      =       6
 GePol: Cavity surface area                          =    137.517 Ang**2
 GePol: Cavity volume                                =    128.703 Ang**3
 Leave Link  301 at Thu Jun  4 11:47:15 2020, MaxMem=   104857600 cpu:               0.1 elap:               0.1
 (Enter /home/roberto/software/g16A03/g16/l302.exe)
 NPDir=0 NMtPBC=     1 NCelOv=     1 NCel=       1 NClECP=     1 NCelD=      1
         NCelK=      1 NCelE2=     1 NClLst=     1 CellRange=     0.0.
 One-electron integrals computed using PRISM.
 NBasis=   106 RedAO= T EigKep=  1.02D-03  NBF=   106
 NBsUse=   106 1.00D-06 EigRej= -1.00D+00 NBFU=   106
 Precomputing XC quadrature grid using
 IXCGrd= 4 IRadAn=           5 IRanWt=          -1 IRanGd=           0 AccXCQ= 0.00D+00.
 Generated NRdTot=       0 NPtTot=           0 NUsed=           0 NTot=          32
 NSgBfM=   106   106   106   106   106 MxSgAt=    14 MxSgA2=    14.
 Leave Link  302 at Thu Jun  4 11:47:15 2020, MaxMem=   104857600 cpu:               0.4 elap:               0.1
 (Enter /home/roberto/software/g16A03/g16/l303.exe)
 DipDrv:  MaxL=1.
 Leave Link  303 at Thu Jun  4 11:47:15 2020, MaxMem=   104857600 cpu:               0.0 elap:               0.0
 (Enter /home/roberto/software/g16A03/g16/l401.exe)
 ExpMin= 1.61D-01 ExpMax= 3.05D+03 ExpMxC= 4.57D+02 IAcc=3 IRadAn=         5 AccDes= 0.00D+00
 Harris functional with IExCor=  402 and IRadAn=       5 diagonalized for initial guess.
 HarFok:  IExCor=  402 AccDes= 0.00D+00 IRadAn=         5 IDoV= 1 UseB2=F ITyADJ=14
 ICtDFT=  3500011 ScaDFX=  1.000000  1.000000  1.000000  1.000000
 FoFCou: FMM=F IPFlag=           0 FMFlag=      100000 FMFlg1=           0
         NFxFlg=           0 DoJE=T BraDBF=F KetDBF=T FulRan=T
         wScrn=  0.000000 ICntrl=       500 IOpCl=  0 I1Cent=   200000004 NGrid=           0
         NMat0=    1 NMatS0=      1 NMatT0=    0 NMatD0=    1 NMtDS0=    0 NMtDT0=    0
 Symmetry not used in FoFCou.
 Harris En= -233.459716024146    
 JPrj=0 DoOrth=F DoCkMO=F.
 Leave Link  401 at Thu Jun  4 11:47:15 2020, MaxMem=   104857600 cpu:               3.0 elap:               0.5
 (Enter /home/roberto/software/g16A03/g16/l502.exe)
 Keep R1 ints in memory in canonical form, NReq=21661338.
 FoFCou: FMM=F IPFlag=           0 FMFlag=           0 FMFlg1=           0
         NFxFlg=           0 DoJE=F BraDBF=F KetDBF=F FulRan=T
         wScrn=  0.000000 ICntrl=       600 IOpCl=  0 I1Cent=           0 NGrid=           0
         NMat0=    1 NMatS0=   5671 NMatT0=    0 NMatD0=    1 NMtDS0=    0 NMtDT0=    0
 Symmetry not used in FoFCou.
 Two-electron integral symmetry not used.
 Closed shell SCF:
 Using DIIS extrapolation, IDIIS=  1040.
 NGot=   104857600 LenX=    88750400 LenY=    88738723
 Requested convergence on RMS density matrix=1.00D-08 within 128 cycles.
 Requested convergence on MAX density matrix=1.00D-06.
 Requested convergence on             energy=1.00D-06.
 No special actions if energy rises.

 Cycle   1  Pass 1  IDiag  1:
 Inv3:  Mode=1 IEnd=    24814128.
 Iteration    1 A*A^-1 deviation from unit magnitude is 6.22D-15 for   2876.
 Iteration    1 A*A^-1 deviation from orthogonality  is 3.32D-15 for   1145   1132.
 Iteration    1 A^-1*A deviation from unit magnitude is 5.77D-15 for   2862.
 Iteration    1 A^-1*A deviation from orthogonality  is 2.28D-15 for   2873   2844.
 E= -233.233596288558    
 DIIS: error= 4.82D-02 at cycle   1 NSaved=   1.
 NSaved= 1 IEnMin= 1 EnMin= -233.233596288558     IErMin= 1 ErrMin= 4.82D-02
 ErrMax= 4.82D-02  0.00D+00 EMaxC= 1.00D-01 BMatC= 1.56D-01 BMatP= 1.56D-01
 IDIUse=3 WtCom= 5.18D-01 WtEn= 4.82D-01
 Coeff-Com:  0.100D+01
 Coeff-En:   0.100D+01
 Coeff:      0.100D+01
 Gap=     0.184 Goal=   None    Shift=    0.000
 GapD=    0.184 DampG=1.000 DampE=0.500 DampFc=0.5000 IDamp=-1.
 Damping current iteration by 5.00D-01
 RMSDP=8.65D-03 MaxDP=1.18D-01              OVMax= 1.55D-01

 Cycle   2  Pass 1  IDiag  1:
 E= -233.316470265149     Delta-E=       -0.082873976591 Rises=F Damp=T
 DIIS: error= 8.59D-03 at cycle   2 NSaved=   2.
 NSaved= 2 IEnMin= 2 EnMin= -233.316470265149     IErMin= 2 ErrMin= 8.59D-03
 ErrMax= 8.59D-03  0.00D+00 EMaxC= 1.00D-01 BMatC= 7.98D-03 BMatP= 1.56D-01
 IDIUse=3 WtCom= 9.14D-01 WtEn= 8.59D-02
 Coeff-Com:  0.269D-01 0.973D+00
 Coeff-En:   0.424D-01 0.958D+00
 Coeff:      0.282D-01 0.972D+00
 Gap=     0.187 Goal=   None    Shift=    0.000
 RMSDP=1.99D-03 MaxDP=2.11D-02 DE=-8.29D-02 OVMax= 8.87D-02

 Cycle   3  Pass 1  IDiag  1:
 E= -233.410060486419     Delta-E=       -0.093590221271 Rises=F Damp=F
 DIIS: error= 4.97D-03 at cycle   3 NSaved=   3.
 NSaved= 3 IEnMin= 3 EnMin= -233.410060486419     IErMin= 3 ErrMin= 4.97D-03
 ErrMax= 4.97D-03  0.00D+00 EMaxC= 1.00D-01 BMatC= 1.69D-03 BMatP= 7.98D-03
 IDIUse=3 WtCom= 9.50D-01 WtEn= 4.97D-02
 Coeff-Com: -0.311D-01 0.282D+00 0.749D+00
 Coeff-En:   0.000D+00 0.000D+00 0.100D+01
 Coeff:     -0.295D-01 0.268D+00 0.761D+00
 Gap=     0.186 Goal=   None    Shift=    0.000
 RMSDP=5.52D-04 MaxDP=5.86D-03 DE=-9.36D-02 OVMax= 1.06D-02

 Cycle   4  Pass 1  IDiag  1:
 E= -233.411479309407     Delta-E=       -0.001418822988 Rises=F Damp=F
 DIIS: error= 1.29D-03 at cycle   4 NSaved=   4.
 NSaved= 4 IEnMin= 4 EnMin= -233.411479309407     IErMin= 4 ErrMin= 1.29D-03
 ErrMax= 1.29D-03  0.00D+00 EMaxC= 1.00D-01 BMatC= 2.01D-04 BMatP= 1.69D-03
 IDIUse=3 WtCom= 9.87D-01 WtEn= 1.29D-02
 Coeff-Com: -0.114D-01 0.557D-01 0.293D+00 0.662D+00
 Coeff-En:   0.000D+00 0.000D+00 0.000D+00 0.100D+01
 Coeff:     -0.112D-01 0.550D-01 0.290D+00 0.667D+00
 Gap=     0.186 Goal=   None    Shift=    0.000
 RMSDP=1.70D-04 MaxDP=3.71D-03 DE=-1.42D-03 OVMax= 6.88D-03

 Cycle   5  Pass 1  IDiag  1:
 E= -233.411599955875     Delta-E=       -0.000120646468 Rises=F Damp=F
 DIIS: error= 9.18D-04 at cycle   5 NSaved=   5.
 NSaved= 5 IEnMin= 5 EnMin= -233.411599955875     IErMin= 5 ErrMin= 9.18D-04
 ErrMax= 9.18D-04  0.00D+00 EMaxC= 1.00D-01 BMatC= 7.33D-05 BMatP= 2.01D-04
 IDIUse=3 WtCom= 9.91D-01 WtEn= 9.18D-03
 Coeff-Com: -0.419D-02 0.881D-02 0.111D+00 0.418D+00 0.466D+00
 Coeff-En:   0.000D+00 0.000D+00 0.000D+00 0.279D+00 0.721D+00
 Coeff:     -0.415D-02 0.873D-02 0.110D+00 0.417D+00 0.469D+00
 Gap=     0.186 Goal=   None    Shift=    0.000
 RMSDP=7.74D-05 MaxDP=1.65D-03 DE=-1.21D-04 OVMax= 3.67D-03

 Cycle   6  Pass 1  IDiag  1:
 E= -233.411670163071     Delta-E=       -0.000070207196 Rises=F Damp=F
 DIIS: error= 1.53D-04 at cycle   6 NSaved=   6.
 NSaved= 6 IEnMin= 6 EnMin= -233.411670163071     IErMin= 6 ErrMin= 1.53D-04
 ErrMax= 1.53D-04  0.00D+00 EMaxC= 1.00D-01 BMatC= 2.62D-06 BMatP= 7.33D-05
 IDIUse=3 WtCom= 9.98D-01 WtEn= 1.53D-03
 Coeff-Com: -0.199D-02 0.310D-02 0.532D-01 0.216D+00 0.274D+00 0.455D+00
 Coeff-En:   0.000D+00 0.000D+00 0.000D+00 0.000D+00 0.000D+00 0.100D+01
 Coeff:     -0.199D-02 0.309D-02 0.531D-01 0.216D+00 0.274D+00 0.456D+00
 Gap=     0.186 Goal=   None    Shift=    0.000
 RMSDP=1.66D-05 MaxDP=2.84D-04 DE=-7.02D-05 OVMax= 5.58D-04

 Cycle   7  Pass 1  IDiag  1:
 E= -233.411672969131     Delta-E=       -0.000002806060 Rises=F Damp=F
 DIIS: error= 1.03D-05 at cycle   7 NSaved=   7.
 NSaved= 7 IEnMin= 7 EnMin= -233.411672969131     IErMin= 7 ErrMin= 1.03D-05
 ErrMax= 1.03D-05  0.00D+00 EMaxC= 1.00D-01 BMatC= 1.55D-08 BMatP= 2.62D-06
 IDIUse=1 WtCom= 1.00D+00 WtEn= 0.00D+00
 Coeff-Com:  0.146D-04-0.353D-03 0.134D-03 0.429D-02 0.116D-01 0.814D-01
 Coeff-Com:  0.903D+00
 Coeff:      0.146D-04-0.353D-03 0.134D-03 0.429D-02 0.116D-01 0.814D-01
 Coeff:      0.903D+00
 Gap=     0.186 Goal=   None    Shift=    0.000
 RMSDP=1.30D-06 MaxDP=1.89D-05 DE=-2.81D-06 OVMax= 4.89D-05

 Cycle   8  Pass 1  IDiag  1:
 E= -233.411672985587     Delta-E=       -0.000000016456 Rises=F Damp=F
 DIIS: error= 1.15D-06 at cycle   8 NSaved=   8.
 NSaved= 8 IEnMin= 8 EnMin= -233.411672985587     IErMin= 8 ErrMin= 1.15D-06
 ErrMax= 1.15D-06  0.00D+00 EMaxC= 1.00D-01 BMatC= 7.68D-11 BMatP= 1.55D-08
 IDIUse=1 WtCom= 1.00D+00 WtEn= 0.00D+00
 Coeff-Com:  0.200D-04-0.627D-04-0.586D-03-0.193D-02-0.158D-02 0.376D-02
 Coeff-Com:  0.938D-01 0.907D+00
 Coeff:      0.200D-04-0.627D-04-0.586D-03-0.193D-02-0.158D-02 0.376D-02
 Coeff:      0.938D-01 0.907D+00
 Gap=     0.186 Goal=   None    Shift=    0.000
 RMSDP=1.35D-07 MaxDP=1.22D-06 DE=-1.65D-08 OVMax= 3.27D-06

 Cycle   9  Pass 1  IDiag  1:
 E= -233.411672985677     Delta-E=       -0.000000000090 Rises=F Damp=F
 DIIS: error= 2.15D-07 at cycle   9 NSaved=   9.
 NSaved= 9 IEnMin= 9 EnMin= -233.411672985677     IErMin= 9 ErrMin= 2.15D-07
 ErrMax= 2.15D-07  0.00D+00 EMaxC= 1.00D-01 BMatC= 3.52D-12 BMatP= 7.68D-11
 IDIUse=1 WtCom= 1.00D+00 WtEn= 0.00D+00
 Coeff-Com:  0.308D-05-0.439D-05-0.114D-03-0.452D-03-0.467D-03-0.736D-03
 Coeff-Com:  0.228D-02 0.187D+00 0.813D+00
 Coeff:      0.308D-05-0.439D-05-0.114D-03-0.452D-03-0.467D-03-0.736D-03
 Coeff:      0.228D-02 0.187D+00 0.813D+00
 Gap=     0.186 Goal=   None    Shift=    0.000
 RMSDP=2.69D-08 MaxDP=2.42D-07 DE=-9.01D-11 OVMax= 7.41D-07

 Cycle  10  Pass 1  IDiag  1:
 E= -233.411672985679     Delta-E=       -0.000000000002 Rises=F Damp=F
 DIIS: error= 2.53D-08 at cycle  10 NSaved=  10.
 NSaved=10 IEnMin=10 EnMin= -233.411672985679     IErMin=10 ErrMin= 2.53D-08
 ErrMax= 2.53D-08  0.00D+00 EMaxC= 1.00D-01 BMatC= 3.52D-14 BMatP= 3.52D-12
 IDIUse=1 WtCom= 1.00D+00 WtEn= 0.00D+00
 Coeff-Com: -0.113D-06 0.658D-06 0.401D-06-0.939D-05-0.157D-04-0.142D-03
 Coeff-Com: -0.133D-02-0.185D-02 0.578D-01 0.946D+00
 Coeff:     -0.113D-06 0.658D-06 0.401D-06-0.939D-05-0.157D-04-0.142D-03
 Coeff:     -0.133D-02-0.185D-02 0.578D-01 0.946D+00
 Gap=     0.186 Goal=   None    Shift=    0.000
 RMSDP=3.68D-09 MaxDP=5.62D-08 DE=-2.39D-12 OVMax= 1.62D-07

 Error on total polarization charges =  0.00661
 SCF Done:  E(RB3LYP) =  -233.411672986     A.U. after   10 cycles
            NFock= 10  Conv=0.37D-08     -V/T= 2.0101
 KE= 2.310804734299D+02 PE=-9.740691737116D+02 EE= 2.924945788758D+02
 --------------------------------------------------------------------
 Variational PCM results
 =======================
 <psi(f)|   H    |psi(f)>                     (a.u.) =    -233.415794
 <psi(f)|H+V(f)/2|psi(f)>                     (a.u.) =    -233.416738
 Total free energy in solution:
 - with all non electrostatic terms           (a.u.) =    -233.411673
 --------------------------------------------------------------------
 (Polarized solute)-Solvent               (kcal/mol) =      -0.59
 --------------------------------------------------------------------
 Quantum repulsion energy                 (kcal/mol) =       3.18
 Total non electrostatic                  (kcal/mol) =       3.18
 --------------------------------------------------------------------
 Partition over spheres:
 Sphere  on Atom  Surface  Charge   GEl     GCav    GDR
    1               8.14   0.011   -0.05    0.00    0.00
    2               3.82   0.001    0.00    0.00    0.00
    3               3.82   0.001    0.00    0.00    0.00
    4               8.14   0.011   -0.05    0.00    0.00
    5               8.21   0.012   -0.08    0.00    0.00
    6               8.21   0.012   -0.08    0.00    0.00
    7               7.57  -0.009   -0.03    0.00    0.00
    8               6.88  -0.007   -0.02    0.00    0.00
    9               6.88  -0.007   -0.02    0.00    0.00
   10               7.57  -0.009   -0.03    0.00    0.00
   11               7.56  -0.009   -0.02    0.00    0.00
   12               7.56  -0.009   -0.02    0.00    0.00
   13               6.88  -0.007   -0.02    0.00    0.00
   14               6.88  -0.007   -0.02    0.00    0.00
 Added spheres:    39.39   0.008   -0.15    0.00    0.00
 --------------------------------------------------------------------
 After PCM corrections, the energy is  -233.411672986     a.u.
 --------------------------------------------------------------------
 Leave Link  502 at Thu Jun  4 11:47:33 2020, MaxMem=   104857600 cpu:              90.0 elap:              17.7
 (Enter /home/roberto/software/g16A03/g16/l601.exe)
 Copying SCF densities to generalized density rwf, IOpCl= 0 IROHF=0.

 **********************************************************************

            Population analysis using the SCF density.

 **********************************************************************

 Alpha  occ. eigenvalues --  -10.18491 -10.18474 -10.17941 -10.17941 -10.17558
 Alpha  occ. eigenvalues --  -10.17526  -0.82440  -0.73518  -0.73371  -0.61514
 Alpha  occ. eigenvalues --   -0.58195  -0.49636  -0.46678  -0.44749  -0.41711
 Alpha  occ. eigenvalues --   -0.40614  -0.37949  -0.35998  -0.32545  -0.31521
 Alpha  occ. eigenvalues --   -0.30187  -0.20066
 Alpha virt. eigenvalues --   -0.01460   0.09729   0.10834   0.13292   0.13762
 Alpha virt. eigenvalues --    0.15282   0.17156   0.17411   0.20280   0.23658
 Alpha virt. eigenvalues --    0.23853   0.25576   0.27408   0.34575   0.45494
 Alpha virt. eigenvalues --    0.48929   0.51922   0.53787   0.54270   0.58583
 Alpha virt. eigenvalues --    0.59586   0.61475   0.63158   0.63697   0.64677
 Alpha virt. eigenvalues --    0.66789   0.68924   0.71051   0.71526   0.77064
 Alpha virt. eigenvalues --    0.85362   0.85508   0.86602   0.88174   0.88636
 Alpha virt. eigenvalues --    0.91499   0.92905   0.93733   0.94264   0.95530
 Alpha virt. eigenvalues --    0.97448   1.07179   1.12682   1.18385   1.21479
 Alpha virt. eigenvalues --    1.27495   1.34236   1.46867   1.47759   1.50899
 Alpha virt. eigenvalues --    1.51711   1.69294   1.70476   1.82132   1.84457
 Alpha virt. eigenvalues --    1.87932   1.89483   1.90759   2.00614   2.00761
 Alpha virt. eigenvalues --    2.01427   2.11897   2.14986   2.20471   2.21696
 Alpha virt. eigenvalues --    2.23237   2.33618   2.35357   2.44511   2.49238
 Alpha virt. eigenvalues --    2.54712   2.59286   2.63958   2.66457   2.69169
 Alpha virt. eigenvalues --    2.72198   2.98242   3.22157   4.07960   4.16434
 Alpha virt. eigenvalues --    4.17613   4.34829   4.40494   4.66929
          Condensed to atoms (all electrons):
               1          2          3          4          5          6
     1  C    4.912078   0.370842  -0.026511  -0.029095  -0.032519   0.675490
     2  C    0.370842   5.059807   0.338887  -0.026511  -0.030825  -0.026079
     3  C   -0.026511   0.338887   5.059807   0.370841  -0.026079  -0.030825
     4  C   -0.029095  -0.026511   0.370841   4.912079   0.675490  -0.032519
     5  C   -0.032519  -0.030825  -0.026079   0.675490   4.843399   0.419279
     6  C    0.675490  -0.026079  -0.030825  -0.032519   0.419279   4.843399
     7  H    0.362360  -0.052615   0.004103   0.000072   0.005518  -0.036365
     8  H   -0.033667   0.368779  -0.030847   0.001603   0.001336  -0.001406
     9  H    0.001595  -0.030851   0.368767  -0.033684  -0.001425   0.001340
    10  H    0.000072   0.004103  -0.052615   0.362360  -0.036365   0.005518
    11  H    0.006003  -0.000109   0.006413  -0.050077   0.364207  -0.047691
    12  H   -0.050077   0.006413  -0.000109   0.006003  -0.047691   0.364207
    13  H    0.001603  -0.030848   0.368780  -0.033668  -0.001406   0.001336
    14  H   -0.033684   0.368768  -0.030852   0.001595   0.001340  -0.001425
               7          8          9         10         11         12
     1  C    0.362360  -0.033667   0.001595   0.000072   0.006003  -0.050077
     2  C   -0.052615   0.368779  -0.030851   0.004103  -0.000109   0.006413
     3  C    0.004103  -0.030847   0.368767  -0.052615   0.006413  -0.000109
     4  C    0.000072   0.001603  -0.033684   0.362360  -0.050077   0.006003
     5  C    0.005518   0.001336  -0.001425  -0.036365   0.364207  -0.047691
     6  C   -0.036365  -0.001406   0.001340   0.005518  -0.047691   0.364207
     7  H    0.593214  -0.000590  -0.000121   0.000008  -0.000149  -0.008251
     8  H   -0.000590   0.586307  -0.011335  -0.000121   0.000011  -0.000170
     9  H   -0.000121  -0.011335   0.586323  -0.000577  -0.000170   0.000011
    10  H    0.000008  -0.000121  -0.000577   0.593214  -0.008251  -0.000149
    11  H   -0.000149   0.000011  -0.000170  -0.008251   0.603613  -0.005534
    12  H   -0.008251  -0.000170   0.000011  -0.000149  -0.005534   0.603613
    13  H   -0.000121   0.004395  -0.040835  -0.000590  -0.000170   0.000011
    14  H   -0.000577  -0.040835   0.004405  -0.000121   0.000011  -0.000170
              13         14
     1  C    0.001603  -0.033684
     2  C   -0.030848   0.368768
     3  C    0.368780  -0.030852
     4  C   -0.033668   0.001595
     5  C   -0.001406   0.001340
     6  C    0.001336  -0.001425
     7  H   -0.000121  -0.000577
     8  H    0.004395  -0.040835
     9  H   -0.040835   0.004405
    10  H   -0.000590  -0.000121
    11  H   -0.000170   0.000011
    12  H    0.000011  -0.000170
    13  H    0.586307  -0.011336
    14  H   -0.011336   0.586323
 Mulliken charges:
               1
     1  C   -0.124489
     2  C   -0.319760
     3  C   -0.319760
     4  C   -0.124489
     5  C   -0.134259
     6  C   -0.134259
     7  H    0.133513
     8  H    0.156543
     9  H    0.156559
    10  H    0.133513
    11  H    0.131893
    12  H    0.131893
    13  H    0.156543
    14  H    0.156559
 Sum of Mulliken charges =   0.00000
 Mulliken charges with hydrogens summed into heavy atoms:
               1
     1  C    0.009024
     2  C   -0.006658
     3  C   -0.006658
     4  C    0.009024
     5  C   -0.002365
     6  C   -0.002365
 Electronic spatial extent (au):  <R**2>=            519.4315
 Charge=              0.0000 electrons
 Dipole moment (field-independent basis, Debye):
    X=             -0.6356    Y=              0.0000    Z=              0.0000  Tot=              0.6356
 Quadrupole moment (field-independent basis, Debye-Ang):
   XX=            -33.8225   YY=            -34.1665   ZZ=            -38.4905
   XY=              0.0000   XZ=              0.0000   YZ=              0.0005
 Traceless Quadrupole moment (field-independent basis, Debye-Ang):
   XX=              1.6707   YY=              1.3267   ZZ=             -2.9974
   XY=              0.0000   XZ=              0.0000   YZ=              0.0005
 Octapole moment (field-independent basis, Debye-Ang**2):
  XXX=              3.9351  YYY=              0.0000  ZZZ=              0.0000  XYY=             -0.2029
  XXY=              0.0000  XXZ=              0.0000  XZZ=             -3.9830  YZZ=              0.0000
  YYZ=             -0.0001  XYZ=              0.0008
 Hexadecapole moment (field-independent basis, Debye-Ang**3):
 XXXX=           -317.5568 YYYY=           -304.1448 ZZZZ=            -52.8841 XXXY=              0.0000
 XXXZ=              0.0001 YYYX=              0.0000 YYYZ=              0.0071 ZZZX=             -0.0001
 ZZZY=             -0.0055 XXYY=           -105.5821 XXZZ=            -63.8040 YYZZ=            -66.7658
 XXYZ=              0.0067 YYXZ=              0.0000 ZZXY=              0.0000
 N-N= 2.170824484202D+02 E-N=-9.740691736944D+02  KE= 2.310804734299D+02
 No NMR shielding tensors so no spin-rotation constants.
 Leave Link  601 at Thu Jun  4 11:47:33 2020, MaxMem=   104857600 cpu:               0.3 elap:               0.1
 (Enter /home/roberto/software/g16A03/g16/l9999.exe)
 1\1\GINC-ROBERTO-XPS-15-9570\SP\RB3LYP\6-31G(d)\C6H8\ROBERTO\04-Jun-20
 20\0\\#p b3lyp/6-31g(d) # scrf=(iefpcm,solvent=Cyclohexane,read) nosym
 \\Cycloexadiene, E(B3LYP/6-31G*) xp-pcm for eta=3\\0,1\C,0,0.138413,-1
 .430211,-0.000144\C,0,-1.225538,-0.78008,0.000407\C,0,-1.225541,0.7800
 77,-0.000405\C,0,0.13841,1.430212,0.000135\C,0,1.282673,0.733599,0.000
 192\C,0,1.282675,-0.733596,-0.000186\H,0,0.157225,-2.518723,-0.000332\
 H,0,-1.785851,-1.152982,-0.868861\H,0,-1.784697,1.152137,-0.870795\H,0
 ,0.157219,2.518724,0.000302\H,0,2.240035,1.249598,0.00046\H,0,2.240037
 ,-1.249594,-0.000454\H,0,-1.78584,1.152972,0.868876\H,0,-1.784681,-1.1
 52136,0.870808\\Version=ES64L-G16RevA.03\HF=-233.411673\RMSD=3.677e-09
 \Dipole=-0.2500769,-0.0000011,-0.0000006\Quadrupole=1.242103,0.986361,
 -2.2284641,-0.0000014,0.0000002,0.0003409\PG=C01 [X(C6H8)]\\@


 IF YOU WISH TO UNDERSTAND THE FRAGRANCE OF THE ROSE, 
 OR THE TENACITY OF THE OAK; 
 IF YOU ARE NOT SATISFIED UNTIL YOU KNOW THE SECRET PATHS 
 BY WHICH THE SUNSHINE AND THE AIR ACHIEVE THESE WONDERS; 
 IF YOU WISH TO SEE THE PATTERN WHICH UNDERLIES ONE LARGE FIELD OF 
 HUMAN EXPERIENCE AND HUMAN MEASUREMENT, THEN TAKE UP CHEMISTRY.

                                         -- C. A. COULSON, 1973.
 Job cpu time:       0 days  0 hours  1 minutes 34.1 seconds.
 Elapsed time:       0 days  0 hours  0 minutes 18.7 seconds.
 File lengths (MBytes):  RWF=    151 Int=      0 D2E=      0 Chk=      3 Scr=      1
 Normal termination of Gaussian 16 at Thu Jun  4 11:47:33 2020.
 Initial command:
 /home/roberto/software/g16A03/g16/l1.exe "/home/roberto/scr/Gau-21021.inp" -scrdir="/home/roberto/scr/"
 Entering Link 1 = /home/roberto/software/g16A03/g16/l1.exe PID=     21075.
  
 Copyright (c) 1988,1990,1992,1993,1995,1998,2003,2009,2016,
            Gaussian, Inc.  All Rights Reserved.
  
 This is part of the Gaussian(R) 16 program.  It is based on
 the Gaussian(R) 09 system (copyright 2009, Gaussian, Inc.),
 the Gaussian(R) 03 system (copyright 2003, Gaussian, Inc.),
 the Gaussian(R) 98 system (copyright 1998, Gaussian, Inc.),
 the Gaussian(R) 94 system (copyright 1995, Gaussian, Inc.),
 the Gaussian 92(TM) system (copyright 1992, Gaussian, Inc.),
 the Gaussian 90(TM) system (copyright 1990, Gaussian, Inc.),
 the Gaussian 88(TM) system (copyright 1988, Gaussian, Inc.),
 the Gaussian 86(TM) system (copyright 1986, Carnegie Mellon
 University), and the Gaussian 82(TM) system (copyright 1983,
 Carnegie Mellon University). Gaussian is a federally registered
 trademark of Gaussian, Inc.
  
 This software contains proprietary and confidential information,
 including trade secrets, belonging to Gaussian, Inc.
  
 This software is provided under written license and may be
 used, copied, transmitted, or stored only in accord with that
 written license.
  
 The following legend is applicable only to US Government
 contracts under FAR:
  
                    RESTRICTED RIGHTS LEGEND
  
 Use, reproduction and disclosure by the US Government is
 subject to restrictions as set forth in subparagraphs (a)
 and (c) of the Commercial Computer Software - Restricted
 Rights clause in FAR 52.227-19.
  
 Gaussian, Inc.
 340 Quinnipiac St., Bldg. 40, Wallingford CT 06492
  
  
 ---------------------------------------------------------------
 Warning -- This program may not be used in any manner that
 competes with the business of Gaussian, Inc. or will provide
 assistance to any competitor of Gaussian, Inc.  The licensee
 of this program is prohibited from giving any competitor of
 Gaussian, Inc. access to this program.  By using this program,
 the user acknowledges that Gaussian, Inc. is engaged in the
 business of creating and licensing software in the field of
 computational chemistry and represents and warrants to the
 licensee that it is not a competitor of Gaussian, Inc. and that
 it will not use this program in any manner prohibited above.
 ---------------------------------------------------------------
  

 Cite this work as:
 Gaussian 16, Revision A.03,
 M. J. Frisch, G. W. Trucks, H. B. Schlegel, G. E. Scuseria, 
 M. A. Robb, J. R. Cheeseman, G. Scalmani, V. Barone, 
 G. A. Petersson, H. Nakatsuji, X. Li, M. Caricato, A. V. Marenich, 
 J. Bloino, B. G. Janesko, R. Gomperts, B. Mennucci, H. P. Hratchian, 
 J. V. Ortiz, A. F. Izmaylov, J. L. Sonnenberg, D. Williams-Young, 
 F. Ding, F. Lipparini, F. Egidi, J. Goings, B. Peng, A. Petrone, 
 T. Henderson, D. Ranasinghe, V. G. Zakrzewski, J. Gao, N. Rega, 
 G. Zheng, W. Liang, M. Hada, M. Ehara, K. Toyota, R. Fukuda, 
 J. Hasegawa, M. Ishida, T. Nakajima, Y. Honda, O. Kitao, H. Nakai, 
 T. Vreven, K. Throssell, J. A. Montgomery, Jr., J. E. Peralta, 
 F. Ogliaro, M. J. Bearpark, J. J. Heyd, E. N. Brothers, K. N. Kudin, 
 V. N. Staroverov, T. A. Keith, R. Kobayashi, J. Normand, 
 K. Raghavachari, A. P. Rendell, J. C. Burant, S. S. Iyengar, 
 J. Tomasi, M. Cossi, J. M. Millam, M. Klene, C. Adamo, R. Cammi, 
 J. W. Ochterski, R. L. Martin, K. Morokuma, O. Farkas, 
 J. B. Foresman, and D. J. Fox, Gaussian, Inc., Wallingford CT, 2016.
 
 ******************************************
 Gaussian 16:  ES64L-G16RevA.03 25-Dec-2016
                 4-Jun-2020 
 ******************************************
 %chk=1b_xp-115.chk
 %nproc=6
 Will use up to    6 processors via shared memory.
 ----------------------------------------------------------------
 #p b3lyp/6-31g(d) # scrf=(iefpcm,solvent=Cyclohexane,read) nosym
 ----------------------------------------------------------------
 1/38=1,40=2,172=1/1;
 2/12=2,15=1,17=6,18=5,40=1/2;
 3/5=1,6=6,7=1,11=2,25=1,30=1,70=2203,72=17,74=-5/1,2,3;
 4//1;
 5/5=2,38=5,53=17/2;
 6/7=2,8=2,9=2,10=2,28=1/1;
 99/5=1,9=1/99;
 Leave Link    1 at Thu Jun  4 11:47:33 2020, MaxMem=           0 cpu:               0.0 elap:               0.0
 (Enter /home/roberto/software/g16A03/g16/l101.exe)
 -----------------------------------------------
 Cycloexadiene, E(B3LYP/6-31G*) xp-pcm for eta=3
 -----------------------------------------------
 Symbolic Z-matrix:
 Charge =  0 Multiplicity = 1
 C                     0.13841  -1.43021  -0.00014 
 C                    -1.22554  -0.78008   0.00041 
 C                    -1.22554   0.78008  -0.00041 
 C                     0.13841   1.43021   0.00014 
 C                     1.28267   0.7336    0.00019 
 C                     1.28268  -0.7336   -0.00019 
 H                     0.15723  -2.51872  -0.00033 
 H                    -1.78585  -1.15298  -0.86886 
 H                    -1.7847    1.15214  -0.8708 
 H                     0.15722   2.51872   0.0003 
 H                     2.24004   1.2496    0.00046 
 H                     2.24004  -1.24959  -0.00045 
 H                    -1.78584   1.15297   0.86888 
 H                    -1.78468  -1.15214   0.87081 
 
 ITRead=  0  0  0  0  0  0  0  0  0  0  0  0  0  0
 MicOpt= -1 -1 -1 -1 -1 -1 -1 -1 -1 -1 -1 -1 -1 -1
 NAtoms=     14 NQM=       14 NQMF=       0 NMMI=      0 NMMIF=      0
                NMic=       0 NMicF=      0.
                    Isotopes and Nuclear Properties:
 (Nuclear quadrupole moments (NQMom) in fm**2, nuclear magnetic moments (NMagM)
  in nuclear magnetons)

  Atom         1           2           3           4           5           6           7           8           9          10
 IAtWgt=          12          12          12          12          12          12           1           1           1           1
 AtmWgt=  12.0000000  12.0000000  12.0000000  12.0000000  12.0000000  12.0000000   1.0078250   1.0078250   1.0078250   1.0078250
 NucSpn=           0           0           0           0           0           0           1           1           1           1
 AtZEff=   0.0000000   0.0000000   0.0000000   0.0000000   0.0000000   0.0000000   0.0000000   0.0000000   0.0000000   0.0000000
 NQMom=    0.0000000   0.0000000   0.0000000   0.0000000   0.0000000   0.0000000   0.0000000   0.0000000   0.0000000   0.0000000
 NMagM=    0.0000000   0.0000000   0.0000000   0.0000000   0.0000000   0.0000000   2.7928460   2.7928460   2.7928460   2.7928460
 AtZNuc=   6.0000000   6.0000000   6.0000000   6.0000000   6.0000000   6.0000000   1.0000000   1.0000000   1.0000000   1.0000000

  Atom        11          12          13          14
 IAtWgt=           1           1           1           1
 AtmWgt=   1.0078250   1.0078250   1.0078250   1.0078250
 NucSpn=           1           1           1           1
 AtZEff=   0.0000000   0.0000000   0.0000000   0.0000000
 NQMom=    0.0000000   0.0000000   0.0000000   0.0000000
 NMagM=    2.7928460   2.7928460   2.7928460   2.7928460
 AtZNuc=   1.0000000   1.0000000   1.0000000   1.0000000
 Leave Link  101 at Thu Jun  4 11:47:33 2020, MaxMem=   104857600 cpu:               0.1 elap:               0.1
 (Enter /home/roberto/software/g16A03/g16/l202.exe)
                          Input orientation:                          
 ---------------------------------------------------------------------
 Center     Atomic      Atomic             Coordinates (Angstroms)
 Number     Number       Type             X           Y           Z
 ---------------------------------------------------------------------
      1          6           0        0.138413   -1.430211   -0.000144
      2          6           0       -1.225538   -0.780080    0.000407
      3          6           0       -1.225541    0.780077   -0.000405
      4          6           0        0.138410    1.430212    0.000135
      5          6           0        1.282673    0.733599    0.000192
      6          6           0        1.282675   -0.733596   -0.000186
      7          1           0        0.157225   -2.518723   -0.000332
      8          1           0       -1.785851   -1.152982   -0.868861
      9          1           0       -1.784697    1.152137   -0.870795
     10          1           0        0.157219    2.518724    0.000302
     11          1           0        2.240035    1.249598    0.000460
     12          1           0        2.240037   -1.249594   -0.000454
     13          1           0       -1.785840    1.152972    0.868876
     14          1           0       -1.784681   -1.152136    0.870808
 ---------------------------------------------------------------------
                    Distance matrix (angstroms):
                    1          2          3          4          5
     1  C    0.000000
     2  C    1.510971   0.000000
     3  C    2.597257   1.560157   0.000000
     4  C    2.860423   2.597257   1.510973   0.000000
     5  C    2.447735   2.929564   2.508645   1.339630   0.000000
     6  C    1.339630   2.508644   2.929565   2.447735   1.467195
     7  H    1.088675   2.221467   3.576887   3.948980   3.441545
     8  H    2.129394   1.099379   2.192004   3.336289   3.705439
     9  H    3.335402   2.192057   1.099392   2.129363   3.215984
    10  H    3.948980   3.576888   2.221468   1.088675   2.110289
    11  H    3.405612   4.016191   3.497237   2.109372   1.087565
    12  H    2.109371   3.497235   4.016192   3.405613   2.202181
    13  H    3.336282   2.192001   1.099379   2.129392   3.216560
    14  H    2.129360   1.099393   2.192053   3.335397   3.704407
                    6          7          8          9         10
     6  C    0.000000
     7  H    2.110288   0.000000
     8  H    3.216572   2.528861   0.000000
     9  H    3.704419   4.243110   2.305120   0.000000
    10  H    3.441546   5.037447   4.244101   2.529310   0.000000
    11  H    2.202180   4.305617   4.768214   4.119108   2.439017
    12  H    1.087564   2.439015   4.119616   4.767000   4.305619
    13  H    3.705427   4.244098   2.887413   1.739672   2.528869
    14  H    3.215972   2.529317   1.739670   2.888400   4.243108
                   11         12         13         14
    11  H    0.000000
    12  H    2.499192   0.000000
    13  H    4.119606   4.768201   0.000000
    14  H    4.766988   4.119096   2.305109   0.000000
 Symmetry turned off by external request.
 Stoichiometry    C6H8
 Framework group  C1[X(C6H8)]
 Deg. of freedom    36
 Full point group                 C1      NOp   1
 Rotational constants (GHZ):           5.0061053           4.9553097           2.5674659
 Leave Link  202 at Thu Jun  4 11:47:33 2020, MaxMem=   104857600 cpu:               0.0 elap:               0.0
 (Enter /home/roberto/software/g16A03/g16/l301.exe)
 Standard basis: 6-31G(d) (6D, 7F)
 Ernie: Thresh=  0.10000D-02 Tol=  0.10000D-05 Strict=F.
   106 basis functions,   200 primitive gaussians,   106 cartesian basis functions
    22 alpha electrons       22 beta electrons
       nuclear repulsion energy       217.0824484202 Hartrees.
 IExCor=  402 DFT=T Ex+Corr=B3LYP ExCW=0 ScaHFX=  0.200000
 ScaDFX=  0.800000  0.720000  1.000000  0.810000 ScalE2=  1.000000  1.000000
 IRadAn=      5 IRanWt=     -1 IRanGd=            0 ICorTp=0 IEmpDi=  4
 NAtoms=   14 NActive=   14 NUniq=   14 SFac= 1.00D+00 NAtFMM=   60 NAOKFM=F Big=F
 Integral buffers will be    131072 words long.
 Raffenetti 2 integral format.
 Two-electron integral symmetry is turned off.
 Using the following non-standard input for PCM:
 qrep pcmdoc geomview  nodis nocav g03defaults tsare=0.075
 Warning! Using old PCM defaults because the g03defaults keyword was found.
 These settings can be overridden by following keywords.
 nsfe=14
 NVESolv=36  SolvMW=84.1595   Rsolv=2.815
 eps=2.08767670941439 RhoS=0.890882252660888
 --- end of non-standard input.
 Reading user-defined spheres from input:
 ISph  on   Nord    Re0     Alpha      Xe            Ye            Ze
 --- end of user-defined spheres data.
 ------------------------------------------------------------------------------
 Polarizable Continuum Model (PCM)
 =================================
 Model                : PCM.
 Atomic radii         : UA0 (Simple United Atom Topological Model).
 Polarization charges : Total charges.
 Charge compensation  : None.
 Solution method      : On-the-fly selection.
 Cavity type          : SES (Solvent Excluding Surface) (Alpha=1.000).
 Cavity algorithm     : GePol (RMin=0.200 OFac=0.890).
                        User-defined sphere list used, NSphG=   14.
                        Tesserae with average area of 0.075 Ang**2.
                        Smoothing algorithm: None.
                        Polarization charges: point-like.
                        Self-potential: constant (ISelfS= 1).
                        Self-field    : global E.n sum rule (ISelfD= 3).
 Solvent              : CycloHexane, Eps=   2.087677 Eps(inf)=   2.035188
                        RSolv=   2.815000 Ang.
 ------------------------------------------------------------------------------
 Spheres list:
 ISph  on   Nord     Re0    Alpha      Xe            Ye            Ze
    1               1.7000  1.150      0.138413     -1.430211     -0.000144
    2               1.7000  1.150     -1.225538     -0.780080      0.000407
    3               1.7000  1.150     -1.225541      0.780077     -0.000405
    4               1.7000  1.150      0.138410      1.430212      0.000135
    5               1.7000  1.150      1.282673      0.733599      0.000192
    6               1.7000  1.150      1.282675     -0.733596     -0.000186
    7               1.2000  1.150      0.157225     -2.518723     -0.000332
    8               1.2000  1.150     -1.785851     -1.152982     -0.868861
    9               1.2000  1.150     -1.784697      1.152137     -0.870795
   10               1.2000  1.150      0.157219      2.518724      0.000302
   11               1.2000  1.150      2.240035      1.249598      0.000460
   12               1.2000  1.150      2.240037     -1.249594     -0.000454
   13               1.2000  1.150     -1.785840      1.152972      0.868876
   14               1.2000  1.150     -1.784681     -1.152136      0.870808
 ------------------------------------------------------------------------------
 GePol: Number of generator spheres                  =      14
 GePol: Total number of spheres                      =      54
 GePol: Number of exposed spheres                    =      53 ( 98.15%)
 GePol: Number of tesserae                           =    2844
 GePol: Average area of tesserae                     =       0.05 Ang**2
 GePol: Minimum area of tessera                      =   0.10D-02 Ang**2
 GePol: Maximum area of tessera                      =    0.10499 Ang**2
 GePol: Number of small tesserae                     =       0
 GePol: Fraction of small tesserae (<1% of avg)      =       0.00%
 GePol: Total count of vertices                      =    9982
 GePol: Maximum number of vertices in a tessera      =       7
 GePol: Cavity surface area                          =    131.949 Ang**2
 GePol: Cavity volume                                =    119.074 Ang**3
 Leave Link  301 at Thu Jun  4 11:47:34 2020, MaxMem=   104857600 cpu:               0.1 elap:               0.1
 (Enter /home/roberto/software/g16A03/g16/l302.exe)
 NPDir=0 NMtPBC=     1 NCelOv=     1 NCel=       1 NClECP=     1 NCelD=      1
         NCelK=      1 NCelE2=     1 NClLst=     1 CellRange=     0.0.
 One-electron integrals computed using PRISM.
 NBasis=   106 RedAO= T EigKep=  1.02D-03  NBF=   106
 NBsUse=   106 1.00D-06 EigRej= -1.00D+00 NBFU=   106
 Precomputing XC quadrature grid using
 IXCGrd= 4 IRadAn=           5 IRanWt=          -1 IRanGd=           0 AccXCQ= 0.00D+00.
 Generated NRdTot=       0 NPtTot=           0 NUsed=           0 NTot=          32
 NSgBfM=   106   106   106   106   106 MxSgAt=    14 MxSgA2=    14.
 Leave Link  302 at Thu Jun  4 11:47:34 2020, MaxMem=   104857600 cpu:               0.4 elap:               0.1
 (Enter /home/roberto/software/g16A03/g16/l303.exe)
 DipDrv:  MaxL=1.
 Leave Link  303 at Thu Jun  4 11:47:34 2020, MaxMem=   104857600 cpu:               0.0 elap:               0.0
 (Enter /home/roberto/software/g16A03/g16/l401.exe)
 ExpMin= 1.61D-01 ExpMax= 3.05D+03 ExpMxC= 4.57D+02 IAcc=3 IRadAn=         5 AccDes= 0.00D+00
 Harris functional with IExCor=  402 and IRadAn=       5 diagonalized for initial guess.
 HarFok:  IExCor=  402 AccDes= 0.00D+00 IRadAn=         5 IDoV= 1 UseB2=F ITyADJ=14
 ICtDFT=  3500011 ScaDFX=  1.000000  1.000000  1.000000  1.000000
 FoFCou: FMM=F IPFlag=           0 FMFlag=      100000 FMFlg1=           0
         NFxFlg=           0 DoJE=T BraDBF=F KetDBF=T FulRan=T
         wScrn=  0.000000 ICntrl=       500 IOpCl=  0 I1Cent=   200000004 NGrid=           0
         NMat0=    1 NMatS0=      1 NMatT0=    0 NMatD0=    1 NMtDS0=    0 NMtDT0=    0
 Symmetry not used in FoFCou.
 Harris En= -233.459716024146    
 JPrj=0 DoOrth=F DoCkMO=F.
 Leave Link  401 at Thu Jun  4 11:47:34 2020, MaxMem=   104857600 cpu:               3.0 elap:               0.5
 (Enter /home/roberto/software/g16A03/g16/l502.exe)
 Keep R1 ints in memory in canonical form, NReq=21661338.
 FoFCou: FMM=F IPFlag=           0 FMFlag=           0 FMFlg1=           0
         NFxFlg=           0 DoJE=F BraDBF=F KetDBF=F FulRan=T
         wScrn=  0.000000 ICntrl=       600 IOpCl=  0 I1Cent=           0 NGrid=           0
         NMat0=    1 NMatS0=   5671 NMatT0=    0 NMatD0=    1 NMtDS0=    0 NMtDT0=    0
 Symmetry not used in FoFCou.
 Two-electron integral symmetry not used.
 Closed shell SCF:
 Using DIIS extrapolation, IDIIS=  1040.
 NGot=   104857600 LenX=    88750400 LenY=    88738723
 Requested convergence on RMS density matrix=1.00D-08 within 128 cycles.
 Requested convergence on MAX density matrix=1.00D-06.
 Requested convergence on             energy=1.00D-06.
 No special actions if energy rises.

 Cycle   1  Pass 1  IDiag  1:
 Inv3:  Mode=1 IEnd=    24265008.
 Iteration    1 A*A^-1 deviation from unit magnitude is 5.55D-15 for   2842.
 Iteration    1 A*A^-1 deviation from orthogonality  is 3.61D-15 for   2844   2830.
 Iteration    1 A^-1*A deviation from unit magnitude is 5.77D-15 for   2842.
 Iteration    1 A^-1*A deviation from orthogonality  is 4.00D-15 for   2844   2830.
 E= -233.232816066338    
 DIIS: error= 4.81D-02 at cycle   1 NSaved=   1.
 NSaved= 1 IEnMin= 1 EnMin= -233.232816066338     IErMin= 1 ErrMin= 4.81D-02
 ErrMax= 4.81D-02  0.00D+00 EMaxC= 1.00D-01 BMatC= 1.56D-01 BMatP= 1.56D-01
 IDIUse=3 WtCom= 5.19D-01 WtEn= 4.81D-01
 Coeff-Com:  0.100D+01
 Coeff-En:   0.100D+01
 Coeff:      0.100D+01
 Gap=     0.184 Goal=   None    Shift=    0.000
 GapD=    0.184 DampG=1.000 DampE=0.500 DampFc=0.5000 IDamp=-1.
 Damping current iteration by 5.00D-01
 RMSDP=8.52D-03 MaxDP=1.15D-01              OVMax= 1.53D-01

 Cycle   2  Pass 1  IDiag  1:
 E= -233.315441629167     Delta-E=       -0.082625562829 Rises=F Damp=T
 DIIS: error= 8.56D-03 at cycle   2 NSaved=   2.
 NSaved= 2 IEnMin= 2 EnMin= -233.315441629167     IErMin= 2 ErrMin= 8.56D-03
 ErrMax= 8.56D-03  0.00D+00 EMaxC= 1.00D-01 BMatC= 7.86D-03 BMatP= 1.56D-01
 IDIUse=3 WtCom= 9.14D-01 WtEn= 8.56D-02
 Coeff-Com:  0.234D-01 0.977D+00
 Coeff-En:   0.363D-01 0.964D+00
 Coeff:      0.245D-01 0.976D+00
 Gap=     0.187 Goal=   None    Shift=    0.000
 RMSDP=1.96D-03 MaxDP=2.04D-02 DE=-8.26D-02 OVMax= 8.76D-02

 Cycle   3  Pass 1  IDiag  1:
 E= -233.408007406868     Delta-E=       -0.092565777701 Rises=F Damp=F
 DIIS: error= 4.91D-03 at cycle   3 NSaved=   3.
 NSaved= 3 IEnMin= 3 EnMin= -233.408007406868     IErMin= 3 ErrMin= 4.91D-03
 ErrMax= 4.91D-03  0.00D+00 EMaxC= 1.00D-01 BMatC= 1.66D-03 BMatP= 7.86D-03
 IDIUse=3 WtCom= 9.51D-01 WtEn= 4.91D-02
 Coeff-Com: -0.321D-01 0.282D+00 0.750D+00
 Coeff-En:   0.000D+00 0.000D+00 0.100D+01
 Coeff:     -0.305D-01 0.268D+00 0.762D+00
 Gap=     0.186 Goal=   None    Shift=    0.000
 RMSDP=5.42D-04 MaxDP=5.76D-03 DE=-9.26D-02 OVMax= 1.02D-02

 Cycle   4  Pass 1  IDiag  1:
 E= -233.409402459661     Delta-E=       -0.001395052793 Rises=F Damp=F
 DIIS: error= 1.22D-03 at cycle   4 NSaved=   4.
 NSaved= 4 IEnMin= 4 EnMin= -233.409402459661     IErMin= 4 ErrMin= 1.22D-03
 ErrMax= 1.22D-03  0.00D+00 EMaxC= 1.00D-01 BMatC= 1.92D-04 BMatP= 1.66D-03
 IDIUse=3 WtCom= 9.88D-01 WtEn= 1.22D-02
 Coeff-Com: -0.115D-01 0.545D-01 0.291D+00 0.666D+00
 Coeff-En:   0.000D+00 0.000D+00 0.000D+00 0.100D+01
 Coeff:     -0.113D-01 0.538D-01 0.287D+00 0.670D+00
 Gap=     0.186 Goal=   None    Shift=    0.000
 RMSDP=1.64D-04 MaxDP=3.57D-03 DE=-1.40D-03 OVMax= 6.49D-03

 Cycle   5  Pass 1  IDiag  1:
 E= -233.409520430970     Delta-E=       -0.000117971309 Rises=F Damp=F
 DIIS: error= 8.66D-04 at cycle   5 NSaved=   5.
 NSaved= 5 IEnMin= 5 EnMin= -233.409520430970     IErMin= 5 ErrMin= 8.66D-04
 ErrMax= 8.66D-04  0.00D+00 EMaxC= 1.00D-01 BMatC= 6.73D-05 BMatP= 1.92D-04
 IDIUse=3 WtCom= 9.91D-01 WtEn= 8.66D-03
 Coeff-Com: -0.422D-02 0.878D-02 0.110D+00 0.416D+00 0.469D+00
 Coeff-En:   0.000D+00 0.000D+00 0.000D+00 0.267D+00 0.733D+00
 Coeff:     -0.418D-02 0.870D-02 0.109D+00 0.414D+00 0.472D+00
 Gap=     0.186 Goal=   None    Shift=    0.000
 RMSDP=7.38D-05 MaxDP=1.57D-03 DE=-1.18D-04 OVMax= 3.49D-03

 Cycle   6  Pass 1  IDiag  1:
 E= -233.409584537369     Delta-E=       -0.000064106399 Rises=F Damp=F
 DIIS: error= 1.52D-04 at cycle   6 NSaved=   6.
 NSaved= 6 IEnMin= 6 EnMin= -233.409584537369     IErMin= 6 ErrMin= 1.52D-04
 ErrMax= 1.52D-04  0.00D+00 EMaxC= 1.00D-01 BMatC= 2.53D-06 BMatP= 6.73D-05
 IDIUse=3 WtCom= 9.98D-01 WtEn= 1.52D-03
 Coeff-Com: -0.202D-02 0.314D-02 0.531D-01 0.216D+00 0.277D+00 0.453D+00
 Coeff-En:   0.000D+00 0.000D+00 0.000D+00 0.000D+00 0.000D+00 0.100D+01
 Coeff:     -0.201D-02 0.313D-02 0.530D-01 0.215D+00 0.276D+00 0.454D+00
 Gap=     0.186 Goal=   None    Shift=    0.000
 RMSDP=1.61D-05 MaxDP=2.84D-04 DE=-6.41D-05 OVMax= 5.58D-04

 Cycle   7  Pass 1  IDiag  1:
 E= -233.409587240855     Delta-E=       -0.000002703486 Rises=F Damp=F
 DIIS: error= 1.06D-05 at cycle   7 NSaved=   7.
 NSaved= 7 IEnMin= 7 EnMin= -233.409587240855     IErMin= 7 ErrMin= 1.06D-05
 ErrMax= 1.06D-05  0.00D+00 EMaxC= 1.00D-01 BMatC= 1.52D-08 BMatP= 2.53D-06
 IDIUse=1 WtCom= 1.00D+00 WtEn= 0.00D+00
 Coeff-Com:  0.139D-04-0.348D-03 0.328D-04 0.386D-02 0.112D-01 0.814D-01
 Coeff-Com:  0.904D+00
 Coeff:      0.139D-04-0.348D-03 0.328D-04 0.386D-02 0.112D-01 0.814D-01
 Coeff:      0.904D+00
 Gap=     0.186 Goal=   None    Shift=    0.000
 RMSDP=1.27D-06 MaxDP=1.93D-05 DE=-2.70D-06 OVMax= 4.99D-05

 Cycle   8  Pass 1  IDiag  1:
 E= -233.409587257046     Delta-E=       -0.000000016191 Rises=F Damp=F
 DIIS: error= 1.14D-06 at cycle   8 NSaved=   8.
 NSaved= 8 IEnMin= 8 EnMin= -233.409587257046     IErMin= 8 ErrMin= 1.14D-06
 ErrMax= 1.14D-06  0.00D+00 EMaxC= 1.00D-01 BMatC= 7.42D-11 BMatP= 1.52D-08
 IDIUse=1 WtCom= 1.00D+00 WtEn= 0.00D+00
 Coeff-Com:  0.203D-04-0.629D-04-0.595D-03-0.196D-02-0.164D-02 0.393D-02
 Coeff-Com:  0.951D-01 0.905D+00
 Coeff:      0.203D-04-0.629D-04-0.595D-03-0.196D-02-0.164D-02 0.393D-02
 Coeff:      0.951D-01 0.905D+00
 Gap=     0.186 Goal=   None    Shift=    0.000
 RMSDP=1.31D-07 MaxDP=1.21D-06 DE=-1.62D-08 OVMax= 3.36D-06

 Cycle   9  Pass 1  IDiag  1:
 E= -233.409587257131     Delta-E=       -0.000000000085 Rises=F Damp=F
 DIIS: error= 2.08D-07 at cycle   9 NSaved=   9.
 NSaved= 9 IEnMin= 9 EnMin= -233.409587257131     IErMin= 9 ErrMin= 2.08D-07
 ErrMax= 2.08D-07  0.00D+00 EMaxC= 1.00D-01 BMatC= 3.29D-12 BMatP= 7.42D-11
 IDIUse=1 WtCom= 1.00D+00 WtEn= 0.00D+00
 Coeff-Com:  0.311D-05-0.436D-05-0.113D-03-0.446D-03-0.469D-03-0.729D-03
 Coeff-Com:  0.222D-02 0.183D+00 0.816D+00
 Coeff:      0.311D-05-0.436D-05-0.113D-03-0.446D-03-0.469D-03-0.729D-03
 Coeff:      0.222D-02 0.183D+00 0.816D+00
 Gap=     0.186 Goal=   None    Shift=    0.000
 RMSDP=2.62D-08 MaxDP=2.40D-07 DE=-8.47D-11 OVMax= 7.44D-07

 Cycle  10  Pass 1  IDiag  1:
 E= -233.409587257133     Delta-E=       -0.000000000002 Rises=F Damp=F
 DIIS: error= 2.45D-08 at cycle  10 NSaved=  10.
 NSaved=10 IEnMin=10 EnMin= -233.409587257133     IErMin=10 ErrMin= 2.45D-08
 ErrMax= 2.45D-08  0.00D+00 EMaxC= 1.00D-01 BMatC= 3.31D-14 BMatP= 3.29D-12
 IDIUse=1 WtCom= 1.00D+00 WtEn= 0.00D+00
 Coeff-Com: -0.120D-06 0.674D-06 0.953D-06-0.711D-05-0.136D-04-0.142D-03
 Coeff-Com: -0.136D-02-0.253D-02 0.558D-01 0.948D+00
 Coeff:     -0.120D-06 0.674D-06 0.953D-06-0.711D-05-0.136D-04-0.142D-03
 Coeff:     -0.136D-02-0.253D-02 0.558D-01 0.948D+00
 Gap=     0.186 Goal=   None    Shift=    0.000
 RMSDP=3.59D-09 MaxDP=5.56D-08 DE=-1.82D-12 OVMax= 1.60D-07

 Error on total polarization charges =  0.00924
 SCF Done:  E(RB3LYP) =  -233.409587257     A.U. after   10 cycles
            NFock= 10  Conv=0.36D-08     -V/T= 2.0100
 KE= 2.310882094913D+02 PE=-9.741056550662D+02 EE= 2.925254098976D+02
 --------------------------------------------------------------------
 Variational PCM results
 =======================
 <psi(f)|   H    |psi(f)>                     (a.u.) =    -233.415744
 <psi(f)|H+V(f)/2|psi(f)>                     (a.u.) =    -233.416906
 Total free energy in solution:
 - with all non electrostatic terms           (a.u.) =    -233.409587
 --------------------------------------------------------------------
 (Polarized solute)-Solvent               (kcal/mol) =      -0.73
 --------------------------------------------------------------------
 Quantum repulsion energy                 (kcal/mol) =       4.59
 Total non electrostatic                  (kcal/mol) =       4.59
 --------------------------------------------------------------------
 Partition over spheres:
 Sphere  on Atom  Surface  Charge   GEl     GCav    GDR
    1               7.49   0.012   -0.06    0.00    0.00
    2               3.29   0.001    0.00    0.00    0.00
    3               3.29   0.001    0.00    0.00    0.00
    4               7.49   0.012   -0.06    0.00    0.00
    5               7.54   0.013   -0.09    0.00    0.00
    6               7.54   0.013   -0.09    0.00    0.00
    7               7.36  -0.010   -0.04    0.00    0.00
    8               6.65  -0.007   -0.03    0.00    0.00
    9               6.65  -0.007   -0.03    0.00    0.00
   10               7.36  -0.010   -0.04    0.00    0.00
   11               7.34  -0.010   -0.03    0.00    0.00
   12               7.34  -0.010   -0.03    0.00    0.00
   13               6.65  -0.007   -0.03    0.00    0.00
   14               6.65  -0.007   -0.03    0.00    0.00
 Added spheres:    39.31   0.009   -0.18    0.00    0.00
 --------------------------------------------------------------------
 After PCM corrections, the energy is  -233.409587257     a.u.
 --------------------------------------------------------------------
 Leave Link  502 at Thu Jun  4 11:47:52 2020, MaxMem=   104857600 cpu:              92.5 elap:              18.1
 (Enter /home/roberto/software/g16A03/g16/l601.exe)
 Copying SCF densities to generalized density rwf, IOpCl= 0 IROHF=0.

 **********************************************************************

            Population analysis using the SCF density.

 **********************************************************************

 Alpha  occ. eigenvalues --  -10.18388 -10.18371 -10.17859 -10.17859 -10.17475
 Alpha  occ. eigenvalues --  -10.17443  -0.82369  -0.73448  -0.73293  -0.61436
 Alpha  occ. eigenvalues --   -0.58121  -0.49559  -0.46599  -0.44658  -0.41635
 Alpha  occ. eigenvalues --   -0.40535  -0.37861  -0.35908  -0.32462  -0.31437
 Alpha  occ. eigenvalues --   -0.30132  -0.20007
 Alpha virt. eigenvalues --   -0.01393   0.09932   0.10900   0.13495   0.13941
 Alpha virt. eigenvalues --    0.15495   0.17344   0.17586   0.20490   0.23861
 Alpha virt. eigenvalues --    0.23991   0.25727   0.27508   0.34679   0.45613
 Alpha virt. eigenvalues --    0.49031   0.52020   0.53893   0.54372   0.58669
 Alpha virt. eigenvalues --    0.59681   0.61568   0.63261   0.63770   0.64788
 Alpha virt. eigenvalues --    0.66898   0.69035   0.71159   0.71642   0.77161
 Alpha virt. eigenvalues --    0.85526   0.85660   0.86749   0.88318   0.88794
 Alpha virt. eigenvalues --    0.91628   0.93047   0.93852   0.94417   0.95682
 Alpha virt. eigenvalues --    0.97568   1.07273   1.12762   1.18463   1.21572
 Alpha virt. eigenvalues --    1.27563   1.34324   1.46929   1.47849   1.50966
 Alpha virt. eigenvalues --    1.51772   1.69386   1.70560   1.82212   1.84534
 Alpha virt. eigenvalues --    1.88016   1.89572   1.90836   2.00695   2.00837
 Alpha virt. eigenvalues --    2.01506   2.11977   2.15063   2.20557   2.21765
 Alpha virt. eigenvalues --    2.23305   2.33681   2.35452   2.44604   2.49320
 Alpha virt. eigenvalues --    2.54797   2.59349   2.64045   2.66534   2.69246
 Alpha virt. eigenvalues --    2.72280   2.98325   3.22234   4.08037   4.16519
 Alpha virt. eigenvalues --    4.17687   4.34911   4.40578   4.67013
          Condensed to atoms (all electrons):
               1          2          3          4          5          6
     1  C    4.915714   0.370509  -0.026556  -0.028948  -0.033026   0.674929
     2  C    0.370509   5.062757   0.338254  -0.026556  -0.030501  -0.026548
     3  C   -0.026556   0.338254   5.062757   0.370509  -0.026548  -0.030501
     4  C   -0.028948  -0.026556   0.370509   4.915715   0.674929  -0.033026
     5  C   -0.033026  -0.030501  -0.026548   0.674929   4.847364   0.419308
     6  C    0.674929  -0.026548  -0.030501  -0.033026   0.419308   4.847364
     7  H    0.362974  -0.052178   0.004065   0.000074   0.005462  -0.036372
     8  H   -0.033694   0.369311  -0.030872   0.001612   0.001316  -0.001379
     9  H    0.001604  -0.030873   0.369306  -0.033715  -0.001399   0.001321
    10  H    0.000074   0.004065  -0.052178   0.362974  -0.036372   0.005461
    11  H    0.005933  -0.000105   0.006337  -0.049833   0.364778  -0.047340
    12  H   -0.049833   0.006337  -0.000105   0.005933  -0.047340   0.364778
    13  H    0.001612  -0.030872   0.369311  -0.033694  -0.001379   0.001316
    14  H   -0.033716   0.369307  -0.030874   0.001604   0.001321  -0.001399
               7          8          9         10         11         12
     1  C    0.362974  -0.033694   0.001604   0.000074   0.005933  -0.049833
     2  C   -0.052178   0.369311  -0.030873   0.004065  -0.000105   0.006337
     3  C    0.004065  -0.030872   0.369306  -0.052178   0.006337  -0.000105
     4  C    0.000074   0.001612  -0.033715   0.362974  -0.049833   0.005933
     5  C    0.005462   0.001316  -0.001399  -0.036372   0.364778  -0.047340
     6  C   -0.036372  -0.001379   0.001321   0.005461  -0.047340   0.364778
     7  H    0.589243  -0.000609  -0.000119   0.000008  -0.000147  -0.008113
     8  H   -0.000609   0.583531  -0.011223  -0.000119   0.000011  -0.000168
     9  H   -0.000119  -0.011223   0.583528  -0.000596  -0.000168   0.000011
    10  H    0.000008  -0.000119  -0.000596   0.589243  -0.008113  -0.000147
    11  H   -0.000147   0.000011  -0.000168  -0.008113   0.599270  -0.005449
    12  H   -0.008113  -0.000168   0.000011  -0.000147  -0.005449   0.599270
    13  H   -0.000119   0.004347  -0.040539  -0.000609  -0.000168   0.000011
    14  H   -0.000596  -0.040539   0.004356  -0.000119   0.000011  -0.000168
              13         14
     1  C    0.001612  -0.033716
     2  C   -0.030872   0.369307
     3  C    0.369311  -0.030874
     4  C   -0.033694   0.001604
     5  C   -0.001379   0.001321
     6  C    0.001316  -0.001399
     7  H   -0.000119  -0.000596
     8  H    0.004347  -0.040539
     9  H   -0.040539   0.004356
    10  H   -0.000609  -0.000119
    11  H   -0.000168   0.000011
    12  H    0.000011  -0.000168
    13  H    0.583531  -0.011223
    14  H   -0.011223   0.583528
 Mulliken charges:
               1
     1  C   -0.127576
     2  C   -0.322907
     3  C   -0.322907
     4  C   -0.127576
     5  C   -0.137911
     6  C   -0.137911
     7  H    0.136427
     8  H    0.158477
     9  H    0.158508
    10  H    0.136427
    11  H    0.134982
    12  H    0.134982
    13  H    0.158477
    14  H    0.158508
 Sum of Mulliken charges =   0.00000
 Mulliken charges with hydrogens summed into heavy atoms:
               1
     1  C    0.008852
     2  C   -0.005922
     3  C   -0.005922
     4  C    0.008851
     5  C   -0.002929
     6  C   -0.002929
 Electronic spatial extent (au):  <R**2>=            519.2857
 Charge=              0.0000 electrons
 Dipole moment (field-independent basis, Debye):
    X=             -0.6464    Y=              0.0000    Z=              0.0000  Tot=              0.6464
 Quadrupole moment (field-independent basis, Debye-Ang):
   XX=            -33.7377   YY=            -34.0774   ZZ=            -38.4683
   XY=              0.0000   XZ=              0.0000   YZ=              0.0005
 Traceless Quadrupole moment (field-independent basis, Debye-Ang):
   XX=              1.6901   YY=              1.3504   ZZ=             -3.0405
   XY=              0.0000   XZ=              0.0000   YZ=              0.0005
 Octapole moment (field-independent basis, Debye-Ang**2):
  XXX=              3.9535  YYY=              0.0000  ZZZ=              0.0000  XYY=             -0.2098
  XXY=              0.0000  XXZ=              0.0000  XZZ=             -4.0257  YZZ=              0.0000
  YYZ=             -0.0001  XYZ=              0.0009
 Hexadecapole moment (field-independent basis, Debye-Ang**3):
 XXXX=           -316.6995 YYYY=           -303.2017 ZZZZ=            -52.8064 XXXY=              0.0000
 XXXZ=              0.0001 YYYX=              0.0000 YYYZ=              0.0070 ZZZX=             -0.0001
 ZZZY=             -0.0056 XXYY=           -105.2964 XXZZ=            -63.6813 YYZZ=            -66.6788
 XXYZ=              0.0066 YYXZ=              0.0000 ZZXY=              0.0000
 N-N= 2.170824484202D+02 E-N=-9.741056550569D+02  KE= 2.310882094913D+02
 No NMR shielding tensors so no spin-rotation constants.
 Leave Link  601 at Thu Jun  4 11:47:52 2020, MaxMem=   104857600 cpu:               0.3 elap:               0.1
 (Enter /home/roberto/software/g16A03/g16/l9999.exe)
 1\1\GINC-ROBERTO-XPS-15-9570\SP\RB3LYP\6-31G(d)\C6H8\ROBERTO\04-Jun-20
 20\0\\#p b3lyp/6-31g(d) # scrf=(iefpcm,solvent=Cyclohexane,read) nosym
 \\Cycloexadiene, E(B3LYP/6-31G*) xp-pcm for eta=3\\0,1\C,0,0.138413,-1
 .430211,-0.000144\C,0,-1.225538,-0.78008,0.000407\C,0,-1.225541,0.7800
 77,-0.000405\C,0,0.13841,1.430212,0.000135\C,0,1.282673,0.733599,0.000
 192\C,0,1.282675,-0.733596,-0.000186\H,0,0.157225,-2.518723,-0.000332\
 H,0,-1.785851,-1.152982,-0.868861\H,0,-1.784697,1.152137,-0.870795\H,0
 ,0.157219,2.518724,0.000302\H,0,2.240035,1.249598,0.00046\H,0,2.240037
 ,-1.249594,-0.000454\H,0,-1.78584,1.152972,0.868876\H,0,-1.784681,-1.1
 52136,0.870808\\Version=ES64L-G16RevA.03\HF=-233.4095873\RMSD=3.592e-0
 9\Dipole=-0.2543047,-0.0000011,-0.0000006\Quadrupole=1.2565474,1.00396
 51,-2.2605125,-0.0000014,0.0000003,0.0003358\PG=C01 [X(C6H8)]\\@


 MOST BUREAUCRACIES FUNCTION LIKE A SEPTIC TANK.
 THE LARGE CHUNKS RISE TO THE TOP.
 Job cpu time:       0 days  0 hours  1 minutes 36.6 seconds.
 Elapsed time:       0 days  0 hours  0 minutes 19.1 seconds.
 File lengths (MBytes):  RWF=    148 Int=      0 D2E=      0 Chk=      3 Scr=      1
 Normal termination of Gaussian 16 at Thu Jun  4 11:47:52 2020.
 Initial command:
 /home/roberto/software/g16A03/g16/l1.exe "/home/roberto/scr/Gau-21021.inp" -scrdir="/home/roberto/scr/"
 Entering Link 1 = /home/roberto/software/g16A03/g16/l1.exe PID=     21130.
  
 Copyright (c) 1988,1990,1992,1993,1995,1998,2003,2009,2016,
            Gaussian, Inc.  All Rights Reserved.
  
 This is part of the Gaussian(R) 16 program.  It is based on
 the Gaussian(R) 09 system (copyright 2009, Gaussian, Inc.),
 the Gaussian(R) 03 system (copyright 2003, Gaussian, Inc.),
 the Gaussian(R) 98 system (copyright 1998, Gaussian, Inc.),
 the Gaussian(R) 94 system (copyright 1995, Gaussian, Inc.),
 the Gaussian 92(TM) system (copyright 1992, Gaussian, Inc.),
 the Gaussian 90(TM) system (copyright 1990, Gaussian, Inc.),
 the Gaussian 88(TM) system (copyright 1988, Gaussian, Inc.),
 the Gaussian 86(TM) system (copyright 1986, Carnegie Mellon
 University), and the Gaussian 82(TM) system (copyright 1983,
 Carnegie Mellon University). Gaussian is a federally registered
 trademark of Gaussian, Inc.
  
 This software contains proprietary and confidential information,
 including trade secrets, belonging to Gaussian, Inc.
  
 This software is provided under written license and may be
 used, copied, transmitted, or stored only in accord with that
 written license.
  
 The following legend is applicable only to US Government
 contracts under FAR:
  
                    RESTRICTED RIGHTS LEGEND
  
 Use, reproduction and disclosure by the US Government is
 subject to restrictions as set forth in subparagraphs (a)
 and (c) of the Commercial Computer Software - Restricted
 Rights clause in FAR 52.227-19.
  
 Gaussian, Inc.
 340 Quinnipiac St., Bldg. 40, Wallingford CT 06492
  
  
 ---------------------------------------------------------------
 Warning -- This program may not be used in any manner that
 competes with the business of Gaussian, Inc. or will provide
 assistance to any competitor of Gaussian, Inc.  The licensee
 of this program is prohibited from giving any competitor of
 Gaussian, Inc. access to this program.  By using this program,
 the user acknowledges that Gaussian, Inc. is engaged in the
 business of creating and licensing software in the field of
 computational chemistry and represents and warrants to the
 licensee that it is not a competitor of Gaussian, Inc. and that
 it will not use this program in any manner prohibited above.
 ---------------------------------------------------------------
  

 Cite this work as:
 Gaussian 16, Revision A.03,
 M. J. Frisch, G. W. Trucks, H. B. Schlegel, G. E. Scuseria, 
 M. A. Robb, J. R. Cheeseman, G. Scalmani, V. Barone, 
 G. A. Petersson, H. Nakatsuji, X. Li, M. Caricato, A. V. Marenich, 
 J. Bloino, B. G. Janesko, R. Gomperts, B. Mennucci, H. P. Hratchian, 
 J. V. Ortiz, A. F. Izmaylov, J. L. Sonnenberg, D. Williams-Young, 
 F. Ding, F. Lipparini, F. Egidi, J. Goings, B. Peng, A. Petrone, 
 T. Henderson, D. Ranasinghe, V. G. Zakrzewski, J. Gao, N. Rega, 
 G. Zheng, W. Liang, M. Hada, M. Ehara, K. Toyota, R. Fukuda, 
 J. Hasegawa, M. Ishida, T. Nakajima, Y. Honda, O. Kitao, H. Nakai, 
 T. Vreven, K. Throssell, J. A. Montgomery, Jr., J. E. Peralta, 
 F. Ogliaro, M. J. Bearpark, J. J. Heyd, E. N. Brothers, K. N. Kudin, 
 V. N. Staroverov, T. A. Keith, R. Kobayashi, J. Normand, 
 K. Raghavachari, A. P. Rendell, J. C. Burant, S. S. Iyengar, 
 J. Tomasi, M. Cossi, J. M. Millam, M. Klene, C. Adamo, R. Cammi, 
 J. W. Ochterski, R. L. Martin, K. Morokuma, O. Farkas, 
 J. B. Foresman, and D. J. Fox, Gaussian, Inc., Wallingford CT, 2016.
 
 ******************************************
 Gaussian 16:  ES64L-G16RevA.03 25-Dec-2016
                 4-Jun-2020 
 ******************************************
 %chk=1b_xp-110.chk
 %nproc=6
 Will use up to    6 processors via shared memory.
 ----------------------------------------------------------------
 #p b3lyp/6-31g(d) # scrf=(iefpcm,solvent=Cyclohexane,read) nosym
 ----------------------------------------------------------------
 1/38=1,40=2,172=1/1;
 2/12=2,15=1,17=6,18=5,40=1/2;
 3/5=1,6=6,7=1,11=2,25=1,30=1,70=2203,72=17,74=-5/1,2,3;
 4//1;
 5/5=2,38=5,53=17/2;
 6/7=2,8=2,9=2,10=2,28=1/1;
 99/5=1,9=1/99;
 Leave Link    1 at Thu Jun  4 11:47:52 2020, MaxMem=           0 cpu:               0.0 elap:               0.0
 (Enter /home/roberto/software/g16A03/g16/l101.exe)
 -----------------------------------------------
 Cycloexadiene, E(B3LYP/6-31G*) xp-pcm for eta=3
 -----------------------------------------------
 Symbolic Z-matrix:
 Charge =  0 Multiplicity = 1
 C                     0.13841  -1.43021  -0.00014 
 C                    -1.22554  -0.78008   0.00041 
 C                    -1.22554   0.78008  -0.00041 
 C                     0.13841   1.43021   0.00014 
 C                     1.28267   0.7336    0.00019 
 C                     1.28268  -0.7336   -0.00019 
 H                     0.15723  -2.51872  -0.00033 
 H                    -1.78585  -1.15298  -0.86886 
 H                    -1.7847    1.15214  -0.8708 
 H                     0.15722   2.51872   0.0003 
 H                     2.24004   1.2496    0.00046 
 H                     2.24004  -1.24959  -0.00045 
 H                    -1.78584   1.15297   0.86888 
 H                    -1.78468  -1.15214   0.87081 
 
 ITRead=  0  0  0  0  0  0  0  0  0  0  0  0  0  0
 MicOpt= -1 -1 -1 -1 -1 -1 -1 -1 -1 -1 -1 -1 -1 -1
 NAtoms=     14 NQM=       14 NQMF=       0 NMMI=      0 NMMIF=      0
                NMic=       0 NMicF=      0.
                    Isotopes and Nuclear Properties:
 (Nuclear quadrupole moments (NQMom) in fm**2, nuclear magnetic moments (NMagM)
  in nuclear magnetons)

  Atom         1           2           3           4           5           6           7           8           9          10
 IAtWgt=          12          12          12          12          12          12           1           1           1           1
 AtmWgt=  12.0000000  12.0000000  12.0000000  12.0000000  12.0000000  12.0000000   1.0078250   1.0078250   1.0078250   1.0078250
 NucSpn=           0           0           0           0           0           0           1           1           1           1
 AtZEff=   0.0000000   0.0000000   0.0000000   0.0000000   0.0000000   0.0000000   0.0000000   0.0000000   0.0000000   0.0000000
 NQMom=    0.0000000   0.0000000   0.0000000   0.0000000   0.0000000   0.0000000   0.0000000   0.0000000   0.0000000   0.0000000
 NMagM=    0.0000000   0.0000000   0.0000000   0.0000000   0.0000000   0.0000000   2.7928460   2.7928460   2.7928460   2.7928460
 AtZNuc=   6.0000000   6.0000000   6.0000000   6.0000000   6.0000000   6.0000000   1.0000000   1.0000000   1.0000000   1.0000000

  Atom        11          12          13          14
 IAtWgt=           1           1           1           1
 AtmWgt=   1.0078250   1.0078250   1.0078250   1.0078250
 NucSpn=           1           1           1           1
 AtZEff=   0.0000000   0.0000000   0.0000000   0.0000000
 NQMom=    0.0000000   0.0000000   0.0000000   0.0000000
 NMagM=    2.7928460   2.7928460   2.7928460   2.7928460
 AtZNuc=   1.0000000   1.0000000   1.0000000   1.0000000
 Leave Link  101 at Thu Jun  4 11:47:53 2020, MaxMem=   104857600 cpu:               0.1 elap:               0.1
 (Enter /home/roberto/software/g16A03/g16/l202.exe)
                          Input orientation:                          
 ---------------------------------------------------------------------
 Center     Atomic      Atomic             Coordinates (Angstroms)
 Number     Number       Type             X           Y           Z
 ---------------------------------------------------------------------
      1          6           0        0.138413   -1.430211   -0.000144
      2          6           0       -1.225538   -0.780080    0.000407
      3          6           0       -1.225541    0.780077   -0.000405
      4          6           0        0.138410    1.430212    0.000135
      5          6           0        1.282673    0.733599    0.000192
      6          6           0        1.282675   -0.733596   -0.000186
      7          1           0        0.157225   -2.518723   -0.000332
      8          1           0       -1.785851   -1.152982   -0.868861
      9          1           0       -1.784697    1.152137   -0.870795
     10          1           0        0.157219    2.518724    0.000302
     11          1           0        2.240035    1.249598    0.000460
     12          1           0        2.240037   -1.249594   -0.000454
     13          1           0       -1.785840    1.152972    0.868876
     14          1           0       -1.784681   -1.152136    0.870808
 ---------------------------------------------------------------------
                    Distance matrix (angstroms):
                    1          2          3          4          5
[...]
 One-electron integrals computed using PRISM.
 NBasis=   106 RedAO= T EigKep=  1.02D-03  NBF=   106
 NBsUse=   106 1.00D-06 EigRej= -1.00D+00 NBFU=   106
 Precomputing XC quadrature grid using
 IXCGrd= 4 IRadAn=           5 IRanWt=          -1 IRanGd=           0 AccXCQ= 0.00D+00.
 Generated NRdTot=       0 NPtTot=           0 NUsed=           0 NTot=          32
 NSgBfM=   106   106   106   106   106 MxSgAt=    14 MxSgA2=    14.
 Leave Link  302 at Thu Jun  4 11:49:09 2020, MaxMem=   104857600 cpu:               0.5 elap:               0.1
 (Enter /home/roberto/software/g16A03/g16/l303.exe)
 DipDrv:  MaxL=1.
 Leave Link  303 at Thu Jun  4 11:49:09 2020, MaxMem=   104857600 cpu:               0.0 elap:               0.0
 (Enter /home/roberto/software/g16A03/g16/l401.exe)
 ExpMin= 1.61D-01 ExpMax= 3.05D+03 ExpMxC= 4.57D+02 IAcc=3 IRadAn=         5 AccDes= 0.00D+00
 Harris functional with IExCor=  402 and IRadAn=       5 diagonalized for initial guess.
 HarFok:  IExCor=  402 AccDes= 0.00D+00 IRadAn=         5 IDoV= 1 UseB2=F ITyADJ=14
 ICtDFT=  3500011 ScaDFX=  1.000000  1.000000  1.000000  1.000000
 FoFCou: FMM=F IPFlag=           0 FMFlag=      100000 FMFlg1=           0
         NFxFlg=           0 DoJE=T BraDBF=F KetDBF=T FulRan=T
         wScrn=  0.000000 ICntrl=       500 IOpCl=  0 I1Cent=   200000004 NGrid=           0
         NMat0=    1 NMatS0=      1 NMatT0=    0 NMatD0=    1 NMtDS0=    0 NMtDT0=    0
 Symmetry not used in FoFCou.
 Harris En= -233.459716024146    
 JPrj=0 DoOrth=F DoCkMO=F.
 Leave Link  401 at Thu Jun  4 11:49:09 2020, MaxMem=   104857600 cpu:               3.1 elap:               0.5
 (Enter /home/roberto/software/g16A03/g16/l502.exe)
 Keep R1 ints in memory in canonical form, NReq=21661338.
 FoFCou: FMM=F IPFlag=           0 FMFlag=           0 FMFlg1=           0
         NFxFlg=           0 DoJE=F BraDBF=F KetDBF=F FulRan=T
         wScrn=  0.000000 ICntrl=       600 IOpCl=  0 I1Cent=           0 NGrid=           0
         NMat0=    1 NMatS0=   5671 NMatT0=    0 NMatD0=    1 NMtDS0=    0 NMtDT0=    0
 Symmetry not used in FoFCou.
 Two-electron integral symmetry not used.
 Closed shell SCF:
 Using DIIS extrapolation, IDIIS=  1040.
 NGot=   104857600 LenX=    88750400 LenY=    88738723
 Requested convergence on RMS density matrix=1.00D-08 within 128 cycles.
 Requested convergence on MAX density matrix=1.00D-06.
 Requested convergence on             energy=1.00D-06.
 No special actions if energy rises.

 Cycle   1  Pass 1  IDiag  1:
 Inv3:  Mode=1 IEnd=    24952368.
 Iteration    1 A*A^-1 deviation from unit magnitude is 8.55D-15 for   1423.
 Iteration    1 A*A^-1 deviation from orthogonality  is 2.68D-15 for   2858   2852.
 Iteration    1 A^-1*A deviation from unit magnitude is 8.10D-15 for   1423.
 Iteration    1 A^-1*A deviation from orthogonality  is 4.16D-15 for   2858   2852.
 E= -233.220132008261    
 DIIS: error= 4.69D-02 at cycle   1 NSaved=   1.
 NSaved= 1 IEnMin= 1 EnMin= -233.220132008261     IErMin= 1 ErrMin= 4.69D-02
 ErrMax= 4.69D-02  0.00D+00 EMaxC= 1.00D-01 BMatC= 1.49D-01 BMatP= 1.49D-01
 IDIUse=3 WtCom= 5.31D-01 WtEn= 4.69D-01
 Coeff-Com:  0.100D+01
 Coeff-En:   0.100D+01
 Coeff:      0.100D+01
 Gap=     0.185 Goal=   None    Shift=    0.000
 GapD=    0.185 DampG=1.000 DampE=0.500 DampFc=0.5000 IDamp=-1.
 Damping current iteration by 5.00D-01
 RMSDP=7.75D-03 MaxDP=1.12D-01              OVMax= 1.43D-01

 Cycle   2  Pass 1  IDiag  1:
 E= -233.299900430618     Delta-E=       -0.079768422357 Rises=F Damp=T
 DIIS: error= 8.35D-03 at cycle   2 NSaved=   2.
 NSaved= 2 IEnMin= 2 EnMin= -233.299900430618     IErMin= 2 ErrMin= 8.35D-03
 ErrMax= 8.35D-03  0.00D+00 EMaxC= 1.00D-01 BMatC= 7.07D-03 BMatP= 1.49D-01
 IDIUse=3 WtCom= 9.16D-01 WtEn= 8.35D-02
 Coeff-Com:  0.501D-03 0.999D+00
 Coeff-En:   0.000D+00 0.100D+01
 Coeff:      0.459D-03 0.100D+01
 Gap=     0.188 Goal=   None    Shift=    0.000
 RMSDP=1.83D-03 MaxDP=1.67D-02 DE=-7.98D-02 OVMax= 8.04D-02

 Cycle   3  Pass 1  IDiag  1:
 E= -233.385093393154     Delta-E=       -0.085192962536 Rises=F Damp=F
 DIIS: error= 4.52D-03 at cycle   3 NSaved=   3.
 NSaved= 3 IEnMin= 3 EnMin= -233.385093393154     IErMin= 3 ErrMin= 4.52D-03
 ErrMax= 4.52D-03  0.00D+00 EMaxC= 1.00D-01 BMatC= 1.44D-03 BMatP= 7.07D-03
 IDIUse=3 WtCom= 9.55D-01 WtEn= 4.52D-02
 Coeff-Com: -0.385D-01 0.280D+00 0.759D+00
 Coeff-En:   0.000D+00 0.000D+00 0.100D+01
 Coeff:     -0.368D-01 0.267D+00 0.770D+00
 Gap=     0.187 Goal=   None    Shift=    0.000
 RMSDP=4.81D-04 MaxDP=5.14D-03 DE=-8.52D-02 OVMax= 9.52D-03

 Cycle   4  Pass 1  IDiag  1:
 E= -233.386316750638     Delta-E=       -0.001223357484 Rises=F Damp=F
 DIIS: error= 1.01D-03 at cycle   4 NSaved=   4.
 NSaved= 4 IEnMin= 4 EnMin= -233.386316750638     IErMin= 4 ErrMin= 1.01D-03
 ErrMax= 1.01D-03  0.00D+00 EMaxC= 1.00D-01 BMatC= 1.55D-04 BMatP= 1.44D-03
 IDIUse=3 WtCom= 9.90D-01 WtEn= 1.01D-02
 Coeff-Com: -0.126D-01 0.507D-01 0.286D+00 0.676D+00
 Coeff-En:   0.000D+00 0.000D+00 0.000D+00 0.100D+01
 Coeff:     -0.125D-01 0.502D-01 0.283D+00 0.679D+00
 Gap=     0.187 Goal=   None    Shift=    0.000
 RMSDP=1.38D-04 MaxDP=2.95D-03 DE=-1.22D-03 OVMax= 4.76D-03

 Cycle   5  Pass 1  IDiag  1:
 E= -233.386423445422     Delta-E=       -0.000106694784 Rises=F Damp=F
 DIIS: error= 6.36D-04 at cycle   5 NSaved=   5.
 NSaved= 5 IEnMin= 5 EnMin= -233.386423445422     IErMin= 5 ErrMin= 6.36D-04
 ErrMax= 6.36D-04  0.00D+00 EMaxC= 1.00D-01 BMatC= 4.24D-05 BMatP= 1.55D-04
 IDIUse=3 WtCom= 9.94D-01 WtEn= 6.36D-03
 Coeff-Com: -0.447D-02 0.875D-02 0.107D+00 0.398D+00 0.491D+00
 Coeff-En:   0.000D+00 0.000D+00 0.000D+00 0.198D+00 0.802D+00
 Coeff:     -0.444D-02 0.869D-02 0.106D+00 0.397D+00 0.493D+00
 Gap=     0.187 Goal=   None    Shift=    0.000
 RMSDP=5.73D-05 MaxDP=1.25D-03 DE=-1.07D-04 OVMax= 2.62D-03

 Cycle   6  Pass 1  IDiag  1:
 E= -233.386462880936     Delta-E=       -0.000039435513 Rises=F Damp=F
 DIIS: error= 1.36D-04 at cycle   6 NSaved=   6.
 NSaved= 6 IEnMin= 6 EnMin= -233.386462880936     IErMin= 6 ErrMin= 1.36D-04
 ErrMax= 1.36D-04  0.00D+00 EMaxC= 1.00D-01 BMatC= 1.88D-06 BMatP= 4.24D-05
 IDIUse=3 WtCom= 9.99D-01 WtEn= 1.36D-03
 Coeff-Com: -0.220D-02 0.344D-02 0.527D-01 0.210D+00 0.292D+00 0.445D+00
 Coeff-En:   0.000D+00 0.000D+00 0.000D+00 0.000D+00 0.000D+00 0.100D+01
 Coeff:     -0.220D-02 0.344D-02 0.526D-01 0.209D+00 0.291D+00 0.446D+00
 Gap=     0.187 Goal=   None    Shift=    0.000
 RMSDP=1.34D-05 MaxDP=2.67D-04 DE=-3.94D-05 OVMax= 5.17D-04

 Cycle   7  Pass 1  IDiag  1:
 E= -233.386464882486     Delta-E=       -0.000002001551 Rises=F Damp=F
 DIIS: error= 1.12D-05 at cycle   7 NSaved=   7.
 NSaved= 7 IEnMin= 7 EnMin= -233.386464882486     IErMin= 7 ErrMin= 1.12D-05
 ErrMax= 1.12D-05  0.00D+00 EMaxC= 1.00D-01 BMatC= 1.30D-08 BMatP= 1.88D-06
 IDIUse=1 WtCom= 1.00D+00 WtEn= 0.00D+00
 Coeff-Com:  0.952D-05-0.309D-03-0.511D-03 0.136D-02 0.854D-02 0.825D-01
 Coeff-Com:  0.908D+00
 Coeff:      0.952D-05-0.309D-03-0.511D-03 0.136D-02 0.854D-02 0.825D-01
 Coeff:      0.908D+00
 Gap=     0.187 Goal=   None    Shift=    0.000
 RMSDP=1.13D-06 MaxDP=2.14D-05 DE=-2.00D-06 OVMax= 5.31D-05

 Cycle   8  Pass 1  IDiag  1:
 E= -233.386464896531     Delta-E=       -0.000000014045 Rises=F Damp=F
 DIIS: error= 9.99D-07 at cycle   8 NSaved=   8.
 NSaved= 8 IEnMin= 8 EnMin= -233.386464896531     IErMin= 8 ErrMin= 9.99D-07
 ErrMax= 9.99D-07  0.00D+00 EMaxC= 1.00D-01 BMatC= 5.90D-11 BMatP= 1.30D-08
 IDIUse=1 WtCom= 1.00D+00 WtEn= 0.00D+00
 Coeff-Com:  0.220D-04-0.632D-04-0.655D-03-0.218D-02-0.209D-02 0.473D-02
 Coeff-Com:  0.102D+00 0.898D+00
 Coeff:      0.220D-04-0.632D-04-0.655D-03-0.218D-02-0.209D-02 0.473D-02
 Coeff:      0.102D+00 0.898D+00
 Gap=     0.187 Goal=   None    Shift=    0.000
 RMSDP=1.10D-07 MaxDP=1.18D-06 DE=-1.40D-08 OVMax= 3.52D-06

 Cycle   9  Pass 1  IDiag  1:
 E= -233.386464896603     Delta-E=       -0.000000000072 Rises=F Damp=F
 DIIS: error= 1.61D-07 at cycle   9 NSaved=   9.
 NSaved= 9 IEnMin= 9 EnMin= -233.386464896603     IErMin= 9 ErrMin= 1.61D-07
 ErrMax= 1.61D-07  0.00D+00 EMaxC= 1.00D-01 BMatC= 2.08D-12 BMatP= 5.90D-11
 IDIUse=1 WtCom= 1.00D+00 WtEn= 0.00D+00
 Coeff-Com:  0.330D-05-0.425D-05-0.103D-03-0.404D-03-0.471D-03-0.707D-03
 Coeff-Com:  0.177D-02 0.162D+00 0.838D+00
 Coeff:      0.330D-05-0.425D-05-0.103D-03-0.404D-03-0.471D-03-0.707D-03
 Coeff:      0.177D-02 0.162D+00 0.838D+00
 Gap=     0.187 Goal=   None    Shift=    0.000
 RMSDP=2.19D-08 MaxDP=2.33D-07 DE=-7.16D-11 OVMax= 7.35D-07

 Cycle  10  Pass 1  IDiag  1:
 E= -233.386464896607     Delta-E=       -0.000000000005 Rises=F Damp=F
 DIIS: error= 1.92D-08 at cycle  10 NSaved=  10.
 NSaved=10 IEnMin=10 EnMin= -233.386464896607     IErMin=10 ErrMin= 1.92D-08
 ErrMax= 1.92D-08  0.00D+00 EMaxC= 1.00D-01 BMatC= 3.01D-14 BMatP= 2.08D-12
 IDIUse=1 WtCom= 1.00D+00 WtEn= 0.00D+00
 Coeff-Com: -0.987D-07 0.683D-06 0.213D-05-0.177D-05-0.934D-05-0.155D-03
 Coeff-Com: -0.156D-02-0.289D-02 0.640D-01 0.941D+00
 Coeff:     -0.987D-07 0.683D-06 0.213D-05-0.177D-05-0.934D-05-0.155D-03
 Coeff:     -0.156D-02-0.289D-02 0.640D-01 0.941D+00
 Gap=     0.187 Goal=   None    Shift=    0.000
 RMSDP=3.53D-09 MaxDP=5.14D-08 DE=-4.60D-12 OVMax= 1.60D-07

 Error on total polarization charges =  0.03059
 SCF Done:  E(RB3LYP) =  -233.386464897     A.U. after   10 cycles
            NFock= 10  Conv=0.35D-08     -V/T= 2.0096
 KE= 2.311624198160D+02 PE=-9.744050114336D+02 EE= 2.927736783008D+02
 --------------------------------------------------------------------
 Variational PCM results
 =======================
 <psi(f)|   H    |psi(f)>                     (a.u.) =    -233.415064
 <psi(f)|H+V(f)/2|psi(f)>                     (a.u.) =    -233.417618
 Total free energy in solution:
 - with all non electrostatic terms           (a.u.) =    -233.386465
 --------------------------------------------------------------------
 (Polarized solute)-Solvent               (kcal/mol) =      -1.60
 --------------------------------------------------------------------
 Quantum repulsion energy                 (kcal/mol) =      19.55
 Total non electrostatic                  (kcal/mol) =      19.55
 --------------------------------------------------------------------
 Partition over spheres:
 Sphere  on Atom  Surface  Charge   GEl     GCav    GDR
    1               4.08   0.013   -0.09    0.00    0.00
    2               0.97   0.000    0.00    0.00    0.00
    3               0.96   0.000    0.00    0.00    0.00
    4               4.08   0.013   -0.09    0.00    0.00
    5               4.33   0.015   -0.13    0.00    0.00
    6               4.33   0.015   -0.13    0.00    0.00
    7               5.57  -0.018   -0.13    0.00    0.00
    8               5.22  -0.013   -0.09    0.00    0.00
    9               5.60  -0.014   -0.09    0.00    0.00
   10               5.57  -0.018   -0.13    0.00    0.00
   11               5.56  -0.018   -0.11    0.00    0.00
   12               5.56  -0.018   -0.11    0.00    0.00
   13               5.60  -0.014   -0.09    0.00    0.00
   14               5.22  -0.013   -0.09    0.00    0.00
 Added spheres:    48.20   0.040   -0.34    0.00    0.00
 --------------------------------------------------------------------
 After PCM corrections, the energy is  -233.386464897     a.u.
 --------------------------------------------------------------------
 Leave Link  502 at Thu Jun  4 11:49:28 2020, MaxMem=   104857600 cpu:              92.7 elap:              18.3
 (Enter /home/roberto/software/g16A03/g16/l601.exe)
 Copying SCF densities to generalized density rwf, IOpCl= 0 IROHF=0.

 **********************************************************************

            Population analysis using the SCF density.

 **********************************************************************

 Alpha  occ. eigenvalues --  -10.17478 -10.17459 -10.17041 -10.17040 -10.16649
 Alpha  occ. eigenvalues --  -10.16617  -0.81692  -0.72780  -0.72577  -0.60718
 Alpha  occ. eigenvalues --   -0.57430  -0.48843  -0.45879  -0.43858  -0.40929
 Alpha  occ. eigenvalues --   -0.39807  -0.37078  -0.35116  -0.31705  -0.30679
 Alpha  occ. eigenvalues --   -0.29496  -0.19356
 Alpha virt. eigenvalues --   -0.00677   0.11462   0.11613   0.15012   0.15334
 Alpha virt. eigenvalues --    0.17043   0.18738   0.18911   0.22054   0.25117
 Alpha virt. eigenvalues --    0.25393   0.26959   0.28372   0.35552   0.46635
 Alpha virt. eigenvalues --    0.49936   0.53137   0.54794   0.55341   0.59541
 Alpha virt. eigenvalues --    0.60589   0.62715   0.64366   0.64592   0.65835
 Alpha virt. eigenvalues --    0.68071   0.70011   0.72319   0.72720   0.78057
 Alpha virt. eigenvalues --    0.86794   0.86831   0.87921   0.89483   0.89993
 Alpha virt. eigenvalues --    0.92751   0.94184   0.94945   0.95595   0.96866
 Alpha virt. eigenvalues --    0.98632   1.08258   1.13644   1.19405   1.22485
 Alpha virt. eigenvalues --    1.28209   1.35202   1.47545   1.48752   1.51611
 Alpha virt. eigenvalues --    1.52379   1.70219   1.71323   1.82981   1.85275
 Alpha virt. eigenvalues --    1.88826   1.90369   1.91562   2.01465   2.01573
 Alpha virt. eigenvalues --    2.02274   2.12749   2.15769   2.21322   2.22503
 Alpha virt. eigenvalues --    2.23992   2.34314   2.36299   2.45412   2.50096
 Alpha virt. eigenvalues --    2.55561   2.59966   2.64847   2.67263   2.70031
 Alpha virt. eigenvalues --    2.73039   2.99099   3.22958   4.08803   4.17328
 Alpha virt. eigenvalues --    4.18450   4.35698   4.41371   4.67810
          Condensed to atoms (all electrons):
               1          2          3          4          5          6
     1  C    4.939517   0.368247  -0.026771  -0.028064  -0.036249   0.671612
     2  C    0.368247   5.084188   0.333701  -0.026798  -0.028560  -0.029355
     3  C   -0.026771   0.333701   5.084578   0.368171  -0.029354  -0.028564
     4  C   -0.028064  -0.026798   0.368171   4.939580   0.671633  -0.036245
     5  C   -0.036249  -0.028560  -0.029354   0.671633   4.869254   0.420635
     6  C    0.671612  -0.029355  -0.028564  -0.036245   0.420635   4.869250
     7  H    0.365614  -0.049495   0.003838   0.000084   0.005127  -0.035611
     8  H   -0.034082   0.372328  -0.031019   0.001678   0.001186  -0.001159
     9  H    0.001668  -0.030982   0.372320  -0.034084  -0.001179   0.001190
    10  H    0.000083   0.003838  -0.049486   0.365605  -0.035611   0.005127
    11  H    0.005549  -0.000074   0.005866  -0.047823   0.367126  -0.044876
    12  H   -0.047817   0.005867  -0.000074   0.005548  -0.044875   0.367120
    13  H    0.001675  -0.030978   0.372331  -0.034063  -0.001162   0.001185
    14  H   -0.034103   0.372321  -0.031021   0.001670   0.001190  -0.001178
               7          8          9         10         11         12
     1  C    0.365614  -0.034082   0.001668   0.000083   0.005549  -0.047817
     2  C   -0.049495   0.372328  -0.030982   0.003838  -0.000074   0.005867
     3  C    0.003838  -0.031019   0.372320  -0.049486   0.005866  -0.000074
     4  C    0.000084   0.001678  -0.034084   0.365605  -0.047823   0.005548
     5  C    0.005127   0.001186  -0.001179  -0.035611   0.367126  -0.044875
     6  C   -0.035611  -0.001159   0.001190   0.005127  -0.044876   0.367120
     7  H    0.565148  -0.000721  -0.000109   0.000008  -0.000135  -0.007211
     8  H   -0.000721   0.566118  -0.010491  -0.000109   0.000010  -0.000153
     9  H   -0.000109  -0.010491   0.565690  -0.000709  -0.000153   0.000010
    10  H    0.000008  -0.000109  -0.000709   0.565152  -0.007211  -0.000135
    11  H   -0.000135   0.000010  -0.000153  -0.007211   0.573111  -0.004884
    12  H   -0.007211  -0.000153   0.000010  -0.000135  -0.004884   0.573097
    13  H   -0.000109   0.004033  -0.038631  -0.000720  -0.000153   0.000010
    14  H   -0.000709  -0.038679   0.004042  -0.000109   0.000010  -0.000153
              13         14
     1  C    0.001675  -0.034103
     2  C   -0.030978   0.372321
     3  C    0.372331  -0.031021
     4  C   -0.034063   0.001670
     5  C   -0.001162   0.001190
     6  C    0.001185  -0.001178
     7  H   -0.000109  -0.000709
     8  H    0.004033  -0.038679
     9  H   -0.038631   0.004042
    10  H   -0.000720  -0.000109
    11  H   -0.000153   0.000010
    12  H    0.000010  -0.000153
    13  H    0.565650  -0.010492
    14  H   -0.010492   0.566131
 Mulliken charges:
               1
     1  C   -0.146879
     2  C   -0.344247
     3  C   -0.344517
     4  C   -0.146892
     5  C   -0.159162
     6  C   -0.159132
     7  H    0.154282
     8  H    0.171061
     9  H    0.171418
    10  H    0.154277
    11  H    0.153639
    12  H    0.153650
    13  H    0.171423
    14  H    0.171080
 Sum of Mulliken charges =   0.00000
 Mulliken charges with hydrogens summed into heavy atoms:
               1
     1  C    0.007403
     2  C   -0.002106
     3  C   -0.001675
     4  C    0.007385
     5  C   -0.005524
     6  C   -0.005483
 Electronic spatial extent (au):  <R**2>=            518.2541
 Charge=              0.0000 electrons
 Dipole moment (field-independent basis, Debye):
    X=             -0.7020    Y=              0.0011    Z=              0.0001  Tot=              0.7020
 Quadrupole moment (field-independent basis, Debye-Ang):
   XX=            -33.1436   YY=            -33.4956   ZZ=            -38.2567
   XY=             -0.0031   XZ=             -0.0001   YZ=              0.0005
 Traceless Quadrupole moment (field-independent basis, Debye-Ang):
   XX=              1.8217   YY=              1.4697   ZZ=             -3.2914
   XY=             -0.0031   XZ=             -0.0001   YZ=              0.0005
 Octapole moment (field-independent basis, Debye-Ang**2):
  XXX=              4.0298  YYY=              0.0036  ZZZ=              0.0002  XYY=             -0.2210
  XXY=              0.0061  XXZ=              0.0003  XZZ=             -4.2670  YZZ=              0.0030
  YYZ=              0.0000  XYZ=              0.0010
 Hexadecapole moment (field-independent basis, Debye-Ang**3):
 XXXX=           -310.7679 YYYY=           -297.0425 ZZZZ=            -52.1335 XXXY=             -0.0184
 XXXZ=             -0.0006 YYYX=             -0.0085 YYYZ=              0.0078 ZZZX=             -0.0004
 ZZZY=             -0.0058 XXYY=           -103.3312 XXZZ=            -62.7536 YYZZ=            -65.9990
 XXYZ=              0.0074 YYXZ=             -0.0002 ZZXY=             -0.0063
 N-N= 2.170824484202D+02 E-N=-9.744050114927D+02  KE= 2.311624198160D+02
 No NMR shielding tensors so no spin-rotation constants.
 Leave Link  601 at Thu Jun  4 11:49:28 2020, MaxMem=   104857600 cpu:               0.3 elap:               0.1
 (Enter /home/roberto/software/g16A03/g16/l9999.exe)
 1\1\GINC-ROBERTO-XPS-15-9570\SP\RB3LYP\6-31G(d)\C6H8\ROBERTO\04-Jun-20
 20\0\\#p b3lyp/6-31g(d) # scrf=(iefpcm,solvent=Cyclohexane,read) nosym
 \\Cycloexadiene, E(B3LYP/6-31G*) xp-pcm for eta=3\\0,1\C,0,0.138413,-1
 .430211,-0.000144\C,0,-1.225538,-0.78008,0.000407\C,0,-1.225541,0.7800
 77,-0.000405\C,0,0.13841,1.430212,0.000135\C,0,1.282673,0.733599,0.000
 192\C,0,1.282675,-0.733596,-0.000186\H,0,0.157225,-2.518723,-0.000332\
 H,0,-1.785851,-1.152982,-0.868861\H,0,-1.784697,1.152137,-0.870795\H,0
 ,0.157219,2.518724,0.000302\H,0,2.240035,1.249598,0.00046\H,0,2.240037
 ,-1.249594,-0.000454\H,0,-1.78584,1.152972,0.868876\H,0,-1.784681,-1.1
 52136,0.870808\\Version=ES64L-G16RevA.03\HF=-233.3864649\RMSD=3.529e-0
 9\Dipole=-0.2761993,0.0004412,0.0000318\Quadrupole=1.3543873,1.0926786
 ,-2.447066,-0.0022952,-0.0001053,0.0003759\PG=C01 [X(C6H8)]\\@


 ... FOR AFTERWARDS A MAN FINDS PLEASURE IN HIS PAINS,
 WHEN HE HAS SUFFERED LONG AND WANDERED FAR.

                                    -- HOMER
 Job cpu time:       0 days  0 hours  1 minutes 36.9 seconds.
 Elapsed time:       0 days  0 hours  0 minutes 19.4 seconds.
 File lengths (MBytes):  RWF=    152 Int=      0 D2E=      0 Chk=      4 Scr=      1
 Normal termination of Gaussian 16 at Thu Jun  4 11:49:28 2020.
