 Entering Gaussian System, Link 0=g16
 Input=endo-2_xp-Gcav.com
 Output=endo-2_xp-Gcav.log
 Initial command:
 /home/roberto/software/g16A03/g16/l1.exe "/home/roberto/scr/Gau-24452.inp" -scrdir="/home/roberto/scr/"
 Entering Link 1 = /home/roberto/software/g16A03/g16/l1.exe PID=     24457.
  
 Copyright (c) 1988,1990,1992,1993,1995,1998,2003,2009,2016,
            Gaussian, Inc.  All Rights Reserved.
  
 This is part of the Gaussian(R) 16 program.  It is based on
 the Gaussian(R) 09 system (copyright 2009, Gaussian, Inc.),
 the Gaussian(R) 03 system (copyright 2003, Gaussian, Inc.),
 the Gaussian(R) 98 system (copyright 1998, Gaussian, Inc.),
 the Gaussian(R) 94 system (copyright 1995, Gaussian, Inc.),
 the Gaussian 92(TM) system (copyright 1992, Gaussian, Inc.),
 the Gaussian 90(TM) system (copyright 1990, Gaussian, Inc.),
 the Gaussian 88(TM) system (copyright 1988, Gaussian, Inc.),
 the Gaussian 86(TM) system (copyright 1986, Carnegie Mellon
 University), and the Gaussian 82(TM) system (copyright 1983,
 Carnegie Mellon University). Gaussian is a federally registered
 trademark of Gaussian, Inc.
  
 This software contains proprietary and confidential information,
 including trade secrets, belonging to Gaussian, Inc.
  
 This software is provided under written license and may be
 used, copied, transmitted, or stored only in accord with that
 written license.
  
 The following legend is applicable only to US Government
 contracts under FAR:
  
                    RESTRICTED RIGHTS LEGEND
  
 Use, reproduction and disclosure by the US Government is
 subject to restrictions as set forth in subparagraphs (a)
 and (c) of the Commercial Computer Software - Restricted
 Rights clause in FAR 52.227-19.
  
 Gaussian, Inc.
 340 Quinnipiac St., Bldg. 40, Wallingford CT 06492
  
  
 ---------------------------------------------------------------
 Warning -- This program may not be used in any manner that
 competes with the business of Gaussian, Inc. or will provide
 assistance to any competitor of Gaussian, Inc.  The licensee
 of this program is prohibited from giving any competitor of
 Gaussian, Inc. access to this program.  By using this program,
 the user acknowledges that Gaussian, Inc. is engaged in the
 business of creating and licensing software in the field of
 computational chemistry and represents and warrants to the
 licensee that it is not a competitor of Gaussian, Inc. and that
 it will not use this program in any manner prohibited above.
 ---------------------------------------------------------------
  

 Cite this work as:
 Gaussian 16, Revision A.03,
 M. J. Frisch, G. W. Trucks, H. B. Schlegel, G. E. Scuseria, 
 M. A. Robb, J. R. Cheeseman, G. Scalmani, V. Barone, 
 G. A. Petersson, H. Nakatsuji, X. Li, M. Caricato, A. V. Marenich, 
 J. Bloino, B. G. Janesko, R. Gomperts, B. Mennucci, H. P. Hratchian, 
 J. V. Ortiz, A. F. Izmaylov, J. L. Sonnenberg, D. Williams-Young, 
 F. Ding, F. Lipparini, F. Egidi, J. Goings, B. Peng, A. Petrone, 
 T. Henderson, D. Ranasinghe, V. G. Zakrzewski, J. Gao, N. Rega, 
 G. Zheng, W. Liang, M. Hada, M. Ehara, K. Toyota, R. Fukuda, 
 J. Hasegawa, M. Ishida, T. Nakajima, Y. Honda, O. Kitao, H. Nakai, 
 T. Vreven, K. Throssell, J. A. Montgomery, Jr., J. E. Peralta, 
 F. Ogliaro, M. J. Bearpark, J. J. Heyd, E. N. Brothers, K. N. Kudin, 
 V. N. Staroverov, T. A. Keith, R. Kobayashi, J. Normand, 
 K. Raghavachari, A. P. Rendell, J. C. Burant, S. S. Iyengar, 
 J. Tomasi, M. Cossi, J. M. Millam, M. Klene, C. Adamo, R. Cammi, 
 J. W. Ochterski, R. L. Martin, K. Morokuma, O. Farkas, 
 J. B. Foresman, and D. J. Fox, Gaussian, Inc., Wallingford CT, 2016.
 
 ******************************************
 Gaussian 16:  ES64L-G16RevA.03 25-Dec-2016
                 4-Jun-2020 
 ******************************************
 %chk=scr.chk
 %nproc=6
 Will use up to    6 processors via shared memory.
 ----------------------------------------------------------------------
 #p b3lyp/6-31g(d) # scrf=(iefpcm,solvent=Cyclohexane,read) nosym guess
 =only pop=none
 ----------------------------------------------------------------------
 1/38=1,40=2,172=1/1;
 2/12=2,15=1,17=6,18=5,40=1/2;
 3/5=1,6=6,7=1,11=2,25=1,30=1,70=2203,72=17,74=-5,89=1/1,2;
 4//1;
 99/5=2/99;
 Leave Link    1 at Thu Jun  4 12:16:00 2020, MaxMem=           0 cpu:               0.0 elap:               0.0
 (Enter /home/roberto/software/g16A03/g16/l101.exe)
 -------------------------------------------------
 endo-2 xp-pcm with Vmol=108.160262177098 cm^3/mol
 -------------------------------------------------
 Symbolic Z-matrix:
 Charge =  0 Multiplicity = 1
 C                    -2.45453  -0.62092   0.45008 
 C                    -2.42912   0.86019   0.1779 
 C                    -1.41169   1.4535   -0.45201 
 C                    -0.14415   0.76155  -0.89234 
 C                    -0.18563  -0.80161  -0.78974 
 C                    -1.60418  -1.37095  -0.58512 
 H                    -1.44621   2.52885  -0.63209 
 H                    -3.28202   1.45434   0.50376 
 H                    -2.09265  -0.82207   1.46908 
 H                    -3.48692  -0.9942    0.41876 
 H                     0.05753   1.04783  -1.93573 
 H                     0.16923  -1.20768  -1.74683 
 H                    -2.1324   -1.31836  -1.54632 
 H                    -1.53453  -2.43626  -0.32713 
 C                     0.71664  -0.47071   1.55197 
 C                     0.8629   -1.26498   0.27443 
 H                     0.54992  -0.9551    2.51117 
 H                     0.76631  -2.34332   0.4439 
 C                     2.26764  -0.93522  -0.30752 
 H                     3.03946  -1.25934   0.39855 
 H                     2.42424  -1.49829  -1.23615 
 C                     0.84359   0.852     1.39279 
 H                     0.78015   1.57224   2.20412 
 C                     1.06814   1.28106  -0.03906 
 H                     1.14698   2.36935  -0.13676 
 C                     2.35954   0.59461  -0.56352 
 H                     3.23326   1.02347  -0.06134 
 H                     2.47277   0.80746  -1.63414 
 
 ITRead=  0  0  0  0  0  0  0  0  0  0  0  0  0  0  0  0  0  0  0  0
 ITRead=  0  0  0  0  0  0  0  0
 MicOpt= -1 -1 -1 -1 -1 -1 -1 -1 -1 -1 -1 -1 -1 -1 -1 -1 -1 -1 -1 -1
 MicOpt= -1 -1 -1 -1 -1 -1 -1 -1
 NAtoms=     28 NQM=       28 NQMF=       0 NMMI=      0 NMMIF=      0
                NMic=       0 NMicF=      0.
                    Isotopes and Nuclear Properties:
 (Nuclear quadrupole moments (NQMom) in fm**2, nuclear magnetic moments (NMagM)
  in nuclear magnetons)

  Atom         1           2           3           4           5           6           7           8           9          10
 IAtWgt=          12          12          12          12          12          12           1           1           1           1
 AtmWgt=  12.0000000  12.0000000  12.0000000  12.0000000  12.0000000  12.0000000   1.0078250   1.0078250   1.0078250   1.0078250
 NucSpn=           0           0           0           0           0           0           1           1           1           1
 AtZEff=   0.0000000   0.0000000   0.0000000   0.0000000   0.0000000   0.0000000   0.0000000   0.0000000   0.0000000   0.0000000
 NQMom=    0.0000000   0.0000000   0.0000000   0.0000000   0.0000000   0.0000000   0.0000000   0.0000000   0.0000000   0.0000000
 NMagM=    0.0000000   0.0000000   0.0000000   0.0000000   0.0000000   0.0000000   2.7928460   2.7928460   2.7928460   2.7928460
 AtZNuc=   6.0000000   6.0000000   6.0000000   6.0000000   6.0000000   6.0000000   1.0000000   1.0000000   1.0000000   1.0000000

  Atom        11          12          13          14          15          16          17          18          19          20
 IAtWgt=           1           1           1           1          12          12           1           1          12           1
 AtmWgt=   1.0078250   1.0078250   1.0078250   1.0078250  12.0000000  12.0000000   1.0078250   1.0078250  12.0000000   1.0078250
 NucSpn=           1           1           1           1           0           0           1           1           0           1
 AtZEff=   0.0000000   0.0000000   0.0000000   0.0000000   0.0000000   0.0000000   0.0000000   0.0000000   0.0000000   0.0000000
 NQMom=    0.0000000   0.0000000   0.0000000   0.0000000   0.0000000   0.0000000   0.0000000   0.0000000   0.0000000   0.0000000
 NMagM=    2.7928460   2.7928460   2.7928460   2.7928460   0.0000000   0.0000000   2.7928460   2.7928460   0.0000000   2.7928460
 AtZNuc=   1.0000000   1.0000000   1.0000000   1.0000000   6.0000000   6.0000000   1.0000000   1.0000000   6.0000000   1.0000000

  Atom        21          22          23          24          25          26          27          28
 IAtWgt=           1          12           1          12           1          12           1           1
 AtmWgt=   1.0078250  12.0000000   1.0078250  12.0000000   1.0078250  12.0000000   1.0078250   1.0078250
 NucSpn=           1           0           1           0           1           0           1           1
 AtZEff=   0.0000000   0.0000000   0.0000000   0.0000000   0.0000000   0.0000000   0.0000000   0.0000000
 NQMom=    0.0000000   0.0000000   0.0000000   0.0000000   0.0000000   0.0000000   0.0000000   0.0000000
 NMagM=    2.7928460   0.0000000   2.7928460   0.0000000   2.7928460   0.0000000   2.7928460   2.7928460
 AtZNuc=   1.0000000   6.0000000   1.0000000   6.0000000   1.0000000   6.0000000   1.0000000   1.0000000
 Leave Link  101 at Thu Jun  4 12:16:00 2020, MaxMem=   104857600 cpu:               0.1 elap:               0.1
 (Enter /home/roberto/software/g16A03/g16/l202.exe)
                          Input orientation:                          
 ---------------------------------------------------------------------
 Center     Atomic      Atomic             Coordinates (Angstroms)
 Number     Number       Type             X           Y           Z
 ---------------------------------------------------------------------
      1          6           0       -2.454531   -0.620920    0.450078
      2          6           0       -2.429115    0.860192    0.177901
      3          6           0       -1.411688    1.453495   -0.452012
      4          6           0       -0.144149    0.761548   -0.892337
      5          6           0       -0.185628   -0.801613   -0.789740
      6          6           0       -1.604183   -1.370946   -0.585116
      7          1           0       -1.446210    2.528854   -0.632087
      8          1           0       -3.282020    1.454343    0.503764
      9          1           0       -2.092649   -0.822074    1.469083
     10          1           0       -3.486923   -0.994204    0.418758
     11          1           0        0.057528    1.047828   -1.935726
     12          1           0        0.169231   -1.207683   -1.746829
     13          1           0       -2.132404   -1.318363   -1.546324
     14          1           0       -1.534534   -2.436262   -0.327132
     15          6           0        0.716641   -0.470708    1.551966
     16          6           0        0.862900   -1.264979    0.274427
     17          1           0        0.549920   -0.955102    2.511169
     18          1           0        0.766306   -2.343321    0.443899
     19          6           0        2.267636   -0.935217   -0.307517
     20          1           0        3.039458   -1.259338    0.398554
     21          1           0        2.424242   -1.498287   -1.236154
     22          6           0        0.843594    0.852001    1.392785
     23          1           0        0.780145    1.572240    2.204115
     24          6           0        1.068138    1.281056   -0.039061
     25          1           0        1.146978    2.369349   -0.136763
     26          6           0        2.359537    0.594607   -0.563515
     27          1           0        3.233257    1.023470   -0.061341
     28          1           0        2.472773    0.807458   -1.634143
 ---------------------------------------------------------------------
                    Distance matrix (angstroms):
                    1          2          3          4          5
     1  C    0.000000
     2  C    1.506127   0.000000
     3  C    2.490880   1.335648   0.000000
     4  C    3.008515   2.525116   1.509746   0.000000
     5  C    2.591856   2.954853   2.588976   1.567073   0.000000
     6  C    1.535336   2.498136   2.834120   2.602617   1.542177
     7  H    3.479780   2.099194   1.090878   2.210535   3.564538
     8  H    2.234801   1.089334   2.100393   3.503612   4.043530
     9  H    1.099906   2.147179   3.054919   3.446856   2.956253
    10  H    1.098251   2.148431   3.325067   3.996971   3.520811
    11  H    3.845416   3.268948   2.127103   1.100586   2.189256
    12  H    3.472005   3.838241   3.355253   2.169386   1.098561
    13  H    2.139115   2.794117   3.065966   2.950743   2.151601
    14  H    2.178512   3.452817   3.893699   3.532508   2.169247
    15  C    3.360514   3.681729   3.499753   2.869500   2.531240
    16  C    3.383935   3.919570   3.618227   2.546036   1.564152
    17  H    3.658757   4.196913   4.292981   3.874593   3.385349
    18  H    3.652464   4.532545   4.467900   3.500667   2.192010
    19  C    4.792869   5.051593   4.389106   3.006282   2.503776
    20  H    5.531198   5.869104   5.281631   3.985691   3.467382
    21  H    5.235989   5.578266   4.903290   3.438269   2.737894
    22  C    3.733071   3.490936   2.975125   2.491104   2.925261
    23  H    4.283658   3.861594   3.445757   3.331600   3.940947
    24  C    4.033109   3.529161   2.519881   1.570862   2.544201
    25  H    4.717728   3.894228   2.735862   2.196116   3.501031
    26  C    5.067556   4.852981   3.869400   2.530699   2.911782
    27  H    5.942769   5.669775   4.681139   3.487983   3.943383
    28  H    5.537379   5.226355   4.111427   2.720416   3.220128
                    6          7          8          9         10
     6  C    0.000000
     7  H    3.903281   0.000000
     8  H    3.461655   2.411417   0.000000
     9  H    2.181649   4.007682   2.743815   0.000000
    10  H    2.166658   4.204845   2.458576   1.754084   0.000000
    11  H    3.230464   2.480754   4.155592   4.439878   4.719812
    12  H    2.126318   4.220664   4.905373   3.950555   4.254739
    13  H    1.098045   4.013449   3.634883   3.056233   2.408599
    14  H    1.098319   4.975256   4.345216   2.478605   2.539233
    15  C    3.280819   4.294809   4.560026   2.832391   4.384992
    16  C    2.614678   4.532872   4.962627   3.218484   4.360632
    17  H    3.794742   5.099269   4.951653   2.843732   4.547067
    18  H    2.761087   5.458119   5.551106   3.396884   4.462141
    19  C    3.906137   5.088987   6.096463   4.709692   5.800509
    20  H    4.747996   5.961026   6.880132   5.260775   6.531796
    21  H    4.082680   5.618110   6.656333   5.308284   6.159116
    22  C    3.852947   3.486423   4.263082   3.380809   4.807346
    23  H    4.703953   3.730390   4.405256   3.811293   5.289802
    24  C    3.804286   2.868907   4.387318   4.085123   5.112239
    25  H    4.664731   2.644884   4.567662   4.822769   5.752837
    26  C    4.424358   4.269628   5.805635   5.095135   6.137612
    27  H    5.422951   4.948671   6.553917   5.840677   7.032946
    28  H    4.739986   4.396106   6.173066   5.755733   6.555789
                   11         12         13         14         15
    11  H    0.000000
    12  H    2.266162   0.000000
    13  H    3.247506   2.313002   0.000000
    14  H    4.154650   2.535303   1.758856   0.000000
    15  C    3.860619   3.424155   4.293597   3.530184   0.000000
    16  C    3.298860   2.137741   3.505685   2.735227   1.511411
    17  H    4.901944   4.282437   4.877507   3.820306   1.087430
    18  H    4.202960   2.538791   3.662519   2.428372   2.176455
    19  C    3.386460   2.559133   4.587134   4.087789   2.465569
    20  H    4.434387   3.583788   5.525775   4.778407   2.710678
    21  H    3.545904   2.330303   4.570733   4.168696   3.427161
    22  C    3.425673   3.815002   4.712261   4.407525   1.338288
    23  H    4.235029   4.869409   5.559165   5.275703   2.145453
    24  C    2.161728   3.149338   4.390022   4.547014   2.392403
    25  H    2.483865   4.042704   5.132293   5.506418   3.332104
    26  C    2.718017   3.073422   4.980251   4.940226   2.882579
    27  H    3.687705   4.148152   6.039841   5.896798   3.341958
    28  H    2.445841   3.062645   5.072917   5.318694   3.856034
                   16         17         18         19         20
    16  C    0.000000
    17  H    2.279692   0.000000
    18  H    1.095843   2.499516   0.000000
    19  C    1.555855   3.300899   2.191204   0.000000
    20  H    2.180102   3.279253   2.518788   1.095126   0.000000
    21  H    2.184966   4.224993   2.507072   1.097242   1.762912
    22  C    2.394306   2.145378   3.334133   2.848345   3.204382
    23  H    3.432252   2.556314   4.293037   3.848151   4.047515
    24  C    2.573459   3.431126   3.668850   2.534311   3.245183
    25  H    3.668531   4.291852   4.763543   3.493592   4.127398
    26  C    2.529848   3.889729   3.490657   1.553815   2.196584
    27  H    3.311847   4.211039   4.204331   2.197608   2.336723
    28  H    3.244892   4.897713   4.142185   2.199758   2.953749
                   21         22         23         24         25
    21  H    0.000000
    22  C    3.864404   0.000000
    23  H    4.895574   1.086750   0.000000
    24  C    3.316142   1.511519   2.280256   0.000000
    25  H    4.218847   2.175754   2.499932   1.095510   0.000000
    26  C    2.199281   2.488261   3.333170   1.553697   2.191375
    27  H    2.897231   2.802565   3.383962   2.180502   2.483876
    28  H    2.340344   3.437805   4.264048   2.177517   2.537594
                   26         27         28
    26  C    0.000000
    27  H    1.095212   0.000000
    28  H    1.097439   1.760313   0.000000
 Symmetry turned off by external request.
 Stoichiometry    C12H16
 Framework group  C1[X(C12H16)]
 Deg. of freedom    78
 Full point group                 C1      NOp   1
 Rotational constants (GHZ):           1.7166404           0.9213692           0.8182222
 Leave Link  202 at Thu Jun  4 12:16:00 2020, MaxMem=   104857600 cpu:               0.0 elap:               0.0
 (Enter /home/roberto/software/g16A03/g16/l301.exe)
 Standard basis: 6-31G(d) (6D, 7F)
 Ernie: Thresh=  0.10000D-02 Tol=  0.10000D-05 Strict=F.
   212 basis functions,   400 primitive gaussians,   212 cartesian basis functions
    44 alpha electrons       44 beta electrons
       nuclear repulsion energy       737.1159722346 Hartrees.
 IExCor=  402 DFT=T Ex+Corr=B3LYP ExCW=0 ScaHFX=  0.200000
 ScaDFX=  0.800000  0.720000  1.000000  0.810000 ScalE2=  1.000000  1.000000
 IRadAn=      5 IRanWt=     -1 IRanGd=            0 ICorTp=0 IEmpDi=  4
 NAtoms=   28 NActive=   28 NUniq=   28 SFac= 1.00D+00 NAtFMM=   60 NAOKFM=F Big=F
 Integral buffers will be    131072 words long.
 Raffenetti 2 integral format.
 Two-electron integral symmetry is turned off.
 Using the following non-standard input for PCM:
 norep  pcmdoc geomview  nodis cav g03defaults noaddsph  tsare=0.075
 Warning! Using old PCM defaults because the g03defaults keyword was found.
 These settings can be overridden by following keywords.
 nsfe=28
 Vmol=108.160262177098 Rsolv=2.815
 --- end of non-standard input.
 Reading user-defined spheres from input:
 ISph  on   Nord    Re0     Alpha      Xe            Ye            Ze
 --- end of user-defined spheres data.
 ------------------------------------------------------------------------------
 Polarizable Continuum Model (PCM)
 =================================
 Model                : PCM.
 Atomic radii         : UA0 (Simple United Atom Topological Model).
 Polarization charges : Total charges.
 Charge compensation  : None.
 Solution method      : On-the-fly selection.
 Cavity type          : VdW (van der Waals Surface) (Alpha=1.000).
 Cavity algorithm     : GePol (No added spheres)
                        User-defined sphere list used, NSphG=   28.
                        Tesserae with average area of 0.075 Ang**2.
                        Smoothing algorithm: None.
                        Polarization charges: point-like.
                        Self-potential: constant (ISelfS= 1).
                        Self-field    : global E.n sum rule (ISelfD= 3).
 Solvent              : CycloHexane, Eps=   2.016500 Eps(inf)=   2.035188
 ------------------------------------------------------------------------------
 GePol: Number of generator spheres                  =      28
 GePol: Total number of spheres                      =      28
 GePol: Number of exposed spheres                    =      28 (100.00%)
 GePol: Number of tesserae                           =    3646
 GePol: Average area of tesserae                     =       0.06 Ang**2
 GePol: Minimum area of tessera                      =   0.10D-02 Ang**2
 GePol: Maximum area of tessera                      =    0.12395 Ang**2
 GePol: Number of small tesserae                     =       0
 GePol: Fraction of small tesserae (<1% of avg)      =       0.00%
 GePol: Total count of vertices                      =   12151
 GePol: Maximum number of vertices in a tessera      =       6
 GePol: Cavity surface area                          =    218.692 Ang**2
 GePol: Cavity volume                                =    226.266 Ang**3
 PCM non-electrostatic energy =         0.0343938818 Hartrees.
 Nuclear repulsion after PCM non-electrostatic terms =      737.1503661164 Hartrees.
 Leave Link  301 at Thu Jun  4 12:16:00 2020, MaxMem=   104857600 cpu:               0.1 elap:               0.1
 (Enter /home/roberto/software/g16A03/g16/l302.exe)
 NPDir=0 NMtPBC=     1 NCelOv=     1 NCel=       1 NClECP=     1 NCelD=      1
         NCelK=      1 NCelE2=     1 NClLst=     1 CellRange=     0.0.
 One-electron integrals computed using PRISM.
 NBasis=   212 RedAO= T EigKep=  9.65D-04  NBF=   212
 NBsUse=   212 1.00D-06 EigRej= -1.00D+00 NBFU=   212
 Precomputing XC quadrature grid using
 IXCGrd= 4 IRadAn=           5 IRanWt=          -1 IRanGd=           0 AccXCQ= 0.00D+00.
 Generated NRdTot=       0 NPtTot=           0 NUsed=           0 NTot=          32
 NSgBfM=   212   212   212   212   212 MxSgAt=    28 MxSgA2=    28.
 Leave Link  302 at Thu Jun  4 12:16:01 2020, MaxMem=   104857600 cpu:               1.4 elap:               0.3
 (Enter /home/roberto/software/g16A03/g16/l401.exe)
 ExpMin= 1.61D-01 ExpMax= 3.05D+03 ExpMxC= 4.57D+02 IAcc=3 IRadAn=         5 AccDes= 0.00D+00
 Harris functional with IExCor=  402 and IRadAn=       5 diagonalized for initial guess.
 HarFok:  IExCor=  402 AccDes= 0.00D+00 IRadAn=         5 IDoV= 1 UseB2=F ITyADJ=14
 ICtDFT=  3500011 ScaDFX=  1.000000  1.000000  1.000000  1.000000
 FoFCou: FMM=F IPFlag=           0 FMFlag=      100000 FMFlg1=           0
         NFxFlg=           0 DoJE=T BraDBF=F KetDBF=T FulRan=T
         wScrn=  0.000000 ICntrl=       500 IOpCl=  0 I1Cent=   200000004 NGrid=           0
         NMat0=    1 NMatS0=      1 NMatT0=    0 NMatD0=    1 NMtDS0=    0 NMtDT0=    0
 Symmetry not used in FoFCou.
 Harris En= -466.880545670660    
 JPrj=0 DoOrth=F DoCkMO=F.
 Leave Link  401 at Thu Jun  4 12:16:03 2020, MaxMem=   104857600 cpu:              13.5 elap:               2.3
 (Enter /home/roberto/software/g16A03/g16/l9999.exe)

 This type of calculation cannot be archived.


 IF OTHER PEOPLE ARE GOING TO TALK, CONVERSATION IS SIMPLY IMPOSSIBLE.

                                               -- WHISTLER'S PRINCIPLE
 Job cpu time:       0 days  0 hours  0 minutes 15.2 seconds.
 Elapsed time:       0 days  0 hours  0 minutes  2.9 seconds.
 File lengths (MBytes):  RWF=    232 Int=      0 D2E=      0 Chk=      1 Scr=      1
 Normal termination of Gaussian 16 at Thu Jun  4 12:16:03 2020.
 Initial command:
 /home/roberto/software/g16A03/g16/l1.exe "/home/roberto/scr/Gau-24452.inp" -scrdir="/home/roberto/scr/"
 Entering Link 1 = /home/roberto/software/g16A03/g16/l1.exe PID=     24496.
  
 Copyright (c) 1988,1990,1992,1993,1995,1998,2003,2009,2016,
            Gaussian, Inc.  All Rights Reserved.
  
 This is part of the Gaussian(R) 16 program.  It is based on
 the Gaussian(R) 09 system (copyright 2009, Gaussian, Inc.),
 the Gaussian(R) 03 system (copyright 2003, Gaussian, Inc.),
 the Gaussian(R) 98 system (copyright 1998, Gaussian, Inc.),
 the Gaussian(R) 94 system (copyright 1995, Gaussian, Inc.),
 the Gaussian 92(TM) system (copyright 1992, Gaussian, Inc.),
 the Gaussian 90(TM) system (copyright 1990, Gaussian, Inc.),
 the Gaussian 88(TM) system (copyright 1988, Gaussian, Inc.),
 the Gaussian 86(TM) system (copyright 1986, Carnegie Mellon
 University), and the Gaussian 82(TM) system (copyright 1983,
 Carnegie Mellon University). Gaussian is a federally registered
 trademark of Gaussian, Inc.
  
 This software contains proprietary and confidential information,
 including trade secrets, belonging to Gaussian, Inc.
  
 This software is provided under written license and may be
 used, copied, transmitted, or stored only in accord with that
 written license.
  
 The following legend is applicable only to US Government
 contracts under FAR:
  
                    RESTRICTED RIGHTS LEGEND
  
 Use, reproduction and disclosure by the US Government is
 subject to restrictions as set forth in subparagraphs (a)
 and (c) of the Commercial Computer Software - Restricted
 Rights clause in FAR 52.227-19.
  
 Gaussian, Inc.
 340 Quinnipiac St., Bldg. 40, Wallingford CT 06492
  
  
 ---------------------------------------------------------------
 Warning -- This program may not be used in any manner that
 competes with the business of Gaussian, Inc. or will provide
 assistance to any competitor of Gaussian, Inc.  The licensee
 of this program is prohibited from giving any competitor of
 Gaussian, Inc. access to this program.  By using this program,
 the user acknowledges that Gaussian, Inc. is engaged in the
 business of creating and licensing software in the field of
 computational chemistry and represents and warrants to the
 licensee that it is not a competitor of Gaussian, Inc. and that
 it will not use this program in any manner prohibited above.
 ---------------------------------------------------------------
  

 Cite this work as:
 Gaussian 16, Revision A.03,
 M. J. Frisch, G. W. Trucks, H. B. Schlegel, G. E. Scuseria, 
 M. A. Robb, J. R. Cheeseman, G. Scalmani, V. Barone, 
 G. A. Petersson, H. Nakatsuji, X. Li, M. Caricato, A. V. Marenich, 
 J. Bloino, B. G. Janesko, R. Gomperts, B. Mennucci, H. P. Hratchian, 
 J. V. Ortiz, A. F. Izmaylov, J. L. Sonnenberg, D. Williams-Young, 
 F. Ding, F. Lipparini, F. Egidi, J. Goings, B. Peng, A. Petrone, 
 T. Henderson, D. Ranasinghe, V. G. Zakrzewski, J. Gao, N. Rega, 
 G. Zheng, W. Liang, M. Hada, M. Ehara, K. Toyota, R. Fukuda, 
 J. Hasegawa, M. Ishida, T. Nakajima, Y. Honda, O. Kitao, H. Nakai, 
 T. Vreven, K. Throssell, J. A. Montgomery, Jr., J. E. Peralta, 
 F. Ogliaro, M. J. Bearpark, J. J. Heyd, E. N. Brothers, K. N. Kudin, 
 V. N. Staroverov, T. A. Keith, R. Kobayashi, J. Normand, 
 K. Raghavachari, A. P. Rendell, J. C. Burant, S. S. Iyengar, 
 J. Tomasi, M. Cossi, J. M. Millam, M. Klene, C. Adamo, R. Cammi, 
 J. W. Ochterski, R. L. Martin, K. Morokuma, O. Farkas, 
 J. B. Foresman, and D. J. Fox, Gaussian, Inc., Wallingford CT, 2016.
 
 ******************************************
 Gaussian 16:  ES64L-G16RevA.03 25-Dec-2016
                 4-Jun-2020 
 ******************************************
 %chk=scr.chk
 %nproc=6
 Will use up to    6 processors via shared memory.
 ----------------------------------------------------------------------
 #p b3lyp/6-31g(d) # scrf=(iefpcm,solvent=Cyclohexane,read) nosym guess
 =only pop=none
 ----------------------------------------------------------------------
 1/38=1,40=2,172=1/1;
 2/12=2,15=1,17=6,18=5,40=1/2;
 3/5=1,6=6,7=1,11=2,25=1,30=1,70=2203,72=17,74=-5,89=1/1,2;
 4//1;
 99/5=2/99;
 Leave Link    1 at Thu Jun  4 12:16:03 2020, MaxMem=           0 cpu:               0.0 elap:               0.0
 (Enter /home/roberto/software/g16A03/g16/l101.exe)
 -------------------------------------------------
 endo-2 xp-pcm with Vmol=101.082339588033 cm^3/mol
 -------------------------------------------------
 Symbolic Z-matrix:
 Charge =  0 Multiplicity = 1
 C                    -2.45453  -0.62092   0.45008 
 C                    -2.42912   0.86019   0.1779 
 C                    -1.41169   1.4535   -0.45201 
 C                    -0.14415   0.76155  -0.89234 
 C                    -0.18563  -0.80161  -0.78974 
 C                    -1.60418  -1.37095  -0.58512 
 H                    -1.44621   2.52885  -0.63209 
 H                    -3.28202   1.45434   0.50376 
 H                    -2.09265  -0.82207   1.46908 
 H                    -3.48692  -0.9942    0.41876 
 H                     0.05753   1.04783  -1.93573 
 H                     0.16923  -1.20768  -1.74683 
 H                    -2.1324   -1.31836  -1.54632 
 H                    -1.53453  -2.43626  -0.32713 
 C                     0.71664  -0.47071   1.55197 
 C                     0.8629   -1.26498   0.27443 
 H                     0.54992  -0.9551    2.51117 
 H                     0.76631  -2.34332   0.4439 
 C                     2.26764  -0.93522  -0.30752 
 H                     3.03946  -1.25934   0.39855 
 H                     2.42424  -1.49829  -1.23615 
 C                     0.84359   0.852     1.39279 
 H                     0.78015   1.57224   2.20412 
 C                     1.06814   1.28106  -0.03906 
 H                     1.14698   2.36935  -0.13676 
 C                     2.35954   0.59461  -0.56352 
 H                     3.23326   1.02347  -0.06134 
 H                     2.47277   0.80746  -1.63414 
 
 ITRead=  0  0  0  0  0  0  0  0  0  0  0  0  0  0  0  0  0  0  0  0
 ITRead=  0  0  0  0  0  0  0  0
 MicOpt= -1 -1 -1 -1 -1 -1 -1 -1 -1 -1 -1 -1 -1 -1 -1 -1 -1 -1 -1 -1
 MicOpt= -1 -1 -1 -1 -1 -1 -1 -1
 NAtoms=     28 NQM=       28 NQMF=       0 NMMI=      0 NMMIF=      0
                NMic=       0 NMicF=      0.
                    Isotopes and Nuclear Properties:
 (Nuclear quadrupole moments (NQMom) in fm**2, nuclear magnetic moments (NMagM)
  in nuclear magnetons)

  Atom         1           2           3           4           5           6           7           8           9          10
 IAtWgt=          12          12          12          12          12          12           1           1           1           1
 AtmWgt=  12.0000000  12.0000000  12.0000000  12.0000000  12.0000000  12.0000000   1.0078250   1.0078250   1.0078250   1.0078250
 NucSpn=           0           0           0           0           0           0           1           1           1           1
 AtZEff=   0.0000000   0.0000000   0.0000000   0.0000000   0.0000000   0.0000000   0.0000000   0.0000000   0.0000000   0.0000000
 NQMom=    0.0000000   0.0000000   0.0000000   0.0000000   0.0000000   0.0000000   0.0000000   0.0000000   0.0000000   0.0000000
 NMagM=    0.0000000   0.0000000   0.0000000   0.0000000   0.0000000   0.0000000   2.7928460   2.7928460   2.7928460   2.7928460
 AtZNuc=   6.0000000   6.0000000   6.0000000   6.0000000   6.0000000   6.0000000   1.0000000   1.0000000   1.0000000   1.0000000

  Atom        11          12          13          14          15          16          17          18          19          20
 IAtWgt=           1           1           1           1          12          12           1           1          12           1
 AtmWgt=   1.0078250   1.0078250   1.0078250   1.0078250  12.0000000  12.0000000   1.0078250   1.0078250  12.0000000   1.0078250
 NucSpn=           1           1           1           1           0           0           1           1           0           1
 AtZEff=   0.0000000   0.0000000   0.0000000   0.0000000   0.0000000   0.0000000   0.0000000   0.0000000   0.0000000   0.0000000
 NQMom=    0.0000000   0.0000000   0.0000000   0.0000000   0.0000000   0.0000000   0.0000000   0.0000000   0.0000000   0.0000000
 NMagM=    2.7928460   2.7928460   2.7928460   2.7928460   0.0000000   0.0000000   2.7928460   2.7928460   0.0000000   2.7928460
 AtZNuc=   1.0000000   1.0000000   1.0000000   1.0000000   6.0000000   6.0000000   1.0000000   1.0000000   6.0000000   1.0000000

  Atom        21          22          23          24          25          26          27          28
 IAtWgt=           1          12           1          12           1          12           1           1
 AtmWgt=   1.0078250  12.0000000   1.0078250  12.0000000   1.0078250  12.0000000   1.0078250   1.0078250
 NucSpn=           1           0           1           0           1           0           1           1
 AtZEff=   0.0000000   0.0000000   0.0000000   0.0000000   0.0000000   0.0000000   0.0000000   0.0000000
 NQMom=    0.0000000   0.0000000   0.0000000   0.0000000   0.0000000   0.0000000   0.0000000   0.0000000
 NMagM=    2.7928460   0.0000000   2.7928460   0.0000000   2.7928460   0.0000000   2.7928460   2.7928460
 AtZNuc=   1.0000000   6.0000000   1.0000000   6.0000000   1.0000000   6.0000000   1.0000000   1.0000000
 Leave Link  101 at Thu Jun  4 12:16:03 2020, MaxMem=   104857600 cpu:               0.1 elap:               0.1
 (Enter /home/roberto/software/g16A03/g16/l202.exe)
                          Input orientation:                          
 ---------------------------------------------------------------------
 Center     Atomic      Atomic             Coordinates (Angstroms)
 Number     Number       Type             X           Y           Z
 ---------------------------------------------------------------------
      1          6           0       -2.454531   -0.620920    0.450078
      2          6           0       -2.429115    0.860192    0.177901
      3          6           0       -1.411688    1.453495   -0.452012
      4          6           0       -0.144149    0.761548   -0.892337
      5          6           0       -0.185628   -0.801613   -0.789740
      6          6           0       -1.604183   -1.370946   -0.585116
      7          1           0       -1.446210    2.528854   -0.632087
      8          1           0       -3.282020    1.454343    0.503764
      9          1           0       -2.092649   -0.822074    1.469083
     10          1           0       -3.486923   -0.994204    0.418758
     11          1           0        0.057528    1.047828   -1.935726
     12          1           0        0.169231   -1.207683   -1.746829
     13          1           0       -2.132404   -1.318363   -1.546324
     14          1           0       -1.534534   -2.436262   -0.327132
     15          6           0        0.716641   -0.470708    1.551966
     16          6           0        0.862900   -1.264979    0.274427
     17          1           0        0.549920   -0.955102    2.511169
     18          1           0        0.766306   -2.343321    0.443899
     19          6           0        2.267636   -0.935217   -0.307517
     20          1           0        3.039458   -1.259338    0.398554
     21          1           0        2.424242   -1.498287   -1.236154
     22          6           0        0.843594    0.852001    1.392785
     23          1           0        0.780145    1.572240    2.204115
     24          6           0        1.068138    1.281056   -0.039061
     25          1           0        1.146978    2.369349   -0.136763
     26          6           0        2.359537    0.594607   -0.563515
     27          1           0        3.233257    1.023470   -0.061341
     28          1           0        2.472773    0.807458   -1.634143
 ---------------------------------------------------------------------
                    Distance matrix (angstroms):
                    1          2          3          4          5
     1  C    0.000000
     2  C    1.506127   0.000000
     3  C    2.490880   1.335648   0.000000
     4  C    3.008515   2.525116   1.509746   0.000000
     5  C    2.591856   2.954853   2.588976   1.567073   0.000000
     6  C    1.535336   2.498136   2.834120   2.602617   1.542177
     7  H    3.479780   2.099194   1.090878   2.210535   3.564538
     8  H    2.234801   1.089334   2.100393   3.503612   4.043530
     9  H    1.099906   2.147179   3.054919   3.446856   2.956253
    10  H    1.098251   2.148431   3.325067   3.996971   3.520811
    11  H    3.845416   3.268948   2.127103   1.100586   2.189256
    12  H    3.472005   3.838241   3.355253   2.169386   1.098561
    13  H    2.139115   2.794117   3.065966   2.950743   2.151601
    14  H    2.178512   3.452817   3.893699   3.532508   2.169247
    15  C    3.360514   3.681729   3.499753   2.869500   2.531240
    16  C    3.383935   3.919570   3.618227   2.546036   1.564152
    17  H    3.658757   4.196913   4.292981   3.874593   3.385349
    18  H    3.652464   4.532545   4.467900   3.500667   2.192010
    19  C    4.792869   5.051593   4.389106   3.006282   2.503776
    20  H    5.531198   5.869104   5.281631   3.985691   3.467382
    21  H    5.235989   5.578266   4.903290   3.438269   2.737894
    22  C    3.733071   3.490936   2.975125   2.491104   2.925261
    23  H    4.283658   3.861594   3.445757   3.331600   3.940947
    24  C    4.033109   3.529161   2.519881   1.570862   2.544201
    25  H    4.717728   3.894228   2.735862   2.196116   3.501031
    26  C    5.067556   4.852981   3.869400   2.530699   2.911782
    27  H    5.942769   5.669775   4.681139   3.487983   3.943383
    28  H    5.537379   5.226355   4.111427   2.720416   3.220128
                    6          7          8          9         10
     6  C    0.000000
     7  H    3.903281   0.000000
     8  H    3.461655   2.411417   0.000000
     9  H    2.181649   4.007682   2.743815   0.000000
    10  H    2.166658   4.204845   2.458576   1.754084   0.000000
    11  H    3.230464   2.480754   4.155592   4.439878   4.719812
    12  H    2.126318   4.220664   4.905373   3.950555   4.254739
    13  H    1.098045   4.013449   3.634883   3.056233   2.408599
    14  H    1.098319   4.975256   4.345216   2.478605   2.539233
    15  C    3.280819   4.294809   4.560026   2.832391   4.384992
    16  C    2.614678   4.532872   4.962627   3.218484   4.360632
    17  H    3.794742   5.099269   4.951653   2.843732   4.547067
    18  H    2.761087   5.458119   5.551106   3.396884   4.462141
    19  C    3.906137   5.088987   6.096463   4.709692   5.800509
    20  H    4.747996   5.961026   6.880132   5.260775   6.531796
    21  H    4.082680   5.618110   6.656333   5.308284   6.159116
    22  C    3.852947   3.486423   4.263082   3.380809   4.807346
    23  H    4.703953   3.730390   4.405256   3.811293   5.289802
    24  C    3.804286   2.868907   4.387318   4.085123   5.112239
    25  H    4.664731   2.644884   4.567662   4.822769   5.752837
    26  C    4.424358   4.269628   5.805635   5.095135   6.137612
    27  H    5.422951   4.948671   6.553917   5.840677   7.032946
    28  H    4.739986   4.396106   6.173066   5.755733   6.555789
                   11         12         13         14         15
    11  H    0.000000
    12  H    2.266162   0.000000
    13  H    3.247506   2.313002   0.000000
    14  H    4.154650   2.535303   1.758856   0.000000
    15  C    3.860619   3.424155   4.293597   3.530184   0.000000
    16  C    3.298860   2.137741   3.505685   2.735227   1.511411
    17  H    4.901944   4.282437   4.877507   3.820306   1.087430
    18  H    4.202960   2.538791   3.662519   2.428372   2.176455
    19  C    3.386460   2.559133   4.587134   4.087789   2.465569
    20  H    4.434387   3.583788   5.525775   4.778407   2.710678
    21  H    3.545904   2.330303   4.570733   4.168696   3.427161
    22  C    3.425673   3.815002   4.712261   4.407525   1.338288
    23  H    4.235029   4.869409   5.559165   5.275703   2.145453
    24  C    2.161728   3.149338   4.390022   4.547014   2.392403
    25  H    2.483865   4.042704   5.132293   5.506418   3.332104
    26  C    2.718017   3.073422   4.980251   4.940226   2.882579
    27  H    3.687705   4.148152   6.039841   5.896798   3.341958
    28  H    2.445841   3.062645   5.072917   5.318694   3.856034
                   16         17         18         19         20
    16  C    0.000000
    17  H    2.279692   0.000000
    18  H    1.095843   2.499516   0.000000
    19  C    1.555855   3.300899   2.191204   0.000000
    20  H    2.180102   3.279253   2.518788   1.095126   0.000000
    21  H    2.184966   4.224993   2.507072   1.097242   1.762912
    22  C    2.394306   2.145378   3.334133   2.848345   3.204382
    23  H    3.432252   2.556314   4.293037   3.848151   4.047515
    24  C    2.573459   3.431126   3.668850   2.534311   3.245183
    25  H    3.668531   4.291852   4.763543   3.493592   4.127398
    26  C    2.529848   3.889729   3.490657   1.553815   2.196584
    27  H    3.311847   4.211039   4.204331   2.197608   2.336723
    28  H    3.244892   4.897713   4.142185   2.199758   2.953749
                   21         22         23         24         25
    21  H    0.000000
    22  C    3.864404   0.000000
    23  H    4.895574   1.086750   0.000000
    24  C    3.316142   1.511519   2.280256   0.000000
    25  H    4.218847   2.175754   2.499932   1.095510   0.000000
    26  C    2.199281   2.488261   3.333170   1.553697   2.191375
    27  H    2.897231   2.802565   3.383962   2.180502   2.483876
    28  H    2.340344   3.437805   4.264048   2.177517   2.537594
                   26         27         28
    26  C    0.000000
    27  H    1.095212   0.000000
    28  H    1.097439   1.760313   0.000000
 Symmetry turned off by external request.
 Stoichiometry    C12H16
 Framework group  C1[X(C12H16)]
 Deg. of freedom    78
 Full point group                 C1      NOp   1
 Rotational constants (GHZ):           1.7166404           0.9213692           0.8182222
 Leave Link  202 at Thu Jun  4 12:16:03 2020, MaxMem=   104857600 cpu:               0.0 elap:               0.0
 (Enter /home/roberto/software/g16A03/g16/l301.exe)
 Standard basis: 6-31G(d) (6D, 7F)
 Ernie: Thresh=  0.10000D-02 Tol=  0.10000D-05 Strict=F.
   212 basis functions,   400 primitive gaussians,   212 cartesian basis functions
    44 alpha electrons       44 beta electrons
       nuclear repulsion energy       737.1159722346 Hartrees.
 IExCor=  402 DFT=T Ex+Corr=B3LYP ExCW=0 ScaHFX=  0.200000
 ScaDFX=  0.800000  0.720000  1.000000  0.810000 ScalE2=  1.000000  1.000000
 IRadAn=      5 IRanWt=     -1 IRanGd=            0 ICorTp=0 IEmpDi=  4
 NAtoms=   28 NActive=   28 NUniq=   28 SFac= 1.00D+00 NAtFMM=   60 NAOKFM=F Big=F
 Integral buffers will be    131072 words long.
 Raffenetti 2 integral format.
 Two-electron integral symmetry is turned off.
 Using the following non-standard input for PCM:
 norep  pcmdoc geomview  nodis cav g03defaults noaddsph  tsare=0.075
 Warning! Using old PCM defaults because the g03defaults keyword was found.
 These settings can be overridden by following keywords.
 nsfe=28
 Vmol=101.082339588033 Rsolv=2.815
 --- end of non-standard input.
 Reading user-defined spheres from input:
 ISph  on   Nord    Re0     Alpha      Xe            Ye            Ze
 --- end of user-defined spheres data.
 ------------------------------------------------------------------------------
 Polarizable Continuum Model (PCM)
 =================================
 Model                : PCM.
 Atomic radii         : UA0 (Simple United Atom Topological Model).
 Polarization charges : Total charges.
 Charge compensation  : None.
 Solution method      : On-the-fly selection.
 Cavity type          : VdW (van der Waals Surface) (Alpha=1.000).
 Cavity algorithm     : GePol (No added spheres)
                        User-defined sphere list used, NSphG=   28.
                        Tesserae with average area of 0.075 Ang**2.
                        Smoothing algorithm: None.
                        Polarization charges: point-like.
                        Self-potential: constant (ISelfS= 1).
                        Self-field    : global E.n sum rule (ISelfD= 3).
 Solvent              : CycloHexane, Eps=   2.016500 Eps(inf)=   2.035188
 ------------------------------------------------------------------------------
 GePol: Number of generator spheres                  =      28
 GePol: Total number of spheres                      =      28
 GePol: Number of exposed spheres                    =      28 (100.00%)
 GePol: Number of tesserae                           =    3646
 GePol: Average area of tesserae                     =       0.06 Ang**2
 GePol: Minimum area of tessera                      =   0.10D-02 Ang**2
 GePol: Maximum area of tessera                      =    0.12395 Ang**2
 GePol: Number of small tesserae                     =       0
 GePol: Fraction of small tesserae (<1% of avg)      =       0.00%
 GePol: Total count of vertices                      =   12151
 GePol: Maximum number of vertices in a tessera      =       6
 GePol: Cavity surface area                          =    218.692 Ang**2
 GePol: Cavity volume                                =    226.266 Ang**3
 PCM non-electrostatic energy =         0.0415914863 Hartrees.
 Nuclear repulsion after PCM non-electrostatic terms =      737.1575637209 Hartrees.
 Leave Link  301 at Thu Jun  4 12:16:03 2020, MaxMem=   104857600 cpu:               0.1 elap:               0.1
 (Enter /home/roberto/software/g16A03/g16/l302.exe)
 NPDir=0 NMtPBC=     1 NCelOv=     1 NCel=       1 NClECP=     1 NCelD=      1
         NCelK=      1 NCelE2=     1 NClLst=     1 CellRange=     0.0.
 One-electron integrals computed using PRISM.
 NBasis=   212 RedAO= T EigKep=  9.65D-04  NBF=   212
 NBsUse=   212 1.00D-06 EigRej= -1.00D+00 NBFU=   212
 Precomputing XC quadrature grid using
 IXCGrd= 4 IRadAn=           5 IRanWt=          -1 IRanGd=           0 AccXCQ= 0.00D+00.
 Generated NRdTot=       0 NPtTot=           0 NUsed=           0 NTot=          32
 NSgBfM=   212   212   212   212   212 MxSgAt=    28 MxSgA2=    28.
 Leave Link  302 at Thu Jun  4 12:16:03 2020, MaxMem=   104857600 cpu:               1.4 elap:               0.3
 (Enter /home/roberto/software/g16A03/g16/l401.exe)
 ExpMin= 1.61D-01 ExpMax= 3.05D+03 ExpMxC= 4.57D+02 IAcc=3 IRadAn=         5 AccDes= 0.00D+00
 Harris functional with IExCor=  402 and IRadAn=       5 diagonalized for initial guess.
 HarFok:  IExCor=  402 AccDes= 0.00D+00 IRadAn=         5 IDoV= 1 UseB2=F ITyADJ=14
 ICtDFT=  3500011 ScaDFX=  1.000000  1.000000  1.000000  1.000000
 FoFCou: FMM=F IPFlag=           0 FMFlag=      100000 FMFlg1=           0
         NFxFlg=           0 DoJE=T BraDBF=F KetDBF=T FulRan=T
         wScrn=  0.000000 ICntrl=       500 IOpCl=  0 I1Cent=   200000004 NGrid=           0
         NMat0=    1 NMatS0=      1 NMatT0=    0 NMatD0=    1 NMtDS0=    0 NMtDT0=    0
 Symmetry not used in FoFCou.
 Harris En= -466.873348066147    
 JPrj=0 DoOrth=F DoCkMO=F.
 Leave Link  401 at Thu Jun  4 12:16:06 2020, MaxMem=   104857600 cpu:              13.3 elap:               2.3
 (Enter /home/roberto/software/g16A03/g16/l9999.exe)

 This type of calculation cannot be archived.


 A successful marriage requires falling in love
 many times, always with the same person.
                           -- Mignon McLaughlin
 Job cpu time:       0 days  0 hours  0 minutes 15.0 seconds.
 Elapsed time:       0 days  0 hours  0 minutes  2.8 seconds.
 File lengths (MBytes):  RWF=    232 Int=      0 D2E=      0 Chk=      1 Scr=      1
 Normal termination of Gaussian 16 at Thu Jun  4 12:16:06 2020.
 Initial command:
 /home/roberto/software/g16A03/g16/l1.exe "/home/roberto/scr/Gau-24452.inp" -scrdir="/home/roberto/scr/"
 Entering Link 1 = /home/roberto/software/g16A03/g16/l1.exe PID=     24535.
  
 Copyright (c) 1988,1990,1992,1993,1995,1998,2003,2009,2016,
            Gaussian, Inc.  All Rights Reserved.
  
 This is part of the Gaussian(R) 16 program.  It is based on
 the Gaussian(R) 09 system (copyright 2009, Gaussian, Inc.),
 the Gaussian(R) 03 system (copyright 2003, Gaussian, Inc.),
 the Gaussian(R) 98 system (copyright 1998, Gaussian, Inc.),
 the Gaussian(R) 94 system (copyright 1995, Gaussian, Inc.),
 the Gaussian 92(TM) system (copyright 1992, Gaussian, Inc.),
 the Gaussian 90(TM) system (copyright 1990, Gaussian, Inc.),
 the Gaussian 88(TM) system (copyright 1988, Gaussian, Inc.),
 the Gaussian 86(TM) system (copyright 1986, Carnegie Mellon
 University), and the Gaussian 82(TM) system (copyright 1983,
 Carnegie Mellon University). Gaussian is a federally registered
 trademark of Gaussian, Inc.
  
 This software contains proprietary and confidential information,
 including trade secrets, belonging to Gaussian, Inc.
  
 This software is provided under written license and may be
 used, copied, transmitted, or stored only in accord with that
 written license.
  
 The following legend is applicable only to US Government
 contracts under FAR:
  
                    RESTRICTED RIGHTS LEGEND
  
 Use, reproduction and disclosure by the US Government is
 subject to restrictions as set forth in subparagraphs (a)
 and (c) of the Commercial Computer Software - Restricted
 Rights clause in FAR 52.227-19.
  
 Gaussian, Inc.
 340 Quinnipiac St., Bldg. 40, Wallingford CT 06492
  
  
 ---------------------------------------------------------------
 Warning -- This program may not be used in any manner that
 competes with the business of Gaussian, Inc. or will provide
 assistance to any competitor of Gaussian, Inc.  The licensee
 of this program is prohibited from giving any competitor of
 Gaussian, Inc. access to this program.  By using this program,
 the user acknowledges that Gaussian, Inc. is engaged in the
 business of creating and licensing software in the field of
 computational chemistry and represents and warrants to the
 licensee that it is not a competitor of Gaussian, Inc. and that
 it will not use this program in any manner prohibited above.
 ---------------------------------------------------------------
  

 Cite this work as:
 Gaussian 16, Revision A.03,
 M. J. Frisch, G. W. Trucks, H. B. Schlegel, G. E. Scuseria, 
 M. A. Robb, J. R. Cheeseman, G. Scalmani, V. Barone, 
 G. A. Petersson, H. Nakatsuji, X. Li, M. Caricato, A. V. Marenich, 
 J. Bloino, B. G. Janesko, R. Gomperts, B. Mennucci, H. P. Hratchian, 
 J. V. Ortiz, A. F. Izmaylov, J. L. Sonnenberg, D. Williams-Young, 
 F. Ding, F. Lipparini, F. Egidi, J. Goings, B. Peng, A. Petrone, 
 T. Henderson, D. Ranasinghe, V. G. Zakrzewski, J. Gao, N. Rega, 
 G. Zheng, W. Liang, M. Hada, M. Ehara, K. Toyota, R. Fukuda, 
 J. Hasegawa, M. Ishida, T. Nakajima, Y. Honda, O. Kitao, H. Nakai, 
 T. Vreven, K. Throssell, J. A. Montgomery, Jr., J. E. Peralta, 
 F. Ogliaro, M. J. Bearpark, J. J. Heyd, E. N. Brothers, K. N. Kudin, 
 V. N. Staroverov, T. A. Keith, R. Kobayashi, J. Normand, 
 K. Raghavachari, A. P. Rendell, J. C. Burant, S. S. Iyengar, 
 J. Tomasi, M. Cossi, J. M. Millam, M. Klene, C. Adamo, R. Cammi, 
 J. W. Ochterski, R. L. Martin, K. Morokuma, O. Farkas, 
 J. B. Foresman, and D. J. Fox, Gaussian, Inc., Wallingford CT, 2016.
 
 ******************************************
 Gaussian 16:  ES64L-G16RevA.03 25-Dec-2016
                 4-Jun-2020 
 ******************************************
 %chk=scr.chk
 %nproc=6
 Will use up to    6 processors via shared memory.
 ----------------------------------------------------------------------
 #p b3lyp/6-31g(d) # scrf=(iefpcm,solvent=Cyclohexane,read) nosym guess
 =only pop=none
 ----------------------------------------------------------------------
 1/38=1,40=2,172=1/1;
 2/12=2,15=1,17=6,18=5,40=1/2;
 3/5=1,6=6,7=1,11=2,25=1,30=1,70=2203,72=17,74=-5,89=1/1,2;
 4//1;
 99/5=2/99;
 Leave Link    1 at Thu Jun  4 12:16:06 2020, MaxMem=           0 cpu:               0.0 elap:               0.0
 (Enter /home/roberto/software/g16A03/g16/l101.exe)
 -------------------------------------------------
 endo-2 xp-pcm with Vmol=94.6453164082644 cm^3/mol
 -------------------------------------------------
 Symbolic Z-matrix:
 Charge =  0 Multiplicity = 1
 C                    -2.45453  -0.62092   0.45008 
 C                    -2.42912   0.86019   0.1779 
 C                    -1.41169   1.4535   -0.45201 
 C                    -0.14415   0.76155  -0.89234 
 C                    -0.18563  -0.80161  -0.78974 
 C                    -1.60418  -1.37095  -0.58512 
 H                    -1.44621   2.52885  -0.63209 
 H                    -3.28202   1.45434   0.50376 
 H                    -2.09265  -0.82207   1.46908 
 H                    -3.48692  -0.9942    0.41876 
 H                     0.05753   1.04783  -1.93573 
 H                     0.16923  -1.20768  -1.74683 
 H                    -2.1324   -1.31836  -1.54632 
 H                    -1.53453  -2.43626  -0.32713 
 C                     0.71664  -0.47071   1.55197 
 C                     0.8629   -1.26498   0.27443 
 H                     0.54992  -0.9551    2.51117 
 H                     0.76631  -2.34332   0.4439 
 C                     2.26764  -0.93522  -0.30752 
 H                     3.03946  -1.25934   0.39855 
 H                     2.42424  -1.49829  -1.23615 
 C                     0.84359   0.852     1.39279 
 H                     0.78015   1.57224   2.20412 
 C                     1.06814   1.28106  -0.03906 
 H                     1.14698   2.36935  -0.13676 
 C                     2.35954   0.59461  -0.56352 
 H                     3.23326   1.02347  -0.06134 
 H                     2.47277   0.80746  -1.63414 
 
 ITRead=  0  0  0  0  0  0  0  0  0  0  0  0  0  0  0  0  0  0  0  0
 ITRead=  0  0  0  0  0  0  0  0
 MicOpt= -1 -1 -1 -1 -1 -1 -1 -1 -1 -1 -1 -1 -1 -1 -1 -1 -1 -1 -1 -1
 MicOpt= -1 -1 -1 -1 -1 -1 -1 -1
 NAtoms=     28 NQM=       28 NQMF=       0 NMMI=      0 NMMIF=      0
                NMic=       0 NMicF=      0.
                    Isotopes and Nuclear Properties:
 (Nuclear quadrupole moments (NQMom) in fm**2, nuclear magnetic moments (NMagM)
  in nuclear magnetons)

  Atom         1           2           3           4           5           6           7           8           9          10
 IAtWgt=          12          12          12          12          12          12           1           1           1           1
 AtmWgt=  12.0000000  12.0000000  12.0000000  12.0000000  12.0000000  12.0000000   1.0078250   1.0078250   1.0078250   1.0078250
 NucSpn=           0           0           0           0           0           0           1           1           1           1
 AtZEff=   0.0000000   0.0000000   0.0000000   0.0000000   0.0000000   0.0000000   0.0000000   0.0000000   0.0000000   0.0000000
 NQMom=    0.0000000   0.0000000   0.0000000   0.0000000   0.0000000   0.0000000   0.0000000   0.0000000   0.0000000   0.0000000
 NMagM=    0.0000000   0.0000000   0.0000000   0.0000000   0.0000000   0.0000000   2.7928460   2.7928460   2.7928460   2.7928460
 AtZNuc=   6.0000000   6.0000000   6.0000000   6.0000000   6.0000000   6.0000000   1.0000000   1.0000000   1.0000000   1.0000000

  Atom        11          12          13          14          15          16          17          18          19          20
 IAtWgt=           1           1           1           1          12          12           1           1          12           1
 AtmWgt=   1.0078250   1.0078250   1.0078250   1.0078250  12.0000000  12.0000000   1.0078250   1.0078250  12.0000000   1.0078250
 NucSpn=           1           1           1           1           0           0           1           1           0           1
 AtZEff=   0.0000000   0.0000000   0.0000000   0.0000000   0.0000000   0.0000000   0.0000000   0.0000000   0.0000000   0.0000000
 NQMom=    0.0000000   0.0000000   0.0000000   0.0000000   0.0000000   0.0000000   0.0000000   0.0000000   0.0000000   0.0000000
 NMagM=    2.7928460   2.7928460   2.7928460   2.7928460   0.0000000   0.0000000   2.7928460   2.7928460   0.0000000   2.7928460
 AtZNuc=   1.0000000   1.0000000   1.0000000   1.0000000   6.0000000   6.0000000   1.0000000   1.0000000   6.0000000   1.0000000

  Atom        21          22          23          24          25          26          27          28
 IAtWgt=           1          12           1          12           1          12           1           1
 AtmWgt=   1.0078250  12.0000000   1.0078250  12.0000000   1.0078250  12.0000000   1.0078250   1.0078250
 NucSpn=           1           0           1           0           1           0           1           1
 AtZEff=   0.0000000   0.0000000   0.0000000   0.0000000   0.0000000   0.0000000   0.0000000   0.0000000
 NQMom=    0.0000000   0.0000000   0.0000000   0.0000000   0.0000000   0.0000000   0.0000000   0.0000000
 NMagM=    2.7928460   0.0000000   2.7928460   0.0000000   2.7928460   0.0000000   2.7928460   2.7928460
 AtZNuc=   1.0000000   6.0000000   1.0000000   6.0000000   1.0000000   6.0000000   1.0000000   1.0000000
 Leave Link  101 at Thu Jun  4 12:16:06 2020, MaxMem=   104857600 cpu:               0.1 elap:               0.1
 (Enter /home/roberto/software/g16A03/g16/l202.exe)
                          Input orientation:                          
 ---------------------------------------------------------------------
 Center     Atomic      Atomic             Coordinates (Angstroms)
 Number     Number       Type             X           Y           Z
 ---------------------------------------------------------------------
      1          6           0       -2.454531   -0.620920    0.450078
      2          6           0       -2.429115    0.860192    0.177901
      3          6           0       -1.411688    1.453495   -0.452012
      4          6           0       -0.144149    0.761548   -0.892337
      5          6           0       -0.185628   -0.801613   -0.789740
      6          6           0       -1.604183   -1.370946   -0.585116
      7          1           0       -1.446210    2.528854   -0.632087
      8          1           0       -3.282020    1.454343    0.503764
      9          1           0       -2.092649   -0.822074    1.469083
     10          1           0       -3.486923   -0.994204    0.418758
     11          1           0        0.057528    1.047828   -1.935726
     12          1           0        0.169231   -1.207683   -1.746829
     13          1           0       -2.132404   -1.318363   -1.546324
     14          1           0       -1.534534   -2.436262   -0.327132
     15          6           0        0.716641   -0.470708    1.551966
     16          6           0        0.862900   -1.264979    0.274427
     17          1           0        0.549920   -0.955102    2.511169
     18          1           0        0.766306   -2.343321    0.443899
     19          6           0        2.267636   -0.935217   -0.307517
     20          1           0        3.039458   -1.259338    0.398554
     21          1           0        2.424242   -1.498287   -1.236154
     22          6           0        0.843594    0.852001    1.392785
     23          1           0        0.780145    1.572240    2.204115
     24          6           0        1.068138    1.281056   -0.039061
     25          1           0        1.146978    2.369349   -0.136763
     26          6           0        2.359537    0.594607   -0.563515
     27          1           0        3.233257    1.023470   -0.061341
     28          1           0        2.472773    0.807458   -1.634143
 ---------------------------------------------------------------------
                    Distance matrix (angstroms):
                    1          2          3          4          5
     1  C    0.000000
     2  C    1.506127   0.000000
     3  C    2.490880   1.335648   0.000000
     4  C    3.008515   2.525116   1.509746   0.000000
     5  C    2.591856   2.954853   2.588976   1.567073   0.000000
     6  C    1.535336   2.498136   2.834120   2.602617   1.542177
     7  H    3.479780   2.099194   1.090878   2.210535   3.564538
     8  H    2.234801   1.089334   2.100393   3.503612   4.043530
     9  H    1.099906   2.147179   3.054919   3.446856   2.956253
    10  H    1.098251   2.148431   3.325067   3.996971   3.520811
    11  H    3.845416   3.268948   2.127103   1.100586   2.189256
    12  H    3.472005   3.838241   3.355253   2.169386   1.098561
    13  H    2.139115   2.794117   3.065966   2.950743   2.151601
    14  H    2.178512   3.452817   3.893699   3.532508   2.169247
    15  C    3.360514   3.681729   3.499753   2.869500   2.531240
    16  C    3.383935   3.919570   3.618227   2.546036   1.564152
    17  H    3.658757   4.196913   4.292981   3.874593   3.385349
    18  H    3.652464   4.532545   4.467900   3.500667   2.192010
    19  C    4.792869   5.051593   4.389106   3.006282   2.503776
    20  H    5.531198   5.869104   5.281631   3.985691   3.467382
    21  H    5.235989   5.578266   4.903290   3.438269   2.737894
    22  C    3.733071   3.490936   2.975125   2.491104   2.925261
    23  H    4.283658   3.861594   3.445757   3.331600   3.940947
    24  C    4.033109   3.529161   2.519881   1.570862   2.544201
    25  H    4.717728   3.894228   2.735862   2.196116   3.501031
    26  C    5.067556   4.852981   3.869400   2.530699   2.911782
    27  H    5.942769   5.669775   4.681139   3.487983   3.943383
    28  H    5.537379   5.226355   4.111427   2.720416   3.220128
                    6          7          8          9         10
     6  C    0.000000
     7  H    3.903281   0.000000
     8  H    3.461655   2.411417   0.000000
     9  H    2.181649   4.007682   2.743815   0.000000
    10  H    2.166658   4.204845   2.458576   1.754084   0.000000
    11  H    3.230464   2.480754   4.155592   4.439878   4.719812
    12  H    2.126318   4.220664   4.905373   3.950555   4.254739
    13  H    1.098045   4.013449   3.634883   3.056233   2.408599
    14  H    1.098319   4.975256   4.345216   2.478605   2.539233
    15  C    3.280819   4.294809   4.560026   2.832391   4.384992
    16  C    2.614678   4.532872   4.962627   3.218484   4.360632
    17  H    3.794742   5.099269   4.951653   2.843732   4.547067
    18  H    2.761087   5.458119   5.551106   3.396884   4.462141
    19  C    3.906137   5.088987   6.096463   4.709692   5.800509
    20  H    4.747996   5.961026   6.880132   5.260775   6.531796
    21  H    4.082680   5.618110   6.656333   5.308284   6.159116
    22  C    3.852947   3.486423   4.263082   3.380809   4.807346
    23  H    4.703953   3.730390   4.405256   3.811293   5.289802
    24  C    3.804286   2.868907   4.387318   4.085123   5.112239
    25  H    4.664731   2.644884   4.567662   4.822769   5.752837
    26  C    4.424358   4.269628   5.805635   5.095135   6.137612
    27  H    5.422951   4.948671   6.553917   5.840677   7.032946
    28  H    4.739986   4.396106   6.173066   5.755733   6.555789
                   11         12         13         14         15
    11  H    0.000000
    12  H    2.266162   0.000000
    13  H    3.247506   2.313002   0.000000
    14  H    4.154650   2.535303   1.758856   0.000000
    15  C    3.860619   3.424155   4.293597   3.530184   0.000000
    16  C    3.298860   2.137741   3.505685   2.735227   1.511411
    17  H    4.901944   4.282437   4.877507   3.820306   1.087430
    18  H    4.202960   2.538791   3.662519   2.428372   2.176455
    19  C    3.386460   2.559133   4.587134   4.087789   2.465569
    20  H    4.434387   3.583788   5.525775   4.778407   2.710678
    21  H    3.545904   2.330303   4.570733   4.168696   3.427161
    22  C    3.425673   3.815002   4.712261   4.407525   1.338288
    23  H    4.235029   4.869409   5.559165   5.275703   2.145453
    24  C    2.161728   3.149338   4.390022   4.547014   2.392403
    25  H    2.483865   4.042704   5.132293   5.506418   3.332104
    26  C    2.718017   3.073422   4.980251   4.940226   2.882579
    27  H    3.687705   4.148152   6.039841   5.896798   3.341958
    28  H    2.445841   3.062645   5.072917   5.318694   3.856034
                   16         17         18         19         20
    16  C    0.000000
    17  H    2.279692   0.000000
    18  H    1.095843   2.499516   0.000000
    19  C    1.555855   3.300899   2.191204   0.000000
    20  H    2.180102   3.279253   2.518788   1.095126   0.000000
    21  H    2.184966   4.224993   2.507072   1.097242   1.762912
    22  C    2.394306   2.145378   3.334133   2.848345   3.204382
    23  H    3.432252   2.556314   4.293037   3.848151   4.047515
    24  C    2.573459   3.431126   3.668850   2.534311   3.245183
    25  H    3.668531   4.291852   4.763543   3.493592   4.127398
    26  C    2.529848   3.889729   3.490657   1.553815   2.196584
    27  H    3.311847   4.211039   4.204331   2.197608   2.336723
    28  H    3.244892   4.897713   4.142185   2.199758   2.953749
                   21         22         23         24         25
    21  H    0.000000
    22  C    3.864404   0.000000
    23  H    4.895574   1.086750   0.000000
    24  C    3.316142   1.511519   2.280256   0.000000
    25  H    4.218847   2.175754   2.499932   1.095510   0.000000
    26  C    2.199281   2.488261   3.333170   1.553697   2.191375
    27  H    2.897231   2.802565   3.383962   2.180502   2.483876
    28  H    2.340344   3.437805   4.264048   2.177517   2.537594
                   26         27         28
    26  C    0.000000
    27  H    1.095212   0.000000
    28  H    1.097439   1.760313   0.000000
 Symmetry turned off by external request.
 Stoichiometry    C12H16
 Framework group  C1[X(C12H16)]
 Deg. of freedom    78
 Full point group                 C1      NOp   1
 Rotational constants (GHZ):           1.7166404           0.9213692           0.8182222
 Leave Link  202 at Thu Jun  4 12:16:06 2020, MaxMem=   104857600 cpu:               0.0 elap:               0.0
 (Enter /home/roberto/software/g16A03/g16/l301.exe)
 Standard basis: 6-31G(d) (6D, 7F)
 Ernie: Thresh=  0.10000D-02 Tol=  0.10000D-05 Strict=F.
   212 basis functions,   400 primitive gaussians,   212 cartesian basis functions
    44 alpha electrons       44 beta electrons
       nuclear repulsion energy       737.1159722346 Hartrees.
 IExCor=  402 DFT=T Ex+Corr=B3LYP ExCW=0 ScaHFX=  0.200000
 ScaDFX=  0.800000  0.720000  1.000000  0.810000 ScalE2=  1.000000  1.000000
 IRadAn=      5 IRanWt=     -1 IRanGd=            0 ICorTp=0 IEmpDi=  4
 NAtoms=   28 NActive=   28 NUniq=   28 SFac= 1.00D+00 NAtFMM=   60 NAOKFM=F Big=F
 Integral buffers will be    131072 words long.
 Raffenetti 2 integral format.
 Two-electron integral symmetry is turned off.
 Using the following non-standard input for PCM:
 norep  pcmdoc geomview  nodis cav g03defaults noaddsph  tsare=0.075
 Warning! Using old PCM defaults because the g03defaults keyword was found.
 These settings can be overridden by following keywords.
 nsfe=28
 Vmol=94.6453164082644 Rsolv=2.815
 --- end of non-standard input.
 Reading user-defined spheres from input:
 ISph  on   Nord    Re0     Alpha      Xe            Ye            Ze
 --- end of user-defined spheres data.
 ------------------------------------------------------------------------------
 Polarizable Continuum Model (PCM)
 =================================
 Model                : PCM.
 Atomic radii         : UA0 (Simple United Atom Topological Model).
 Polarization charges : Total charges.
 Charge compensation  : None.
 Solution method      : On-the-fly selection.
 Cavity type          : VdW (van der Waals Surface) (Alpha=1.000).
 Cavity algorithm     : GePol (No added spheres)
                        User-defined sphere list used, NSphG=   28.
                        Tesserae with average area of 0.075 Ang**2.
                        Smoothing algorithm: None.
                        Polarization charges: point-like.
                        Self-potential: constant (ISelfS= 1).
                        Self-field    : global E.n sum rule (ISelfD= 3).
 Solvent              : CycloHexane, Eps=   2.016500 Eps(inf)=   2.035188
 ------------------------------------------------------------------------------
 GePol: Number of generator spheres                  =      28
 GePol: Total number of spheres                      =      28
 GePol: Number of exposed spheres                    =      28 (100.00%)
 GePol: Number of tesserae                           =    3646
 GePol: Average area of tesserae                     =       0.06 Ang**2
 GePol: Minimum area of tessera                      =   0.10D-02 Ang**2
 GePol: Maximum area of tessera                      =    0.12395 Ang**2
 GePol: Number of small tesserae                     =       0
 GePol: Fraction of small tesserae (<1% of avg)      =       0.00%
 GePol: Total count of vertices                      =   12151
 GePol: Maximum number of vertices in a tessera      =       6
 GePol: Cavity surface area                          =    218.692 Ang**2
 GePol: Cavity volume                                =    226.266 Ang**3
 PCM non-electrostatic energy =         0.0511425444 Hartrees.
 Nuclear repulsion after PCM non-electrostatic terms =      737.1671147790 Hartrees.
 Leave Link  301 at Thu Jun  4 12:16:06 2020, MaxMem=   104857600 cpu:               0.1 elap:               0.1
 (Enter /home/roberto/software/g16A03/g16/l302.exe)
 NPDir=0 NMtPBC=     1 NCelOv=     1 NCel=       1 NClECP=     1 NCelD=      1
         NCelK=      1 NCelE2=     1 NClLst=     1 CellRange=     0.0.
 One-electron integrals computed using PRISM.
 NBasis=   212 RedAO= T EigKep=  9.65D-04  NBF=   212
 NBsUse=   212 1.00D-06 EigRej= -1.00D+00 NBFU=   212
 Precomputing XC quadrature grid using
 IXCGrd= 4 IRadAn=           5 IRanWt=          -1 IRanGd=           0 AccXCQ= 0.00D+00.
 Generated NRdTot=       0 NPtTot=           0 NUsed=           0 NTot=          32
 NSgBfM=   212   212   212   212   212 MxSgAt=    28 MxSgA2=    28.
 Leave Link  302 at Thu Jun  4 12:16:06 2020, MaxMem=   104857600 cpu:               1.3 elap:               0.3
 (Enter /home/roberto/software/g16A03/g16/l401.exe)
 ExpMin= 1.61D-01 ExpMax= 3.05D+03 ExpMxC= 4.57D+02 IAcc=3 IRadAn=         5 AccDes= 0.00D+00
 Harris functional with IExCor=  402 and IRadAn=       5 diagonalized for initial guess.
 HarFok:  IExCor=  402 AccDes= 0.00D+00 IRadAn=         5 IDoV= 1 UseB2=F ITyADJ=14
 ICtDFT=  3500011 ScaDFX=  1.000000  1.000000  1.000000  1.000000
 FoFCou: FMM=F IPFlag=           0 FMFlag=      100000 FMFlg1=           0
         NFxFlg=           0 DoJE=T BraDBF=F KetDBF=T FulRan=T
         wScrn=  0.000000 ICntrl=       500 IOpCl=  0 I1Cent=   200000004 NGrid=           0
         NMat0=    1 NMatS0=      1 NMatT0=    0 NMatD0=    1 NMtDS0=    0 NMtDT0=    0
 Symmetry not used in FoFCou.
 Harris En= -466.863797008031    
 JPrj=0 DoOrth=F DoCkMO=F.
 Leave Link  401 at Thu Jun  4 12:16:09 2020, MaxMem=   104857600 cpu:              13.2 elap:               2.2
 (Enter /home/roberto/software/g16A03/g16/l9999.exe)

 This type of calculation cannot be archived.


 FRICTION IS A DRAG,
 AND ENTROPY AIN'T WHAT IT USED TO BE.
 Job cpu time:       0 days  0 hours  0 minutes 14.9 seconds.
 Elapsed time:       0 days  0 hours  0 minutes  2.8 seconds.
 File lengths (MBytes):  RWF=    232 Int=      0 D2E=      0 Chk=      1 Scr=      1
 Normal termination of Gaussian 16 at Thu Jun  4 12:16:09 2020.
 Initial command:
 /home/roberto/software/g16A03/g16/l1.exe "/home/roberto/scr/Gau-24452.inp" -scrdir="/home/roberto/scr/"
 Entering Link 1 = /home/roberto/software/g16A03/g16/l1.exe PID=     24572.
  
 Copyright (c) 1988,1990,1992,1993,1995,1998,2003,2009,2016,
            Gaussian, Inc.  All Rights Reserved.
  
 This is part of the Gaussian(R) 16 program.  It is based on
 the Gaussian(R) 09 system (copyright 2009, Gaussian, Inc.),
 the Gaussian(R) 03 system (copyright 2003, Gaussian, Inc.),
 the Gaussian(R) 98 system (copyright 1998, Gaussian, Inc.),
 the Gaussian(R) 94 system (copyright 1995, Gaussian, Inc.),
 the Gaussian 92(TM) system (copyright 1992, Gaussian, Inc.),
 the Gaussian 90(TM) system (copyright 1990, Gaussian, Inc.),
 the Gaussian 88(TM) system (copyright 1988, Gaussian, Inc.),
 the Gaussian 86(TM) system (copyright 1986, Carnegie Mellon
 University), and the Gaussian 82(TM) system (copyright 1983,
 Carnegie Mellon University). Gaussian is a federally registered
 trademark of Gaussian, Inc.
  
 This software contains proprietary and confidential information,
 including trade secrets, belonging to Gaussian, Inc.
  
 This software is provided under written license and may be
 used, copied, transmitted, or stored only in accord with that
 written license.
  
 The following legend is applicable only to US Government
 contracts under FAR:
  
                    RESTRICTED RIGHTS LEGEND
  
 Use, reproduction and disclosure by the US Government is
 subject to restrictions as set forth in subparagraphs (a)
 and (c) of the Commercial Computer Software - Restricted
 Rights clause in FAR 52.227-19.
  
 Gaussian, Inc.
 340 Quinnipiac St., Bldg. 40, Wallingford CT 06492
  
  
 ---------------------------------------------------------------
 Warning -- This program may not be used in any manner that
 competes with the business of Gaussian, Inc. or will provide
 assistance to any competitor of Gaussian, Inc.  The licensee
 of this program is prohibited from giving any competitor of
 Gaussian, Inc. access to this program.  By using this program,
 the user acknowledges that Gaussian, Inc. is engaged in the
 business of creating and licensing software in the field of
 computational chemistry and represents and warrants to the
 licensee that it is not a competitor of Gaussian, Inc. and that
 it will not use this program in any manner prohibited above.
 ---------------------------------------------------------------
  

 Cite this work as:
 Gaussian 16, Revision A.03,
 M. J. Frisch, G. W. Trucks, H. B. Schlegel, G. E. Scuseria, 
 M. A. Robb, J. R. Cheeseman, G. Scalmani, V. Barone, 
 G. A. Petersson, H. Nakatsuji, X. Li, M. Caricato, A. V. Marenich, 
 J. Bloino, B. G. Janesko, R. Gomperts, B. Mennucci, H. P. Hratchian, 
 J. V. Ortiz, A. F. Izmaylov, J. L. Sonnenberg, D. Williams-Young, 
 F. Ding, F. Lipparini, F. Egidi, J. Goings, B. Peng, A. Petrone, 
 T. Henderson, D. Ranasinghe, V. G. Zakrzewski, J. Gao, N. Rega, 
 G. Zheng, W. Liang, M. Hada, M. Ehara, K. Toyota, R. Fukuda, 
 J. Hasegawa, M. Ishida, T. Nakajima, Y. Honda, O. Kitao, H. Nakai, 
 T. Vreven, K. Throssell, J. A. Montgomery, Jr., J. E. Peralta, 
 F. Ogliaro, M. J. Bearpark, J. J. Heyd, E. N. Brothers, K. N. Kudin, 
 V. N. Staroverov, T. A. Keith, R. Kobayashi, J. Normand, 
 K. Raghavachari, A. P. Rendell, J. C. Burant, S. S. Iyengar, 
 J. Tomasi, M. Cossi, J. M. Millam, M. Klene, C. Adamo, R. Cammi, 
 J. W. Ochterski, R. L. Martin, K. Morokuma, O. Farkas, 
 J. B. Foresman, and D. J. Fox, Gaussian, Inc., Wallingford CT, 2016.
 
 ******************************************
 Gaussian 16:  ES64L-G16RevA.03 25-Dec-2016
                 4-Jun-2020 
 ******************************************
 %chk=scr.chk
 %nproc=6
 Will use up to    6 processors via shared memory.
 ----------------------------------------------------------------------
 #p b3lyp/6-31g(d) # scrf=(iefpcm,solvent=Cyclohexane,read) nosym guess
 =only pop=none
 ----------------------------------------------------------------------
 1/38=1,40=2,172=1/1;
 2/12=2,15=1,17=6,18=5,40=1/2;
 3/5=1,6=6,7=1,11=2,25=1,30=1,70=2203,72=17,74=-5,89=1/1,2;
 4//1;
 99/5=2/99;
 Leave Link    1 at Thu Jun  4 12:16:09 2020, MaxMem=           0 cpu:               0.0 elap:               0.0
 (Enter /home/roberto/software/g16A03/g16/l101.exe)
 -------------------------------------------------
 endo-2 xp-pcm with Vmol=88.5652404236064 cm^3/mol
 -------------------------------------------------
 Symbolic Z-matrix:
 Charge =  0 Multiplicity = 1
 C                    -2.45453  -0.62092   0.45008 
 C                    -2.42912   0.86019   0.1779 
 C                    -1.41169   1.4535   -0.45201 
 C                    -0.14415   0.76155  -0.89234 
 C                    -0.18563  -0.80161  -0.78974 
 C                    -1.60418  -1.37095  -0.58512 
 H                    -1.44621   2.52885  -0.63209 
 H                    -3.28202   1.45434   0.50376 
 H                    -2.09265  -0.82207   1.46908 
 H                    -3.48692  -0.9942    0.41876 
 H                     0.05753   1.04783  -1.93573 
 H                     0.16923  -1.20768  -1.74683 
 H                    -2.1324   -1.31836  -1.54632 
 H                    -1.53453  -2.43626  -0.32713 
 C                     0.71664  -0.47071   1.55197 
 C                     0.8629   -1.26498   0.27443 
 H                     0.54992  -0.9551    2.51117 
 H                     0.76631  -2.34332   0.4439 
 C                     2.26764  -0.93522  -0.30752 
 H                     3.03946  -1.25934   0.39855 
 H                     2.42424  -1.49829  -1.23615 
 C                     0.84359   0.852     1.39279 
 H                     0.78015   1.57224   2.20412 
 C                     1.06814   1.28106  -0.03906 
 H                     1.14698   2.36935  -0.13676 
 C                     2.35954   0.59461  -0.56352 
 H                     3.23326   1.02347  -0.06134 
 H                     2.47277   0.80746  -1.63414 
 
 ITRead=  0  0  0  0  0  0  0  0  0  0  0  0  0  0  0  0  0  0  0  0
 ITRead=  0  0  0  0  0  0  0  0
 MicOpt= -1 -1 -1 -1 -1 -1 -1 -1 -1 -1 -1 -1 -1 -1 -1 -1 -1 -1 -1 -1
 MicOpt= -1 -1 -1 -1 -1 -1 -1 -1
 NAtoms=     28 NQM=       28 NQMF=       0 NMMI=      0 NMMIF=      0
                NMic=       0 NMicF=      0.
                    Isotopes and Nuclear Properties:
 (Nuclear quadrupole moments (NQMom) in fm**2, nuclear magnetic moments (NMagM)
  in nuclear magnetons)

  Atom         1           2           3           4           5           6           7           8           9          10
 IAtWgt=          12          12          12          12          12          12           1           1           1           1
 AtmWgt=  12.0000000  12.0000000  12.0000000  12.0000000  12.0000000  12.0000000   1.0078250   1.0078250   1.0078250   1.0078250
 NucSpn=           0           0           0           0           0           0           1           1           1           1
 AtZEff=   0.0000000   0.0000000   0.0000000   0.0000000   0.0000000   0.0000000   0.0000000   0.0000000   0.0000000   0.0000000
 NQMom=    0.0000000   0.0000000   0.0000000   0.0000000   0.0000000   0.0000000   0.0000000   0.0000000   0.0000000   0.0000000
 NMagM=    0.0000000   0.0000000   0.0000000   0.0000000   0.0000000   0.0000000   2.7928460   2.7928460   2.7928460   2.7928460
 AtZNuc=   6.0000000   6.0000000   6.0000000   6.0000000   6.0000000   6.0000000   1.0000000   1.0000000   1.0000000   1.0000000

  Atom        11          12          13          14          15          16          17          18          19          20
 IAtWgt=           1           1           1           1          12          12           1           1          12           1
 AtmWgt=   1.0078250   1.0078250   1.0078250   1.0078250  12.0000000  12.0000000   1.0078250   1.0078250  12.0000000   1.0078250
 NucSpn=           1           1           1           1           0           0           1           1           0           1
 AtZEff=   0.0000000   0.0000000   0.0000000   0.0000000   0.0000000   0.0000000   0.0000000   0.0000000   0.0000000   0.0000000
 NQMom=    0.0000000   0.0000000   0.0000000   0.0000000   0.0000000   0.0000000   0.0000000   0.0000000   0.0000000   0.0000000
 NMagM=    2.7928460   2.7928460   2.7928460   2.7928460   0.0000000   0.0000000   2.7928460   2.7928460   0.0000000   2.7928460
 AtZNuc=   1.0000000   1.0000000   1.0000000   1.0000000   6.0000000   6.0000000   1.0000000   1.0000000   6.0000000   1.0000000

  Atom        21          22          23          24          25          26          27          28
[...]
 ----------------------------------------------------------------------
 #p b3lyp/6-31g(d) # scrf=(iefpcm,solvent=Cyclohexane,read) nosym guess
 =only pop=none
 ----------------------------------------------------------------------
 1/38=1,40=2,172=1/1;
 2/12=2,15=1,17=6,18=5,40=1/2;
 3/5=1,6=6,7=1,11=2,25=1,30=1,70=2203,72=17,74=-5,89=1/1,2;
 4//1;
 99/5=2/99;
 Leave Link    1 at Thu Jun  4 12:16:18 2020, MaxMem=           0 cpu:               0.0 elap:               0.0
 (Enter /home/roberto/software/g16A03/g16/l101.exe)
 ------------------------------------------------
 endo-2 xp-pcm with Vmol=76.836613016272 cm^3/mol
 ------------------------------------------------
 Symbolic Z-matrix:
 Charge =  0 Multiplicity = 1
 C                    -2.45453  -0.62092   0.45008 
 C                    -2.42912   0.86019   0.1779 
 C                    -1.41169   1.4535   -0.45201 
 C                    -0.14415   0.76155  -0.89234 
 C                    -0.18563  -0.80161  -0.78974 
 C                    -1.60418  -1.37095  -0.58512 
 H                    -1.44621   2.52885  -0.63209 
 H                    -3.28202   1.45434   0.50376 
 H                    -2.09265  -0.82207   1.46908 
 H                    -3.48692  -0.9942    0.41876 
 H                     0.05753   1.04783  -1.93573 
 H                     0.16923  -1.20768  -1.74683 
 H                    -2.1324   -1.31836  -1.54632 
 H                    -1.53453  -2.43626  -0.32713 
 C                     0.71664  -0.47071   1.55197 
 C                     0.8629   -1.26498   0.27443 
 H                     0.54992  -0.9551    2.51117 
 H                     0.76631  -2.34332   0.4439 
 C                     2.26764  -0.93522  -0.30752 
 H                     3.03946  -1.25934   0.39855 
 H                     2.42424  -1.49829  -1.23615 
 C                     0.84359   0.852     1.39279 
 H                     0.78015   1.57224   2.20412 
 C                     1.06814   1.28106  -0.03906 
 H                     1.14698   2.36935  -0.13676 
 C                     2.35954   0.59461  -0.56352 
 H                     3.23326   1.02347  -0.06134 
 H                     2.47277   0.80746  -1.63414 
 
 ITRead=  0  0  0  0  0  0  0  0  0  0  0  0  0  0  0  0  0  0  0  0
 ITRead=  0  0  0  0  0  0  0  0
 MicOpt= -1 -1 -1 -1 -1 -1 -1 -1 -1 -1 -1 -1 -1 -1 -1 -1 -1 -1 -1 -1
 MicOpt= -1 -1 -1 -1 -1 -1 -1 -1
 NAtoms=     28 NQM=       28 NQMF=       0 NMMI=      0 NMMIF=      0
                NMic=       0 NMicF=      0.
                    Isotopes and Nuclear Properties:
 (Nuclear quadrupole moments (NQMom) in fm**2, nuclear magnetic moments (NMagM)
  in nuclear magnetons)

  Atom         1           2           3           4           5           6           7           8           9          10
 IAtWgt=          12          12          12          12          12          12           1           1           1           1
 AtmWgt=  12.0000000  12.0000000  12.0000000  12.0000000  12.0000000  12.0000000   1.0078250   1.0078250   1.0078250   1.0078250
 NucSpn=           0           0           0           0           0           0           1           1           1           1
 AtZEff=   0.0000000   0.0000000   0.0000000   0.0000000   0.0000000   0.0000000   0.0000000   0.0000000   0.0000000   0.0000000
 NQMom=    0.0000000   0.0000000   0.0000000   0.0000000   0.0000000   0.0000000   0.0000000   0.0000000   0.0000000   0.0000000
 NMagM=    0.0000000   0.0000000   0.0000000   0.0000000   0.0000000   0.0000000   2.7928460   2.7928460   2.7928460   2.7928460
 AtZNuc=   6.0000000   6.0000000   6.0000000   6.0000000   6.0000000   6.0000000   1.0000000   1.0000000   1.0000000   1.0000000

  Atom        11          12          13          14          15          16          17          18          19          20
 IAtWgt=           1           1           1           1          12          12           1           1          12           1
 AtmWgt=   1.0078250   1.0078250   1.0078250   1.0078250  12.0000000  12.0000000   1.0078250   1.0078250  12.0000000   1.0078250
 NucSpn=           1           1           1           1           0           0           1           1           0           1
 AtZEff=   0.0000000   0.0000000   0.0000000   0.0000000   0.0000000   0.0000000   0.0000000   0.0000000   0.0000000   0.0000000
 NQMom=    0.0000000   0.0000000   0.0000000   0.0000000   0.0000000   0.0000000   0.0000000   0.0000000   0.0000000   0.0000000
 NMagM=    2.7928460   2.7928460   2.7928460   2.7928460   0.0000000   0.0000000   2.7928460   2.7928460   0.0000000   2.7928460
 AtZNuc=   1.0000000   1.0000000   1.0000000   1.0000000   6.0000000   6.0000000   1.0000000   1.0000000   6.0000000   1.0000000

  Atom        21          22          23          24          25          26          27          28
 IAtWgt=           1          12           1          12           1          12           1           1
 AtmWgt=   1.0078250  12.0000000   1.0078250  12.0000000   1.0078250  12.0000000   1.0078250   1.0078250
 NucSpn=           1           0           1           0           1           0           1           1
 AtZEff=   0.0000000   0.0000000   0.0000000   0.0000000   0.0000000   0.0000000   0.0000000   0.0000000
 NQMom=    0.0000000   0.0000000   0.0000000   0.0000000   0.0000000   0.0000000   0.0000000   0.0000000
 NMagM=    2.7928460   0.0000000   2.7928460   0.0000000   2.7928460   0.0000000   2.7928460   2.7928460
 AtZNuc=   1.0000000   6.0000000   1.0000000   6.0000000   1.0000000   6.0000000   1.0000000   1.0000000
 Leave Link  101 at Thu Jun  4 12:16:18 2020, MaxMem=   104857600 cpu:               0.1 elap:               0.1
 (Enter /home/roberto/software/g16A03/g16/l202.exe)
                          Input orientation:                          
 ---------------------------------------------------------------------
 Center     Atomic      Atomic             Coordinates (Angstroms)
 Number     Number       Type             X           Y           Z
 ---------------------------------------------------------------------
      1          6           0       -2.454531   -0.620920    0.450078
      2          6           0       -2.429115    0.860192    0.177901
      3          6           0       -1.411688    1.453495   -0.452012
      4          6           0       -0.144149    0.761548   -0.892337
      5          6           0       -0.185628   -0.801613   -0.789740
      6          6           0       -1.604183   -1.370946   -0.585116
      7          1           0       -1.446210    2.528854   -0.632087
      8          1           0       -3.282020    1.454343    0.503764
      9          1           0       -2.092649   -0.822074    1.469083
     10          1           0       -3.486923   -0.994204    0.418758
     11          1           0        0.057528    1.047828   -1.935726
     12          1           0        0.169231   -1.207683   -1.746829
     13          1           0       -2.132404   -1.318363   -1.546324
     14          1           0       -1.534534   -2.436262   -0.327132
     15          6           0        0.716641   -0.470708    1.551966
     16          6           0        0.862900   -1.264979    0.274427
     17          1           0        0.549920   -0.955102    2.511169
     18          1           0        0.766306   -2.343321    0.443899
     19          6           0        2.267636   -0.935217   -0.307517
     20          1           0        3.039458   -1.259338    0.398554
     21          1           0        2.424242   -1.498287   -1.236154
     22          6           0        0.843594    0.852001    1.392785
     23          1           0        0.780145    1.572240    2.204115
     24          6           0        1.068138    1.281056   -0.039061
     25          1           0        1.146978    2.369349   -0.136763
     26          6           0        2.359537    0.594607   -0.563515
     27          1           0        3.233257    1.023470   -0.061341
     28          1           0        2.472773    0.807458   -1.634143
 ---------------------------------------------------------------------
                    Distance matrix (angstroms):
                    1          2          3          4          5
     1  C    0.000000
     2  C    1.506127   0.000000
     3  C    2.490880   1.335648   0.000000
     4  C    3.008515   2.525116   1.509746   0.000000
     5  C    2.591856   2.954853   2.588976   1.567073   0.000000
     6  C    1.535336   2.498136   2.834120   2.602617   1.542177
     7  H    3.479780   2.099194   1.090878   2.210535   3.564538
     8  H    2.234801   1.089334   2.100393   3.503612   4.043530
     9  H    1.099906   2.147179   3.054919   3.446856   2.956253
    10  H    1.098251   2.148431   3.325067   3.996971   3.520811
    11  H    3.845416   3.268948   2.127103   1.100586   2.189256
    12  H    3.472005   3.838241   3.355253   2.169386   1.098561
    13  H    2.139115   2.794117   3.065966   2.950743   2.151601
    14  H    2.178512   3.452817   3.893699   3.532508   2.169247
    15  C    3.360514   3.681729   3.499753   2.869500   2.531240
    16  C    3.383935   3.919570   3.618227   2.546036   1.564152
    17  H    3.658757   4.196913   4.292981   3.874593   3.385349
    18  H    3.652464   4.532545   4.467900   3.500667   2.192010
    19  C    4.792869   5.051593   4.389106   3.006282   2.503776
    20  H    5.531198   5.869104   5.281631   3.985691   3.467382
    21  H    5.235989   5.578266   4.903290   3.438269   2.737894
    22  C    3.733071   3.490936   2.975125   2.491104   2.925261
    23  H    4.283658   3.861594   3.445757   3.331600   3.940947
    24  C    4.033109   3.529161   2.519881   1.570862   2.544201
    25  H    4.717728   3.894228   2.735862   2.196116   3.501031
    26  C    5.067556   4.852981   3.869400   2.530699   2.911782
    27  H    5.942769   5.669775   4.681139   3.487983   3.943383
    28  H    5.537379   5.226355   4.111427   2.720416   3.220128
                    6          7          8          9         10
     6  C    0.000000
     7  H    3.903281   0.000000
     8  H    3.461655   2.411417   0.000000
     9  H    2.181649   4.007682   2.743815   0.000000
    10  H    2.166658   4.204845   2.458576   1.754084   0.000000
    11  H    3.230464   2.480754   4.155592   4.439878   4.719812
    12  H    2.126318   4.220664   4.905373   3.950555   4.254739
    13  H    1.098045   4.013449   3.634883   3.056233   2.408599
    14  H    1.098319   4.975256   4.345216   2.478605   2.539233
    15  C    3.280819   4.294809   4.560026   2.832391   4.384992
    16  C    2.614678   4.532872   4.962627   3.218484   4.360632
    17  H    3.794742   5.099269   4.951653   2.843732   4.547067
    18  H    2.761087   5.458119   5.551106   3.396884   4.462141
    19  C    3.906137   5.088987   6.096463   4.709692   5.800509
    20  H    4.747996   5.961026   6.880132   5.260775   6.531796
    21  H    4.082680   5.618110   6.656333   5.308284   6.159116
    22  C    3.852947   3.486423   4.263082   3.380809   4.807346
    23  H    4.703953   3.730390   4.405256   3.811293   5.289802
    24  C    3.804286   2.868907   4.387318   4.085123   5.112239
    25  H    4.664731   2.644884   4.567662   4.822769   5.752837
    26  C    4.424358   4.269628   5.805635   5.095135   6.137612
    27  H    5.422951   4.948671   6.553917   5.840677   7.032946
    28  H    4.739986   4.396106   6.173066   5.755733   6.555789
                   11         12         13         14         15
    11  H    0.000000
    12  H    2.266162   0.000000
    13  H    3.247506   2.313002   0.000000
    14  H    4.154650   2.535303   1.758856   0.000000
    15  C    3.860619   3.424155   4.293597   3.530184   0.000000
    16  C    3.298860   2.137741   3.505685   2.735227   1.511411
    17  H    4.901944   4.282437   4.877507   3.820306   1.087430
    18  H    4.202960   2.538791   3.662519   2.428372   2.176455
    19  C    3.386460   2.559133   4.587134   4.087789   2.465569
    20  H    4.434387   3.583788   5.525775   4.778407   2.710678
    21  H    3.545904   2.330303   4.570733   4.168696   3.427161
    22  C    3.425673   3.815002   4.712261   4.407525   1.338288
    23  H    4.235029   4.869409   5.559165   5.275703   2.145453
    24  C    2.161728   3.149338   4.390022   4.547014   2.392403
    25  H    2.483865   4.042704   5.132293   5.506418   3.332104
    26  C    2.718017   3.073422   4.980251   4.940226   2.882579
    27  H    3.687705   4.148152   6.039841   5.896798   3.341958
    28  H    2.445841   3.062645   5.072917   5.318694   3.856034
                   16         17         18         19         20
    16  C    0.000000
    17  H    2.279692   0.000000
    18  H    1.095843   2.499516   0.000000
    19  C    1.555855   3.300899   2.191204   0.000000
    20  H    2.180102   3.279253   2.518788   1.095126   0.000000
    21  H    2.184966   4.224993   2.507072   1.097242   1.762912
    22  C    2.394306   2.145378   3.334133   2.848345   3.204382
    23  H    3.432252   2.556314   4.293037   3.848151   4.047515
    24  C    2.573459   3.431126   3.668850   2.534311   3.245183
    25  H    3.668531   4.291852   4.763543   3.493592   4.127398
    26  C    2.529848   3.889729   3.490657   1.553815   2.196584
    27  H    3.311847   4.211039   4.204331   2.197608   2.336723
    28  H    3.244892   4.897713   4.142185   2.199758   2.953749
                   21         22         23         24         25
    21  H    0.000000
    22  C    3.864404   0.000000
    23  H    4.895574   1.086750   0.000000
    24  C    3.316142   1.511519   2.280256   0.000000
    25  H    4.218847   2.175754   2.499932   1.095510   0.000000
    26  C    2.199281   2.488261   3.333170   1.553697   2.191375
    27  H    2.897231   2.802565   3.383962   2.180502   2.483876
    28  H    2.340344   3.437805   4.264048   2.177517   2.537594
                   26         27         28
    26  C    0.000000
    27  H    1.095212   0.000000
    28  H    1.097439   1.760313   0.000000
 Symmetry turned off by external request.
 Stoichiometry    C12H16
 Framework group  C1[X(C12H16)]
 Deg. of freedom    78
 Full point group                 C1      NOp   1
 Rotational constants (GHZ):           1.7166404           0.9213692           0.8182222
 Leave Link  202 at Thu Jun  4 12:16:18 2020, MaxMem=   104857600 cpu:               0.0 elap:               0.0
 (Enter /home/roberto/software/g16A03/g16/l301.exe)
 Standard basis: 6-31G(d) (6D, 7F)
 Ernie: Thresh=  0.10000D-02 Tol=  0.10000D-05 Strict=F.
   212 basis functions,   400 primitive gaussians,   212 cartesian basis functions
    44 alpha electrons       44 beta electrons
       nuclear repulsion energy       737.1159722346 Hartrees.
 IExCor=  402 DFT=T Ex+Corr=B3LYP ExCW=0 ScaHFX=  0.200000
 ScaDFX=  0.800000  0.720000  1.000000  0.810000 ScalE2=  1.000000  1.000000
 IRadAn=      5 IRanWt=     -1 IRanGd=            0 ICorTp=0 IEmpDi=  4
 NAtoms=   28 NActive=   28 NUniq=   28 SFac= 1.00D+00 NAtFMM=   60 NAOKFM=F Big=F
 Integral buffers will be    131072 words long.
 Raffenetti 2 integral format.
 Two-electron integral symmetry is turned off.
 Using the following non-standard input for PCM:
 norep  pcmdoc geomview  nodis cav g03defaults noaddsph  tsare=0.075
 Warning! Using old PCM defaults because the g03defaults keyword was found.
 These settings can be overridden by following keywords.
 nsfe=28
 Vmol=76.836613016272 Rsolv=2.815
 --- end of non-standard input.
 Reading user-defined spheres from input:
 ISph  on   Nord    Re0     Alpha      Xe            Ye            Ze
 --- end of user-defined spheres data.
 ------------------------------------------------------------------------------
 Polarizable Continuum Model (PCM)
 =================================
 Model                : PCM.
 Atomic radii         : UA0 (Simple United Atom Topological Model).
 Polarization charges : Total charges.
 Charge compensation  : None.
 Solution method      : On-the-fly selection.
 Cavity type          : VdW (van der Waals Surface) (Alpha=1.000).
 Cavity algorithm     : GePol (No added spheres)
                        User-defined sphere list used, NSphG=   28.
                        Tesserae with average area of 0.075 Ang**2.
                        Smoothing algorithm: None.
                        Polarization charges: point-like.
                        Self-potential: constant (ISelfS= 1).
                        Self-field    : global E.n sum rule (ISelfD= 3).
 Solvent              : CycloHexane, Eps=   2.016500 Eps(inf)=   2.035188
 ------------------------------------------------------------------------------
 GePol: Number of generator spheres                  =      28
 GePol: Total number of spheres                      =      28
 GePol: Number of exposed spheres                    =      28 (100.00%)
 GePol: Number of tesserae                           =    3646
 GePol: Average area of tesserae                     =       0.06 Ang**2
 GePol: Minimum area of tessera                      =   0.10D-02 Ang**2
 GePol: Maximum area of tessera                      =    0.12395 Ang**2
 GePol: Number of small tesserae                     =       0
 GePol: Fraction of small tesserae (<1% of avg)      =       0.00%
 GePol: Total count of vertices                      =   12151
 GePol: Maximum number of vertices in a tessera      =       6
 GePol: Cavity surface area                          =    218.692 Ang**2
 GePol: Cavity volume                                =    226.266 Ang**3
 PCM non-electrostatic energy =         0.1254727211 Hartrees.
 Nuclear repulsion after PCM non-electrostatic terms =      737.2414449557 Hartrees.
 Leave Link  301 at Thu Jun  4 12:16:18 2020, MaxMem=   104857600 cpu:               0.1 elap:               0.1
 (Enter /home/roberto/software/g16A03/g16/l302.exe)
 NPDir=0 NMtPBC=     1 NCelOv=     1 NCel=       1 NClECP=     1 NCelD=      1
         NCelK=      1 NCelE2=     1 NClLst=     1 CellRange=     0.0.
 One-electron integrals computed using PRISM.
 NBasis=   212 RedAO= T EigKep=  9.65D-04  NBF=   212
 NBsUse=   212 1.00D-06 EigRej= -1.00D+00 NBFU=   212
 Precomputing XC quadrature grid using
 IXCGrd= 4 IRadAn=           5 IRanWt=          -1 IRanGd=           0 AccXCQ= 0.00D+00.
 Generated NRdTot=       0 NPtTot=           0 NUsed=           0 NTot=          32
 NSgBfM=   212   212   212   212   212 MxSgAt=    28 MxSgA2=    28.
 Leave Link  302 at Thu Jun  4 12:16:18 2020, MaxMem=   104857600 cpu:               1.4 elap:               0.3
 (Enter /home/roberto/software/g16A03/g16/l401.exe)
 ExpMin= 1.61D-01 ExpMax= 3.05D+03 ExpMxC= 4.57D+02 IAcc=3 IRadAn=         5 AccDes= 0.00D+00
 Harris functional with IExCor=  402 and IRadAn=       5 diagonalized for initial guess.
 HarFok:  IExCor=  402 AccDes= 0.00D+00 IRadAn=         5 IDoV= 1 UseB2=F ITyADJ=14
 ICtDFT=  3500011 ScaDFX=  1.000000  1.000000  1.000000  1.000000
 FoFCou: FMM=F IPFlag=           0 FMFlag=      100000 FMFlg1=           0
         NFxFlg=           0 DoJE=T BraDBF=F KetDBF=T FulRan=T
         wScrn=  0.000000 ICntrl=       500 IOpCl=  0 I1Cent=   200000004 NGrid=           0
         NMat0=    1 NMatS0=      1 NMatT0=    0 NMatD0=    1 NMtDS0=    0 NMtDT0=    0
 Symmetry not used in FoFCou.
 Harris En= -466.789466831329    
 JPrj=0 DoOrth=F DoCkMO=F.
 Leave Link  401 at Thu Jun  4 12:16:20 2020, MaxMem=   104857600 cpu:              13.3 elap:               2.3
 (Enter /home/roberto/software/g16A03/g16/l9999.exe)

 This type of calculation cannot be archived.


 THE BEST WAY TO CONVINCE A FOOL THAT HE IS WRONG 
 IS TO LET HIM HAVE HIS OWN WAY.

                                         JOSH BILLINGS
 Job cpu time:       0 days  0 hours  0 minutes 15.0 seconds.
 Elapsed time:       0 days  0 hours  0 minutes  2.8 seconds.
 File lengths (MBytes):  RWF=    232 Int=      0 D2E=      0 Chk=      1 Scr=      1
 Normal termination of Gaussian 16 at Thu Jun  4 12:16:20 2020.
