 Entering Gaussian System, Link 0=g16
 Input=endo-2TS_xp-Ger.com
 Output=endo-2TS_xp-Ger.log
 Initial command:
 /home/roberto/software/g16A03/g16/l1.exe "/home/roberto/scr/Gau-21430.inp" -scrdir="/home/roberto/scr/"
 Entering Link 1 = /home/roberto/software/g16A03/g16/l1.exe PID=     21432.
  
 Copyright (c) 1988,1990,1992,1993,1995,1998,2003,2009,2016,
            Gaussian, Inc.  All Rights Reserved.
  
 This is part of the Gaussian(R) 16 program.  It is based on
 the Gaussian(R) 09 system (copyright 2009, Gaussian, Inc.),
 the Gaussian(R) 03 system (copyright 2003, Gaussian, Inc.),
 the Gaussian(R) 98 system (copyright 1998, Gaussian, Inc.),
 the Gaussian(R) 94 system (copyright 1995, Gaussian, Inc.),
 the Gaussian 92(TM) system (copyright 1992, Gaussian, Inc.),
 the Gaussian 90(TM) system (copyright 1990, Gaussian, Inc.),
 the Gaussian 88(TM) system (copyright 1988, Gaussian, Inc.),
 the Gaussian 86(TM) system (copyright 1986, Carnegie Mellon
 University), and the Gaussian 82(TM) system (copyright 1983,
 Carnegie Mellon University). Gaussian is a federally registered
 trademark of Gaussian, Inc.
  
 This software contains proprietary and confidential information,
 including trade secrets, belonging to Gaussian, Inc.
  
 This software is provided under written license and may be
 used, copied, transmitted, or stored only in accord with that
 written license.
  
 The following legend is applicable only to US Government
 contracts under FAR:
  
                    RESTRICTED RIGHTS LEGEND
  
 Use, reproduction and disclosure by the US Government is
 subject to restrictions as set forth in subparagraphs (a)
 and (c) of the Commercial Computer Software - Restricted
 Rights clause in FAR 52.227-19.
  
 Gaussian, Inc.
 340 Quinnipiac St., Bldg. 40, Wallingford CT 06492
  
  
 ---------------------------------------------------------------
 Warning -- This program may not be used in any manner that
 competes with the business of Gaussian, Inc. or will provide
 assistance to any competitor of Gaussian, Inc.  The licensee
 of this program is prohibited from giving any competitor of
 Gaussian, Inc. access to this program.  By using this program,
 the user acknowledges that Gaussian, Inc. is engaged in the
 business of creating and licensing software in the field of
 computational chemistry and represents and warrants to the
 licensee that it is not a competitor of Gaussian, Inc. and that
 it will not use this program in any manner prohibited above.
 ---------------------------------------------------------------
  

 Cite this work as:
 Gaussian 16, Revision A.03,
 M. J. Frisch, G. W. Trucks, H. B. Schlegel, G. E. Scuseria, 
 M. A. Robb, J. R. Cheeseman, G. Scalmani, V. Barone, 
 G. A. Petersson, H. Nakatsuji, X. Li, M. Caricato, A. V. Marenich, 
 J. Bloino, B. G. Janesko, R. Gomperts, B. Mennucci, H. P. Hratchian, 
 J. V. Ortiz, A. F. Izmaylov, J. L. Sonnenberg, D. Williams-Young, 
 F. Ding, F. Lipparini, F. Egidi, J. Goings, B. Peng, A. Petrone, 
 T. Henderson, D. Ranasinghe, V. G. Zakrzewski, J. Gao, N. Rega, 
 G. Zheng, W. Liang, M. Hada, M. Ehara, K. Toyota, R. Fukuda, 
 J. Hasegawa, M. Ishida, T. Nakajima, Y. Honda, O. Kitao, H. Nakai, 
 T. Vreven, K. Throssell, J. A. Montgomery, Jr., J. E. Peralta, 
 F. Ogliaro, M. J. Bearpark, J. J. Heyd, E. N. Brothers, K. N. Kudin, 
 V. N. Staroverov, T. A. Keith, R. Kobayashi, J. Normand, 
 K. Raghavachari, A. P. Rendell, J. C. Burant, S. S. Iyengar, 
 J. Tomasi, M. Cossi, J. M. Millam, M. Klene, C. Adamo, R. Cammi, 
 J. W. Ochterski, R. L. Martin, K. Morokuma, O. Farkas, 
 J. B. Foresman, and D. J. Fox, Gaussian, Inc., Wallingford CT, 2016.
 
 ******************************************
 Gaussian 16:  ES64L-G16RevA.03 25-Dec-2016
                 4-Jun-2020 
 ******************************************
 %chk=endo-2TS_xp-12.chk
 %nproc=6
 Will use up to    6 processors via shared memory.
 -----------------------------------------------------------------
 #p ub3lyp/6-31g(d) # scrf=(iefpcm,solvent=Cyclohexane,read) nosym
 -----------------------------------------------------------------
 1/38=1,40=2,172=1/1;
 2/12=2,15=1,17=6,18=5,40=1/2;
 3/5=1,6=6,7=1,11=2,25=1,30=1,70=2203,72=17,74=-5,116=2/1,2,3;
 4//1;
 5/5=2,38=5,53=17/2;
 6/7=2,8=2,9=2,10=2,28=1/1;
 99/5=1,9=1/99;
 Leave Link    1 at Thu Jun  4 11:49:28 2020, MaxMem=           0 cpu:               0.0 elap:               0.0
 (Enter /home/roberto/software/g16A03/g16/l101.exe)
 -------------------------
 endo-2TS xp-pcm for eta=3
 -------------------------
 Symbolic Z-matrix:
 Charge =  0 Multiplicity = 1
 C                     2.46889   0.2841   -0.70896 
 C                     1.66725   1.33039   0.03125 
 C                     1.0876    1.07599   1.25692 
 C                     0.68925  -0.23474   1.57552 
 C                     0.88656  -1.22938   0.60904 
 C                     2.18507  -1.14836  -0.18595 
 H                     0.75487   1.90394   1.87856 
 H                     1.80447   2.36121  -0.29094 
 H                     2.28928   0.3581   -1.78937 
 H                     3.53869   0.50611  -0.58103 
 H                     0.05756  -0.41413   2.4412 
 H                     0.5593   -2.24138   0.84559 
 H                     2.9956   -1.45105   0.49025 
 H                     2.18753  -1.87143  -1.00964 
 C                    -0.42979   0.55327  -1.22838 
 C                    -0.46837  -0.81831  -0.9244 
 H                     0.1789    0.92091  -2.04595 
 H                     0.03944  -1.47837  -1.62678 
 C                    -1.7934   -1.38148  -0.41297 
 H                    -2.43371  -1.52573  -1.29682 
 H                    -1.65773  -2.37615   0.02784 
 C                    -1.41993   1.43514  -0.6446 
 H                    -1.36331   2.49552  -0.8844 
 C                    -2.35956   1.00005   0.22126 
 H                    -3.04068   1.71247   0.68353 
 C                    -2.53277  -0.45814   0.57431 
 H                    -3.60145  -0.71583   0.57595 
 H                    -2.19361  -0.63531   1.60368 
 
 ITRead=  0  0  0  0  0  0  0  0  0  0  0  0  0  0  0  0  0  0  0  0
 ITRead=  0  0  0  0  0  0  0  0
 MicOpt= -1 -1 -1 -1 -1 -1 -1 -1 -1 -1 -1 -1 -1 -1 -1 -1 -1 -1 -1 -1
 MicOpt= -1 -1 -1 -1 -1 -1 -1 -1
 NAtoms=     28 NQM=       28 NQMF=       0 NMMI=      0 NMMIF=      0
                NMic=       0 NMicF=      0.
                    Isotopes and Nuclear Properties:
 (Nuclear quadrupole moments (NQMom) in fm**2, nuclear magnetic moments (NMagM)
  in nuclear magnetons)

  Atom         1           2           3           4           5           6           7           8           9          10
 IAtWgt=          12          12          12          12          12          12           1           1           1           1
 AtmWgt=  12.0000000  12.0000000  12.0000000  12.0000000  12.0000000  12.0000000   1.0078250   1.0078250   1.0078250   1.0078250
 NucSpn=           0           0           0           0           0           0           1           1           1           1
 AtZEff=   0.0000000   0.0000000   0.0000000   0.0000000   0.0000000   0.0000000   0.0000000   0.0000000   0.0000000   0.0000000
 NQMom=    0.0000000   0.0000000   0.0000000   0.0000000   0.0000000   0.0000000   0.0000000   0.0000000   0.0000000   0.0000000
 NMagM=    0.0000000   0.0000000   0.0000000   0.0000000   0.0000000   0.0000000   2.7928460   2.7928460   2.7928460   2.7928460
 AtZNuc=   6.0000000   6.0000000   6.0000000   6.0000000   6.0000000   6.0000000   1.0000000   1.0000000   1.0000000   1.0000000

  Atom        11          12          13          14          15          16          17          18          19          20
 IAtWgt=           1           1           1           1          12          12           1           1          12           1
 AtmWgt=   1.0078250   1.0078250   1.0078250   1.0078250  12.0000000  12.0000000   1.0078250   1.0078250  12.0000000   1.0078250
 NucSpn=           1           1           1           1           0           0           1           1           0           1
 AtZEff=   0.0000000   0.0000000   0.0000000   0.0000000   0.0000000   0.0000000   0.0000000   0.0000000   0.0000000   0.0000000
 NQMom=    0.0000000   0.0000000   0.0000000   0.0000000   0.0000000   0.0000000   0.0000000   0.0000000   0.0000000   0.0000000
 NMagM=    2.7928460   2.7928460   2.7928460   2.7928460   0.0000000   0.0000000   2.7928460   2.7928460   0.0000000   2.7928460
 AtZNuc=   1.0000000   1.0000000   1.0000000   1.0000000   6.0000000   6.0000000   1.0000000   1.0000000   6.0000000   1.0000000

  Atom        21          22          23          24          25          26          27          28
 IAtWgt=           1          12           1          12           1          12           1           1
 AtmWgt=   1.0078250  12.0000000   1.0078250  12.0000000   1.0078250  12.0000000   1.0078250   1.0078250
 NucSpn=           1           0           1           0           1           0           1           1
 AtZEff=   0.0000000   0.0000000   0.0000000   0.0000000   0.0000000   0.0000000   0.0000000   0.0000000
 NQMom=    0.0000000   0.0000000   0.0000000   0.0000000   0.0000000   0.0000000   0.0000000   0.0000000
 NMagM=    2.7928460   0.0000000   2.7928460   0.0000000   2.7928460   0.0000000   2.7928460   2.7928460
 AtZNuc=   1.0000000   6.0000000   1.0000000   6.0000000   1.0000000   6.0000000   1.0000000   1.0000000
 Leave Link  101 at Thu Jun  4 11:49:28 2020, MaxMem=   104857600 cpu:               0.1 elap:               0.1
 (Enter /home/roberto/software/g16A03/g16/l202.exe)
                          Input orientation:                          
 ---------------------------------------------------------------------
 Center     Atomic      Atomic             Coordinates (Angstroms)
 Number     Number       Type             X           Y           Z
 ---------------------------------------------------------------------
      1          6           0        2.468892    0.284095   -0.708957
      2          6           0        1.667254    1.330389    0.031252
      3          6           0        1.087601    1.075991    1.256922
      4          6           0        0.689250   -0.234741    1.575517
      5          6           0        0.886557   -1.229380    0.609039
      6          6           0        2.185072   -1.148363   -0.185946
      7          1           0        0.754870    1.903944    1.878564
      8          1           0        1.804474    2.361213   -0.290944
      9          1           0        2.289282    0.358101   -1.789365
     10          1           0        3.538694    0.506111   -0.581025
     11          1           0        0.057564   -0.414132    2.441200
     12          1           0        0.559304   -2.241378    0.845590
     13          1           0        2.995597   -1.451049    0.490252
     14          1           0        2.187529   -1.871427   -1.009641
     15          6           0       -0.429793    0.553269   -1.228382
     16          6           0       -0.468367   -0.818307   -0.924402
     17          1           0        0.178899    0.920914   -2.045953
     18          1           0        0.039438   -1.478372   -1.626777
     19          6           0       -1.793403   -1.381477   -0.412965
     20          1           0       -2.433705   -1.525729   -1.296815
     21          1           0       -1.657728   -2.376149    0.027843
     22          6           0       -1.419929    1.435138   -0.644601
     23          1           0       -1.363311    2.495516   -0.884397
     24          6           0       -2.359563    1.000047    0.221263
     25          1           0       -3.040678    1.712474    0.683525
     26          6           0       -2.532766   -0.458144    0.574312
     27          1           0       -3.601447   -0.715834    0.575953
     28          1           0       -2.193607   -0.635306    1.603677
 ---------------------------------------------------------------------
                    Distance matrix (angstroms):
                    1          2          3          4          5
     1  C    0.000000
     2  C    1.511709   0.000000
     3  C    2.529772   1.379486   0.000000
     4  C    2.941962   2.406424   1.406487   0.000000
     5  C    2.555681   2.737835   2.403104   1.400827   0.000000
     6  C    1.551138   2.541559   2.869505   2.484943   1.524699
     7  H    3.501007   2.138685   1.087499   2.161045   3.383305
     8  H    2.220497   1.088686   2.135788   3.386204   3.813778
     9  H    1.097733   2.155669   3.352502   3.772797   3.200012
    10  H    1.100061   2.134621   3.116195   3.649502   3.385559
    11  H    4.028090   3.382648   2.164245   1.086561   2.169948
    12  H    3.527202   3.827299   3.384262   2.139222   1.089583
    13  H    2.173993   3.116340   3.257938   2.824260   2.123981
    14  H    2.194505   3.406724   3.877425   3.406849   2.173678
    15  C    2.957132   2.566749   2.958455   3.120107   2.878668
    16  C    3.144709   3.176641   3.281398   2.816065   2.087161
    17  H    2.727117   2.587982   3.429107   3.835498   3.489058
    18  H    3.138619   3.645269   3.992385   3.496221   2.403847
    19  C    4.585728   4.419015   4.138581   3.381217   2.872248
    20  H    5.258945   5.170980   5.068542   4.435064   3.839823
    21  H    4.964752   4.979351   4.578727   3.534010   2.850659
    22  C    4.056103   3.162032   3.167410   3.487987   3.740474
    23  H    4.427973   3.373464   3.550671   4.209333   4.600772
    24  C    4.969092   4.044810   3.600180   3.557241   3.957020
    25  H    5.859576   4.768236   4.216228   4.301123   4.907467
    26  C    5.216731   4.597166   3.990812   3.381377   3.505393
    27  H    6.284892   5.678287   5.065721   4.431778   4.517411
    28  H    5.285118   4.608983   3.716867   2.910689   3.290842
                    6          7          8          9         10
     6  C    0.000000
     7  H    3.952753   0.000000
     8  H    3.531714   2.453065   0.000000
     9  H    2.202554   4.265883   2.548090   0.000000
    10  H    2.173859   3.969029   2.555987   1.744426   0.000000
    11  H    3.459376   2.485211   4.268354   4.845058   4.700953
    12  H    2.214017   4.276561   4.901633   4.085719   4.296591
    13  H    1.098095   4.266643   4.069691   2.994755   2.296315
    14  H    1.096039   4.964642   4.310278   2.364132   2.768040
    15  C    3.289338   3.588992   3.023144   2.783193   4.021217
    16  C    2.773985   4.094335   3.959346   3.120373   4.234209
    17  H    3.430199   4.086554   2.792313   2.199162   3.688672
    18  H    2.605503   4.923344   4.431954   2.908757   4.156508
    19  C    3.991759   4.747504   5.193008   4.646388   5.658842
    20  H    4.765452   5.657977   5.838001   5.108623   6.349038
    21  H    4.039836   5.250237   5.876314   5.133932   5.973353
    22  C    4.458797   3.363910   3.373346   4.028491   5.045302
    23  H    5.133879   3.531374   3.225691   4.327695   5.299002
    24  C    5.043331   3.641891   4.410707   5.105534   5.973029
    25  H    6.020700   3.983838   4.984571   6.029758   6.807535
    26  C    4.828291   4.253126   5.244911   5.431885   6.255175
    27  H    5.852467   5.247621   6.280423   6.438071   7.335759
    28  H    4.758026   3.900881   5.343535   5.709281   6.239794
                   11         12         13         14         15
    11  H    0.000000
    12  H    2.477205   0.000000
    13  H    3.676062   2.585809   0.000000
    14  H    4.309149   2.495969   1.754814   0.000000
    15  C    3.826123   3.617972   4.324846   3.574545   0.000000
    16  C    3.430341   2.492812   3.794819   2.858341   1.405387
    17  H    4.683120   4.301839   4.471279   3.592451   1.083555
    18  H    4.204922   2.639136   3.636129   2.269283   2.122843
    19  C    3.536678   2.803323   4.873927   4.055107   2.503513
    20  H    4.627616   3.749687   5.716337   4.643036   2.888352
    21  H    3.551905   2.366876   4.766872   4.014613   3.415760
    22  C    3.889081   4.433374   5.395817   4.907176   1.448745
    23  H    4.641609   5.396987   6.038635   5.629773   2.182225
    24  C    3.573587   4.406405   5.895589   5.516932   2.454607
    25  H    4.148612   5.349680   6.817760   6.560892   3.437421
    26  C    3.193277   3.579722   5.617448   5.175660   2.948755
    27  H    4.118074   4.439802   6.638439   6.112426   3.863371
    28  H    2.412081   3.276077   5.369636   5.248979   3.541795
                   16         17         18         19         20
    16  C    0.000000
    17  H    2.168345   0.000000
    18  H    1.089441   2.439617   0.000000
    19  C    1.527890   3.443491   2.200462   0.000000
    20  H    2.121719   3.656907   2.495507   1.100902   0.000000
    21  H    2.179041   4.306327   2.534589   1.096399   1.755014
    22  C    2.462067   2.187342   3.403375   2.850694   3.196851
    23  H    3.432776   2.491384   4.279091   3.929160   4.181656
    24  C    2.862793   3.404456   3.913185   2.528723   2.947813
    25  H    3.950578   4.294449   5.000611   3.511484   3.843972
    26  C    2.576355   4.015061   3.535801   1.540752   2.156541
    27  H    3.475307   4.883068   4.323139   2.165655   2.350917
    28  H    3.066126   4.622813   4.016601   2.187185   3.043576
                   21         22         23         24         25
    21  H    0.000000
    22  C    3.877453   0.000000
    23  H    4.965076   1.088627   0.000000
    24  C    3.453793   1.349791   2.109841   0.000000
    25  H    4.365697   2.113684   2.425921   1.088649   0.000000
    26  C    2.177857   2.511707   3.495649   1.510286   2.231924
    27  H    2.614405   3.297795   4.177876   2.147633   2.494537
    28  H    2.408517   3.152788   4.084354   2.147787   2.660128
                   26         27         28
    26  C    0.000000
    27  H    1.099312   0.000000
    28  H    1.098184   1.744911   0.000000
 Symmetry turned off by external request.
 Stoichiometry    C12H16
 Framework group  C1[X(C12H16)]
 Deg. of freedom    78
 Full point group                 C1      NOp   1
 Rotational constants (GHZ):           1.6113202           0.8340277           0.7600312
 Leave Link  202 at Thu Jun  4 11:49:28 2020, MaxMem=   104857600 cpu:               0.0 elap:               0.0
 (Enter /home/roberto/software/g16A03/g16/l301.exe)
 Standard basis: 6-31G(d) (6D, 7F)
 Ernie: Thresh=  0.10000D-02 Tol=  0.10000D-05 Strict=F.
   212 basis functions,   400 primitive gaussians,   212 cartesian basis functions
    44 alpha electrons       44 beta electrons
       nuclear repulsion energy       714.9299030981 Hartrees.
 IExCor=  402 DFT=T Ex+Corr=B3LYP ExCW=0 ScaHFX=  0.200000
 ScaDFX=  0.800000  0.720000  1.000000  0.810000 ScalE2=  1.000000  1.000000
 IRadAn=      5 IRanWt=     -1 IRanGd=            0 ICorTp=0 IEmpDi=  4
 NAtoms=   28 NActive=   28 NUniq=   28 SFac= 1.00D+00 NAtFMM=   60 NAOKFM=F Big=F
 Integral buffers will be    131072 words long.
 Raffenetti 2 integral format.
 Two-electron integral symmetry is turned off.
 Using the following non-standard input for PCM:
 qrep pcmdoc geomview  nodis nocav g03defaults tsare=0.075
 Warning! Using old PCM defaults because the g03defaults keyword was found.
 These settings can be overridden by following keywords.
 nsfe=28
 NVESolv=36  SolvMW=84.1595   Rsolv=2.815
 eps=2.0165 RhoS=0.7781
 --- end of non-standard input.
 Reading user-defined spheres from input:
 ISph  on   Nord    Re0     Alpha      Xe            Ye            Ze
 --- end of user-defined spheres data.
 ------------------------------------------------------------------------------
 Polarizable Continuum Model (PCM)
 =================================
 Model                : PCM.
 Atomic radii         : UA0 (Simple United Atom Topological Model).
 Polarization charges : Total charges.
 Charge compensation  : None.
 Solution method      : On-the-fly selection.
 Cavity type          : SES (Solvent Excluding Surface) (Alpha=1.000).
 Cavity algorithm     : GePol (RMin=0.200 OFac=0.890).
                        User-defined sphere list used, NSphG=   28.
                        Tesserae with average area of 0.075 Ang**2.
                        Smoothing algorithm: None.
                        Polarization charges: point-like.
                        Self-potential: constant (ISelfS= 1).
                        Self-field    : global E.n sum rule (ISelfD= 3).
 Solvent              : CycloHexane, Eps=   2.016500 Eps(inf)=   2.035188
                        RSolv=   2.815000 Ang.
 ------------------------------------------------------------------------------
 GePol: Number of generator spheres                  =      28
 GePol: Total number of spheres                      =     200
 GePol: Number of exposed spheres                    =     138 ( 69.00%)
 GePol: Number of tesserae                           =    4467
 GePol: Average area of tesserae                     =       0.05 Ang**2
 GePol: Minimum area of tessera                      =   0.10D-02 Ang**2
 GePol: Maximum area of tessera                      =    0.12395 Ang**2
 GePol: Number of small tesserae                     =       0
 GePol: Fraction of small tesserae (<1% of avg)      =       0.00%
 GePol: Total count of vertices                      =   15895
 GePol: Maximum number of vertices in a tessera      =       7
 GePol: Cavity surface area                          =    210.514 Ang**2
 GePol: Cavity volume                                =    243.664 Ang**3
 Leave Link  301 at Thu Jun  4 11:49:29 2020, MaxMem=   104857600 cpu:               0.3 elap:               0.3
 (Enter /home/roberto/software/g16A03/g16/l302.exe)
 NPDir=0 NMtPBC=     1 NCelOv=     1 NCel=       1 NClECP=     1 NCelD=      1
         NCelK=      1 NCelE2=     1 NClLst=     1 CellRange=     0.0.
 One-electron integrals computed using PRISM.
 NBasis=   212 RedAO= T EigKep=  1.19D-03  NBF=   212
 NBsUse=   212 1.00D-06 EigRej= -1.00D+00 NBFU=   212
 Precomputing XC quadrature grid using
 IXCGrd= 4 IRadAn=           5 IRanWt=          -1 IRanGd=           0 AccXCQ= 0.00D+00.
 Generated NRdTot=       0 NPtTot=           0 NUsed=           0 NTot=          32
 NSgBfM=   212   212   212   212   212 MxSgAt=    28 MxSgA2=    28.
 Leave Link  302 at Thu Jun  4 11:49:29 2020, MaxMem=   104857600 cpu:               1.2 elap:               0.3
 (Enter /home/roberto/software/g16A03/g16/l303.exe)
 DipDrv:  MaxL=1.
 Leave Link  303 at Thu Jun  4 11:49:29 2020, MaxMem=   104857600 cpu:               0.0 elap:               0.0
 (Enter /home/roberto/software/g16A03/g16/l401.exe)
 ExpMin= 1.61D-01 ExpMax= 3.05D+03 ExpMxC= 4.57D+02 IAcc=3 IRadAn=         5 AccDes= 0.00D+00
 Harris functional with IExCor=  402 and IRadAn=       5 diagonalized for initial guess.
 HarFok:  IExCor=  402 AccDes= 0.00D+00 IRadAn=         5 IDoV= 1 UseB2=F ITyADJ=14
 ICtDFT=  3500011 ScaDFX=  1.000000  1.000000  1.000000  1.000000
 FoFCou: FMM=F IPFlag=           0 FMFlag=      100000 FMFlg1=           0
         NFxFlg=           0 DoJE=T BraDBF=F KetDBF=T FulRan=T
         wScrn=  0.000000 ICntrl=       500 IOpCl=  0 I1Cent=   200000004 NGrid=           0
         NMat0=    1 NMatS0=      1 NMatT0=    0 NMatD0=    1 NMtDS0=    0 NMtDT0=    0
 Symmetry not used in FoFCou.
 Harris En= -466.858185006346    
 JPrj=0 DoOrth=F DoCkMO=F.
 Initial guess <Sx>= 0.0000 <Sy>= 0.0000 <Sz>= 0.0000 <S**2>= 0.0000 S= 0.0000
 Leave Link  401 at Thu Jun  4 11:49:31 2020, MaxMem=   104857600 cpu:              12.1 elap:               2.1
 (Enter /home/roberto/software/g16A03/g16/l502.exe)
 Two-electron integral symmetry not used.
 UHF open shell SCF:
 Using DIIS extrapolation, IDIIS=  1040.
 NGot=   104857600 LenX=   104764340 LenY=   104718955
 Requested convergence on RMS density matrix=1.00D-08 within 128 cycles.
 Requested convergence on MAX density matrix=1.00D-06.
 Requested convergence on             energy=1.00D-06.
 No special actions if energy rises.
 Fock matrices will be formed incrementally for  20 cycles.

 Cycle   1  Pass 1  IDiag  1:
 FoFJK:  IHMeth= 1 ICntrl=       0 DoSepK=F KAlg= 0 I1Cent=           0 FoldK=F
 IRaf= 960000000 NMat=       1 IRICut=       1 DoRegI=T DoRafI=F ISym2E= 0 IDoP0=0 IntGTp=1.
 FoFCou: FMM=F IPFlag=           0 FMFlag=      100000 FMFlg1=           0
         NFxFlg=           0 DoJE=F BraDBF=F KetDBF=F FulRan=T
         wScrn=  0.000000 ICntrl=         0 IOpCl=  1 I1Cent=           0 NGrid=           0
         NMat0=    1 NMatS0=      1 NMatT0=    0 NMatD0=    1 NMtDS0=    0 NMtDT0=    0
 Symmetry not used in FoFCou.
 Inv3:  Mode=1 IEnd=    59862267.
 Iteration    1 A*A^-1 deviation from unit magnitude is 1.11D-14 for    736.
 Iteration    1 A*A^-1 deviation from orthogonality  is 5.00D-15 for   4467   4447.
 Iteration    1 A^-1*A deviation from unit magnitude is 1.11D-14 for    736.
 Iteration    1 A^-1*A deviation from orthogonality  is 8.77D-15 for   4467   4444.
 E= -466.443051857887    
 DIIS: error= 2.30D-02 at cycle   1 NSaved=   1.
 NSaved= 1 IEnMin= 1 EnMin= -466.443051857887     IErMin= 1 ErrMin= 2.30D-02
 ErrMax= 2.30D-02  0.00D+00 EMaxC= 1.00D-01 BMatC= 1.23D+00 BMatP= 1.23D+00
 IDIUse=3 WtCom= 7.70D-01 WtEn= 2.30D-01
 Coeff-Com:  0.100D+01
 Coeff-En:   0.100D+01
 Coeff:      0.100D+01
 Gap=     0.136 Goal=   None    Shift=    0.000
 Gap=     0.136 Goal=   None    Shift=    0.000
 GapD=    0.136 DampG=1.000 DampE=0.500 DampFc=0.5000 IDamp=-1.
 Damping current iteration by 5.00D-01
 RMSDP=6.84D-03 MaxDP=1.40D-01              OVMax= 1.57D-01

 Cycle   2  Pass 1  IDiag  1:
 RMSU=  3.38D-03    CP:  9.74D-01
 E= -466.591073323059     Delta-E=       -0.148021465172 Rises=F Damp=T
 DIIS: error= 6.81D-03 at cycle   2 NSaved=   2.
 NSaved= 2 IEnMin= 2 EnMin= -466.591073323059     IErMin= 2 ErrMin= 6.81D-03
 ErrMax= 6.81D-03  0.00D+00 EMaxC= 1.00D-01 BMatC= 8.30D-02 BMatP= 1.23D+00
 IDIUse=3 WtCom= 9.32D-01 WtEn= 6.81D-02
 Coeff-Com:  0.765D-01 0.923D+00
 Coeff-En:   0.131D+00 0.869D+00
 Coeff:      0.803D-01 0.920D+00
 Gap=     0.138 Goal=   None    Shift=    0.000
 Gap=     0.138 Goal=   None    Shift=    0.000
 RMSDP=1.94D-03 MaxDP=3.20D-02 DE=-1.48D-01 OVMax= 9.53D-02

 Cycle   3  Pass 1  IDiag  1:
 RMSU=  1.66D-03    CP:  9.69D-01  7.07D-01
 E= -466.781845714912     Delta-E=       -0.190772391853 Rises=F Damp=F
 DIIS: error= 3.48D-03 at cycle   3 NSaved=   3.
 NSaved= 3 IEnMin= 3 EnMin= -466.781845714912     IErMin= 3 ErrMin= 3.48D-03
 ErrMax= 3.48D-03  0.00D+00 EMaxC= 1.00D-01 BMatC= 2.38D-02 BMatP= 8.30D-02
 IDIUse=3 WtCom= 9.65D-01 WtEn= 3.48D-02
 Coeff-Com: -0.188D-01 0.321D+00 0.698D+00
 Coeff-En:   0.000D+00 0.000D+00 0.100D+01
 Coeff:     -0.182D-01 0.310D+00 0.709D+00
 Gap=     0.134 Goal=   None    Shift=    0.000
 Gap=     0.134 Goal=   None    Shift=    0.000
 RMSDP=7.20D-04 MaxDP=1.41D-02 DE=-1.91D-01 OVMax= 3.48D-02

 Cycle   4  Pass 1  IDiag  1:
 RMSU=  4.51D-04    CP:  9.69D-01  7.98D-01  7.17D-01
 E= -466.785664752427     Delta-E=       -0.003819037514 Rises=F Damp=F
 DIIS: error= 2.21D-03 at cycle   4 NSaved=   4.
 NSaved= 4 IEnMin= 4 EnMin= -466.785664752427     IErMin= 4 ErrMin= 2.21D-03
 ErrMax= 2.21D-03  0.00D+00 EMaxC= 1.00D-01 BMatC= 7.15D-03 BMatP= 2.38D-02
 IDIUse=3 WtCom= 9.78D-01 WtEn= 2.21D-02
 Coeff-Com: -0.146D-01 0.115D+00 0.394D+00 0.506D+00
 Coeff-En:   0.000D+00 0.000D+00 0.235D+00 0.765D+00
 Coeff:     -0.143D-01 0.112D+00 0.390D+00 0.511D+00
 Gap=     0.134 Goal=   None    Shift=    0.000
 Gap=     0.134 Goal=   None    Shift=    0.000
 RMSDP=3.07D-04 MaxDP=6.91D-03 DE=-3.82D-03 OVMax= 2.72D-02

 Cycle   5  Pass 1  IDiag  1:
 RMSU=  1.80D-04    CP:  9.69D-01  7.89D-01  7.70D-01  4.88D-01
 E= -466.787320537774     Delta-E=       -0.001655785347 Rises=F Damp=F
 DIIS: error= 1.21D-03 at cycle   5 NSaved=   5.
 NSaved= 5 IEnMin= 5 EnMin= -466.787320537774     IErMin= 5 ErrMin= 1.21D-03
 ErrMax= 1.21D-03  0.00D+00 EMaxC= 1.00D-01 BMatC= 1.22D-03 BMatP= 7.15D-03
 IDIUse=3 WtCom= 9.88D-01 WtEn= 1.21D-02
 Coeff-Com: -0.528D-02 0.137D-01 0.110D+00 0.320D+00 0.561D+00
 Coeff-En:   0.000D+00 0.000D+00 0.000D+00 0.176D+00 0.824D+00
 Coeff:     -0.522D-02 0.135D-01 0.109D+00 0.318D+00 0.564D+00
 Gap=     0.134 Goal=   None    Shift=    0.000
 Gap=     0.134 Goal=   None    Shift=    0.000
 RMSDP=1.08D-04 MaxDP=2.30D-03 DE=-1.66D-03 OVMax= 1.16D-02

 Cycle   6  Pass 1  IDiag  1:
 RMSU=  4.16D-05    CP:  9.69D-01  7.88D-01  7.78D-01  6.09D-01  5.46D-01
 E= -466.787657713983     Delta-E=       -0.000337176209 Rises=F Damp=F
 DIIS: error= 2.78D-04 at cycle   6 NSaved=   6.
 NSaved= 6 IEnMin= 6 EnMin= -466.787657713983     IErMin= 6 ErrMin= 2.78D-04
 ErrMax= 2.78D-04  0.00D+00 EMaxC= 1.00D-01 BMatC= 6.97D-05 BMatP= 1.22D-03
 IDIUse=3 WtCom= 9.97D-01 WtEn= 2.78D-03
 Coeff-Com: -0.276D-02 0.482D-02 0.555D-01 0.181D+00 0.350D+00 0.411D+00
 Coeff-En:   0.000D+00 0.000D+00 0.000D+00 0.000D+00 0.000D+00 0.100D+01
 Coeff:     -0.275D-02 0.481D-02 0.554D-01 0.180D+00 0.349D+00 0.413D+00
 Gap=     0.134 Goal=   None    Shift=    0.000
 Gap=     0.134 Goal=   None    Shift=    0.000
 RMSDP=2.76D-05 MaxDP=8.40D-04 DE=-3.37D-04 OVMax= 3.65D-03

 Cycle   7  Pass 1  IDiag  1:
 RMSU=  1.07D-05    CP:  9.69D-01  7.89D-01  7.77D-01  6.10D-01  5.93D-01
                    CP:  4.27D-01
 E= -466.787678080670     Delta-E=       -0.000020366687 Rises=F Damp=F
 DIIS: error= 5.53D-05 at cycle   7 NSaved=   7.
 NSaved= 7 IEnMin= 7 EnMin= -466.787678080670     IErMin= 7 ErrMin= 5.53D-05
 ErrMax= 5.53D-05  0.00D+00 EMaxC= 1.00D-01 BMatC= 3.11D-06 BMatP= 6.97D-05
 IDIUse=1 WtCom= 1.00D+00 WtEn= 0.00D+00
 Coeff-Com: -0.101D-02 0.130D-02 0.204D-01 0.704D-01 0.143D+00 0.225D+00
 Coeff-Com:  0.541D+00
 Coeff:     -0.101D-02 0.130D-02 0.204D-01 0.704D-01 0.143D+00 0.225D+00
 Coeff:      0.541D+00
 Gap=     0.134 Goal=   None    Shift=    0.000
 Gap=     0.134 Goal=   None    Shift=    0.000
 RMSDP=5.92D-06 MaxDP=1.72D-04 DE=-2.04D-05 OVMax= 7.33D-04

 Cycle   8  Pass 1  IDiag  1:
 RMSU=  3.38D-06    CP:  9.69D-01  7.88D-01  7.77D-01  6.10D-01  5.93D-01
                    CP:  4.79D-01  5.97D-01
 E= -466.787678879670     Delta-E=       -0.000000799000 Rises=F Damp=F
 DIIS: error= 1.47D-05 at cycle   8 NSaved=   8.
 NSaved= 8 IEnMin= 8 EnMin= -466.787678879670     IErMin= 8 ErrMin= 1.47D-05
 ErrMax= 1.47D-05  0.00D+00 EMaxC= 1.00D-01 BMatC= 3.67D-07 BMatP= 3.11D-06
 IDIUse=1 WtCom= 1.00D+00 WtEn= 0.00D+00
 Coeff-Com: -0.913D-04-0.110D-03 0.215D-02 0.922D-02 0.218D-01 0.568D-01
 Coeff-Com:  0.293D+00 0.617D+00
 Coeff:     -0.913D-04-0.110D-03 0.215D-02 0.922D-02 0.218D-01 0.568D-01
 Coeff:      0.293D+00 0.617D+00
 Gap=     0.134 Goal=   None    Shift=    0.000
 Gap=     0.134 Goal=   None    Shift=    0.000
 RMSDP=1.59D-06 MaxDP=6.12D-05 DE=-7.99D-07 OVMax= 1.28D-04

 Cycle   9  Pass 1  IDiag  1:
 RMSU=  1.00D-06    CP:  9.69D-01  7.88D-01  7.77D-01  6.10D-01  5.93D-01
                    CP:  4.76D-01  6.61D-01  7.22D-01
 E= -466.787678969084     Delta-E=       -0.000000089414 Rises=F Damp=F
 DIIS: error= 2.82D-06 at cycle   9 NSaved=   9.
 NSaved= 9 IEnMin= 9 EnMin= -466.787678969084     IErMin= 9 ErrMin= 2.82D-06
 ErrMax= 2.82D-06  0.00D+00 EMaxC= 1.00D-01 BMatC= 1.86D-08 BMatP= 3.67D-07
 IDIUse=1 WtCom= 1.00D+00 WtEn= 0.00D+00
 Coeff-Com:  0.223D-04-0.137D-03-0.352D-03-0.344D-03 0.738D-03 0.107D-01
 Coeff-Com:  0.988D-01 0.281D+00 0.610D+00
 Coeff:      0.223D-04-0.137D-03-0.352D-03-0.344D-03 0.738D-03 0.107D-01
 Coeff:      0.988D-01 0.281D+00 0.610D+00
 Gap=     0.134 Goal=   None    Shift=    0.000
 Gap=     0.134 Goal=   None    Shift=    0.000
 RMSDP=4.52D-07 MaxDP=9.82D-06 DE=-8.94D-08 OVMax= 1.87D-05

 Cycle  10  Pass 1  IDiag  1:
 RMSU=  2.69D-07    CP:  9.69D-01  7.88D-01  7.77D-01  6.10D-01  5.93D-01
                    CP:  4.79D-01  6.69D-01  7.40D-01  6.78D-01
 E= -466.787678973444     Delta-E=       -0.000000004360 Rises=F Damp=F
 DIIS: error= 1.01D-06 at cycle  10 NSaved=  10.
 NSaved=10 IEnMin=10 EnMin= -466.787678973444     IErMin=10 ErrMin= 1.01D-06
 ErrMax= 1.01D-06  0.00D+00 EMaxC= 1.00D-01 BMatC= 1.77D-09 BMatP= 1.86D-08
 IDIUse=1 WtCom= 1.00D+00 WtEn= 0.00D+00
 Coeff-Com:  0.165D-04-0.628D-04-0.321D-03-0.752D-03-0.944D-03 0.187D-02
 Coeff-Com:  0.327D-01 0.105D+00 0.306D+00 0.556D+00
 Coeff:      0.165D-04-0.628D-04-0.321D-03-0.752D-03-0.944D-03 0.187D-02
 Coeff:      0.327D-01 0.105D+00 0.306D+00 0.556D+00
 Gap=     0.134 Goal=   None    Shift=    0.000
 Gap=     0.134 Goal=   None    Shift=    0.000
 RMSDP=1.41D-07 MaxDP=3.99D-06 DE=-4.36D-09 OVMax= 7.99D-06

 Cycle  11  Pass 1  IDiag  1:
 RMSU=  1.12D-07    CP:  9.69D-01  7.88D-01  7.77D-01  6.10D-01  5.93D-01
                    CP:  4.78D-01  6.71D-01  7.41D-01  7.25D-01  7.73D-01
 E= -466.787678973837     Delta-E=       -0.000000000393 Rises=F Damp=F
 DIIS: error= 3.93D-07 at cycle  11 NSaved=  11.
 NSaved=11 IEnMin=11 EnMin= -466.787678973837     IErMin=11 ErrMin= 3.93D-07
 ErrMax= 3.93D-07  0.00D+00 EMaxC= 1.00D-01 BMatC= 3.18D-10 BMatP= 1.77D-09
 IDIUse=1 WtCom= 1.00D+00 WtEn= 0.00D+00
 Coeff-Com:  0.329D-05-0.654D-05-0.879D-04-0.275D-03-0.484D-03-0.756D-03
 Coeff-Com:  0.758D-03 0.738D-02 0.598D-01 0.321D+00 0.613D+00
 Coeff:      0.329D-05-0.654D-05-0.879D-04-0.275D-03-0.484D-03-0.756D-03
 Coeff:      0.758D-03 0.738D-02 0.598D-01 0.321D+00 0.613D+00
 Gap=     0.134 Goal=   None    Shift=    0.000
 Gap=     0.134 Goal=   None    Shift=    0.000
 RMSDP=5.08D-08 MaxDP=1.56D-06 DE=-3.93D-10 OVMax= 4.31D-06

 Cycle  12  Pass 1  IDiag  1:
 RMSU=  2.49D-08    CP:  9.69D-01  7.88D-01  7.77D-01  6.10D-01  5.93D-01
                    CP:  4.78D-01  6.71D-01  7.44D-01  7.31D-01  8.37D-01
                    CP:  6.68D-01
 E= -466.787678973918     Delta-E=       -0.000000000081 Rises=F Damp=F
 DIIS: error= 1.30D-07 at cycle  12 NSaved=  12.
 NSaved=12 IEnMin=12 EnMin= -466.787678973918     IErMin=12 ErrMin= 1.30D-07
 ErrMax= 1.30D-07  0.00D+00 EMaxC= 1.00D-01 BMatC= 2.10D-11 BMatP= 3.18D-10
 IDIUse=1 WtCom= 1.00D+00 WtEn= 0.00D+00
 Coeff-Com:  0.133D-05-0.158D-05-0.399D-04-0.137D-03-0.250D-03-0.525D-03
 Coeff-Com: -0.692D-03 0.536D-03 0.233D-01 0.161D+00 0.351D+00 0.466D+00
 Coeff:      0.133D-05-0.158D-05-0.399D-04-0.137D-03-0.250D-03-0.525D-03
 Coeff:     -0.692D-03 0.536D-03 0.233D-01 0.161D+00 0.351D+00 0.466D+00
 Gap=     0.134 Goal=   None    Shift=    0.000
 Gap=     0.134 Goal=   None    Shift=    0.000
 RMSDP=1.48D-08 MaxDP=4.99D-07 DE=-8.14D-11 OVMax= 1.13D-06

 Cycle  13  Pass 1  IDiag  1:
 RMSU=  1.12D-08    CP:  9.69D-01  7.88D-01  7.77D-01  6.10D-01  5.93D-01
                    CP:  4.78D-01  6.71D-01  7.44D-01  7.32D-01  8.43D-01
                    CP:  6.98D-01  6.61D-01
 E= -466.787678973916     Delta-E=        0.000000000003 Rises=F Damp=F
 DIIS: error= 4.52D-08 at cycle  13 NSaved=  13.
 NSaved=13 IEnMin=12 EnMin= -466.787678973918     IErMin=13 ErrMin= 4.52D-08
 ErrMax= 4.52D-08  0.00D+00 EMaxC= 1.00D-01 BMatC= 2.73D-12 BMatP= 2.10D-11
 IDIUse=1 WtCom= 1.00D+00 WtEn= 0.00D+00
 Coeff-Com: -0.304D-07 0.696D-06-0.154D-05-0.145D-04-0.279D-04-0.142D-03
 Coeff-Com: -0.597D-03-0.167D-02-0.155D-02 0.125D-01 0.554D-01 0.268D+00
 Coeff-Com:  0.668D+00
 Coeff:     -0.304D-07 0.696D-06-0.154D-05-0.145D-04-0.279D-04-0.142D-03
 Coeff:     -0.597D-03-0.167D-02-0.155D-02 0.125D-01 0.554D-01 0.268D+00
 Coeff:      0.668D+00
 Gap=     0.134 Goal=   None    Shift=    0.000
 Gap=     0.134 Goal=   None    Shift=    0.000
 RMSDP=5.99D-09 MaxDP=1.90D-07 DE= 2.73D-12 OVMax= 5.32D-07

 Error on total polarization charges =  0.00818
 SCF Done:  E(UB3LYP) =  -466.787678974     A.U. after   13 cycles
            NFock= 13  Conv=0.60D-08     -V/T= 2.0100
 <Sx>= 0.0000 <Sy>= 0.0000 <Sz>= 0.0000 <S**2>= 0.0000 S= 0.0000
 <L.S>= 0.000000000000E+00
 KE= 4.621604075292D+02 PE=-2.509930287589D+03 EE= 8.660522979874D+02
 --------------------------------------------------------------------
 Variational PCM results
 =======================
 <psi(f)|   H    |psi(f)>                     (a.u.) =    -466.794454
 <psi(f)|H+V(f)/2|psi(f)>                     (a.u.) =    -466.795377
 Total free energy in solution:
 - with all non electrostatic terms           (a.u.) =    -466.787679
 --------------------------------------------------------------------
 (Polarized solute)-Solvent               (kcal/mol) =      -0.58
 --------------------------------------------------------------------
 Quantum repulsion energy                 (kcal/mol) =       4.83
 Total non electrostatic                  (kcal/mol) =       4.83
 --------------------------------------------------------------------
 Partition over spheres:
 Sphere  on Atom  Surface  Charge   GEl     GCav    GDR
    1               3.27   0.001    0.00    0.00    0.00
    2               2.32   0.003   -0.01    0.00    0.00
    3               5.02   0.008   -0.05    0.00    0.00
    4               5.01   0.009   -0.05    0.00    0.00
    5               1.12   0.001    0.00    0.00    0.00
    6               3.40   0.002    0.00    0.00    0.00
    7               6.35  -0.007   -0.01    0.00    0.00
    8               6.98  -0.007   -0.02    0.00    0.00
    9               5.55  -0.004   -0.01    0.00    0.00
   10               6.90  -0.006   -0.01    0.00    0.00
   11               4.82  -0.005   -0.01    0.00    0.00
   12               4.91  -0.005   -0.02    0.00    0.00
   13               6.99  -0.006   -0.01    0.00    0.00
   14               5.32  -0.004   -0.01    0.00    0.00
   15               3.66   0.005   -0.02    0.00    0.00
   16               1.10   0.001    0.00    0.00    0.00
   17               4.21  -0.004   -0.01    0.00    0.00
   18               4.23  -0.004   -0.02    0.00    0.00
   19               2.96   0.002    0.00    0.00    0.00
   20               6.70  -0.004    0.00    0.00    0.00
   21               4.86  -0.003   -0.01    0.00    0.00
   22               5.02   0.008   -0.06    0.00    0.00
   23               6.96  -0.007   -0.01    0.00    0.00
   24               5.45   0.009   -0.05    0.00    0.00
   25               7.55  -0.007   -0.01    0.00    0.00
   26               3.00   0.002    0.00    0.00    0.00
   27               7.10  -0.005   -0.01    0.00    0.00
   28               3.48  -0.002    0.00    0.00    0.00
 Added spheres:    76.27   0.022   -0.15    0.00    0.00
 --------------------------------------------------------------------
 After PCM corrections, the energy is  -466.787678974     a.u.
 --------------------------------------------------------------------
 Annihilation of the first spin contaminant:
 S**2 before annihilation     0.0000,   after     0.0000
 Leave Link  502 at Thu Jun  4 11:51:32 2020, MaxMem=   104857600 cpu:             683.9 elap:             120.8
 (Enter /home/roberto/software/g16A03/g16/l601.exe)
 Copying SCF densities to generalized density rwf, IOpCl= 1 IROHF=0.

 **********************************************************************

            Population analysis using the SCF density.

 **********************************************************************

 Alpha  occ. eigenvalues --  -10.18844 -10.18518 -10.18297 -10.18083 -10.17956
 Alpha  occ. eigenvalues --  -10.17754 -10.17653 -10.17445 -10.17201 -10.17023
 Alpha  occ. eigenvalues --  -10.16860 -10.16646  -0.83522  -0.81216  -0.73683
 Alpha  occ. eigenvalues --   -0.73305  -0.72633  -0.71699  -0.60463  -0.60066
 Alpha  occ. eigenvalues --   -0.58657  -0.57738  -0.50012  -0.48923  -0.47864
 Alpha  occ. eigenvalues --   -0.46382  -0.44501  -0.43477  -0.40630  -0.40510
 Alpha  occ. eigenvalues --   -0.39696  -0.39052  -0.38447  -0.37881  -0.36030
 Alpha  occ. eigenvalues --   -0.35015  -0.32972  -0.32171  -0.31638  -0.30912
 Alpha  occ. eigenvalues --   -0.30347  -0.25556  -0.22264  -0.16845
 Alpha virt. eigenvalues --   -0.03455   0.02621   0.07144   0.07881   0.11276
 Alpha virt. eigenvalues --    0.11566   0.12909   0.13815   0.14268   0.15413
 Alpha virt. eigenvalues --    0.16108   0.16271   0.18678   0.18864   0.19835
 Alpha virt. eigenvalues --    0.20300   0.20655   0.22196   0.22715   0.24208
 Alpha virt. eigenvalues --    0.24467   0.25264   0.27196   0.27806   0.27962
 Alpha virt. eigenvalues --    0.30618   0.31625   0.34000   0.41649   0.42693
 Alpha virt. eigenvalues --    0.45705   0.48124   0.49310   0.49869   0.50270
 Alpha virt. eigenvalues --    0.53223   0.53705   0.55135   0.57233   0.58390
 Alpha virt. eigenvalues --    0.58762   0.60001   0.60433   0.61493   0.62718
 Alpha virt. eigenvalues --    0.64161   0.65769   0.66573   0.66848   0.67644
 Alpha virt. eigenvalues --    0.70078   0.72483   0.73429   0.75610   0.76664
 Alpha virt. eigenvalues --    0.79365   0.81343   0.81796   0.83872   0.85012
 Alpha virt. eigenvalues --    0.85484   0.86178   0.86412   0.86675   0.87745
 Alpha virt. eigenvalues --    0.88658   0.88906   0.89466   0.90496   0.91383
 Alpha virt. eigenvalues --    0.92791   0.93822   0.95476   0.95955   0.96440
 Alpha virt. eigenvalues --    0.98107   0.99292   0.99721   1.03154   1.05435
 Alpha virt. eigenvalues --    1.07765   1.10940   1.11304   1.12023   1.18491
 Alpha virt. eigenvalues --    1.20734   1.24750   1.26421   1.31033   1.33374
 Alpha virt. eigenvalues --    1.38631   1.39406   1.42653   1.44917   1.47120
 Alpha virt. eigenvalues --    1.49774   1.51476   1.54683   1.56658   1.60967
 Alpha virt. eigenvalues --    1.66220   1.67179   1.72530   1.74965   1.76467
 Alpha virt. eigenvalues --    1.77763   1.80581   1.84063   1.85360   1.86819
 Alpha virt. eigenvalues --    1.87825   1.91201   1.92931   1.96300   1.97263
 Alpha virt. eigenvalues --    1.97676   1.98253   2.01146   2.03133   2.05801
 Alpha virt. eigenvalues --    2.06881   2.09750   2.13572   2.13971   2.18915
 Alpha virt. eigenvalues --    2.22445   2.23208   2.25494   2.27133   2.28632
 Alpha virt. eigenvalues --    2.31849   2.32465   2.33498   2.37273   2.38330
 Alpha virt. eigenvalues --    2.40655   2.43188   2.43667   2.47341   2.50537
 Alpha virt. eigenvalues --    2.52054   2.53307   2.59974   2.63119   2.64670
 Alpha virt. eigenvalues --    2.65500   2.67459   2.68441   2.69760   2.71204
 Alpha virt. eigenvalues --    2.71947   2.75482   2.94151   2.96644   3.12298
 Alpha virt. eigenvalues --    3.14926   4.08747   4.17590   4.18791   4.26352
 Alpha virt. eigenvalues --    4.30451   4.40061   4.43617   4.46409   4.52193
 Alpha virt. eigenvalues --    4.54040   4.69928   4.73505
  Beta  occ. eigenvalues --  -10.18844 -10.18518 -10.18297 -10.18083 -10.17956
  Beta  occ. eigenvalues --  -10.17754 -10.17653 -10.17445 -10.17201 -10.17023
  Beta  occ. eigenvalues --  -10.16860 -10.16646  -0.83522  -0.81216  -0.73683
  Beta  occ. eigenvalues --   -0.73305  -0.72633  -0.71699  -0.60463  -0.60066
  Beta  occ. eigenvalues --   -0.58657  -0.57738  -0.50012  -0.48923  -0.47864
  Beta  occ. eigenvalues --   -0.46382  -0.44501  -0.43477  -0.40630  -0.40510
  Beta  occ. eigenvalues --   -0.39696  -0.39052  -0.38447  -0.37881  -0.36030
  Beta  occ. eigenvalues --   -0.35015  -0.32972  -0.32171  -0.31638  -0.30912
  Beta  occ. eigenvalues --   -0.30347  -0.25556  -0.22264  -0.16845
  Beta virt. eigenvalues --   -0.03455   0.02621   0.07144   0.07881   0.11276
  Beta virt. eigenvalues --    0.11566   0.12909   0.13815   0.14268   0.15413
  Beta virt. eigenvalues --    0.16108   0.16271   0.18678   0.18864   0.19835
  Beta virt. eigenvalues --    0.20300   0.20655   0.22196   0.22715   0.24208
  Beta virt. eigenvalues --    0.24467   0.25264   0.27196   0.27806   0.27962
  Beta virt. eigenvalues --    0.30618   0.31625   0.34000   0.41649   0.42693
  Beta virt. eigenvalues --    0.45705   0.48124   0.49310   0.49869   0.50270
  Beta virt. eigenvalues --    0.53223   0.53705   0.55135   0.57233   0.58390
  Beta virt. eigenvalues --    0.58762   0.60001   0.60433   0.61493   0.62718
  Beta virt. eigenvalues --    0.64161   0.65769   0.66573   0.66848   0.67644
  Beta virt. eigenvalues --    0.70078   0.72483   0.73429   0.75610   0.76664
  Beta virt. eigenvalues --    0.79365   0.81343   0.81796   0.83872   0.85012
  Beta virt. eigenvalues --    0.85484   0.86178   0.86412   0.86675   0.87745
  Beta virt. eigenvalues --    0.88658   0.88906   0.89466   0.90496   0.91383
  Beta virt. eigenvalues --    0.92791   0.93822   0.95476   0.95955   0.96440
  Beta virt. eigenvalues --    0.98107   0.99292   0.99721   1.03154   1.05435
  Beta virt. eigenvalues --    1.07765   1.10940   1.11304   1.12023   1.18491
  Beta virt. eigenvalues --    1.20734   1.24750   1.26421   1.31033   1.33374
  Beta virt. eigenvalues --    1.38631   1.39406   1.42653   1.44917   1.47120
  Beta virt. eigenvalues --    1.49774   1.51476   1.54683   1.56658   1.60967
  Beta virt. eigenvalues --    1.66220   1.67179   1.72530   1.74965   1.76467
  Beta virt. eigenvalues --    1.77763   1.80581   1.84063   1.85360   1.86819
  Beta virt. eigenvalues --    1.87825   1.91201   1.92931   1.96300   1.97263
  Beta virt. eigenvalues --    1.97676   1.98253   2.01146   2.03133   2.05801
  Beta virt. eigenvalues --    2.06881   2.09750   2.13572   2.13971   2.18915
  Beta virt. eigenvalues --    2.22445   2.23208   2.25494   2.27133   2.28632
  Beta virt. eigenvalues --    2.31849   2.32465   2.33498   2.37273   2.38330
  Beta virt. eigenvalues --    2.40655   2.43188   2.43667   2.47341   2.50537
  Beta virt. eigenvalues --    2.52054   2.53307   2.59974   2.63119   2.64670
  Beta virt. eigenvalues --    2.65500   2.67459   2.68441   2.69760   2.71204
  Beta virt. eigenvalues --    2.71947   2.75482   2.94151   2.96644   3.12298
  Beta virt. eigenvalues --    3.14926   4.08747   4.17590   4.18791   4.26352
  Beta virt. eigenvalues --    4.30451   4.40061   4.43617   4.46409   4.52193
  Beta virt. eigenvalues --    4.54040   4.69928   4.73505
          Condensed to atoms (all electrons):
               1          2          3          4          5          6
     1  C    5.067108   0.375381  -0.025474  -0.034052  -0.029373   0.330365
     2  C    0.375381   4.977938   0.586039  -0.042697  -0.022866  -0.034393
     3  C   -0.025474   0.586039   4.825742   0.515478  -0.039038  -0.027996
     4  C   -0.034052  -0.042697   0.515478   4.943248   0.533992  -0.028406
     5  C   -0.029373  -0.022866  -0.039038   0.533992   5.015708   0.371519
     6  C    0.330365  -0.034393  -0.027996  -0.028406   0.371519   5.074336
     7  H    0.005816  -0.049705   0.367020  -0.050112   0.006085  -0.000224
     8  H   -0.052732   0.362562  -0.039534   0.006906   0.000045   0.005137
     9  H    0.357853  -0.035127   0.002013   0.001223  -0.000717  -0.026985
    10  H    0.373738  -0.038170  -0.003239   0.001017   0.003583  -0.036565
    11  H   -0.000044   0.005714  -0.045075   0.366154  -0.051361   0.005154
    12  H    0.005213   0.000242   0.007203  -0.040653   0.361707  -0.049192
    13  H   -0.034778   0.000268   0.003122  -0.007296  -0.039952   0.373555
    14  H   -0.029624   0.002675   0.000779   0.004221  -0.033191   0.361682
    15  C   -0.003627   0.080404  -0.002148  -0.037669  -0.016971  -0.011130
    16  C   -0.007867  -0.007626  -0.018487  -0.021443   0.137230  -0.020921
    17  H   -0.002945  -0.009422  -0.001312   0.001075   0.001839   0.000136
    18  H   -0.000999   0.000693   0.000674   0.001174  -0.022776  -0.001581
    19  C    0.000120   0.000690   0.000222  -0.003304  -0.018685   0.000761
    20  H    0.000002  -0.000015  -0.000043   0.000057   0.002543  -0.000083
    21  H    0.000003  -0.000007   0.000070   0.000411  -0.005209   0.000259
    22  C    0.000065  -0.008622  -0.000623   0.000906  -0.003265   0.000319
    23  H    0.000039  -0.000215   0.000137   0.000023  -0.000024  -0.000005
    24  C   -0.000019  -0.002912  -0.000490   0.011734  -0.000067   0.000090
    25  H    0.000000  -0.000001   0.000020  -0.000031  -0.000006   0.000000
    26  C   -0.000008   0.000011  -0.000246  -0.003926  -0.002702   0.000005
    27  H    0.000000  -0.000007  -0.000005   0.000273   0.000110   0.000001
    28  H    0.000003   0.000088   0.000047  -0.002248   0.001754  -0.000046
               7          8          9         10         11         12
     1  C    0.005816  -0.052732   0.357853   0.373738  -0.000044   0.005213
     2  C   -0.049705   0.362562  -0.035127  -0.038170   0.005714   0.000242
     3  C    0.367020  -0.039534   0.002013  -0.003239  -0.045075   0.007203
     4  C   -0.050112   0.006906   0.001223   0.001017   0.366154  -0.040653
     5  C    0.006085   0.000045  -0.000717   0.003583  -0.051361   0.361707
     6  C   -0.000224   0.005137  -0.026985  -0.036565   0.005154  -0.049192
     7  H    0.606463  -0.007699  -0.000186  -0.000096  -0.006818  -0.000127
     8  H   -0.007699   0.603210  -0.000217  -0.001420  -0.000153  -0.000003
     9  H   -0.000186  -0.000217   0.607100  -0.043489   0.000016  -0.000196
    10  H   -0.000096  -0.001420  -0.043489   0.599427   0.000011  -0.000099
    11  H   -0.006818  -0.000153   0.000016   0.000011   0.600255  -0.007223
    12  H   -0.000127  -0.000003  -0.000196  -0.000099  -0.007223   0.609126
    13  H   -0.000031  -0.000117   0.005249  -0.010670   0.000007  -0.001057
    14  H    0.000013  -0.000137  -0.009578   0.003294  -0.000164  -0.001718
    15  C    0.000520  -0.005027  -0.007106   0.001397   0.000051   0.001800
    16  C    0.000031   0.000370   0.001602   0.000344   0.001084  -0.018954
    17  H   -0.000069   0.000392   0.006311   0.000001   0.000009  -0.000080
    18  H    0.000008  -0.000026  -0.000463  -0.000028  -0.000086  -0.000164
    19  C   -0.000016  -0.000005  -0.000069   0.000002   0.000228  -0.001617
    20  H   -0.000001   0.000000   0.000004   0.000000   0.000008  -0.000053
    21  H    0.000000   0.000000  -0.000002   0.000000  -0.000034   0.004880
    22  C    0.000927   0.000245   0.000311  -0.000033  -0.000229   0.000000
    23  H    0.000085   0.000452  -0.000007   0.000000  -0.000005   0.000002
    24  C   -0.000205   0.000067   0.000008  -0.000002  -0.000081   0.000004
    25  H    0.000008  -0.000001   0.000000   0.000000  -0.000004   0.000000
    26  C    0.000017   0.000001   0.000002   0.000000  -0.000646  -0.000166
    27  H    0.000000   0.000000   0.000000   0.000000   0.000021  -0.000021
    28  H   -0.000017  -0.000001  -0.000001   0.000000   0.003674  -0.000120
              13         14         15         16         17         18
     1  C   -0.034778  -0.029624  -0.003627  -0.007867  -0.002945  -0.000999
     2  C    0.000268   0.002675   0.080404  -0.007626  -0.009422   0.000693
     3  C    0.003122   0.000779  -0.002148  -0.018487  -0.001312   0.000674
     4  C   -0.007296   0.004221  -0.037669  -0.021443   0.001075   0.001174
     5  C   -0.039952  -0.033191  -0.016971   0.137230   0.001839  -0.022776
     6  C    0.373555   0.361682  -0.011130  -0.020921   0.000136  -0.001581
     7  H   -0.000031   0.000013   0.000520   0.000031  -0.000069   0.000008
     8  H   -0.000117  -0.000137  -0.005027   0.000370   0.000392  -0.000026
     9  H    0.005249  -0.009578  -0.007106   0.001602   0.006311  -0.000463
    10  H   -0.010670   0.003294   0.001397   0.000344   0.000001  -0.000028
    11  H    0.000007  -0.000164   0.000051   0.001084   0.000009  -0.000086
    12  H   -0.001057  -0.001718   0.001800  -0.018954  -0.000080  -0.000164
    13  H    0.596064  -0.038863   0.000179   0.002915   0.000006   0.000082
    14  H   -0.038863   0.600425   0.000777  -0.004927  -0.000178   0.005378
    15  C    0.000179   0.000777   4.973303   0.527210   0.361270  -0.037044
    16  C    0.002915  -0.004927   0.527210   5.047042  -0.049912   0.360614
    17  H    0.000006  -0.000178   0.361270  -0.049912   0.600218  -0.007706
    18  H    0.000082   0.005378  -0.037044   0.360614  -0.007706   0.609010
    19  C   -0.000074   0.000285  -0.035749   0.371410   0.004590  -0.048066
    20  H    0.000002  -0.000023  -0.006128  -0.041487  -0.000109  -0.002941
    21  H   -0.000018  -0.000002   0.004480  -0.035791  -0.000135  -0.001196
    22  C   -0.000001  -0.000009   0.448067  -0.032443  -0.040201   0.005096
    23  H    0.000000   0.000000  -0.050414   0.006045  -0.005289  -0.000153
    24  C   -0.000001  -0.000001  -0.034095  -0.029463   0.005233   0.000162
    25  H    0.000000   0.000000   0.005664   0.000114  -0.000161   0.000010
    26  C    0.000002   0.000000  -0.030725  -0.026046   0.000125   0.004211
    27  H    0.000000   0.000000   0.000521   0.004272   0.000020  -0.000127
    28  H    0.000003  -0.000001   0.001916  -0.003000  -0.000003  -0.000151
              19         20         21         22         23         24
     1  C    0.000120   0.000002   0.000003   0.000065   0.000039  -0.000019
     2  C    0.000690  -0.000015  -0.000007  -0.008622  -0.000215  -0.002912
     3  C    0.000222  -0.000043   0.000070  -0.000623   0.000137  -0.000490
     4  C   -0.003304   0.000057   0.000411   0.000906   0.000023   0.011734
     5  C   -0.018685   0.002543  -0.005209  -0.003265  -0.000024  -0.000067
     6  C    0.000761  -0.000083   0.000259   0.000319  -0.000005   0.000090
     7  H   -0.000016  -0.000001   0.000000   0.000927   0.000085  -0.000205
     8  H   -0.000005   0.000000   0.000000   0.000245   0.000452   0.000067
     9  H   -0.000069   0.000004  -0.000002   0.000311  -0.000007   0.000008
    10  H    0.000002   0.000000   0.000000  -0.000033   0.000000  -0.000002
    11  H    0.000228   0.000008  -0.000034  -0.000229  -0.000005  -0.000081
    12  H   -0.001617  -0.000053   0.004880   0.000000   0.000002   0.000004
    13  H   -0.000074   0.000002  -0.000018  -0.000001   0.000000  -0.000001
    14  H    0.000285  -0.000023  -0.000002  -0.000009   0.000000  -0.000001
    15  C   -0.035749  -0.006128   0.004480   0.448067  -0.050414  -0.034095
    16  C    0.371410  -0.041487  -0.035791  -0.032443   0.006045  -0.029463
    17  H    0.004590  -0.000109  -0.000135  -0.040201  -0.005289   0.005233
    18  H   -0.048066  -0.002941  -0.001196   0.005096  -0.000153   0.000162
    19  C    5.033549   0.370627   0.364764  -0.021586  -0.000105  -0.032659
    20  H    0.370627   0.607777  -0.039504   0.002727  -0.000043  -0.000492
    21  H    0.364764  -0.039504   0.607266   0.000653   0.000011   0.003850
    22  C   -0.021586   0.002727   0.000653   4.793446   0.362925   0.658856
    23  H   -0.000105  -0.000043   0.000011   0.362925   0.616761  -0.049847
    24  C   -0.032659  -0.000492   0.003850   0.658856  -0.049847   4.957920
    25  H    0.004262  -0.000084  -0.000130  -0.035716  -0.008434   0.361312
    26  C    0.361448  -0.036770  -0.032510  -0.031061   0.006420   0.366803
    27  H   -0.033461  -0.008771   0.000822   0.001400  -0.000143  -0.035856
    28  H   -0.031267   0.005908  -0.007100  -0.003453  -0.000202  -0.033782
              25         26         27         28
     1  C    0.000000  -0.000008   0.000000   0.000003
     2  C   -0.000001   0.000011  -0.000007   0.000088
     3  C    0.000020  -0.000246  -0.000005   0.000047
     4  C   -0.000031  -0.003926   0.000273  -0.002248
     5  C   -0.000006  -0.002702   0.000110   0.001754
     6  C    0.000000   0.000005   0.000001  -0.000046
     7  H    0.000008   0.000017   0.000000  -0.000017
     8  H   -0.000001   0.000001   0.000000  -0.000001
     9  H    0.000000   0.000002   0.000000  -0.000001
    10  H    0.000000   0.000000   0.000000   0.000000
    11  H   -0.000004  -0.000646   0.000021   0.003674
    12  H    0.000000  -0.000166  -0.000021  -0.000120
    13  H    0.000000   0.000002   0.000000   0.000003
    14  H    0.000000   0.000000   0.000000  -0.000001
    15  C    0.005664  -0.030725   0.000521   0.001916
    16  C    0.000114  -0.026046   0.004272  -0.003000
    17  H   -0.000161   0.000125   0.000020  -0.000003
    18  H    0.000010   0.004211  -0.000127  -0.000151
    19  C    0.004262   0.361448  -0.033461  -0.031267
    20  H   -0.000084  -0.036770  -0.008771   0.005908
    21  H   -0.000130  -0.032510   0.000822  -0.007100
    22  C   -0.035716  -0.031061   0.001400  -0.003453
    23  H   -0.008434   0.006420  -0.000143  -0.000202
    24  C    0.361312   0.366803  -0.035856  -0.033782
    25  H    0.602083  -0.053282  -0.003145   0.001405
    26  C   -0.053282   5.048033   0.366662   0.364025
    27  H   -0.003145   0.366662   0.607129  -0.041800
    28  H    0.001405   0.364025  -0.041800   0.594799
          Atomic-Atomic Spin Densities.
               1          2          3          4          5          6
     1  C    0.000000   0.000000   0.000000   0.000000   0.000000   0.000000
     2  C    0.000000   0.000000   0.000000   0.000000   0.000000   0.000000
     3  C    0.000000   0.000000   0.000000   0.000000   0.000000   0.000000
     4  C    0.000000   0.000000   0.000000   0.000000   0.000000   0.000000
     5  C    0.000000   0.000000   0.000000   0.000000   0.000000   0.000000
     6  C    0.000000   0.000000   0.000000   0.000000   0.000000   0.000000
     7  H    0.000000   0.000000   0.000000   0.000000   0.000000   0.000000
     8  H    0.000000   0.000000   0.000000   0.000000   0.000000   0.000000
     9  H    0.000000   0.000000   0.000000   0.000000   0.000000   0.000000
    10  H    0.000000   0.000000   0.000000   0.000000   0.000000   0.000000
    11  H    0.000000   0.000000   0.000000   0.000000   0.000000   0.000000
    12  H    0.000000   0.000000   0.000000   0.000000   0.000000   0.000000
    13  H    0.000000   0.000000   0.000000   0.000000   0.000000   0.000000
    14  H    0.000000   0.000000   0.000000   0.000000   0.000000   0.000000
    15  C    0.000000   0.000000   0.000000   0.000000   0.000000   0.000000
    16  C    0.000000   0.000000   0.000000   0.000000   0.000000   0.000000
    17  H    0.000000   0.000000   0.000000   0.000000   0.000000   0.000000
    18  H    0.000000   0.000000   0.000000   0.000000   0.000000   0.000000
    19  C    0.000000   0.000000   0.000000   0.000000   0.000000   0.000000
    20  H    0.000000   0.000000   0.000000   0.000000   0.000000   0.000000
    21  H    0.000000   0.000000   0.000000   0.000000   0.000000   0.000000
    22  C    0.000000   0.000000   0.000000   0.000000   0.000000   0.000000
    23  H    0.000000   0.000000   0.000000   0.000000   0.000000   0.000000
    24  C    0.000000   0.000000   0.000000   0.000000   0.000000   0.000000
    25  H    0.000000   0.000000   0.000000   0.000000   0.000000   0.000000
    26  C    0.000000   0.000000   0.000000   0.000000   0.000000   0.000000
    27  H    0.000000   0.000000   0.000000   0.000000   0.000000   0.000000
    28  H    0.000000   0.000000   0.000000   0.000000   0.000000   0.000000
               7          8          9         10         11         12
     1  C    0.000000   0.000000   0.000000   0.000000   0.000000   0.000000
     2  C    0.000000   0.000000   0.000000   0.000000   0.000000   0.000000
     3  C    0.000000   0.000000   0.000000   0.000000   0.000000   0.000000
     4  C    0.000000   0.000000   0.000000   0.000000   0.000000   0.000000
     5  C    0.000000   0.000000   0.000000   0.000000   0.000000   0.000000
     6  C    0.000000   0.000000   0.000000   0.000000   0.000000   0.000000
     7  H    0.000000   0.000000   0.000000   0.000000   0.000000   0.000000
     8  H    0.000000   0.000000   0.000000   0.000000   0.000000   0.000000
     9  H    0.000000   0.000000   0.000000   0.000000   0.000000   0.000000
    10  H    0.000000   0.000000   0.000000   0.000000   0.000000   0.000000
    11  H    0.000000   0.000000   0.000000   0.000000   0.000000   0.000000
    12  H    0.000000   0.000000   0.000000   0.000000   0.000000   0.000000
    13  H    0.000000   0.000000   0.000000   0.000000   0.000000   0.000000
    14  H    0.000000   0.000000   0.000000   0.000000   0.000000   0.000000
    15  C    0.000000   0.000000   0.000000   0.000000   0.000000   0.000000
    16  C    0.000000   0.000000   0.000000   0.000000   0.000000   0.000000
    17  H    0.000000   0.000000   0.000000   0.000000   0.000000   0.000000
    18  H    0.000000   0.000000   0.000000   0.000000   0.000000   0.000000
    19  C    0.000000   0.000000   0.000000   0.000000   0.000000   0.000000
    20  H    0.000000   0.000000   0.000000   0.000000   0.000000   0.000000
    21  H    0.000000   0.000000   0.000000   0.000000   0.000000   0.000000
    22  C    0.000000   0.000000   0.000000   0.000000   0.000000   0.000000
    23  H    0.000000   0.000000   0.000000   0.000000   0.000000   0.000000
    24  C    0.000000   0.000000   0.000000   0.000000   0.000000   0.000000
    25  H    0.000000   0.000000   0.000000   0.000000   0.000000   0.000000
    26  C    0.000000   0.000000   0.000000   0.000000   0.000000   0.000000
    27  H    0.000000   0.000000   0.000000   0.000000   0.000000   0.000000
    28  H    0.000000   0.000000   0.000000   0.000000   0.000000   0.000000
              13         14         15         16         17         18
     1  C    0.000000   0.000000   0.000000   0.000000   0.000000   0.000000
     2  C    0.000000   0.000000   0.000000   0.000000   0.000000   0.000000
     3  C    0.000000   0.000000   0.000000   0.000000   0.000000   0.000000
     4  C    0.000000   0.000000   0.000000   0.000000   0.000000   0.000000
     5  C    0.000000   0.000000   0.000000   0.000000   0.000000   0.000000
     6  C    0.000000   0.000000   0.000000   0.000000   0.000000   0.000000
     7  H    0.000000   0.000000   0.000000   0.000000   0.000000   0.000000
     8  H    0.000000   0.000000   0.000000   0.000000   0.000000   0.000000
     9  H    0.000000   0.000000   0.000000   0.000000   0.000000   0.000000
    10  H    0.000000   0.000000   0.000000   0.000000   0.000000   0.000000
    11  H    0.000000   0.000000   0.000000   0.000000   0.000000   0.000000
    12  H    0.000000   0.000000   0.000000   0.000000   0.000000   0.000000
    13  H    0.000000   0.000000   0.000000   0.000000   0.000000   0.000000
    14  H    0.000000   0.000000   0.000000   0.000000   0.000000   0.000000
    15  C    0.000000   0.000000   0.000000   0.000000   0.000000   0.000000
    16  C    0.000000   0.000000   0.000000   0.000000   0.000000   0.000000
    17  H    0.000000   0.000000   0.000000   0.000000   0.000000   0.000000
    18  H    0.000000   0.000000   0.000000   0.000000   0.000000   0.000000
    19  C    0.000000   0.000000   0.000000   0.000000   0.000000   0.000000
    20  H    0.000000   0.000000   0.000000   0.000000   0.000000   0.000000
    21  H    0.000000   0.000000   0.000000   0.000000   0.000000   0.000000
    22  C    0.000000   0.000000   0.000000   0.000000   0.000000   0.000000
    23  H    0.000000   0.000000   0.000000   0.000000   0.000000   0.000000
    24  C    0.000000   0.000000   0.000000   0.000000   0.000000   0.000000
    25  H    0.000000   0.000000   0.000000   0.000000   0.000000   0.000000
    26  C    0.000000   0.000000   0.000000   0.000000   0.000000   0.000000
    27  H    0.000000   0.000000   0.000000   0.000000   0.000000   0.000000
    28  H    0.000000   0.000000   0.000000   0.000000   0.000000   0.000000
              19         20         21         22         23         24
     1  C    0.000000   0.000000   0.000000   0.000000   0.000000   0.000000
     2  C    0.000000   0.000000   0.000000   0.000000   0.000000   0.000000
     3  C    0.000000   0.000000   0.000000   0.000000   0.000000   0.000000
     4  C    0.000000   0.000000   0.000000   0.000000   0.000000   0.000000
     5  C    0.000000   0.000000   0.000000   0.000000   0.000000   0.000000
     6  C    0.000000   0.000000   0.000000   0.000000   0.000000   0.000000
     7  H    0.000000   0.000000   0.000000   0.000000   0.000000   0.000000
     8  H    0.000000   0.000000   0.000000   0.000000   0.000000   0.000000
     9  H    0.000000   0.000000   0.000000   0.000000   0.000000   0.000000
    10  H    0.000000   0.000000   0.000000   0.000000   0.000000   0.000000
    11  H    0.000000   0.000000   0.000000   0.000000   0.000000   0.000000
    12  H    0.000000   0.000000   0.000000   0.000000   0.000000   0.000000
    13  H    0.000000   0.000000   0.000000   0.000000   0.000000   0.000000
    14  H    0.000000   0.000000   0.000000   0.000000   0.000000   0.000000
    15  C    0.000000   0.000000   0.000000   0.000000   0.000000   0.000000
    16  C    0.000000   0.000000   0.000000   0.000000   0.000000   0.000000
    17  H    0.000000   0.000000   0.000000   0.000000   0.000000   0.000000
    18  H    0.000000   0.000000   0.000000   0.000000   0.000000   0.000000
    19  C    0.000000   0.000000   0.000000   0.000000   0.000000   0.000000
    20  H    0.000000   0.000000   0.000000   0.000000   0.000000   0.000000
    21  H    0.000000   0.000000   0.000000   0.000000   0.000000   0.000000
    22  C    0.000000   0.000000   0.000000   0.000000   0.000000   0.000000
    23  H    0.000000   0.000000   0.000000   0.000000   0.000000   0.000000
    24  C    0.000000   0.000000   0.000000   0.000000   0.000000   0.000000
    25  H    0.000000   0.000000   0.000000   0.000000   0.000000   0.000000
    26  C    0.000000   0.000000   0.000000   0.000000   0.000000   0.000000
    27  H    0.000000   0.000000   0.000000   0.000000   0.000000   0.000000
    28  H    0.000000   0.000000   0.000000   0.000000   0.000000   0.000000
              25         26         27         28
     1  C    0.000000   0.000000   0.000000   0.000000
     2  C    0.000000   0.000000   0.000000   0.000000
     3  C    0.000000   0.000000   0.000000   0.000000
     4  C    0.000000   0.000000   0.000000   0.000000
     5  C    0.000000   0.000000   0.000000   0.000000
     6  C    0.000000   0.000000   0.000000   0.000000
     7  H    0.000000   0.000000   0.000000   0.000000
     8  H    0.000000   0.000000   0.000000   0.000000
     9  H    0.000000   0.000000   0.000000   0.000000
    10  H    0.000000   0.000000   0.000000   0.000000
    11  H    0.000000   0.000000   0.000000   0.000000
    12  H    0.000000   0.000000   0.000000   0.000000
    13  H    0.000000   0.000000   0.000000   0.000000
    14  H    0.000000   0.000000   0.000000   0.000000
    15  C    0.000000   0.000000   0.000000   0.000000
    16  C    0.000000   0.000000   0.000000   0.000000
    17  H    0.000000   0.000000   0.000000   0.000000
    18  H    0.000000   0.000000   0.000000   0.000000
    19  C    0.000000   0.000000   0.000000   0.000000
    20  H    0.000000   0.000000   0.000000   0.000000
    21  H    0.000000   0.000000   0.000000   0.000000
    22  C    0.000000   0.000000   0.000000   0.000000
    23  H    0.000000   0.000000   0.000000   0.000000
    24  C    0.000000   0.000000   0.000000   0.000000
    25  H    0.000000   0.000000   0.000000   0.000000
    26  C    0.000000   0.000000   0.000000   0.000000
    27  H    0.000000   0.000000   0.000000   0.000000
    28  H    0.000000   0.000000   0.000000   0.000000
 Mulliken charges and spin densities:
               1          2
     1  C   -0.294163   0.000000
     2  C   -0.140918   0.000000
     3  C   -0.104856   0.000000
     4  C   -0.116054   0.000000
     5  C   -0.149911   0.000000
     6  C   -0.285793   0.000000
     7  H    0.128317   0.000000
     8  H    0.127684   0.000000
     9  H    0.142451   0.000000
    10  H    0.150997   0.000000
    11  H    0.129537   0.000000
    12  H    0.131266   0.000000
    13  H    0.151401   0.000000
    14  H    0.138888   0.000000
    15  C   -0.129728   0.000000
    16  C   -0.141917   0.000000
    17  H    0.136296   0.000000
    18  H    0.136397   0.000000
    19  C   -0.286294   0.000000
    20  H    0.146892   0.000000
    21  H    0.134171   0.000000
    22  C   -0.098701   0.000000
    23  H    0.121990   0.000000
    24  C   -0.146068   0.000000
    25  H    0.126118   0.000000
    26  C   -0.299675   0.000000
    27  H    0.142105   0.000000
    28  H    0.149571   0.000000
 Sum of Mulliken charges =   0.00000   0.00000
 Mulliken charges and spin densities with hydrogens summed into heavy atoms:
               1          2
     1  C   -0.000716   0.000000
     2  C   -0.013234   0.000000
     3  C    0.023460   0.000000
     4  C    0.013483   0.000000
     5  C   -0.018645   0.000000
     6  C    0.004496   0.000000
    15  C    0.006568   0.000000
    16  C   -0.005520   0.000000
    19  C   -0.005231   0.000000
    22  C    0.023289   0.000000
    24  C   -0.019950   0.000000
    26  C   -0.007999   0.000000
 Electronic spatial extent (au):  <R**2>=           1827.1307
 Charge=              0.0000 electrons
 Dipole moment (field-independent basis, Debye):
    X=              0.2264    Y=             -0.4719    Z=             -0.3308  Tot=              0.6192
 Quadrupole moment (field-independent basis, Debye-Ang):
   XX=            -72.6243   YY=            -69.7153   ZZ=            -72.8887
   XY=              0.5074   XZ=             -3.7709   YZ=             -0.0766
 Traceless Quadrupole moment (field-independent basis, Debye-Ang):
   XX=             -0.8815   YY=              2.0274   ZZ=             -1.1459
   XY=              0.5074   XZ=             -3.7709   YZ=             -0.0766
 Octapole moment (field-independent basis, Debye-Ang**2):
  XXX=              0.0501  YYY=              3.4951  ZZZ=              0.0645  XYY=              0.0960
  XXY=             -1.4839  XXZ=              0.1209  XZZ=             -0.9122  YZZ=             -0.0449
  YYZ=             -0.9231  XYZ=             -1.9662
 Hexadecapole moment (field-independent basis, Debye-Ang**3):
 XXXX=          -1413.1684 YYYY=           -602.8169 ZZZZ=           -450.3226 XXXY=             -0.0850
 XXXZ=            -21.1103 YYYX=             -2.0043 YYYZ=             -2.5917 ZZZX=            -16.4006
 ZZZY=              2.7455 XXYY=           -340.7486 XXZZ=           -326.7306 YYZZ=           -175.6083
 XXYZ=              2.7067 YYXZ=             -4.2875 ZZXY=              2.1046
 N-N= 7.149299030981D+02 E-N=-2.509930286897D+03  KE= 4.621604075292D+02
                          Isotropic Fermi Contact Couplings
        Atom                 a.u.       MegaHertz       Gauss      10(-4) cm-1
     1  C(13)              0.00000       0.00000       0.00000       0.00000
     2  C(13)              0.00000       0.00000       0.00000       0.00000
     3  C(13)              0.00000       0.00000       0.00000       0.00000
     4  C(13)              0.00000       0.00000       0.00000       0.00000
     5  C(13)              0.00000       0.00000       0.00000       0.00000
     6  C(13)              0.00000       0.00000       0.00000       0.00000
     7  H(1)               0.00000       0.00000       0.00000       0.00000
     8  H(1)               0.00000       0.00000       0.00000       0.00000
     9  H(1)               0.00000       0.00000       0.00000       0.00000
    10  H(1)               0.00000       0.00000       0.00000       0.00000
    11  H(1)               0.00000       0.00000       0.00000       0.00000
    12  H(1)               0.00000       0.00000       0.00000       0.00000
    13  H(1)               0.00000       0.00000       0.00000       0.00000
    14  H(1)               0.00000       0.00000       0.00000       0.00000
    15  C(13)              0.00000       0.00000       0.00000       0.00000
    16  C(13)              0.00000       0.00000       0.00000       0.00000
    17  H(1)               0.00000       0.00000       0.00000       0.00000
    18  H(1)               0.00000       0.00000       0.00000       0.00000
    19  C(13)              0.00000       0.00000       0.00000       0.00000
    20  H(1)               0.00000       0.00000       0.00000       0.00000
    21  H(1)               0.00000       0.00000       0.00000       0.00000
    22  C(13)              0.00000       0.00000       0.00000       0.00000
    23  H(1)               0.00000       0.00000       0.00000       0.00000
    24  C(13)              0.00000       0.00000       0.00000       0.00000
    25  H(1)               0.00000       0.00000       0.00000       0.00000
    26  C(13)              0.00000       0.00000       0.00000       0.00000
    27  H(1)               0.00000       0.00000       0.00000       0.00000
    28  H(1)               0.00000       0.00000       0.00000       0.00000
 --------------------------------------------------------
       Center         ----  Spin Dipole Couplings  ----
                      3XX-RR        3YY-RR        3ZZ-RR
 --------------------------------------------------------
     1   Atom        0.000000      0.000000      0.000000
     2   Atom        0.000000      0.000000      0.000000
     3   Atom        0.000000      0.000000      0.000000
     4   Atom        0.000000      0.000000      0.000000
     5   Atom        0.000000      0.000000      0.000000
     6   Atom        0.000000      0.000000      0.000000
     7   Atom        0.000000      0.000000      0.000000
     8   Atom        0.000000      0.000000      0.000000
     9   Atom        0.000000      0.000000      0.000000
    10   Atom        0.000000      0.000000      0.000000
    11   Atom        0.000000      0.000000      0.000000
    12   Atom        0.000000      0.000000      0.000000
    13   Atom        0.000000      0.000000      0.000000
    14   Atom        0.000000      0.000000      0.000000
    15   Atom        0.000000      0.000000      0.000000
    16   Atom        0.000000      0.000000      0.000000
    17   Atom        0.000000      0.000000      0.000000
    18   Atom        0.000000      0.000000      0.000000
    19   Atom        0.000000      0.000000      0.000000
    20   Atom        0.000000      0.000000      0.000000
    21   Atom        0.000000      0.000000      0.000000
    22   Atom        0.000000      0.000000      0.000000
    23   Atom        0.000000      0.000000      0.000000
    24   Atom        0.000000      0.000000      0.000000
    25   Atom        0.000000      0.000000      0.000000
    26   Atom        0.000000      0.000000      0.000000
    27   Atom        0.000000      0.000000      0.000000
    28   Atom        0.000000      0.000000      0.000000
 --------------------------------------------------------
                        XY            XZ            YZ
 --------------------------------------------------------
     1   Atom        0.000000      0.000000      0.000000
     2   Atom        0.000000      0.000000      0.000000
     3   Atom        0.000000      0.000000      0.000000
     4   Atom        0.000000      0.000000      0.000000
     5   Atom        0.000000      0.000000      0.000000
     6   Atom        0.000000      0.000000      0.000000
     7   Atom        0.000000      0.000000      0.000000
     8   Atom        0.000000      0.000000      0.000000
     9   Atom        0.000000      0.000000      0.000000
    10   Atom        0.000000      0.000000      0.000000
    11   Atom        0.000000      0.000000      0.000000
    12   Atom        0.000000      0.000000      0.000000
    13   Atom        0.000000      0.000000      0.000000
    14   Atom        0.000000      0.000000      0.000000
    15   Atom        0.000000      0.000000      0.000000
    16   Atom        0.000000      0.000000      0.000000
    17   Atom        0.000000      0.000000      0.000000
    18   Atom        0.000000      0.000000      0.000000
    19   Atom        0.000000      0.000000      0.000000
    20   Atom        0.000000      0.000000      0.000000
    21   Atom        0.000000      0.000000      0.000000
    22   Atom        0.000000      0.000000      0.000000
    23   Atom        0.000000      0.000000      0.000000
    24   Atom        0.000000      0.000000      0.000000
    25   Atom        0.000000      0.000000      0.000000
    26   Atom        0.000000      0.000000      0.000000
    27   Atom        0.000000      0.000000      0.000000
    28   Atom        0.000000      0.000000      0.000000
 --------------------------------------------------------


 ---------------------------------------------------------------------------------
              Anisotropic Spin Dipole Couplings in Principal Axis System
 ---------------------------------------------------------------------------------

       Atom             a.u.   MegaHertz   Gauss  10(-4) cm-1        Axes

              Baa     0.0000     0.000     0.000     0.000  1.0000  0.0000  0.0000
     1 C(13)  Bbb     0.0000     0.000     0.000     0.000  0.0000  1.0000  0.0000
              Bcc     0.0000     0.000     0.000     0.000  0.0000  0.0000  1.0000
 
              Baa     0.0000     0.000     0.000     0.000  1.0000  0.0000  0.0000
     2 C(13)  Bbb     0.0000     0.000     0.000     0.000  0.0000  1.0000  0.0000
              Bcc     0.0000     0.000     0.000     0.000  0.0000  0.0000  1.0000
 
              Baa     0.0000     0.000     0.000     0.000  1.0000  0.0000  0.0000
     3 C(13)  Bbb     0.0000     0.000     0.000     0.000  0.0000  1.0000  0.0000
              Bcc     0.0000     0.000     0.000     0.000  0.0000  0.0000  1.0000
 
              Baa     0.0000     0.000     0.000     0.000  1.0000  0.0000  0.0000
     4 C(13)  Bbb     0.0000     0.000     0.000     0.000  0.0000  1.0000  0.0000
              Bcc     0.0000     0.000     0.000     0.000  0.0000  0.0000  1.0000
 
              Baa     0.0000     0.000     0.000     0.000  1.0000  0.0000  0.0000
     5 C(13)  Bbb     0.0000     0.000     0.000     0.000  0.0000  1.0000  0.0000
              Bcc     0.0000     0.000     0.000     0.000  0.0000  0.0000  1.0000
 
              Baa     0.0000     0.000     0.000     0.000  1.0000  0.0000  0.0000
     6 C(13)  Bbb     0.0000     0.000     0.000     0.000  0.0000  1.0000  0.0000
              Bcc     0.0000     0.000     0.000     0.000  0.0000  0.0000  1.0000
 
              Baa     0.0000     0.000     0.000     0.000  1.0000  0.0000  0.0000
     7 H(1)   Bbb     0.0000     0.000     0.000     0.000  0.0000  1.0000  0.0000
              Bcc     0.0000     0.000     0.000     0.000  0.0000  0.0000  1.0000
 
              Baa     0.0000     0.000     0.000     0.000  1.0000  0.0000  0.0000
     8 H(1)   Bbb     0.0000     0.000     0.000     0.000  0.0000  1.0000  0.0000
              Bcc     0.0000     0.000     0.000     0.000  0.0000  0.0000  1.0000
 
              Baa     0.0000     0.000     0.000     0.000  1.0000  0.0000  0.0000
     9 H(1)   Bbb     0.0000     0.000     0.000     0.000  0.0000  1.0000  0.0000
              Bcc     0.0000     0.000     0.000     0.000  0.0000  0.0000  1.0000
 
              Baa     0.0000     0.000     0.000     0.000  1.0000  0.0000  0.0000
    10 H(1)   Bbb     0.0000     0.000     0.000     0.000  0.0000  1.0000  0.0000
              Bcc     0.0000     0.000     0.000     0.000  0.0000  0.0000  1.0000
 
              Baa     0.0000     0.000     0.000     0.000  1.0000  0.0000  0.0000
    11 H(1)   Bbb     0.0000     0.000     0.000     0.000  0.0000  1.0000  0.0000
              Bcc     0.0000     0.000     0.000     0.000  0.0000  0.0000  1.0000
 
              Baa     0.0000     0.000     0.000     0.000  1.0000  0.0000  0.0000
    12 H(1)   Bbb     0.0000     0.000     0.000     0.000  0.0000  1.0000  0.0000
              Bcc     0.0000     0.000     0.000     0.000  0.0000  0.0000  1.0000
 
              Baa     0.0000     0.000     0.000     0.000  1.0000  0.0000  0.0000
    13 H(1)   Bbb     0.0000     0.000     0.000     0.000  0.0000  1.0000  0.0000
              Bcc     0.0000     0.000     0.000     0.000  0.0000  0.0000  1.0000
 
              Baa     0.0000     0.000     0.000     0.000  1.0000  0.0000  0.0000
    14 H(1)   Bbb     0.0000     0.000     0.000     0.000  0.0000  1.0000  0.0000
              Bcc     0.0000     0.000     0.000     0.000  0.0000  0.0000  1.0000
 
              Baa     0.0000     0.000     0.000     0.000  1.0000  0.0000  0.0000
    15 C(13)  Bbb     0.0000     0.000     0.000     0.000  0.0000  1.0000  0.0000
              Bcc     0.0000     0.000     0.000     0.000  0.0000  0.0000  1.0000
 
[...]
              25         26         27         28
     1  C    0.000000   0.000000   0.000000   0.000000
     2  C    0.000000   0.000000   0.000000   0.000000
     3  C    0.000000   0.000000   0.000000   0.000000
     4  C    0.000000   0.000000   0.000000   0.000000
     5  C    0.000000   0.000000   0.000000   0.000000
     6  C    0.000000   0.000000   0.000000   0.000000
     7  H    0.000000   0.000000   0.000000   0.000000
     8  H    0.000000   0.000000   0.000000   0.000000
     9  H    0.000000   0.000000   0.000000   0.000000
    10  H    0.000000   0.000000   0.000000   0.000000
    11  H    0.000000   0.000000   0.000000   0.000000
    12  H    0.000000   0.000000   0.000000   0.000000
    13  H    0.000000   0.000000   0.000000   0.000000
    14  H    0.000000   0.000000   0.000000   0.000000
    15  C    0.000000   0.000000   0.000000   0.000000
    16  C    0.000000   0.000000   0.000000   0.000000
    17  H    0.000000   0.000000   0.000000   0.000000
    18  H    0.000000   0.000000   0.000000   0.000000
    19  C    0.000000   0.000000   0.000000   0.000000
    20  H    0.000000   0.000000   0.000000   0.000000
    21  H    0.000000   0.000000   0.000000   0.000000
    22  C    0.000000   0.000000   0.000000   0.000000
    23  H    0.000000   0.000000   0.000000   0.000000
    24  C    0.000000   0.000000   0.000000   0.000000
    25  H    0.000000   0.000000   0.000000   0.000000
    26  C    0.000000   0.000000   0.000000   0.000000
    27  H    0.000000   0.000000   0.000000   0.000000
    28  H    0.000000   0.000000   0.000000   0.000000
 Mulliken charges and spin densities:
               1          2
     1  C   -0.317178   0.000000
     2  C   -0.160840   0.000000
     3  C   -0.127690   0.000000
     4  C   -0.136032   0.000000
     5  C   -0.165341   0.000000
     6  C   -0.312670   0.000000
     7  H    0.147444   0.000000
     8  H    0.147485   0.000000
     9  H    0.152755   0.000000
    10  H    0.167717   0.000000
    11  H    0.146707   0.000000
    12  H    0.148783   0.000000
    13  H    0.166623   0.000000
    14  H    0.152360   0.000000
    15  C   -0.145789   0.000000
    16  C   -0.156947   0.000000
    17  H    0.152451   0.000000
    18  H    0.151696   0.000000
    19  C   -0.313560   0.000000
    20  H    0.161944   0.000000
    21  H    0.147710   0.000000
    22  C   -0.122162   0.000000
    23  H    0.142776   0.000000
    24  C   -0.170774   0.000000
    25  H    0.147283   0.000000
    26  C   -0.322233   0.000000
    27  H    0.158753   0.000000
    28  H    0.158729   0.000000
 Sum of Mulliken charges =   0.00000   0.00000
 Mulliken charges and spin densities with hydrogens summed into heavy atoms:
               1          2
     1  C    0.003295   0.000000
     2  C   -0.013355   0.000000
     3  C    0.019754   0.000000
     4  C    0.010675   0.000000
     5  C   -0.016558   0.000000
     6  C    0.006313   0.000000
    15  C    0.006663   0.000000
    16  C   -0.005251   0.000000
    19  C   -0.003907   0.000000
    22  C    0.020614   0.000000
    24  C   -0.023490   0.000000
    26  C   -0.004751   0.000000
 Electronic spatial extent (au):  <R**2>=           1824.9630
 Charge=              0.0000 electrons
 Dipole moment (field-independent basis, Debye):
    X=              0.2524    Y=             -0.5379    Z=             -0.3729  Tot=              0.7014
 Quadrupole moment (field-independent basis, Debye-Ang):
   XX=            -71.5118   YY=            -68.6218   ZZ=            -72.1789
   XY=              0.5541   XZ=             -4.0906   YZ=             -0.0883
 Traceless Quadrupole moment (field-independent basis, Debye-Ang):
   XX=             -0.7410   YY=              2.1490   ZZ=             -1.4080
   XY=              0.5541   XZ=             -4.0906   YZ=             -0.0883
 Octapole moment (field-independent basis, Debye-Ang**2):
  XXX=              0.1017  YYY=              3.5446  ZZZ=             -0.0125  XYY=              0.0551
  XXY=             -1.7728  XXZ=              0.0435  XZZ=             -0.9671  YZZ=             -0.1317
  YYZ=             -1.0377  XYZ=             -2.1606
 Hexadecapole moment (field-independent basis, Debye-Ang**3):
 XXXX=          -1389.1016 YYYY=           -591.2796 ZZZZ=           -444.1224 XXXY=              0.1711
 XXXZ=            -24.0886 YYYX=             -2.2047 YYYZ=             -2.7723 ZZZX=            -17.7119
 ZZZY=              2.9159 XXYY=           -334.8748 XXZZ=           -323.4000 YYZZ=           -172.6964
 XXYZ=              2.8582 YYXZ=             -4.5725 ZZXY=              2.3018
 N-N= 7.149299030981D+02 E-N=-2.510502459211D+03  KE= 4.622715845941D+02
                          Isotropic Fermi Contact Couplings
        Atom                 a.u.       MegaHertz       Gauss      10(-4) cm-1
     1  C(13)              0.00000       0.00000       0.00000       0.00000
     2  C(13)              0.00000       0.00000       0.00000       0.00000
     3  C(13)              0.00000       0.00000       0.00000       0.00000
     4  C(13)              0.00000       0.00000       0.00000       0.00000
     5  C(13)              0.00000       0.00000       0.00000       0.00000
     6  C(13)              0.00000       0.00000       0.00000       0.00000
     7  H(1)               0.00000       0.00000       0.00000       0.00000
     8  H(1)               0.00000       0.00000       0.00000       0.00000
     9  H(1)               0.00000       0.00000       0.00000       0.00000
    10  H(1)               0.00000       0.00000       0.00000       0.00000
    11  H(1)               0.00000       0.00000       0.00000       0.00000
    12  H(1)               0.00000       0.00000       0.00000       0.00000
    13  H(1)               0.00000       0.00000       0.00000       0.00000
    14  H(1)               0.00000       0.00000       0.00000       0.00000
    15  C(13)              0.00000       0.00000       0.00000       0.00000
    16  C(13)              0.00000       0.00000       0.00000       0.00000
    17  H(1)               0.00000       0.00000       0.00000       0.00000
    18  H(1)               0.00000       0.00000       0.00000       0.00000
    19  C(13)              0.00000       0.00000       0.00000       0.00000
    20  H(1)               0.00000       0.00000       0.00000       0.00000
    21  H(1)               0.00000       0.00000       0.00000       0.00000
    22  C(13)              0.00000       0.00000       0.00000       0.00000
    23  H(1)               0.00000       0.00000       0.00000       0.00000
    24  C(13)              0.00000       0.00000       0.00000       0.00000
    25  H(1)               0.00000       0.00000       0.00000       0.00000
    26  C(13)              0.00000       0.00000       0.00000       0.00000
    27  H(1)               0.00000       0.00000       0.00000       0.00000
    28  H(1)               0.00000       0.00000       0.00000       0.00000
 --------------------------------------------------------
       Center         ----  Spin Dipole Couplings  ----
                      3XX-RR        3YY-RR        3ZZ-RR
 --------------------------------------------------------
     1   Atom        0.000000      0.000000      0.000000
     2   Atom        0.000000      0.000000      0.000000
     3   Atom        0.000000      0.000000      0.000000
     4   Atom        0.000000      0.000000      0.000000
     5   Atom        0.000000      0.000000      0.000000
     6   Atom        0.000000      0.000000      0.000000
     7   Atom        0.000000      0.000000      0.000000
     8   Atom        0.000000      0.000000      0.000000
     9   Atom        0.000000      0.000000      0.000000
    10   Atom        0.000000      0.000000      0.000000
    11   Atom        0.000000      0.000000      0.000000
    12   Atom        0.000000      0.000000      0.000000
    13   Atom        0.000000      0.000000      0.000000
    14   Atom        0.000000      0.000000      0.000000
    15   Atom        0.000000      0.000000      0.000000
    16   Atom        0.000000      0.000000      0.000000
    17   Atom        0.000000      0.000000      0.000000
    18   Atom        0.000000      0.000000      0.000000
    19   Atom        0.000000      0.000000      0.000000
    20   Atom        0.000000      0.000000      0.000000
    21   Atom        0.000000      0.000000      0.000000
    22   Atom        0.000000      0.000000      0.000000
    23   Atom        0.000000      0.000000      0.000000
    24   Atom        0.000000      0.000000      0.000000
    25   Atom        0.000000      0.000000      0.000000
    26   Atom        0.000000      0.000000      0.000000
    27   Atom        0.000000      0.000000      0.000000
    28   Atom        0.000000      0.000000      0.000000
 --------------------------------------------------------
                        XY            XZ            YZ
 --------------------------------------------------------
     1   Atom        0.000000      0.000000      0.000000
     2   Atom        0.000000      0.000000      0.000000
     3   Atom        0.000000      0.000000      0.000000
     4   Atom        0.000000      0.000000      0.000000
     5   Atom        0.000000      0.000000      0.000000
     6   Atom        0.000000      0.000000      0.000000
     7   Atom        0.000000      0.000000      0.000000
     8   Atom        0.000000      0.000000      0.000000
     9   Atom        0.000000      0.000000      0.000000
    10   Atom        0.000000      0.000000      0.000000
    11   Atom        0.000000      0.000000      0.000000
    12   Atom        0.000000      0.000000      0.000000
    13   Atom        0.000000      0.000000      0.000000
    14   Atom        0.000000      0.000000      0.000000
    15   Atom        0.000000      0.000000      0.000000
    16   Atom        0.000000      0.000000      0.000000
    17   Atom        0.000000      0.000000      0.000000
    18   Atom        0.000000      0.000000      0.000000
    19   Atom        0.000000      0.000000      0.000000
    20   Atom        0.000000      0.000000      0.000000
    21   Atom        0.000000      0.000000      0.000000
    22   Atom        0.000000      0.000000      0.000000
    23   Atom        0.000000      0.000000      0.000000
    24   Atom        0.000000      0.000000      0.000000
    25   Atom        0.000000      0.000000      0.000000
    26   Atom        0.000000      0.000000      0.000000
    27   Atom        0.000000      0.000000      0.000000
    28   Atom        0.000000      0.000000      0.000000
 --------------------------------------------------------


 ---------------------------------------------------------------------------------
              Anisotropic Spin Dipole Couplings in Principal Axis System
 ---------------------------------------------------------------------------------

       Atom             a.u.   MegaHertz   Gauss  10(-4) cm-1        Axes

              Baa     0.0000     0.000     0.000     0.000  1.0000  0.0000  0.0000
     1 C(13)  Bbb     0.0000     0.000     0.000     0.000  0.0000  1.0000  0.0000
              Bcc     0.0000     0.000     0.000     0.000  0.0000  0.0000  1.0000
 
              Baa     0.0000     0.000     0.000     0.000  1.0000  0.0000  0.0000
     2 C(13)  Bbb     0.0000     0.000     0.000     0.000  0.0000  1.0000  0.0000
              Bcc     0.0000     0.000     0.000     0.000  0.0000  0.0000  1.0000
 
              Baa     0.0000     0.000     0.000     0.000  1.0000  0.0000  0.0000
     3 C(13)  Bbb     0.0000     0.000     0.000     0.000  0.0000  1.0000  0.0000
              Bcc     0.0000     0.000     0.000     0.000  0.0000  0.0000  1.0000
 
              Baa     0.0000     0.000     0.000     0.000  1.0000  0.0000  0.0000
     4 C(13)  Bbb     0.0000     0.000     0.000     0.000  0.0000  1.0000  0.0000
              Bcc     0.0000     0.000     0.000     0.000  0.0000  0.0000  1.0000
 
              Baa     0.0000     0.000     0.000     0.000  1.0000  0.0000  0.0000
     5 C(13)  Bbb     0.0000     0.000     0.000     0.000  0.0000  1.0000  0.0000
              Bcc     0.0000     0.000     0.000     0.000  0.0000  0.0000  1.0000
 
              Baa     0.0000     0.000     0.000     0.000  1.0000  0.0000  0.0000
     6 C(13)  Bbb     0.0000     0.000     0.000     0.000  0.0000  1.0000  0.0000
              Bcc     0.0000     0.000     0.000     0.000  0.0000  0.0000  1.0000
 
              Baa     0.0000     0.000     0.000     0.000  1.0000  0.0000  0.0000
     7 H(1)   Bbb     0.0000     0.000     0.000     0.000  0.0000  1.0000  0.0000
              Bcc     0.0000     0.000     0.000     0.000  0.0000  0.0000  1.0000
 
              Baa     0.0000     0.000     0.000     0.000  1.0000  0.0000  0.0000
     8 H(1)   Bbb     0.0000     0.000     0.000     0.000  0.0000  1.0000  0.0000
              Bcc     0.0000     0.000     0.000     0.000  0.0000  0.0000  1.0000
 
              Baa     0.0000     0.000     0.000     0.000  1.0000  0.0000  0.0000
     9 H(1)   Bbb     0.0000     0.000     0.000     0.000  0.0000  1.0000  0.0000
              Bcc     0.0000     0.000     0.000     0.000  0.0000  0.0000  1.0000
 
              Baa     0.0000     0.000     0.000     0.000  1.0000  0.0000  0.0000
    10 H(1)   Bbb     0.0000     0.000     0.000     0.000  0.0000  1.0000  0.0000
              Bcc     0.0000     0.000     0.000     0.000  0.0000  0.0000  1.0000
 
              Baa     0.0000     0.000     0.000     0.000  1.0000  0.0000  0.0000
    11 H(1)   Bbb     0.0000     0.000     0.000     0.000  0.0000  1.0000  0.0000
              Bcc     0.0000     0.000     0.000     0.000  0.0000  0.0000  1.0000
 
              Baa     0.0000     0.000     0.000     0.000  1.0000  0.0000  0.0000
    12 H(1)   Bbb     0.0000     0.000     0.000     0.000  0.0000  1.0000  0.0000
              Bcc     0.0000     0.000     0.000     0.000  0.0000  0.0000  1.0000
 
              Baa     0.0000     0.000     0.000     0.000  1.0000  0.0000  0.0000
    13 H(1)   Bbb     0.0000     0.000     0.000     0.000  0.0000  1.0000  0.0000
              Bcc     0.0000     0.000     0.000     0.000  0.0000  0.0000  1.0000
 
              Baa     0.0000     0.000     0.000     0.000  1.0000  0.0000  0.0000
    14 H(1)   Bbb     0.0000     0.000     0.000     0.000  0.0000  1.0000  0.0000
              Bcc     0.0000     0.000     0.000     0.000  0.0000  0.0000  1.0000
 
              Baa     0.0000     0.000     0.000     0.000  1.0000  0.0000  0.0000
    15 C(13)  Bbb     0.0000     0.000     0.000     0.000  0.0000  1.0000  0.0000
              Bcc     0.0000     0.000     0.000     0.000  0.0000  0.0000  1.0000
 
              Baa     0.0000     0.000     0.000     0.000  1.0000  0.0000  0.0000
    16 C(13)  Bbb     0.0000     0.000     0.000     0.000  0.0000  1.0000  0.0000
              Bcc     0.0000     0.000     0.000     0.000  0.0000  0.0000  1.0000
 
              Baa     0.0000     0.000     0.000     0.000  1.0000  0.0000  0.0000
    17 H(1)   Bbb     0.0000     0.000     0.000     0.000  0.0000  1.0000  0.0000
              Bcc     0.0000     0.000     0.000     0.000  0.0000  0.0000  1.0000
 
              Baa     0.0000     0.000     0.000     0.000  1.0000  0.0000  0.0000
    18 H(1)   Bbb     0.0000     0.000     0.000     0.000  0.0000  1.0000  0.0000
              Bcc     0.0000     0.000     0.000     0.000  0.0000  0.0000  1.0000
 
              Baa     0.0000     0.000     0.000     0.000  1.0000  0.0000  0.0000
    19 C(13)  Bbb     0.0000     0.000     0.000     0.000  0.0000  1.0000  0.0000
              Bcc     0.0000     0.000     0.000     0.000  0.0000  0.0000  1.0000
 
              Baa     0.0000     0.000     0.000     0.000  1.0000  0.0000  0.0000
    20 H(1)   Bbb     0.0000     0.000     0.000     0.000  0.0000  1.0000  0.0000
              Bcc     0.0000     0.000     0.000     0.000  0.0000  0.0000  1.0000
 
              Baa     0.0000     0.000     0.000     0.000  1.0000  0.0000  0.0000
    21 H(1)   Bbb     0.0000     0.000     0.000     0.000  0.0000  1.0000  0.0000
              Bcc     0.0000     0.000     0.000     0.000  0.0000  0.0000  1.0000
 
              Baa     0.0000     0.000     0.000     0.000  1.0000  0.0000  0.0000
    22 C(13)  Bbb     0.0000     0.000     0.000     0.000  0.0000  1.0000  0.0000
              Bcc     0.0000     0.000     0.000     0.000  0.0000  0.0000  1.0000
 
              Baa     0.0000     0.000     0.000     0.000  1.0000  0.0000  0.0000
    23 H(1)   Bbb     0.0000     0.000     0.000     0.000  0.0000  1.0000  0.0000
              Bcc     0.0000     0.000     0.000     0.000  0.0000  0.0000  1.0000
 
              Baa     0.0000     0.000     0.000     0.000  1.0000  0.0000  0.0000
    24 C(13)  Bbb     0.0000     0.000     0.000     0.000  0.0000  1.0000  0.0000
              Bcc     0.0000     0.000     0.000     0.000  0.0000  0.0000  1.0000
 
              Baa     0.0000     0.000     0.000     0.000  1.0000  0.0000  0.0000
    25 H(1)   Bbb     0.0000     0.000     0.000     0.000  0.0000  1.0000  0.0000
              Bcc     0.0000     0.000     0.000     0.000  0.0000  0.0000  1.0000
 
              Baa     0.0000     0.000     0.000     0.000  1.0000  0.0000  0.0000
    26 C(13)  Bbb     0.0000     0.000     0.000     0.000  0.0000  1.0000  0.0000
              Bcc     0.0000     0.000     0.000     0.000  0.0000  0.0000  1.0000
 
              Baa     0.0000     0.000     0.000     0.000  1.0000  0.0000  0.0000
    27 H(1)   Bbb     0.0000     0.000     0.000     0.000  0.0000  1.0000  0.0000
              Bcc     0.0000     0.000     0.000     0.000  0.0000  0.0000  1.0000
 
              Baa     0.0000     0.000     0.000     0.000  1.0000  0.0000  0.0000
    28 H(1)   Bbb     0.0000     0.000     0.000     0.000  0.0000  1.0000  0.0000
              Bcc     0.0000     0.000     0.000     0.000  0.0000  0.0000  1.0000
 

 ---------------------------------------------------------------------------------

 No NMR shielding tensors so no spin-rotation constants.
 Leave Link  601 at Thu Jun  4 12:04:08 2020, MaxMem=   104857600 cpu:               0.3 elap:               0.1
 (Enter /home/roberto/software/g16A03/g16/l9999.exe)
 1\1\GINC-ROBERTO-XPS-15-9570\SP\UB3LYP\6-31G(d)\C12H16\ROBERTO\04-Jun-
 2020\0\\#p ub3lyp/6-31g(d) # scrf=(iefpcm,solvent=Cyclohexane,read) no
 sym\\endo-2TS xp-pcm for eta=3\\0,1\C,0,2.468892,0.284095,-0.708957\C,
 0,1.667254,1.330389,0.031252\C,0,1.087601,1.075991,1.256922\C,0,0.6892
 5,-0.234741,1.575517\C,0,0.886557,-1.22938,0.609039\C,0,2.185072,-1.14
 8363,-0.185946\H,0,0.75487,1.903944,1.878564\H,0,1.804474,2.361213,-0.
 290944\H,0,2.289282,0.358101,-1.789365\H,0,3.538694,0.506111,-0.581025
 \H,0,0.057564,-0.414132,2.4412\H,0,0.559304,-2.241378,0.84559\H,0,2.99
 5597,-1.451049,0.490252\H,0,2.187529,-1.871427,-1.009641\C,0,-0.429793
 ,0.553269,-1.228382\C,0,-0.468367,-0.818307,-0.924402\H,0,0.178899,0.9
 20914,-2.045953\H,0,0.039438,-1.478372,-1.626777\C,0,-1.793403,-1.3814
 77,-0.412965\H,0,-2.433705,-1.525729,-1.296815\H,0,-1.657728,-2.376149
 ,0.027843\C,0,-1.419929,1.435138,-0.644601\H,0,-1.363311,2.495516,-0.8
 84397\C,0,-2.359563,1.000047,0.221263\H,0,-3.040678,1.712474,0.683525\
 C,0,-2.532766,-0.458144,0.574312\H,0,-3.601447,-0.715834,0.575953\H,0,
 -2.193607,-0.635306,1.603677\\Version=ES64L-G16RevA.03\HF=-466.75141\S
 2=0.\S2-1=0.\S2A=0.\RMSD=9.761e-09\Dipole=0.0993001,-0.2116065,-0.1467
 024\Quadrupole=-0.5509028,1.597748,-1.0468453,0.4119445,-3.0412636,-0.
 0656248\PG=C01 [X(C12H16)]\\@


 A FOOL CAN ASK MORE QUESTIONS THAN
 A WISE MAN CAN ANSWER.
 Job cpu time:       0 days  0 hours 11 minutes  7.8 seconds.
 Elapsed time:       0 days  0 hours  1 minutes 58.6 seconds.
 File lengths (MBytes):  RWF=    386 Int=      0 D2E=      0 Chk=      8 Scr=      1
 Normal termination of Gaussian 16 at Thu Jun  4 12:04:08 2020.
