 Entering Gaussian System, Link 0=g16
 Input=endo-2_xp-Ger.com
 Output=endo-2_xp-Ger.log
 Initial command:
 /home/roberto/software/g16A03/g16/l1.exe "/home/roberto/scr/Gau-22082.inp" -scrdir="/home/roberto/scr/"
 Entering Link 1 = /home/roberto/software/g16A03/g16/l1.exe PID=     22084.
  
 Copyright (c) 1988,1990,1992,1993,1995,1998,2003,2009,2016,
            Gaussian, Inc.  All Rights Reserved.
  
 This is part of the Gaussian(R) 16 program.  It is based on
 the Gaussian(R) 09 system (copyright 2009, Gaussian, Inc.),
 the Gaussian(R) 03 system (copyright 2003, Gaussian, Inc.),
 the Gaussian(R) 98 system (copyright 1998, Gaussian, Inc.),
 the Gaussian(R) 94 system (copyright 1995, Gaussian, Inc.),
 the Gaussian 92(TM) system (copyright 1992, Gaussian, Inc.),
 the Gaussian 90(TM) system (copyright 1990, Gaussian, Inc.),
 the Gaussian 88(TM) system (copyright 1988, Gaussian, Inc.),
 the Gaussian 86(TM) system (copyright 1986, Carnegie Mellon
 University), and the Gaussian 82(TM) system (copyright 1983,
 Carnegie Mellon University). Gaussian is a federally registered
 trademark of Gaussian, Inc.
  
 This software contains proprietary and confidential information,
 including trade secrets, belonging to Gaussian, Inc.
  
 This software is provided under written license and may be
 used, copied, transmitted, or stored only in accord with that
 written license.
  
 The following legend is applicable only to US Government
 contracts under FAR:
  
                    RESTRICTED RIGHTS LEGEND
  
 Use, reproduction and disclosure by the US Government is
 subject to restrictions as set forth in subparagraphs (a)
 and (c) of the Commercial Computer Software - Restricted
 Rights clause in FAR 52.227-19.
  
 Gaussian, Inc.
 340 Quinnipiac St., Bldg. 40, Wallingford CT 06492
  
  
 ---------------------------------------------------------------
 Warning -- This program may not be used in any manner that
 competes with the business of Gaussian, Inc. or will provide
 assistance to any competitor of Gaussian, Inc.  The licensee
 of this program is prohibited from giving any competitor of
 Gaussian, Inc. access to this program.  By using this program,
 the user acknowledges that Gaussian, Inc. is engaged in the
 business of creating and licensing software in the field of
 computational chemistry and represents and warrants to the
 licensee that it is not a competitor of Gaussian, Inc. and that
 it will not use this program in any manner prohibited above.
 ---------------------------------------------------------------
  

 Cite this work as:
 Gaussian 16, Revision A.03,
 M. J. Frisch, G. W. Trucks, H. B. Schlegel, G. E. Scuseria, 
 M. A. Robb, J. R. Cheeseman, G. Scalmani, V. Barone, 
 G. A. Petersson, H. Nakatsuji, X. Li, M. Caricato, A. V. Marenich, 
 J. Bloino, B. G. Janesko, R. Gomperts, B. Mennucci, H. P. Hratchian, 
 J. V. Ortiz, A. F. Izmaylov, J. L. Sonnenberg, D. Williams-Young, 
 F. Ding, F. Lipparini, F. Egidi, J. Goings, B. Peng, A. Petrone, 
 T. Henderson, D. Ranasinghe, V. G. Zakrzewski, J. Gao, N. Rega, 
 G. Zheng, W. Liang, M. Hada, M. Ehara, K. Toyota, R. Fukuda, 
 J. Hasegawa, M. Ishida, T. Nakajima, Y. Honda, O. Kitao, H. Nakai, 
 T. Vreven, K. Throssell, J. A. Montgomery, Jr., J. E. Peralta, 
 F. Ogliaro, M. J. Bearpark, J. J. Heyd, E. N. Brothers, K. N. Kudin, 
 V. N. Staroverov, T. A. Keith, R. Kobayashi, J. Normand, 
 K. Raghavachari, A. P. Rendell, J. C. Burant, S. S. Iyengar, 
 J. Tomasi, M. Cossi, J. M. Millam, M. Klene, C. Adamo, R. Cammi, 
 J. W. Ochterski, R. L. Martin, K. Morokuma, O. Farkas, 
 J. B. Foresman, and D. J. Fox, Gaussian, Inc., Wallingford CT, 2016.
 
 ******************************************
 Gaussian 16:  ES64L-G16RevA.03 25-Dec-2016
                 4-Jun-2020 
 ******************************************
 %chk=endo-2_xp-12.chk
 %nproc=6
 Will use up to    6 processors via shared memory.
 ----------------------------------------------------------------
 #p b3lyp/6-31g(d) # scrf=(iefpcm,solvent=Cyclohexane,read) nosym
 ----------------------------------------------------------------
 1/38=1,40=2,172=1/1;
 2/12=2,15=1,17=6,18=5,40=1/2;
 3/5=1,6=6,7=1,11=2,25=1,30=1,70=2203,72=17,74=-5/1,2,3;
 4//1;
 5/5=2,38=5,53=17/2;
 6/7=2,8=2,9=2,10=2,28=1/1;
 99/5=1,9=1/99;
 Leave Link    1 at Thu Jun  4 12:04:08 2020, MaxMem=           0 cpu:               0.0 elap:               0.0
 (Enter /home/roberto/software/g16A03/g16/l101.exe)
 -----------------------
 endo-2 xp-pcm for eta=3
 -----------------------
 Symbolic Z-matrix:
 Charge =  0 Multiplicity = 1
 C                    -2.45453  -0.62092   0.45008 
 C                    -2.42912   0.86019   0.1779 
 C                    -1.41169   1.4535   -0.45201 
 C                    -0.14415   0.76155  -0.89234 
 C                    -0.18563  -0.80161  -0.78974 
 C                    -1.60418  -1.37095  -0.58512 
 H                    -1.44621   2.52885  -0.63209 
 H                    -3.28202   1.45434   0.50376 
 H                    -2.09265  -0.82207   1.46908 
 H                    -3.48692  -0.9942    0.41876 
 H                     0.05753   1.04783  -1.93573 
 H                     0.16923  -1.20768  -1.74683 
 H                    -2.1324   -1.31836  -1.54632 
 H                    -1.53453  -2.43626  -0.32713 
 C                     0.71664  -0.47071   1.55197 
 C                     0.8629   -1.26498   0.27443 
 H                     0.54992  -0.9551    2.51117 
 H                     0.76631  -2.34332   0.4439 
 C                     2.26764  -0.93522  -0.30752 
 H                     3.03946  -1.25934   0.39855 
 H                     2.42424  -1.49829  -1.23615 
 C                     0.84359   0.852     1.39279 
 H                     0.78015   1.57224   2.20412 
 C                     1.06814   1.28106  -0.03906 
 H                     1.14698   2.36935  -0.13676 
 C                     2.35954   0.59461  -0.56352 
 H                     3.23326   1.02347  -0.06134 
 H                     2.47277   0.80746  -1.63414 
 
 ITRead=  0  0  0  0  0  0  0  0  0  0  0  0  0  0  0  0  0  0  0  0
 ITRead=  0  0  0  0  0  0  0  0
 MicOpt= -1 -1 -1 -1 -1 -1 -1 -1 -1 -1 -1 -1 -1 -1 -1 -1 -1 -1 -1 -1
 MicOpt= -1 -1 -1 -1 -1 -1 -1 -1
 NAtoms=     28 NQM=       28 NQMF=       0 NMMI=      0 NMMIF=      0
                NMic=       0 NMicF=      0.
                    Isotopes and Nuclear Properties:
 (Nuclear quadrupole moments (NQMom) in fm**2, nuclear magnetic moments (NMagM)
  in nuclear magnetons)

  Atom         1           2           3           4           5           6           7           8           9          10
 IAtWgt=          12          12          12          12          12          12           1           1           1           1
 AtmWgt=  12.0000000  12.0000000  12.0000000  12.0000000  12.0000000  12.0000000   1.0078250   1.0078250   1.0078250   1.0078250
 NucSpn=           0           0           0           0           0           0           1           1           1           1
 AtZEff=   0.0000000   0.0000000   0.0000000   0.0000000   0.0000000   0.0000000   0.0000000   0.0000000   0.0000000   0.0000000
 NQMom=    0.0000000   0.0000000   0.0000000   0.0000000   0.0000000   0.0000000   0.0000000   0.0000000   0.0000000   0.0000000
 NMagM=    0.0000000   0.0000000   0.0000000   0.0000000   0.0000000   0.0000000   2.7928460   2.7928460   2.7928460   2.7928460
 AtZNuc=   6.0000000   6.0000000   6.0000000   6.0000000   6.0000000   6.0000000   1.0000000   1.0000000   1.0000000   1.0000000

  Atom        11          12          13          14          15          16          17          18          19          20
 IAtWgt=           1           1           1           1          12          12           1           1          12           1
 AtmWgt=   1.0078250   1.0078250   1.0078250   1.0078250  12.0000000  12.0000000   1.0078250   1.0078250  12.0000000   1.0078250
 NucSpn=           1           1           1           1           0           0           1           1           0           1
 AtZEff=   0.0000000   0.0000000   0.0000000   0.0000000   0.0000000   0.0000000   0.0000000   0.0000000   0.0000000   0.0000000
 NQMom=    0.0000000   0.0000000   0.0000000   0.0000000   0.0000000   0.0000000   0.0000000   0.0000000   0.0000000   0.0000000
 NMagM=    2.7928460   2.7928460   2.7928460   2.7928460   0.0000000   0.0000000   2.7928460   2.7928460   0.0000000   2.7928460
 AtZNuc=   1.0000000   1.0000000   1.0000000   1.0000000   6.0000000   6.0000000   1.0000000   1.0000000   6.0000000   1.0000000

  Atom        21          22          23          24          25          26          27          28
 IAtWgt=           1          12           1          12           1          12           1           1
 AtmWgt=   1.0078250  12.0000000   1.0078250  12.0000000   1.0078250  12.0000000   1.0078250   1.0078250
 NucSpn=           1           0           1           0           1           0           1           1
 AtZEff=   0.0000000   0.0000000   0.0000000   0.0000000   0.0000000   0.0000000   0.0000000   0.0000000
 NQMom=    0.0000000   0.0000000   0.0000000   0.0000000   0.0000000   0.0000000   0.0000000   0.0000000
 NMagM=    2.7928460   0.0000000   2.7928460   0.0000000   2.7928460   0.0000000   2.7928460   2.7928460
 AtZNuc=   1.0000000   6.0000000   1.0000000   6.0000000   1.0000000   6.0000000   1.0000000   1.0000000
 Leave Link  101 at Thu Jun  4 12:04:08 2020, MaxMem=   104857600 cpu:               0.1 elap:               0.1
 (Enter /home/roberto/software/g16A03/g16/l202.exe)
                          Input orientation:                          
 ---------------------------------------------------------------------
 Center     Atomic      Atomic             Coordinates (Angstroms)
 Number     Number       Type             X           Y           Z
 ---------------------------------------------------------------------
      1          6           0       -2.454531   -0.620920    0.450078
      2          6           0       -2.429115    0.860192    0.177901
      3          6           0       -1.411688    1.453495   -0.452012
      4          6           0       -0.144149    0.761548   -0.892337
      5          6           0       -0.185628   -0.801613   -0.789740
      6          6           0       -1.604183   -1.370946   -0.585116
      7          1           0       -1.446210    2.528854   -0.632087
      8          1           0       -3.282020    1.454343    0.503764
      9          1           0       -2.092649   -0.822074    1.469083
     10          1           0       -3.486923   -0.994204    0.418758
     11          1           0        0.057528    1.047828   -1.935726
     12          1           0        0.169231   -1.207683   -1.746829
     13          1           0       -2.132404   -1.318363   -1.546324
     14          1           0       -1.534534   -2.436262   -0.327132
     15          6           0        0.716641   -0.470708    1.551966
     16          6           0        0.862900   -1.264979    0.274427
     17          1           0        0.549920   -0.955102    2.511169
     18          1           0        0.766306   -2.343321    0.443899
     19          6           0        2.267636   -0.935217   -0.307517
     20          1           0        3.039458   -1.259338    0.398554
     21          1           0        2.424242   -1.498287   -1.236154
     22          6           0        0.843594    0.852001    1.392785
     23          1           0        0.780145    1.572240    2.204115
     24          6           0        1.068138    1.281056   -0.039061
     25          1           0        1.146978    2.369349   -0.136763
     26          6           0        2.359537    0.594607   -0.563515
     27          1           0        3.233257    1.023470   -0.061341
     28          1           0        2.472773    0.807458   -1.634143
 ---------------------------------------------------------------------
                    Distance matrix (angstroms):
                    1          2          3          4          5
     1  C    0.000000
     2  C    1.506127   0.000000
     3  C    2.490880   1.335648   0.000000
     4  C    3.008515   2.525116   1.509746   0.000000
     5  C    2.591856   2.954853   2.588976   1.567073   0.000000
     6  C    1.535336   2.498136   2.834120   2.602617   1.542177
     7  H    3.479780   2.099194   1.090878   2.210535   3.564538
     8  H    2.234801   1.089334   2.100393   3.503612   4.043530
     9  H    1.099906   2.147179   3.054919   3.446856   2.956253
    10  H    1.098251   2.148431   3.325067   3.996971   3.520811
    11  H    3.845416   3.268948   2.127103   1.100586   2.189256
    12  H    3.472005   3.838241   3.355253   2.169386   1.098561
    13  H    2.139115   2.794117   3.065966   2.950743   2.151601
    14  H    2.178512   3.452817   3.893699   3.532508   2.169247
    15  C    3.360514   3.681729   3.499753   2.869500   2.531240
    16  C    3.383935   3.919570   3.618227   2.546036   1.564152
    17  H    3.658757   4.196913   4.292981   3.874593   3.385349
    18  H    3.652464   4.532545   4.467900   3.500667   2.192010
    19  C    4.792869   5.051593   4.389106   3.006282   2.503776
    20  H    5.531198   5.869104   5.281631   3.985691   3.467382
    21  H    5.235989   5.578266   4.903290   3.438269   2.737894
    22  C    3.733071   3.490936   2.975125   2.491104   2.925261
    23  H    4.283658   3.861594   3.445757   3.331600   3.940947
    24  C    4.033109   3.529161   2.519881   1.570862   2.544201
    25  H    4.717728   3.894228   2.735862   2.196116   3.501031
    26  C    5.067556   4.852981   3.869400   2.530699   2.911782
    27  H    5.942769   5.669775   4.681139   3.487983   3.943383
    28  H    5.537379   5.226355   4.111427   2.720416   3.220128
                    6          7          8          9         10
     6  C    0.000000
     7  H    3.903281   0.000000
     8  H    3.461655   2.411417   0.000000
     9  H    2.181649   4.007682   2.743815   0.000000
    10  H    2.166658   4.204845   2.458576   1.754084   0.000000
    11  H    3.230464   2.480754   4.155592   4.439878   4.719812
    12  H    2.126318   4.220664   4.905373   3.950555   4.254739
    13  H    1.098045   4.013449   3.634883   3.056233   2.408599
    14  H    1.098319   4.975256   4.345216   2.478605   2.539233
    15  C    3.280819   4.294809   4.560026   2.832391   4.384992
    16  C    2.614678   4.532872   4.962627   3.218484   4.360632
    17  H    3.794742   5.099269   4.951653   2.843732   4.547067
    18  H    2.761087   5.458119   5.551106   3.396884   4.462141
    19  C    3.906137   5.088987   6.096463   4.709692   5.800509
    20  H    4.747996   5.961026   6.880132   5.260775   6.531796
    21  H    4.082680   5.618110   6.656333   5.308284   6.159116
    22  C    3.852947   3.486423   4.263082   3.380809   4.807346
    23  H    4.703953   3.730390   4.405256   3.811293   5.289802
    24  C    3.804286   2.868907   4.387318   4.085123   5.112239
    25  H    4.664731   2.644884   4.567662   4.822769   5.752837
    26  C    4.424358   4.269628   5.805635   5.095135   6.137612
    27  H    5.422951   4.948671   6.553917   5.840677   7.032946
    28  H    4.739986   4.396106   6.173066   5.755733   6.555789
                   11         12         13         14         15
    11  H    0.000000
    12  H    2.266162   0.000000
    13  H    3.247506   2.313002   0.000000
    14  H    4.154650   2.535303   1.758856   0.000000
    15  C    3.860619   3.424155   4.293597   3.530184   0.000000
    16  C    3.298860   2.137741   3.505685   2.735227   1.511411
    17  H    4.901944   4.282437   4.877507   3.820306   1.087430
    18  H    4.202960   2.538791   3.662519   2.428372   2.176455
    19  C    3.386460   2.559133   4.587134   4.087789   2.465569
    20  H    4.434387   3.583788   5.525775   4.778407   2.710678
    21  H    3.545904   2.330303   4.570733   4.168696   3.427161
    22  C    3.425673   3.815002   4.712261   4.407525   1.338288
    23  H    4.235029   4.869409   5.559165   5.275703   2.145453
    24  C    2.161728   3.149338   4.390022   4.547014   2.392403
    25  H    2.483865   4.042704   5.132293   5.506418   3.332104
    26  C    2.718017   3.073422   4.980251   4.940226   2.882579
    27  H    3.687705   4.148152   6.039841   5.896798   3.341958
    28  H    2.445841   3.062645   5.072917   5.318694   3.856034
                   16         17         18         19         20
    16  C    0.000000
    17  H    2.279692   0.000000
    18  H    1.095843   2.499516   0.000000
    19  C    1.555855   3.300899   2.191204   0.000000
    20  H    2.180102   3.279253   2.518788   1.095126   0.000000
    21  H    2.184966   4.224993   2.507072   1.097242   1.762912
    22  C    2.394306   2.145378   3.334133   2.848345   3.204382
    23  H    3.432252   2.556314   4.293037   3.848151   4.047515
    24  C    2.573459   3.431126   3.668850   2.534311   3.245183
    25  H    3.668531   4.291852   4.763543   3.493592   4.127398
    26  C    2.529848   3.889729   3.490657   1.553815   2.196584
    27  H    3.311847   4.211039   4.204331   2.197608   2.336723
    28  H    3.244892   4.897713   4.142185   2.199758   2.953749
                   21         22         23         24         25
    21  H    0.000000
    22  C    3.864404   0.000000
    23  H    4.895574   1.086750   0.000000
    24  C    3.316142   1.511519   2.280256   0.000000
    25  H    4.218847   2.175754   2.499932   1.095510   0.000000
    26  C    2.199281   2.488261   3.333170   1.553697   2.191375
    27  H    2.897231   2.802565   3.383962   2.180502   2.483876
    28  H    2.340344   3.437805   4.264048   2.177517   2.537594
                   26         27         28
    26  C    0.000000
    27  H    1.095212   0.000000
    28  H    1.097439   1.760313   0.000000
 Symmetry turned off by external request.
 Stoichiometry    C12H16
 Framework group  C1[X(C12H16)]
 Deg. of freedom    78
 Full point group                 C1      NOp   1
 Rotational constants (GHZ):           1.7166404           0.9213692           0.8182222
 Leave Link  202 at Thu Jun  4 12:04:08 2020, MaxMem=   104857600 cpu:               0.0 elap:               0.0
 (Enter /home/roberto/software/g16A03/g16/l301.exe)
 Standard basis: 6-31G(d) (6D, 7F)
 Ernie: Thresh=  0.10000D-02 Tol=  0.10000D-05 Strict=F.
   212 basis functions,   400 primitive gaussians,   212 cartesian basis functions
    44 alpha electrons       44 beta electrons
       nuclear repulsion energy       737.1159722346 Hartrees.
 IExCor=  402 DFT=T Ex+Corr=B3LYP ExCW=0 ScaHFX=  0.200000
 ScaDFX=  0.800000  0.720000  1.000000  0.810000 ScalE2=  1.000000  1.000000
 IRadAn=      5 IRanWt=     -1 IRanGd=            0 ICorTp=0 IEmpDi=  4
 NAtoms=   28 NActive=   28 NUniq=   28 SFac= 1.00D+00 NAtFMM=   60 NAOKFM=F Big=F
 Integral buffers will be    131072 words long.
 Raffenetti 2 integral format.
 Two-electron integral symmetry is turned off.
 Using the following non-standard input for PCM:
 qrep pcmdoc geomview  nodis nocav g03defaults tsare=0.075
 Warning! Using old PCM defaults because the g03defaults keyword was found.
 These settings can be overridden by following keywords.
 nsfe=28
 NVESolv=36  SolvMW=84.1595   Rsolv=2.815
 eps=2.0165 RhoS=0.7781
 --- end of non-standard input.
 Reading user-defined spheres from input:
 ISph  on   Nord    Re0     Alpha      Xe            Ye            Ze
 --- end of user-defined spheres data.
 ------------------------------------------------------------------------------
 Polarizable Continuum Model (PCM)
 =================================
 Model                : PCM.
 Atomic radii         : UA0 (Simple United Atom Topological Model).
 Polarization charges : Total charges.
 Charge compensation  : None.
 Solution method      : On-the-fly selection.
 Cavity type          : SES (Solvent Excluding Surface) (Alpha=1.000).
 Cavity algorithm     : GePol (RMin=0.200 OFac=0.890).
                        User-defined sphere list used, NSphG=   28.
                        Tesserae with average area of 0.075 Ang**2.
                        Smoothing algorithm: None.
                        Polarization charges: point-like.
                        Self-potential: constant (ISelfS= 1).
                        Self-field    : global E.n sum rule (ISelfD= 3).
 Solvent              : CycloHexane, Eps=   2.016500 Eps(inf)=   2.035188
                        RSolv=   2.815000 Ang.
 ------------------------------------------------------------------------------
 GePol: Number of generator spheres                  =      28
 GePol: Total number of spheres                      =     197
 GePol: Number of exposed spheres                    =     138 ( 70.05%)
 GePol: Number of tesserae                           =    4353
 GePol: Average area of tesserae                     =       0.05 Ang**2
 GePol: Minimum area of tessera                      =   0.10D-02 Ang**2
 GePol: Maximum area of tessera                      =    0.12395 Ang**2
 GePol: Number of small tesserae                     =       0
 GePol: Fraction of small tesserae (<1% of avg)      =       0.00%
 GePol: Total count of vertices                      =   15509
 GePol: Maximum number of vertices in a tessera      =       8
 GePol: Cavity surface area                          =    208.083 Ang**2
 GePol: Cavity volume                                =    236.371 Ang**3
 Leave Link  301 at Thu Jun  4 12:04:08 2020, MaxMem=   104857600 cpu:               0.3 elap:               0.3
 (Enter /home/roberto/software/g16A03/g16/l302.exe)
 NPDir=0 NMtPBC=     1 NCelOv=     1 NCel=       1 NClECP=     1 NCelD=      1
         NCelK=      1 NCelE2=     1 NClLst=     1 CellRange=     0.0.
 One-electron integrals computed using PRISM.
 NBasis=   212 RedAO= T EigKep=  9.65D-04  NBF=   212
 NBsUse=   212 1.00D-06 EigRej= -1.00D+00 NBFU=   212
 Precomputing XC quadrature grid using
 IXCGrd= 4 IRadAn=           5 IRanWt=          -1 IRanGd=           0 AccXCQ= 0.00D+00.
 Generated NRdTot=       0 NPtTot=           0 NUsed=           0 NTot=          32
 NSgBfM=   212   212   212   212   212 MxSgAt=    28 MxSgA2=    28.
 Leave Link  302 at Thu Jun  4 12:04:09 2020, MaxMem=   104857600 cpu:               1.2 elap:               0.3
 (Enter /home/roberto/software/g16A03/g16/l303.exe)
 DipDrv:  MaxL=1.
 Leave Link  303 at Thu Jun  4 12:04:09 2020, MaxMem=   104857600 cpu:               0.0 elap:               0.0
 (Enter /home/roberto/software/g16A03/g16/l401.exe)
 ExpMin= 1.61D-01 ExpMax= 3.05D+03 ExpMxC= 4.57D+02 IAcc=3 IRadAn=         5 AccDes= 0.00D+00
 Harris functional with IExCor=  402 and IRadAn=       5 diagonalized for initial guess.
 HarFok:  IExCor=  402 AccDes= 0.00D+00 IRadAn=         5 IDoV= 1 UseB2=F ITyADJ=14
 ICtDFT=  3500011 ScaDFX=  1.000000  1.000000  1.000000  1.000000
 FoFCou: FMM=F IPFlag=           0 FMFlag=      100000 FMFlg1=           0
         NFxFlg=           0 DoJE=T BraDBF=F KetDBF=T FulRan=T
         wScrn=  0.000000 ICntrl=       500 IOpCl=  0 I1Cent=   200000004 NGrid=           0
         NMat0=    1 NMatS0=      1 NMatT0=    0 NMatD0=    1 NMtDS0=    0 NMtDT0=    0
 Symmetry not used in FoFCou.
 Harris En= -466.914939552472    
 JPrj=0 DoOrth=F DoCkMO=F.
 Leave Link  401 at Thu Jun  4 12:04:11 2020, MaxMem=   104857600 cpu:              12.5 elap:               2.1
 (Enter /home/roberto/software/g16A03/g16/l502.exe)
 Two-electron integral symmetry not used.
 Closed shell SCF:
 Using DIIS extrapolation, IDIIS=  1040.
 NGot=   104857600 LenX=   104764340 LenY=   104718955
 Requested convergence on RMS density matrix=1.00D-08 within 128 cycles.
 Requested convergence on MAX density matrix=1.00D-06.
 Requested convergence on             energy=1.00D-06.
 No special actions if energy rises.
 Fock matrices will be formed incrementally for  20 cycles.

 Cycle   1  Pass 1  IDiag  1:
 FoFJK:  IHMeth= 1 ICntrl=       0 DoSepK=F KAlg= 0 I1Cent=           0 FoldK=F
 IRaf= 960000000 NMat=       1 IRICut=       1 DoRegI=T DoRafI=F ISym2E= 0 IDoP0=0 IntGTp=1.
 FoFCou: FMM=F IPFlag=           0 FMFlag=      100000 FMFlg1=           0
         NFxFlg=           0 DoJE=F BraDBF=F KetDBF=F FulRan=T
         wScrn=  0.000000 ICntrl=         0 IOpCl=  0 I1Cent=           0 NGrid=           0
         NMat0=    1 NMatS0=      1 NMatT0=    0 NMatD0=    1 NMtDS0=    0 NMtDT0=    0
 Symmetry not used in FoFCou.
 Inv3:  Mode=1 IEnd=    56845827.
 Iteration    1 A*A^-1 deviation from unit magnitude is 1.21D-14 for   4349.
 Iteration    1 A*A^-1 deviation from orthogonality  is 4.46D-15 for   4343   4339.
 Iteration    1 A^-1*A deviation from unit magnitude is 1.21D-14 for   4349.
 Iteration    1 A^-1*A deviation from orthogonality  is 3.94D-15 for   4335   4308.
 E= -466.527648201751    
 DIIS: error= 2.19D-02 at cycle   1 NSaved=   1.
 NSaved= 1 IEnMin= 1 EnMin= -466.527648201751     IErMin= 1 ErrMin= 2.19D-02
 ErrMax= 2.19D-02  0.00D+00 EMaxC= 1.00D-01 BMatC= 3.02D-01 BMatP= 3.02D-01
 IDIUse=3 WtCom= 7.81D-01 WtEn= 2.19D-01
 Coeff-Com:  0.100D+01
 Coeff-En:   0.100D+01
 Coeff:      0.100D+01
 Gap=     0.262 Goal=   None    Shift=    0.000
 GapD=    0.262 DampG=1.000 DampE=0.500 DampFc=0.5000 IDamp=-1.
 Damping current iteration by 5.00D-01
 RMSDP=6.97D-03 MaxDP=1.55D-01              OVMax= 1.61D-01

 Cycle   2  Pass 1  IDiag  1:
 RMSU=  3.44D-03    CP:  9.74D-01
 E= -466.667782619069     Delta-E=       -0.140134417317 Rises=F Damp=T
 DIIS: error= 7.80D-03 at cycle   2 NSaved=   2.
 NSaved= 2 IEnMin= 2 EnMin= -466.667782619069     IErMin= 2 ErrMin= 7.80D-03
 ErrMax= 7.80D-03  0.00D+00 EMaxC= 1.00D-01 BMatC= 2.37D-02 BMatP= 3.02D-01
 IDIUse=3 WtCom= 9.22D-01 WtEn= 7.80D-02
 Coeff-Com:  0.925D-01 0.907D+00
 Coeff-En:   0.158D+00 0.842D+00
 Coeff:      0.977D-01 0.902D+00
 Gap=     0.292 Goal=   None    Shift=    0.000
 RMSDP=2.06D-03 MaxDP=3.49D-02 DE=-1.40D-01 OVMax= 1.00D-01

 Cycle   3  Pass 1  IDiag  1:
 RMSU=  1.76D-03    CP:  9.70D-01  6.92D-01
 E= -466.858101326102     Delta-E=       -0.190318707033 Rises=F Damp=F
 DIIS: error= 3.82D-03 at cycle   3 NSaved=   3.
 NSaved= 3 IEnMin= 3 EnMin= -466.858101326102     IErMin= 3 ErrMin= 3.82D-03
 ErrMax= 3.82D-03  0.00D+00 EMaxC= 1.00D-01 BMatC= 8.08D-03 BMatP= 2.37D-02
 IDIUse=3 WtCom= 9.62D-01 WtEn= 3.82D-02
 Coeff-Com: -0.148D-01 0.347D+00 0.668D+00
 Coeff-En:   0.000D+00 0.000D+00 0.100D+01
 Coeff:     -0.142D-01 0.334D+00 0.681D+00
 Gap=     0.260 Goal=   None    Shift=    0.000
 RMSDP=7.58D-04 MaxDP=1.57D-02 DE=-1.90D-01 OVMax= 1.66D-02

 Cycle   4  Pass 1  IDiag  1:
 RMSU=  4.38D-04    CP:  9.70D-01  7.87D-01  7.02D-01
 E= -466.864316445880     Delta-E=       -0.006215119778 Rises=F Damp=F
 DIIS: error= 1.61D-03 at cycle   4 NSaved=   4.
 NSaved= 4 IEnMin= 4 EnMin= -466.864316445880     IErMin= 4 ErrMin= 1.61D-03
 ErrMax= 1.61D-03  0.00D+00 EMaxC= 1.00D-01 BMatC= 1.26D-03 BMatP= 8.08D-03
 IDIUse=3 WtCom= 9.84D-01 WtEn= 1.61D-02
 Coeff-Com: -0.133D-01 0.941D-01 0.322D+00 0.597D+00
 Coeff-En:   0.000D+00 0.000D+00 0.648D-01 0.935D+00
 Coeff:     -0.131D-01 0.926D-01 0.318D+00 0.602D+00
 Gap=     0.258 Goal=   None    Shift=    0.000
 RMSDP=2.44D-04 MaxDP=6.27D-03 DE=-6.22D-03 OVMax= 1.26D-02

 Cycle   5  Pass 1  IDiag  1:
 RMSU=  1.42D-04    CP:  9.69D-01  7.73D-01  7.62D-01  6.33D-01
 E= -466.865377343771     Delta-E=       -0.001060897891 Rises=F Damp=F
 DIIS: error= 6.39D-04 at cycle   5 NSaved=   5.
 NSaved= 5 IEnMin= 5 EnMin= -466.865377343771     IErMin= 5 ErrMin= 6.39D-04
 ErrMax= 6.39D-04  0.00D+00 EMaxC= 1.00D-01 BMatC= 1.69D-04 BMatP= 1.26D-03
 IDIUse=3 WtCom= 9.94D-01 WtEn= 6.39D-03
 Coeff-Com: -0.534D-02 0.133D-01 0.922D-01 0.322D+00 0.577D+00
 Coeff-En:   0.000D+00 0.000D+00 0.000D+00 0.891D-01 0.911D+00
 Coeff:     -0.531D-02 0.132D-01 0.917D-01 0.321D+00 0.580D+00
 Gap=     0.256 Goal=   None    Shift=    0.000
 RMSDP=7.63D-05 MaxDP=2.87D-03 DE=-1.06D-03 OVMax= 6.67D-03

 Cycle   6  Pass 1  IDiag  1:
 RMSU=  3.26D-05    CP:  9.69D-01  7.76D-01  7.61D-01  7.06D-01  5.76D-01
 E= -466.865533033277     Delta-E=       -0.000155689506 Rises=F Damp=F
 DIIS: error= 2.15D-04 at cycle   6 NSaved=   6.
 NSaved= 6 IEnMin= 6 EnMin= -466.865533033277     IErMin= 6 ErrMin= 2.15D-04
 ErrMax= 2.15D-04  0.00D+00 EMaxC= 1.00D-01 BMatC= 1.74D-05 BMatP= 1.69D-04
 IDIUse=3 WtCom= 9.98D-01 WtEn= 2.15D-03
 Coeff-Com: -0.278D-02 0.446D-02 0.442D-01 0.178D+00 0.366D+00 0.410D+00
 Coeff-En:   0.000D+00 0.000D+00 0.000D+00 0.000D+00 0.000D+00 0.100D+01
 Coeff:     -0.278D-02 0.445D-02 0.441D-01 0.178D+00 0.365D+00 0.411D+00
 Gap=     0.256 Goal=   None    Shift=    0.000
 RMSDP=1.93D-05 MaxDP=1.07D-03 DE=-1.56D-04 OVMax= 2.09D-03

 Cycle   7  Pass 1  IDiag  1:
 RMSU=  7.79D-06    CP:  9.69D-01  7.76D-01  7.62D-01  7.07D-01  6.08D-01
                    CP:  4.78D-01
 E= -466.865550637811     Delta-E=       -0.000017604534 Rises=F Damp=F
 DIIS: error= 1.71D-05 at cycle   7 NSaved=   7.
 NSaved= 7 IEnMin= 7 EnMin= -466.865550637811     IErMin= 7 ErrMin= 1.71D-05
 ErrMax= 1.71D-05  0.00D+00 EMaxC= 1.00D-01 BMatC= 2.01D-07 BMatP= 1.74D-05
 IDIUse=1 WtCom= 1.00D+00 WtEn= 0.00D+00
 Coeff-Com: -0.610D-03 0.581D-03 0.933D-02 0.422D-01 0.929D-01 0.147D+00
 Coeff-Com:  0.708D+00
 Coeff:     -0.610D-03 0.581D-03 0.933D-02 0.422D-01 0.929D-01 0.147D+00
 Coeff:      0.708D+00
 Gap=     0.256 Goal=   None    Shift=    0.000
 RMSDP=3.33D-06 MaxDP=1.24D-04 DE=-1.76D-05 OVMax= 2.53D-04

 Cycle   8  Pass 1  IDiag  1:
 RMSU=  2.37D-06    CP:  9.69D-01  7.76D-01  7.62D-01  7.08D-01  6.13D-01
                    CP:  4.95D-01  7.41D-01
 E= -466.865550775172     Delta-E=       -0.000000137361 Rises=F Damp=F
 DIIS: error= 1.19D-05 at cycle   8 NSaved=   8.
 NSaved= 8 IEnMin= 8 EnMin= -466.865550775172     IErMin= 8 ErrMin= 1.19D-05
 ErrMax= 1.19D-05  0.00D+00 EMaxC= 1.00D-01 BMatC= 6.34D-08 BMatP= 2.01D-07
 IDIUse=1 WtCom= 1.00D+00 WtEn= 0.00D+00
 Coeff-Com: -0.116D-03-0.610D-04 0.160D-02 0.944D-02 0.228D-01 0.512D-01
 Coeff-Com:  0.414D+00 0.501D+00
 Coeff:     -0.116D-03-0.610D-04 0.160D-02 0.944D-02 0.228D-01 0.512D-01
 Coeff:      0.414D+00 0.501D+00
 Gap=     0.256 Goal=   None    Shift=    0.000
 RMSDP=1.35D-06 MaxDP=7.91D-05 DE=-1.37D-07 OVMax= 1.53D-04

 Cycle   9  Pass 1  IDiag  1:
 RMSU=  8.55D-07    CP:  9.69D-01  7.76D-01  7.62D-01  7.08D-01  6.13D-01
                    CP:  4.94D-01  7.88D-01  5.90D-01
 E= -466.865550833719     Delta-E=       -0.000000058546 Rises=F Damp=F
 DIIS: error= 3.79D-06 at cycle   9 NSaved=   9.
 NSaved= 9 IEnMin= 9 EnMin= -466.865550833719     IErMin= 9 ErrMin= 3.79D-06
 ErrMax= 3.79D-06  0.00D+00 EMaxC= 1.00D-01 BMatC= 5.76D-09 BMatP= 6.34D-08
 IDIUse=1 WtCom= 1.00D+00 WtEn= 0.00D+00
 Coeff-Com:  0.104D-04-0.108D-03-0.298D-03 0.204D-04 0.100D-02 0.101D-01
 Coeff-Com:  0.139D+00 0.278D+00 0.572D+00
 Coeff:      0.104D-04-0.108D-03-0.298D-03 0.204D-04 0.100D-02 0.101D-01
 Coeff:      0.139D+00 0.278D+00 0.572D+00
 Gap=     0.256 Goal=   None    Shift=    0.000
 RMSDP=4.58D-07 MaxDP=2.00D-05 DE=-5.85D-08 OVMax= 4.25D-05

 Cycle  10  Pass 1  IDiag  1:
 RMSU=  2.57D-07    CP:  9.69D-01  7.76D-01  7.62D-01  7.08D-01  6.12D-01
                    CP:  4.97D-01  7.99D-01  6.25D-01  6.09D-01
 E= -466.865550839406     Delta-E=       -0.000000005687 Rises=F Damp=F
 DIIS: error= 7.25D-07 at cycle  10 NSaved=  10.
 NSaved=10 IEnMin=10 EnMin= -466.865550839406     IErMin=10 ErrMin= 7.25D-07
 ErrMax= 7.25D-07  0.00D+00 EMaxC= 1.00D-01 BMatC= 3.87D-10 BMatP= 5.76D-09
 IDIUse=1 WtCom= 1.00D+00 WtEn= 0.00D+00
 Coeff-Com:  0.124D-04-0.451D-04-0.266D-03-0.675D-03-0.122D-02 0.116D-02
 Coeff-Com:  0.364D-01 0.974D-01 0.285D+00 0.582D+00
 Coeff:      0.124D-04-0.451D-04-0.266D-03-0.675D-03-0.122D-02 0.116D-02
 Coeff:      0.364D-01 0.974D-01 0.285D+00 0.582D+00
 Gap=     0.256 Goal=   None    Shift=    0.000
 RMSDP=1.09D-07 MaxDP=3.98D-06 DE=-5.69D-09 OVMax= 6.01D-06

 Cycle  11  Pass 1  IDiag  1:
 RMSU=  6.56D-08    CP:  9.69D-01  7.76D-01  7.62D-01  7.08D-01  6.12D-01
                    CP:  4.97D-01  7.99D-01  6.30D-01  6.55D-01  7.10D-01
 E= -466.865550839770     Delta-E=       -0.000000000364 Rises=F Damp=F
 DIIS: error= 1.23D-07 at cycle  11 NSaved=  11.
 NSaved=11 IEnMin=11 EnMin= -466.865550839770     IErMin=11 ErrMin= 1.23D-07
 ErrMax= 1.23D-07  0.00D+00 EMaxC= 1.00D-01 BMatC= 1.44D-11 BMatP= 3.87D-10
 IDIUse=1 WtCom= 1.00D+00 WtEn= 0.00D+00
 Coeff-Com:  0.294D-05-0.737D-05-0.719D-04-0.222D-03-0.469D-03-0.202D-03
 Coeff-Com:  0.368D-02 0.158D-01 0.647D-01 0.220D+00 0.697D+00
 Coeff:      0.294D-05-0.737D-05-0.719D-04-0.222D-03-0.469D-03-0.202D-03
 Coeff:      0.368D-02 0.158D-01 0.647D-01 0.220D+00 0.697D+00
 Gap=     0.256 Goal=   None    Shift=    0.000
 RMSDP=2.38D-08 MaxDP=6.83D-07 DE=-3.64D-10 OVMax= 7.36D-07

 Cycle  12  Pass 1  IDiag  1:
 RMSU=  1.56D-08    CP:  9.69D-01  7.76D-01  7.62D-01  7.08D-01  6.12D-01
                    CP:  4.97D-01  7.99D-01  6.32D-01  6.61D-01  7.36D-01
                    CP:  7.74D-01
 E= -466.865550839787     Delta-E=       -0.000000000017 Rises=F Damp=F
 DIIS: error= 3.54D-08 at cycle  12 NSaved=  12.
 NSaved=12 IEnMin=12 EnMin= -466.865550839787     IErMin=12 ErrMin= 3.54D-08
 ErrMax= 3.54D-08  0.00D+00 EMaxC= 1.00D-01 BMatC= 1.18D-12 BMatP= 1.44D-11
 IDIUse=1 WtCom= 1.00D+00 WtEn= 0.00D+00
 Coeff-Com:  0.622D-06-0.104D-05-0.189D-04-0.645D-04-0.148D-03-0.135D-03
 Coeff-Com: -0.804D-04 0.231D-02 0.153D-01 0.692D-01 0.310D+00 0.604D+00
 Coeff:      0.622D-06-0.104D-05-0.189D-04-0.645D-04-0.148D-03-0.135D-03
 Coeff:     -0.804D-04 0.231D-02 0.153D-01 0.692D-01 0.310D+00 0.604D+00
 Gap=     0.256 Goal=   None    Shift=    0.000
 RMSDP=7.39D-09 MaxDP=1.58D-07 DE=-1.71D-11 OVMax= 1.95D-07

 Error on total polarization charges =  0.00825
 SCF Done:  E(RB3LYP) =  -466.865550840     A.U. after   12 cycles
            NFock= 12  Conv=0.74D-08     -V/T= 2.0099
 KE= 4.622777034031D+02 PE=-2.554482228734D+03 EE= 8.882230022562D+02
 --------------------------------------------------------------------
 Variational PCM results
 =======================
 <psi(f)|   H    |psi(f)>                     (a.u.) =    -466.872656
 <psi(f)|H+V(f)/2|psi(f)>                     (a.u.) =    -466.873313
 Total free energy in solution:
 - with all non electrostatic terms           (a.u.) =    -466.865551
 --------------------------------------------------------------------
 (Polarized solute)-Solvent               (kcal/mol) =      -0.41
 --------------------------------------------------------------------
 Quantum repulsion energy                 (kcal/mol) =       4.87
 Total non electrostatic                  (kcal/mol) =       4.87
 --------------------------------------------------------------------
 Partition over spheres:
 Sphere  on Atom  Surface  Charge   GEl     GCav    GDR
    1               3.65   0.002    0.00    0.00    0.00
    2               6.63   0.010   -0.05    0.00    0.00
    3               4.61   0.008   -0.05    0.00    0.00
    4               0.04   0.000    0.00    0.00    0.00
    5               0.00   0.000    0.00    0.00    0.00
    6               2.85   0.002    0.00    0.00    0.00
    7               6.74  -0.006   -0.01    0.00    0.00
    8               7.53  -0.007   -0.01    0.00    0.00
    9               3.77  -0.002    0.00    0.00    0.00
   10               7.53  -0.005   -0.01    0.00    0.00
   11               6.10  -0.004   -0.01    0.00    0.00
   12               5.17  -0.003   -0.01    0.00    0.00
   13               6.91  -0.004    0.00    0.00    0.00
   14               6.11  -0.003   -0.01    0.00    0.00
   15               3.35   0.004   -0.02    0.00    0.00
   16               0.13   0.000    0.00    0.00    0.00
   17               7.02  -0.008   -0.02    0.00    0.00
   18               6.39  -0.005   -0.01    0.00    0.00
   19               3.88   0.003    0.00    0.00    0.00
   20               6.52  -0.004    0.00    0.00    0.00
   21               5.28  -0.003   -0.01    0.00    0.00
   22               3.54   0.005   -0.02    0.00    0.00
   23               7.55  -0.009   -0.02    0.00    0.00
   24               0.09   0.000    0.00    0.00    0.00
   25               5.98  -0.005   -0.01    0.00    0.00
   26               4.02   0.003    0.00    0.00    0.00
   27               6.12  -0.004   -0.01    0.00    0.00
   28               5.28  -0.003   -0.01    0.00    0.00
 Added spheres:    75.30   0.029   -0.12    0.00    0.00
 --------------------------------------------------------------------
 After PCM corrections, the energy is  -466.865550840     a.u.
 --------------------------------------------------------------------
 Leave Link  502 at Thu Jun  4 12:05:37 2020, MaxMem=   104857600 cpu:             481.2 elap:              86.3
 (Enter /home/roberto/software/g16A03/g16/l601.exe)
 Copying SCF densities to generalized density rwf, IOpCl= 0 IROHF=0.

 **********************************************************************

            Population analysis using the SCF density.

 **********************************************************************

 Alpha  occ. eigenvalues --  -10.18274 -10.18257 -10.18020 -10.17983 -10.17420
 Alpha  occ. eigenvalues --  -10.17357 -10.17349 -10.17209 -10.17033 -10.16903
 Alpha  occ. eigenvalues --  -10.16865 -10.16779  -0.85923  -0.80018  -0.75622
 Alpha  occ. eigenvalues --   -0.73114  -0.72200  -0.70567  -0.61221  -0.59441
 Alpha  occ. eigenvalues --   -0.57995  -0.57401  -0.50510  -0.50189  -0.47858
 Alpha  occ. eigenvalues --   -0.45840  -0.44931  -0.43555  -0.41422  -0.40018
 Alpha  occ. eigenvalues --   -0.38825  -0.38289  -0.36958  -0.36632  -0.36071
 Alpha  occ. eigenvalues --   -0.34849  -0.34621  -0.32250  -0.31767  -0.28563
 Alpha  occ. eigenvalues --   -0.28329  -0.27849  -0.23144  -0.22878
 Alpha virt. eigenvalues --    0.02769   0.03793   0.08314   0.11544   0.12340
 Alpha virt. eigenvalues --    0.12892   0.13045   0.15405   0.16095   0.16482
 Alpha virt. eigenvalues --    0.17609   0.17855   0.17932   0.19012   0.19831
 Alpha virt. eigenvalues --    0.20696   0.21547   0.21794   0.23509   0.23568
 Alpha virt. eigenvalues --    0.23877   0.24385   0.25730   0.26243   0.27037
 Alpha virt. eigenvalues --    0.28667   0.30642   0.35070   0.36373   0.40799
 Alpha virt. eigenvalues --    0.42520   0.46488   0.49003   0.49566   0.51259
 Alpha virt. eigenvalues --    0.53860   0.55173   0.55714   0.57854   0.59079
 Alpha virt. eigenvalues --    0.60168   0.61368   0.62815   0.63506   0.64321
 Alpha virt. eigenvalues --    0.65783   0.66108   0.66742   0.68422   0.69036
 Alpha virt. eigenvalues --    0.69905   0.72862   0.73556   0.75497   0.78202
 Alpha virt. eigenvalues --    0.79982   0.80493   0.82552   0.84090   0.84598
 Alpha virt. eigenvalues --    0.84893   0.85789   0.86724   0.87037   0.87439
 Alpha virt. eigenvalues --    0.89247   0.89300   0.90195   0.90590   0.92037
 Alpha virt. eigenvalues --    0.92515   0.92884   0.94235   0.96100   0.96316
 Alpha virt. eigenvalues --    0.98107   0.98790   0.99448   1.01525   1.05787
 Alpha virt. eigenvalues --    1.09458   1.11624   1.14345   1.19293   1.22836
 Alpha virt. eigenvalues --    1.23699   1.26758   1.29643   1.35535   1.39420
 Alpha virt. eigenvalues --    1.43338   1.46542   1.48520   1.51488   1.54356
 Alpha virt. eigenvalues --    1.61829   1.62261   1.64896   1.67263   1.71570
 Alpha virt. eigenvalues --    1.72300   1.73950   1.75889   1.76940   1.77344
 Alpha virt. eigenvalues --    1.78210   1.82649   1.83646   1.89374   1.90203
 Alpha virt. eigenvalues --    1.91387   1.93021   1.94027   1.96289   1.98594
 Alpha virt. eigenvalues --    2.01056   2.02077   2.04251   2.05065   2.06917
 Alpha virt. eigenvalues --    2.08019   2.11800   2.14977   2.16446   2.17540
 Alpha virt. eigenvalues --    2.20753   2.22493   2.26469   2.27707   2.28552
 Alpha virt. eigenvalues --    2.35291   2.36483   2.37597   2.40213   2.42089
 Alpha virt. eigenvalues --    2.43604   2.45792   2.47945   2.48503   2.50992
 Alpha virt. eigenvalues --    2.54610   2.57690   2.60371   2.62572   2.65286
 Alpha virt. eigenvalues --    2.66670   2.70429   2.71649   2.75983   2.77130
 Alpha virt. eigenvalues --    2.81020   2.84325   2.89006   2.95700   2.97016
 Alpha virt. eigenvalues --    3.06560   4.12304   4.19955   4.22062   4.28200
 Alpha virt. eigenvalues --    4.31950   4.43526   4.46669   4.54291   4.58427
 Alpha virt. eigenvalues --    4.61446   4.74752   4.97874
          Condensed to atoms (all electrons):
               1          2          3          4          5          6
     1  C    5.052095   0.374185  -0.038991  -0.028741  -0.031827   0.371689
     2  C    0.374185   4.891748   0.690924  -0.027239  -0.019070  -0.041007
     3  C   -0.038991   0.690924   4.888049   0.379964  -0.031307  -0.013653
     4  C   -0.028741  -0.027239   0.379964   5.042012   0.350908  -0.036637
     5  C   -0.031827  -0.019070  -0.031307   0.350908   5.022927   0.371693
     6  C    0.371689  -0.041007  -0.013653  -0.036637   0.371693   5.036486
     7  H    0.006536  -0.044142   0.358079  -0.053501   0.004813  -0.000064
     8  H   -0.053676   0.361383  -0.036143   0.005583   0.000086   0.004069
     9  H    0.359547  -0.030934  -0.006533   0.002118  -0.007191  -0.031470
    10  H    0.365647  -0.034650   0.003485   0.000213   0.004680  -0.032393
    11  H    0.000509   0.002311  -0.038925   0.352471  -0.034363   0.002013
    12  H    0.005081   0.000192   0.003820  -0.032361   0.360501  -0.044827
    13  H   -0.042060  -0.002387   0.001601  -0.000728  -0.034510   0.371908
    14  H   -0.033769   0.004908   0.000519   0.004441  -0.037567   0.363589
    15  C   -0.001239   0.000251  -0.000877  -0.027509  -0.032409  -0.003519
    16  C   -0.003593   0.000468  -0.001808  -0.039810   0.366259  -0.035709
    17  H   -0.000484  -0.000040  -0.000073  -0.000129   0.003394   0.000366
    18  H   -0.000187  -0.000012  -0.000111   0.005696  -0.043077  -0.005155
    19  C   -0.000022  -0.000005   0.000338  -0.023082  -0.031978   0.003991
    20  H    0.000003   0.000000   0.000009   0.000236   0.004819  -0.000168
    21  H    0.000000   0.000001  -0.000014   0.001356  -0.006892   0.000153
    22  C   -0.000620   0.001730  -0.000233  -0.037797  -0.031841  -0.000071
    23  H    0.000034  -0.000349   0.000858   0.002910  -0.000039  -0.000016
    24  C    0.000305  -0.003321  -0.051931   0.372727  -0.045671   0.003096
    25  H   -0.000007   0.000027  -0.003331  -0.041883   0.005757  -0.000110
    26  C    0.000007  -0.000040   0.004837  -0.035108  -0.021737   0.000069
    27  H    0.000000   0.000000  -0.000167   0.004445   0.000191   0.000005
    28  H   -0.000001   0.000001   0.000163  -0.006174   0.001724  -0.000021
               7          8          9         10         11         12
     1  C    0.006536  -0.053676   0.359547   0.365647   0.000509   0.005081
     2  C   -0.044142   0.361383  -0.030934  -0.034650   0.002311   0.000192
     3  C    0.358079  -0.036143  -0.006533   0.003485  -0.038925   0.003820
     4  C   -0.053501   0.005583   0.002118   0.000213   0.352471  -0.032361
     5  C    0.004813   0.000086  -0.007191   0.004680  -0.034363   0.360501
     6  C   -0.000064   0.004069  -0.031470  -0.032393   0.002013  -0.044827
     7  H    0.617858  -0.008870  -0.000205  -0.000148  -0.002684  -0.000153
     8  H   -0.008870   0.604003   0.002557  -0.004604  -0.000191   0.000012
     9  H   -0.000205   0.002557   0.587507  -0.039135  -0.000031  -0.000058
    10  H   -0.000148  -0.004604  -0.039135   0.606159   0.000031  -0.000152
    11  H   -0.002684  -0.000191  -0.000031   0.000031   0.636006  -0.010463
    12  H   -0.000153   0.000012  -0.000058  -0.000152  -0.010463   0.644642
    13  H   -0.000097   0.000101   0.005746  -0.006524   0.000256  -0.007429
    14  H    0.000010  -0.000138  -0.003765  -0.001621  -0.000186  -0.000085
    15  C    0.000069   0.000030   0.005407   0.000106   0.000943   0.004820
    16  C   -0.000116  -0.000008   0.001957  -0.000013   0.003380  -0.047454
    17  H    0.000000  -0.000001   0.001055   0.000004   0.000018  -0.000188
    18  H    0.000004   0.000000   0.000118  -0.000019  -0.000185  -0.000925
    19  C   -0.000005   0.000000  -0.000009   0.000002   0.000539  -0.007036
    20  H    0.000000   0.000000   0.000001   0.000000   0.000010   0.000197
    21  H    0.000000   0.000000  -0.000003   0.000000  -0.000380   0.006583
    22  C   -0.000254  -0.000087   0.000867   0.000079   0.005772   0.001174
    23  H   -0.000049  -0.000004   0.000019   0.000000  -0.000183   0.000022
    24  C   -0.001554  -0.000040   0.000287  -0.000025  -0.042892   0.000323
    25  H    0.004064  -0.000006  -0.000004   0.000000  -0.002692  -0.000226
    26  C   -0.000015   0.000003  -0.000006   0.000001  -0.005675   0.001417
    27  H    0.000002   0.000000   0.000000   0.000000  -0.000026  -0.000020
    28  H   -0.000011   0.000000  -0.000001   0.000000   0.005998  -0.000771
              13         14         15         16         17         18
     1  C   -0.042060  -0.033769  -0.001239  -0.003593  -0.000484  -0.000187
     2  C   -0.002387   0.004908   0.000251   0.000468  -0.000040  -0.000012
     3  C    0.001601   0.000519  -0.000877  -0.001808  -0.000073  -0.000111
     4  C   -0.000728   0.004441  -0.027509  -0.039810  -0.000129   0.005696
     5  C   -0.034510  -0.037567  -0.032409   0.366259   0.003394  -0.043077
     6  C    0.371908   0.363589  -0.003519  -0.035709   0.000366  -0.005155
     7  H   -0.000097   0.000010   0.000069  -0.000116   0.000000   0.000004
     8  H    0.000101  -0.000138   0.000030  -0.000008  -0.000001   0.000000
     9  H    0.005746  -0.003765   0.005407   0.001957   0.001055   0.000118
    10  H   -0.006524  -0.001621   0.000106  -0.000013   0.000004  -0.000019
    11  H    0.000256  -0.000186   0.000943   0.003380   0.000018  -0.000185
    12  H   -0.007429  -0.000085   0.004820  -0.047454  -0.000188  -0.000925
    13  H    0.606761  -0.036622  -0.000028   0.005000   0.000006   0.000056
    14  H   -0.036622   0.612186   0.000138  -0.007989  -0.000069   0.006227
    15  C   -0.000028   0.000138   4.944173   0.387070   0.366280  -0.037915
    16  C    0.005000  -0.007989   0.387070   4.964750  -0.045230   0.368212
    17  H    0.000006  -0.000069   0.366280  -0.045230   0.596177  -0.005955
    18  H    0.000056   0.006227  -0.037915   0.368212  -0.005955   0.626487
    19  C   -0.000192   0.000130  -0.035197   0.369408   0.003435  -0.039172
    20  H    0.000003  -0.000008  -0.004090  -0.032151   0.000577  -0.002202
    21  H   -0.000017  -0.000003   0.005113  -0.032772  -0.000180  -0.002042
    22  C   -0.000049   0.000025   0.666816  -0.045691  -0.048230   0.006910
    23  H    0.000000   0.000000  -0.047235   0.005529  -0.006718  -0.000134
    24  C    0.000047  -0.000064  -0.049386   0.002394   0.005807  -0.000045
    25  H    0.000002   0.000003   0.007079  -0.000104  -0.000132  -0.000005
    26  C   -0.000007  -0.000006  -0.032233  -0.042048  -0.000207   0.005647
    27  H    0.000000   0.000000   0.001843   0.002081   0.000006  -0.000137
    28  H    0.000000  -0.000001   0.001047   0.000356   0.000020  -0.000166
              19         20         21         22         23         24
     1  C   -0.000022   0.000003   0.000000  -0.000620   0.000034   0.000305
     2  C   -0.000005   0.000000   0.000001   0.001730  -0.000349  -0.003321
     3  C    0.000338   0.000009  -0.000014  -0.000233   0.000858  -0.051931
     4  C   -0.023082   0.000236   0.001356  -0.037797   0.002910   0.372727
     5  C   -0.031978   0.004819  -0.006892  -0.031841  -0.000039  -0.045671
     6  C    0.003991  -0.000168   0.000153  -0.000071  -0.000016   0.003096
     7  H   -0.000005   0.000000   0.000000  -0.000254  -0.000049  -0.001554
     8  H    0.000000   0.000000   0.000000  -0.000087  -0.000004  -0.000040
     9  H   -0.000009   0.000001  -0.000003   0.000867   0.000019   0.000287
    10  H    0.000002   0.000000   0.000000   0.000079   0.000000  -0.000025
    11  H    0.000539   0.000010  -0.000380   0.005772  -0.000183  -0.042892
    12  H   -0.007036   0.000197   0.006583   0.001174   0.000022   0.000323
    13  H   -0.000192   0.000003  -0.000017  -0.000049   0.000000   0.000047
    14  H    0.000130  -0.000008  -0.000003   0.000025   0.000000  -0.000064
    15  C   -0.035197  -0.004090   0.005113   0.666816  -0.047235  -0.049386
    16  C    0.369408  -0.032151  -0.032772  -0.045691   0.005529   0.002394
    17  H    0.003435   0.000577  -0.000180  -0.048230  -0.006718   0.005807
    18  H   -0.039172  -0.002202  -0.002042   0.006910  -0.000134  -0.000045
    19  C    5.086428   0.366735   0.360103  -0.032795  -0.000159  -0.038400
    20  H    0.366735   0.596239  -0.037015   0.002698  -0.000024   0.000673
    21  H    0.360103  -0.037015   0.605829   0.001126   0.000019   0.001510
    22  C   -0.032795   0.002698   0.001126   4.950560   0.367017   0.380367
    23  H   -0.000159  -0.000024   0.000019   0.367017   0.592574  -0.044057
    24  C   -0.038400   0.000673   0.001510   0.380367  -0.044057   4.983577
    25  H    0.005536  -0.000154  -0.000151  -0.038696  -0.005928   0.368311
    26  C    0.351543  -0.030951  -0.032129  -0.032423   0.003521   0.361814
    27  H   -0.031303  -0.010316   0.004012  -0.004107   0.000403  -0.028883
    28  H   -0.031388   0.004501  -0.008726   0.004870  -0.000173  -0.034734
              25         26         27         28
     1  C   -0.000007   0.000007   0.000000  -0.000001
     2  C    0.000027  -0.000040   0.000000   0.000001
     3  C   -0.003331   0.004837  -0.000167   0.000163
     4  C   -0.041883  -0.035108   0.004445  -0.006174
     5  C    0.005757  -0.021737   0.000191   0.001724
     6  C   -0.000110   0.000069   0.000005  -0.000021
     7  H    0.004064  -0.000015   0.000002  -0.000011
     8  H   -0.000006   0.000003   0.000000   0.000000
     9  H   -0.000004  -0.000006   0.000000  -0.000001
    10  H    0.000000   0.000001   0.000000   0.000000
    11  H   -0.002692  -0.005675  -0.000026   0.005998
    12  H   -0.000226   0.001417  -0.000020  -0.000771
    13  H    0.000002  -0.000007   0.000000   0.000000
    14  H    0.000003  -0.000006   0.000000  -0.000001
    15  C    0.007079  -0.032233   0.001843   0.001047
    16  C   -0.000104  -0.042048   0.002081   0.000356
    17  H   -0.000132  -0.000207   0.000006   0.000020
    18  H   -0.000005   0.005647  -0.000137  -0.000166
    19  C    0.005536   0.351543  -0.031303  -0.031388
    20  H   -0.000154  -0.030951  -0.010316   0.004501
    21  H   -0.000151  -0.032129   0.004012  -0.008726
    22  C   -0.038696  -0.032423  -0.004107   0.004870
    23  H   -0.005928   0.003521   0.000403  -0.000173
    24  C    0.368311   0.361814  -0.028883  -0.034734
    25  H    0.624920  -0.038915  -0.002919  -0.001288
    26  C   -0.038915   5.086487   0.369278   0.361429
    27  H   -0.002919   0.369278   0.590717  -0.037715
    28  H   -0.001288   0.361429  -0.037715   0.606326
 Mulliken charges:
               1
     1  C   -0.300420
     2  C   -0.124932
     3  C   -0.108548
     4  C   -0.134382
     5  C   -0.088273
     6  C   -0.284307
     7  H    0.120436
     8  H    0.125943
     9  H    0.152160
    10  H    0.138878
    11  H    0.128618
    12  H    0.123367
    13  H    0.139164
    14  H    0.129715
    15  C   -0.119546
    16  C   -0.142367
    17  H    0.130491
    18  H    0.118089
    19  C   -0.277444
    20  H    0.140377
    21  H    0.134520
    22  C   -0.117116
    23  H    0.132165
    24  C   -0.140236
    25  H    0.120852
    26  C   -0.274550
    27  H    0.142610
    28  H    0.134736
 Sum of Mulliken charges =   0.00000
 Mulliken charges with hydrogens summed into heavy atoms:
               1
     1  C   -0.009382
     2  C    0.001011
     3  C    0.011888
     4  C   -0.005765
     5  C    0.035094
     6  C   -0.015427
    15  C    0.010945
    16  C   -0.024277
    19  C   -0.002547
    22  C    0.015048
    24  C   -0.019384
    26  C    0.002796
 Electronic spatial extent (au):  <R**2>=           1711.7875
 Charge=              0.0000 electrons
 Dipole moment (field-independent basis, Debye):
    X=              0.2211    Y=             -0.1805    Z=             -0.1286  Tot=              0.3131
 Quadrupole moment (field-independent basis, Debye-Ang):
   XX=            -73.4866   YY=            -70.7432   ZZ=            -72.3645
   XY=              0.6689   XZ=             -1.2091   YZ=             -0.3643
 Traceless Quadrupole moment (field-independent basis, Debye-Ang):
   XX=             -1.2885   YY=              1.4549   ZZ=             -0.1664
   XY=              0.6689   XZ=             -1.2091   YZ=             -0.3643
 Octapole moment (field-independent basis, Debye-Ang**2):
  XXX=             -5.8189  YYY=              3.3455  ZZZ=              1.7866  XYY=              0.3428
  XXY=              0.0694  XXZ=              2.3170  XZZ=              1.7642  YZZ=             -1.3599
  YYZ=              1.4215  XYZ=             -0.3491
 Hexadecapole moment (field-independent basis, Debye-Ang**3):
 XXXX=          -1308.6652 YYYY=           -599.7575 ZZZZ=           -401.7320 XXXY=              0.1310
 XXXZ=            -10.2422 YYYX=             -2.6114 YYYZ=             -2.4322 ZZZX=             -3.7590
 ZZZY=             -0.0406 XXYY=           -321.4728 XXZZ=           -298.7044 YYZZ=           -168.1929
 XXYZ=              4.0752 YYXZ=              1.0125 ZZXY=              2.5288
 N-N= 7.371159722346D+02 E-N=-2.554482225183D+03  KE= 4.622777034031D+02
 No NMR shielding tensors so no spin-rotation constants.
 Leave Link  601 at Thu Jun  4 12:05:37 2020, MaxMem=   104857600 cpu:               0.3 elap:               0.1
 (Enter /home/roberto/software/g16A03/g16/l9999.exe)
 1\1\GINC-ROBERTO-XPS-15-9570\SP\RB3LYP\6-31G(d)\C12H16\ROBERTO\04-Jun-
 2020\0\\#p b3lyp/6-31g(d) # scrf=(iefpcm,solvent=Cyclohexane,read) nos
 ym\\endo-2 xp-pcm for eta=3\\0,1\C,0,-2.454531,-0.62092,0.450078\C,0,-
 2.429115,0.860192,0.177901\C,0,-1.411688,1.453495,-0.452012\C,0,-0.144
 149,0.761548,-0.892337\C,0,-0.185628,-0.801613,-0.78974\C,0,-1.604183,
 -1.370946,-0.585116\H,0,-1.44621,2.528854,-0.632087\H,0,-3.28202,1.454
 343,0.503764\H,0,-2.092649,-0.822074,1.469083\H,0,-3.486923,-0.994204,
 0.418758\H,0,0.057528,1.047828,-1.935726\H,0,0.169231,-1.207683,-1.746
 829\H,0,-2.132404,-1.318363,-1.546324\H,0,-1.534534,-2.436262,-0.32713
 2\C,0,0.716641,-0.470708,1.551966\C,0,0.8629,-1.264979,0.274427\H,0,0.
 54992,-0.955102,2.511169\H,0,0.766306,-2.343321,0.443899\C,0,2.267636,
 -0.935217,-0.307517\H,0,3.039458,-1.259338,0.398554\H,0,2.424242,-1.49
 8287,-1.236154\C,0,0.843594,0.852001,1.392785\H,0,0.780145,1.57224,2.2
 04115\C,0,1.068138,1.281056,-0.039061\H,0,1.146978,2.369349,-0.136763\
 C,0,2.359537,0.594607,-0.563515\H,0,3.233257,1.02347,-0.061341\H,0,2.4
 72773,0.807458,-1.634143\\Version=ES64L-G16RevA.03\HF=-466.8655508\RMS
 D=7.386e-09\Dipole=0.0870027,-0.0710093,-0.0506127\Quadrupole=-0.95799
 13,1.0817156,-0.1237244,0.4972791,-0.8989702,-0.2708387\PG=C01 [X(C12H
 16)]\\@


 MAN IS A SINGULAR CREATURE.  HE HAS A SET OF GIFTS
 WHICH MAKE HIM UNIQUE AMONG THE ANIMALS: SO THAT, 
 UNLIKE THEM, HE IS NOT A FIGURE IN THE LANDSCAPE --
 HE IS A SHAPER OF THE LANDSCAPE.

                       -- JACOB BRONOWSKI
 Job cpu time:       0 days  0 hours  8 minutes 15.7 seconds.
 Elapsed time:       0 days  0 hours  1 minutes 29.2 seconds.
 File lengths (MBytes):  RWF=    350 Int=      0 D2E=      0 Chk=      7 Scr=      1
 Normal termination of Gaussian 16 at Thu Jun  4 12:05:37 2020.
 Initial command:
 /home/roberto/software/g16A03/g16/l1.exe "/home/roberto/scr/Gau-22082.inp" -scrdir="/home/roberto/scr/"
 Entering Link 1 = /home/roberto/software/g16A03/g16/l1.exe PID=     22147.
  
 Copyright (c) 1988,1990,1992,1993,1995,1998,2003,2009,2016,
            Gaussian, Inc.  All Rights Reserved.
  
 This is part of the Gaussian(R) 16 program.  It is based on
 the Gaussian(R) 09 system (copyright 2009, Gaussian, Inc.),
 the Gaussian(R) 03 system (copyright 2003, Gaussian, Inc.),
 the Gaussian(R) 98 system (copyright 1998, Gaussian, Inc.),
 the Gaussian(R) 94 system (copyright 1995, Gaussian, Inc.),
 the Gaussian 92(TM) system (copyright 1992, Gaussian, Inc.),
 the Gaussian 90(TM) system (copyright 1990, Gaussian, Inc.),
 the Gaussian 88(TM) system (copyright 1988, Gaussian, Inc.),
 the Gaussian 86(TM) system (copyright 1986, Carnegie Mellon
 University), and the Gaussian 82(TM) system (copyright 1983,
 Carnegie Mellon University). Gaussian is a federally registered
 trademark of Gaussian, Inc.
  
 This software contains proprietary and confidential information,
 including trade secrets, belonging to Gaussian, Inc.
  
 This software is provided under written license and may be
 used, copied, transmitted, or stored only in accord with that
 written license.
  
 The following legend is applicable only to US Government
 contracts under FAR:
  
                    RESTRICTED RIGHTS LEGEND
  
 Use, reproduction and disclosure by the US Government is
 subject to restrictions as set forth in subparagraphs (a)
 and (c) of the Commercial Computer Software - Restricted
 Rights clause in FAR 52.227-19.
  
 Gaussian, Inc.
 340 Quinnipiac St., Bldg. 40, Wallingford CT 06492
  
  
 ---------------------------------------------------------------
 Warning -- This program may not be used in any manner that
 competes with the business of Gaussian, Inc. or will provide
 assistance to any competitor of Gaussian, Inc.  The licensee
 of this program is prohibited from giving any competitor of
 Gaussian, Inc. access to this program.  By using this program,
 the user acknowledges that Gaussian, Inc. is engaged in the
 business of creating and licensing software in the field of
 computational chemistry and represents and warrants to the
 licensee that it is not a competitor of Gaussian, Inc. and that
 it will not use this program in any manner prohibited above.
 ---------------------------------------------------------------
  

 Cite this work as:
 Gaussian 16, Revision A.03,
 M. J. Frisch, G. W. Trucks, H. B. Schlegel, G. E. Scuseria, 
 M. A. Robb, J. R. Cheeseman, G. Scalmani, V. Barone, 
 G. A. Petersson, H. Nakatsuji, X. Li, M. Caricato, A. V. Marenich, 
 J. Bloino, B. G. Janesko, R. Gomperts, B. Mennucci, H. P. Hratchian, 
 J. V. Ortiz, A. F. Izmaylov, J. L. Sonnenberg, D. Williams-Young, 
 F. Ding, F. Lipparini, F. Egidi, J. Goings, B. Peng, A. Petrone, 
 T. Henderson, D. Ranasinghe, V. G. Zakrzewski, J. Gao, N. Rega, 
 G. Zheng, W. Liang, M. Hada, M. Ehara, K. Toyota, R. Fukuda, 
 J. Hasegawa, M. Ishida, T. Nakajima, Y. Honda, O. Kitao, H. Nakai, 
 T. Vreven, K. Throssell, J. A. Montgomery, Jr., J. E. Peralta, 
 F. Ogliaro, M. J. Bearpark, J. J. Heyd, E. N. Brothers, K. N. Kudin, 
 V. N. Staroverov, T. A. Keith, R. Kobayashi, J. Normand, 
 K. Raghavachari, A. P. Rendell, J. C. Burant, S. S. Iyengar, 
 J. Tomasi, M. Cossi, J. M. Millam, M. Klene, C. Adamo, R. Cammi, 
 J. W. Ochterski, R. L. Martin, K. Morokuma, O. Farkas, 
 J. B. Foresman, and D. J. Fox, Gaussian, Inc., Wallingford CT, 2016.
 
 ******************************************
 Gaussian 16:  ES64L-G16RevA.03 25-Dec-2016
                 4-Jun-2020 
 ******************************************
 %chk=endo-2_xp-115.chk
 %nproc=6
 Will use up to    6 processors via shared memory.
 ----------------------------------------------------------------
 #p b3lyp/6-31g(d) # scrf=(iefpcm,solvent=Cyclohexane,read) nosym
 ----------------------------------------------------------------
 1/38=1,40=2,172=1/1;
 2/12=2,15=1,17=6,18=5,40=1/2;
 3/5=1,6=6,7=1,11=2,25=1,30=1,70=2203,72=17,74=-5/1,2,3;
 4//1;
 5/5=2,38=5,53=17/2;
 6/7=2,8=2,9=2,10=2,28=1/1;
 99/5=1,9=1/99;
 Leave Link    1 at Thu Jun  4 12:05:37 2020, MaxMem=           0 cpu:               0.0 elap:               0.0
 (Enter /home/roberto/software/g16A03/g16/l101.exe)
 -----------------------
 endo-2 xp-pcm for eta=3
 -----------------------
 Symbolic Z-matrix:
 Charge =  0 Multiplicity = 1
 C                    -2.45453  -0.62092   0.45008 
 C                    -2.42912   0.86019   0.1779 
 C                    -1.41169   1.4535   -0.45201 
 C                    -0.14415   0.76155  -0.89234 
 C                    -0.18563  -0.80161  -0.78974 
 C                    -1.60418  -1.37095  -0.58512 
 H                    -1.44621   2.52885  -0.63209 
 H                    -3.28202   1.45434   0.50376 
 H                    -2.09265  -0.82207   1.46908 
 H                    -3.48692  -0.9942    0.41876 
 H                     0.05753   1.04783  -1.93573 
 H                     0.16923  -1.20768  -1.74683 
 H                    -2.1324   -1.31836  -1.54632 
 H                    -1.53453  -2.43626  -0.32713 
 C                     0.71664  -0.47071   1.55197 
 C                     0.8629   -1.26498   0.27443 
 H                     0.54992  -0.9551    2.51117 
 H                     0.76631  -2.34332   0.4439 
 C                     2.26764  -0.93522  -0.30752 
 H                     3.03946  -1.25934   0.39855 
 H                     2.42424  -1.49829  -1.23615 
 C                     0.84359   0.852     1.39279 
 H                     0.78015   1.57224   2.20412 
 C                     1.06814   1.28106  -0.03906 
 H                     1.14698   2.36935  -0.13676 
 C                     2.35954   0.59461  -0.56352 
 H                     3.23326   1.02347  -0.06134 
 H                     2.47277   0.80746  -1.63414 
 
 ITRead=  0  0  0  0  0  0  0  0  0  0  0  0  0  0  0  0  0  0  0  0
 ITRead=  0  0  0  0  0  0  0  0
 MicOpt= -1 -1 -1 -1 -1 -1 -1 -1 -1 -1 -1 -1 -1 -1 -1 -1 -1 -1 -1 -1
 MicOpt= -1 -1 -1 -1 -1 -1 -1 -1
 NAtoms=     28 NQM=       28 NQMF=       0 NMMI=      0 NMMIF=      0
                NMic=       0 NMicF=      0.
                    Isotopes and Nuclear Properties:
 (Nuclear quadrupole moments (NQMom) in fm**2, nuclear magnetic moments (NMagM)
  in nuclear magnetons)

  Atom         1           2           3           4           5           6           7           8           9          10
 IAtWgt=          12          12          12          12          12          12           1           1           1           1
 AtmWgt=  12.0000000  12.0000000  12.0000000  12.0000000  12.0000000  12.0000000   1.0078250   1.0078250   1.0078250   1.0078250
 NucSpn=           0           0           0           0           0           0           1           1           1           1
 AtZEff=   0.0000000   0.0000000   0.0000000   0.0000000   0.0000000   0.0000000   0.0000000   0.0000000   0.0000000   0.0000000
 NQMom=    0.0000000   0.0000000   0.0000000   0.0000000   0.0000000   0.0000000   0.0000000   0.0000000   0.0000000   0.0000000
 NMagM=    0.0000000   0.0000000   0.0000000   0.0000000   0.0000000   0.0000000   2.7928460   2.7928460   2.7928460   2.7928460
 AtZNuc=   6.0000000   6.0000000   6.0000000   6.0000000   6.0000000   6.0000000   1.0000000   1.0000000   1.0000000   1.0000000

  Atom        11          12          13          14          15          16          17          18          19          20
 IAtWgt=           1           1           1           1          12          12           1           1          12           1
 AtmWgt=   1.0078250   1.0078250   1.0078250   1.0078250  12.0000000  12.0000000   1.0078250   1.0078250  12.0000000   1.0078250
 NucSpn=           1           1           1           1           0           0           1           1           0           1
 AtZEff=   0.0000000   0.0000000   0.0000000   0.0000000   0.0000000   0.0000000   0.0000000   0.0000000   0.0000000   0.0000000
 NQMom=    0.0000000   0.0000000   0.0000000   0.0000000   0.0000000   0.0000000   0.0000000   0.0000000   0.0000000   0.0000000
 NMagM=    2.7928460   2.7928460   2.7928460   2.7928460   0.0000000   0.0000000   2.7928460   2.7928460   0.0000000   2.7928460
 AtZNuc=   1.0000000   1.0000000   1.0000000   1.0000000   6.0000000   6.0000000   1.0000000   1.0000000   6.0000000   1.0000000

  Atom        21          22          23          24          25          26          27          28
 IAtWgt=           1          12           1          12           1          12           1           1
 AtmWgt=   1.0078250  12.0000000   1.0078250  12.0000000   1.0078250  12.0000000   1.0078250   1.0078250
 NucSpn=           1           0           1           0           1           0           1           1
 AtZEff=   0.0000000   0.0000000   0.0000000   0.0000000   0.0000000   0.0000000   0.0000000   0.0000000
 NQMom=    0.0000000   0.0000000   0.0000000   0.0000000   0.0000000   0.0000000   0.0000000   0.0000000
 NMagM=    2.7928460   0.0000000   2.7928460   0.0000000   2.7928460   0.0000000   2.7928460   2.7928460
 AtZNuc=   1.0000000   6.0000000   1.0000000   6.0000000   1.0000000   6.0000000   1.0000000   1.0000000
 Leave Link  101 at Thu Jun  4 12:05:37 2020, MaxMem=   104857600 cpu:               0.1 elap:               0.1
 (Enter /home/roberto/software/g16A03/g16/l202.exe)
                          Input orientation:                          
 ---------------------------------------------------------------------
 Center     Atomic      Atomic             Coordinates (Angstroms)
 Number     Number       Type             X           Y           Z
 ---------------------------------------------------------------------
      1          6           0       -2.454531   -0.620920    0.450078
      2          6           0       -2.429115    0.860192    0.177901
      3          6           0       -1.411688    1.453495   -0.452012
      4          6           0       -0.144149    0.761548   -0.892337
      5          6           0       -0.185628   -0.801613   -0.789740
      6          6           0       -1.604183   -1.370946   -0.585116
      7          1           0       -1.446210    2.528854   -0.632087
      8          1           0       -3.282020    1.454343    0.503764
      9          1           0       -2.092649   -0.822074    1.469083
     10          1           0       -3.486923   -0.994204    0.418758
     11          1           0        0.057528    1.047828   -1.935726
     12          1           0        0.169231   -1.207683   -1.746829
     13          1           0       -2.132404   -1.318363   -1.546324
     14          1           0       -1.534534   -2.436262   -0.327132
     15          6           0        0.716641   -0.470708    1.551966
     16          6           0        0.862900   -1.264979    0.274427
     17          1           0        0.549920   -0.955102    2.511169
     18          1           0        0.766306   -2.343321    0.443899
     19          6           0        2.267636   -0.935217   -0.307517
     20          1           0        3.039458   -1.259338    0.398554
     21          1           0        2.424242   -1.498287   -1.236154
     22          6           0        0.843594    0.852001    1.392785
     23          1           0        0.780145    1.572240    2.204115
     24          6           0        1.068138    1.281056   -0.039061
     25          1           0        1.146978    2.369349   -0.136763
     26          6           0        2.359537    0.594607   -0.563515
     27          1           0        3.233257    1.023470   -0.061341
     28          1           0        2.472773    0.807458   -1.634143
 ---------------------------------------------------------------------
                    Distance matrix (angstroms):
                    1          2          3          4          5
     1  C    0.000000
     2  C    1.506127   0.000000
     3  C    2.490880   1.335648   0.000000
     4  C    3.008515   2.525116   1.509746   0.000000
     5  C    2.591856   2.954853   2.588976   1.567073   0.000000
     6  C    1.535336   2.498136   2.834120   2.602617   1.542177
     7  H    3.479780   2.099194   1.090878   2.210535   3.564538
     8  H    2.234801   1.089334   2.100393   3.503612   4.043530
     9  H    1.099906   2.147179   3.054919   3.446856   2.956253
    10  H    1.098251   2.148431   3.325067   3.996971   3.520811
    11  H    3.845416   3.268948   2.127103   1.100586   2.189256
    12  H    3.472005   3.838241   3.355253   2.169386   1.098561
    13  H    2.139115   2.794117   3.065966   2.950743   2.151601
    14  H    2.178512   3.452817   3.893699   3.532508   2.169247
    15  C    3.360514   3.681729   3.499753   2.869500   2.531240
    16  C    3.383935   3.919570   3.618227   2.546036   1.564152
    17  H    3.658757   4.196913   4.292981   3.874593   3.385349
    18  H    3.652464   4.532545   4.467900   3.500667   2.192010
    19  C    4.792869   5.051593   4.389106   3.006282   2.503776
    20  H    5.531198   5.869104   5.281631   3.985691   3.467382
    21  H    5.235989   5.578266   4.903290   3.438269   2.737894
    22  C    3.733071   3.490936   2.975125   2.491104   2.925261
    23  H    4.283658   3.861594   3.445757   3.331600   3.940947
    24  C    4.033109   3.529161   2.519881   1.570862   2.544201
    25  H    4.717728   3.894228   2.735862   2.196116   3.501031
    26  C    5.067556   4.852981   3.869400   2.530699   2.911782
    27  H    5.942769   5.669775   4.681139   3.487983   3.943383
    28  H    5.537379   5.226355   4.111427   2.720416   3.220128
                    6          7          8          9         10
     6  C    0.000000
     7  H    3.903281   0.000000
     8  H    3.461655   2.411417   0.000000
     9  H    2.181649   4.007682   2.743815   0.000000
    10  H    2.166658   4.204845   2.458576   1.754084   0.000000
    11  H    3.230464   2.480754   4.155592   4.439878   4.719812
    12  H    2.126318   4.220664   4.905373   3.950555   4.254739
    13  H    1.098045   4.013449   3.634883   3.056233   2.408599
    14  H    1.098319   4.975256   4.345216   2.478605   2.539233
    15  C    3.280819   4.294809   4.560026   2.832391   4.384992
    16  C    2.614678   4.532872   4.962627   3.218484   4.360632
    17  H    3.794742   5.099269   4.951653   2.843732   4.547067
    18  H    2.761087   5.458119   5.551106   3.396884   4.462141
    19  C    3.906137   5.088987   6.096463   4.709692   5.800509
    20  H    4.747996   5.961026   6.880132   5.260775   6.531796
    21  H    4.082680   5.618110   6.656333   5.308284   6.159116
    22  C    3.852947   3.486423   4.263082   3.380809   4.807346
    23  H    4.703953   3.730390   4.405256   3.811293   5.289802
    24  C    3.804286   2.868907   4.387318   4.085123   5.112239
    25  H    4.664731   2.644884   4.567662   4.822769   5.752837
    26  C    4.424358   4.269628   5.805635   5.095135   6.137612
    27  H    5.422951   4.948671   6.553917   5.840677   7.032946
    28  H    4.739986   4.396106   6.173066   5.755733   6.555789
                   11         12         13         14         15
    11  H    0.000000
    12  H    2.266162   0.000000
    13  H    3.247506   2.313002   0.000000
    14  H    4.154650   2.535303   1.758856   0.000000
    15  C    3.860619   3.424155   4.293597   3.530184   0.000000
    16  C    3.298860   2.137741   3.505685   2.735227   1.511411
    17  H    4.901944   4.282437   4.877507   3.820306   1.087430
    18  H    4.202960   2.538791   3.662519   2.428372   2.176455
    19  C    3.386460   2.559133   4.587134   4.087789   2.465569
    20  H    4.434387   3.583788   5.525775   4.778407   2.710678
    21  H    3.545904   2.330303   4.570733   4.168696   3.427161
    22  C    3.425673   3.815002   4.712261   4.407525   1.338288
    23  H    4.235029   4.869409   5.559165   5.275703   2.145453
    24  C    2.161728   3.149338   4.390022   4.547014   2.392403
    25  H    2.483865   4.042704   5.132293   5.506418   3.332104
    26  C    2.718017   3.073422   4.980251   4.940226   2.882579
    27  H    3.687705   4.148152   6.039841   5.896798   3.341958
    28  H    2.445841   3.062645   5.072917   5.318694   3.856034
                   16         17         18         19         20
    16  C    0.000000
    17  H    2.279692   0.000000
    18  H    1.095843   2.499516   0.000000
    19  C    1.555855   3.300899   2.191204   0.000000
    20  H    2.180102   3.279253   2.518788   1.095126   0.000000
    21  H    2.184966   4.224993   2.507072   1.097242   1.762912
    22  C    2.394306   2.145378   3.334133   2.848345   3.204382
    23  H    3.432252   2.556314   4.293037   3.848151   4.047515
    24  C    2.573459   3.431126   3.668850   2.534311   3.245183
    25  H    3.668531   4.291852   4.763543   3.493592   4.127398
    26  C    2.529848   3.889729   3.490657   1.553815   2.196584
    27  H    3.311847   4.211039   4.204331   2.197608   2.336723
    28  H    3.244892   4.897713   4.142185   2.199758   2.953749
                   21         22         23         24         25
    21  H    0.000000
    22  C    3.864404   0.000000
    23  H    4.895574   1.086750   0.000000
    24  C    3.316142   1.511519   2.280256   0.000000
    25  H    4.218847   2.175754   2.499932   1.095510   0.000000
    26  C    2.199281   2.488261   3.333170   1.553697   2.191375
    27  H    2.897231   2.802565   3.383962   2.180502   2.483876
    28  H    2.340344   3.437805   4.264048   2.177517   2.537594
                   26         27         28
    26  C    0.000000
    27  H    1.095212   0.000000
    28  H    1.097439   1.760313   0.000000
 Symmetry turned off by external request.
 Stoichiometry    C12H16
 Framework group  C1[X(C12H16)]
 Deg. of freedom    78
 Full point group                 C1      NOp   1
 Rotational constants (GHZ):           1.7166404           0.9213692           0.8182222
 Leave Link  202 at Thu Jun  4 12:05:37 2020, MaxMem=   104857600 cpu:               0.0 elap:               0.0
 (Enter /home/roberto/software/g16A03/g16/l301.exe)
 Standard basis: 6-31G(d) (6D, 7F)
 Ernie: Thresh=  0.10000D-02 Tol=  0.10000D-05 Strict=F.
   212 basis functions,   400 primitive gaussians,   212 cartesian basis functions
    44 alpha electrons       44 beta electrons
       nuclear repulsion energy       737.1159722346 Hartrees.
 IExCor=  402 DFT=T Ex+Corr=B3LYP ExCW=0 ScaHFX=  0.200000
 ScaDFX=  0.800000  0.720000  1.000000  0.810000 ScalE2=  1.000000  1.000000
 IRadAn=      5 IRanWt=     -1 IRanGd=            0 ICorTp=0 IEmpDi=  4
 NAtoms=   28 NActive=   28 NUniq=   28 SFac= 1.00D+00 NAtFMM=   60 NAOKFM=F Big=F
 Integral buffers will be    131072 words long.
 Raffenetti 2 integral format.
 Two-electron integral symmetry is turned off.
 Using the following non-standard input for PCM:
 qrep pcmdoc geomview  nodis nocav g03defaults tsare=0.075
 Warning! Using old PCM defaults because the g03defaults keyword was found.
 These settings can be overridden by following keywords.
 nsfe=28
 NVESolv=36  SolvMW=84.1595   Rsolv=2.815
 eps=2.08767670941439 RhoS=0.890882252660888
 --- end of non-standard input.
 Reading user-defined spheres from input:
 ISph  on   Nord    Re0     Alpha      Xe            Ye            Ze
 --- end of user-defined spheres data.
 ------------------------------------------------------------------------------
 Polarizable Continuum Model (PCM)
 =================================
 Model                : PCM.
 Atomic radii         : UA0 (Simple United Atom Topological Model).
 Polarization charges : Total charges.
 Charge compensation  : None.
 Solution method      : On-the-fly selection.
 Cavity type          : SES (Solvent Excluding Surface) (Alpha=1.000).
 Cavity algorithm     : GePol (RMin=0.200 OFac=0.890).
                        User-defined sphere list used, NSphG=   28.
                        Tesserae with average area of 0.075 Ang**2.
                        Smoothing algorithm: None.
                        Polarization charges: point-like.
                        Self-potential: constant (ISelfS= 1).
                        Self-field    : global E.n sum rule (ISelfD= 3).
 Solvent              : CycloHexane, Eps=   2.087677 Eps(inf)=   2.035188
                        RSolv=   2.815000 Ang.
 ------------------------------------------------------------------------------
 GePol: Number of generator spheres                  =      28
 GePol: Total number of spheres                      =     232
 GePol: Number of exposed spheres                    =     160 ( 68.97%)
 GePol: Number of tesserae                           =    4505
 GePol: Average area of tesserae                     =       0.04 Ang**2
 GePol: Minimum area of tessera                      =   0.10D-02 Ang**2
 GePol: Maximum area of tessera                      =    0.11374 Ang**2
 GePol: Number of small tesserae                     =       0
 GePol: Fraction of small tesserae (<1% of avg)      =       0.00%
 GePol: Total count of vertices                      =   16131
 GePol: Maximum number of vertices in a tessera      =       8
 GePol: Cavity surface area                          =    201.232 Ang**2
 GePol: Cavity volume                                =    222.766 Ang**3
 Leave Link  301 at Thu Jun  4 12:05:38 2020, MaxMem=   104857600 cpu:               0.3 elap:               0.3
 (Enter /home/roberto/software/g16A03/g16/l302.exe)
 NPDir=0 NMtPBC=     1 NCelOv=     1 NCel=       1 NClECP=     1 NCelD=      1
         NCelK=      1 NCelE2=     1 NClLst=     1 CellRange=     0.0.
 One-electron integrals computed using PRISM.
 NBasis=   212 RedAO= T EigKep=  9.65D-04  NBF=   212
 NBsUse=   212 1.00D-06 EigRej= -1.00D+00 NBFU=   212
 Precomputing XC quadrature grid using
 IXCGrd= 4 IRadAn=           5 IRanWt=          -1 IRanGd=           0 AccXCQ= 0.00D+00.
 Generated NRdTot=       0 NPtTot=           0 NUsed=           0 NTot=          32
 NSgBfM=   212   212   212   212   212 MxSgAt=    28 MxSgA2=    28.
 Leave Link  302 at Thu Jun  4 12:05:38 2020, MaxMem=   104857600 cpu:               1.2 elap:               0.3
 (Enter /home/roberto/software/g16A03/g16/l303.exe)
 DipDrv:  MaxL=1.
 Leave Link  303 at Thu Jun  4 12:05:38 2020, MaxMem=   104857600 cpu:               0.0 elap:               0.0
 (Enter /home/roberto/software/g16A03/g16/l401.exe)
 ExpMin= 1.61D-01 ExpMax= 3.05D+03 ExpMxC= 4.57D+02 IAcc=3 IRadAn=         5 AccDes= 0.00D+00
 Harris functional with IExCor=  402 and IRadAn=       5 diagonalized for initial guess.
 HarFok:  IExCor=  402 AccDes= 0.00D+00 IRadAn=         5 IDoV= 1 UseB2=F ITyADJ=14
 ICtDFT=  3500011 ScaDFX=  1.000000  1.000000  1.000000  1.000000
 FoFCou: FMM=F IPFlag=           0 FMFlag=      100000 FMFlg1=           0
         NFxFlg=           0 DoJE=T BraDBF=F KetDBF=T FulRan=T
         wScrn=  0.000000 ICntrl=       500 IOpCl=  0 I1Cent=   200000004 NGrid=           0
         NMat0=    1 NMatS0=      1 NMatT0=    0 NMatD0=    1 NMtDS0=    0 NMtDT0=    0
 Symmetry not used in FoFCou.
 Harris En= -466.914939552472    
 JPrj=0 DoOrth=F DoCkMO=F.
 Leave Link  401 at Thu Jun  4 12:05:40 2020, MaxMem=   104857600 cpu:              12.4 elap:               2.1
 (Enter /home/roberto/software/g16A03/g16/l502.exe)
 Two-electron integral symmetry not used.
 Closed shell SCF:
 Using DIIS extrapolation, IDIIS=  1040.
 NGot=   104857600 LenX=   104764340 LenY=   104718955
 Requested convergence on RMS density matrix=1.00D-08 within 128 cycles.
 Requested convergence on MAX density matrix=1.00D-06.
 Requested convergence on             energy=1.00D-06.
 No special actions if energy rises.
 Fock matrices will be formed incrementally for  20 cycles.

 Cycle   1  Pass 1  IDiag  1:
 FoFJK:  IHMeth= 1 ICntrl=       0 DoSepK=F KAlg= 0 I1Cent=           0 FoldK=F
 IRaf= 960000000 NMat=       1 IRICut=       1 DoRegI=T DoRafI=F ISym2E= 0 IDoP0=0 IntGTp=1.
 FoFCou: FMM=F IPFlag=           0 FMFlag=      100000 FMFlg1=           0
         NFxFlg=           0 DoJE=F BraDBF=F KetDBF=F FulRan=T
         wScrn=  0.000000 ICntrl=         0 IOpCl=  0 I1Cent=           0 NGrid=           0
         NMat0=    1 NMatS0=      1 NMatT0=    0 NMatD0=    1 NMtDS0=    0 NMtDT0=    0
 Symmetry not used in FoFCou.
[...]
   17               5.15  -0.018   -0.11    0.00    0.00
   18               4.00  -0.010   -0.06    0.00    0.00
   19               1.34   0.002    0.00    0.00    0.00
   20               4.59  -0.009   -0.04    0.00    0.00
   21               4.60  -0.009   -0.05    0.00    0.00
   22               1.34   0.004   -0.03    0.00    0.00
   23               5.75  -0.019   -0.10    0.00    0.00
   24               0.00   0.000    0.00    0.00    0.00
   25               4.27  -0.011   -0.06    0.00    0.00
   26               1.27   0.002    0.00    0.00    0.00
   27               4.92  -0.010   -0.05    0.00    0.00
   28               4.26  -0.009   -0.05    0.00    0.00
 Added spheres:    92.71   0.109   -0.43    0.00    0.00
 --------------------------------------------------------------------
 After PCM corrections, the energy is  -466.828660106     a.u.
 --------------------------------------------------------------------
 Leave Link  502 at Thu Jun  4 12:15:25 2020, MaxMem=   104857600 cpu:             574.0 elap:             103.1
 (Enter /home/roberto/software/g16A03/g16/l601.exe)
 Copying SCF densities to generalized density rwf, IOpCl= 0 IROHF=0.

 **********************************************************************

            Population analysis using the SCF density.

 **********************************************************************

 Alpha  occ. eigenvalues --  -10.17447 -10.17423 -10.17174 -10.17146 -10.16514
 Alpha  occ. eigenvalues --  -10.16487 -10.16446 -10.16322 -10.16206 -10.16091
 Alpha  occ. eigenvalues --  -10.16017 -10.15926  -0.85148  -0.79286  -0.74864
 Alpha  occ. eigenvalues --   -0.72367  -0.71440  -0.69828  -0.60476  -0.58691
 Alpha  occ. eigenvalues --   -0.57235  -0.56644  -0.49741  -0.49429  -0.47093
 Alpha  occ. eigenvalues --   -0.45082  -0.44161  -0.42793  -0.40652  -0.39225
 Alpha  occ. eigenvalues --   -0.38020  -0.37506  -0.36179  -0.35833  -0.35295
 Alpha  occ. eigenvalues --   -0.34066  -0.33831  -0.31460  -0.30978  -0.27754
 Alpha  occ. eigenvalues --   -0.27529  -0.27042  -0.22442  -0.22204
 Alpha virt. eigenvalues --    0.03534   0.04529   0.09819   0.13030   0.13876
 Alpha virt. eigenvalues --    0.14369   0.14634   0.16943   0.17574   0.17943
 Alpha virt. eigenvalues --    0.18999   0.19250   0.19469   0.20547   0.21124
 Alpha virt. eigenvalues --    0.21808   0.23028   0.23101   0.24584   0.24803
 Alpha virt. eigenvalues --    0.25132   0.25581   0.26945   0.27317   0.28336
 Alpha virt. eigenvalues --    0.29655   0.31602   0.35999   0.37341   0.41791
 Alpha virt. eigenvalues --    0.43530   0.47425   0.49864   0.50434   0.52173
 Alpha virt. eigenvalues --    0.54724   0.56078   0.56649   0.58827   0.60015
 Alpha virt. eigenvalues --    0.61143   0.62343   0.63747   0.64458   0.65301
 Alpha virt. eigenvalues --    0.66812   0.67058   0.67711   0.69407   0.69981
 Alpha virt. eigenvalues --    0.70911   0.73830   0.74527   0.76434   0.79113
 Alpha virt. eigenvalues --    0.80961   0.81473   0.83545   0.85260   0.85845
 Alpha virt. eigenvalues --    0.86105   0.87015   0.87817   0.88170   0.88642
 Alpha virt. eigenvalues --    0.90441   0.90532   0.91363   0.91781   0.93245
 Alpha virt. eigenvalues --    0.93640   0.94050   0.95433   0.97268   0.97512
 Alpha virt. eigenvalues --    0.99233   1.00055   1.00679   1.02554   1.06714
 Alpha virt. eigenvalues --    1.10443   1.12557   1.15276   1.20116   1.23667
 Alpha virt. eigenvalues --    1.24538   1.27608   1.30478   1.36370   1.40204
 Alpha virt. eigenvalues --    1.44134   1.47303   1.49283   1.52243   1.55133
 Alpha virt. eigenvalues --    1.62651   1.63057   1.65683   1.68055   1.72364
 Alpha virt. eigenvalues --    1.73099   1.74772   1.76680   1.77763   1.78147
 Alpha virt. eigenvalues --    1.79005   1.83484   1.84459   1.90165   1.90999
 Alpha virt. eigenvalues --    1.92199   1.93846   1.94822   1.97102   1.99387
 Alpha virt. eigenvalues --    2.01860   2.02890   2.05030   2.05861   2.07699
 Alpha virt. eigenvalues --    2.08786   2.12590   2.15767   2.17225   2.18330
 Alpha virt. eigenvalues --    2.21556   2.23249   2.27273   2.28497   2.29339
 Alpha virt. eigenvalues --    2.36078   2.37279   2.38406   2.41016   2.42885
 Alpha virt. eigenvalues --    2.44404   2.46574   2.48725   2.49317   2.51805
 Alpha virt. eigenvalues --    2.55378   2.58525   2.61168   2.63363   2.66100
 Alpha virt. eigenvalues --    2.67485   2.71256   2.72443   2.76792   2.77956
 Alpha virt. eigenvalues --    2.81854   2.85157   2.89821   2.96512   2.97812
 Alpha virt. eigenvalues --    3.07326   4.13104   4.20768   4.22870   4.29029
 Alpha virt. eigenvalues --    4.32732   4.44331   4.47480   4.55097   4.59252
 Alpha virt. eigenvalues --    4.62276   4.75563   4.98701
          Condensed to atoms (all electrons):
               1          2          3          4          5          6
     1  C    5.075661   0.370192  -0.041078  -0.027467  -0.031411   0.364099
     2  C    0.370192   4.922085   0.684994  -0.028925  -0.018700  -0.040450
     3  C   -0.041078   0.684994   4.915318   0.378090  -0.031639  -0.013069
     4  C   -0.027467  -0.028925   0.378090   5.057468   0.348127  -0.036253
     5  C   -0.031411  -0.018700  -0.031639   0.348127   5.043090   0.365371
     6  C    0.364099  -0.040450  -0.013069  -0.036253   0.365371   5.067020
     7  H    0.006014  -0.042405   0.361946  -0.050899   0.004508  -0.000033
     8  H   -0.050653   0.365265  -0.035644   0.005184   0.000089   0.003838
     9  H    0.362081  -0.031490  -0.006097   0.002005  -0.007106  -0.031340
    10  H    0.371597  -0.035361   0.003437   0.000159   0.004588  -0.032942
    11  H    0.000495   0.002144  -0.038580   0.359387  -0.034356   0.001828
    12  H    0.004934   0.000144   0.003744  -0.033251   0.367512  -0.044530
    13  H   -0.041415  -0.002510   0.001512  -0.000645  -0.034543   0.375855
    14  H   -0.034396   0.004889   0.000420   0.004346  -0.038008   0.369065
    15  C   -0.001080   0.000168  -0.000761  -0.026534  -0.032965  -0.003670
    16  C   -0.003520   0.000436  -0.001775  -0.039677   0.361570  -0.035834
    17  H   -0.000454  -0.000036  -0.000066  -0.000114   0.003177   0.000333
    18  H   -0.000201  -0.000007  -0.000116   0.005439  -0.042752  -0.004491
    19  C   -0.000020  -0.000005   0.000344  -0.022458  -0.033103   0.003889
    20  H    0.000003   0.000000   0.000008   0.000202   0.004738  -0.000160
    21  H    0.000000   0.000000  -0.000013   0.001268  -0.006382   0.000139
    22  C   -0.000592   0.001728  -0.000081  -0.038846  -0.030718  -0.000043
    23  H    0.000032  -0.000328   0.000776   0.002712  -0.000032  -0.000014
    24  C    0.000294  -0.003315  -0.051734   0.368184  -0.045726   0.003074
    25  H   -0.000010   0.000067  -0.002998  -0.041437   0.005435  -0.000103
    26  C    0.000008  -0.000043   0.004794  -0.035973  -0.021010   0.000069
    27  H    0.000000   0.000000  -0.000158   0.004326   0.000163   0.000005
    28  H   -0.000001   0.000000   0.000147  -0.005537   0.001564  -0.000021
               7          8          9         10         11         12
     1  C    0.006014  -0.050653   0.362081   0.371597   0.000495   0.004934
     2  C   -0.042405   0.365265  -0.031490  -0.035361   0.002144   0.000144
     3  C    0.361946  -0.035644  -0.006097   0.003437  -0.038580   0.003744
     4  C   -0.050899   0.005184   0.002005   0.000159   0.359387  -0.033251
     5  C    0.004508   0.000089  -0.007106   0.004588  -0.034356   0.367512
     6  C   -0.000033   0.003838  -0.031340  -0.032942   0.001828  -0.044530
     7  H    0.588670  -0.007766  -0.000191  -0.000133  -0.002507  -0.000138
     8  H   -0.007766   0.574953   0.002237  -0.004316  -0.000177   0.000011
     9  H   -0.000191   0.002237   0.575148  -0.037253  -0.000030  -0.000057
    10  H   -0.000133  -0.004316  -0.037253   0.582104   0.000029  -0.000139
    11  H   -0.002507  -0.000177  -0.000030   0.000029   0.612688  -0.009654
    12  H   -0.000138   0.000011  -0.000057  -0.000139  -0.009654   0.624206
    13  H   -0.000092   0.000081   0.005406  -0.006063   0.000233  -0.007090
    14  H    0.000009  -0.000123  -0.003593  -0.001702  -0.000171  -0.000242
    15  C    0.000056   0.000029   0.005441   0.000107   0.000800   0.004876
    16  C   -0.000109  -0.000009   0.001976  -0.000019   0.003381  -0.047668
    17  H    0.000000  -0.000001   0.000892   0.000003   0.000016  -0.000168
    18  H    0.000003   0.000000   0.000122  -0.000018  -0.000168  -0.001075
    19  C   -0.000005   0.000000  -0.000007   0.000002   0.000433  -0.006064
    20  H    0.000000   0.000000   0.000001   0.000000   0.000010   0.000201
    21  H    0.000000   0.000000  -0.000002   0.000000  -0.000343   0.006070
    22  C   -0.000217  -0.000087   0.000825   0.000078   0.005765   0.001017
    23  H   -0.000042  -0.000004   0.000020   0.000000  -0.000162   0.000019
    24  C   -0.001397  -0.000039   0.000284  -0.000024  -0.043023   0.000489
    25  H    0.003621  -0.000004  -0.000003   0.000000  -0.002656  -0.000208
    26  C   -0.000012   0.000002  -0.000007   0.000001  -0.005079   0.001171
    27  H    0.000002   0.000000   0.000000   0.000000  -0.000014  -0.000019
    28  H   -0.000009   0.000000  -0.000001   0.000000   0.005536  -0.000687
              13         14         15         16         17         18
     1  C   -0.041415  -0.034396  -0.001080  -0.003520  -0.000454  -0.000201
     2  C   -0.002510   0.004889   0.000168   0.000436  -0.000036  -0.000007
     3  C    0.001512   0.000420  -0.000761  -0.001775  -0.000066  -0.000116
     4  C   -0.000645   0.004346  -0.026534  -0.039677  -0.000114   0.005439
     5  C   -0.034543  -0.038008  -0.032965   0.361570   0.003177  -0.042752
     6  C    0.375855   0.369065  -0.003670  -0.035834   0.000333  -0.004491
     7  H   -0.000092   0.000009   0.000056  -0.000109   0.000000   0.000003
     8  H    0.000081  -0.000123   0.000029  -0.000009  -0.000001   0.000000
     9  H    0.005406  -0.003593   0.005441   0.001976   0.000892   0.000122
    10  H   -0.006063  -0.001702   0.000107  -0.000019   0.000003  -0.000018
    11  H    0.000233  -0.000171   0.000800   0.003381   0.000016  -0.000168
    12  H   -0.007090  -0.000242   0.004876  -0.047668  -0.000168  -0.001075
    13  H    0.586161  -0.034747  -0.000030   0.004849   0.000006   0.000058
    14  H   -0.034747   0.591661   0.000123  -0.007315  -0.000059   0.005770
    15  C   -0.000030   0.000123   4.969652   0.384265   0.368954  -0.037646
    16  C    0.004849  -0.007315   0.384265   4.988722  -0.042916   0.373882
    17  H    0.000006  -0.000059   0.368954  -0.042916   0.566467  -0.005402
    18  H    0.000058   0.005770  -0.037646   0.373882  -0.005402   0.603073
    19  C   -0.000182   0.000120  -0.036199   0.364864   0.003212  -0.038238
    20  H    0.000003  -0.000007  -0.004156  -0.032524   0.000504  -0.002174
    21  H   -0.000016  -0.000001   0.005128  -0.033484  -0.000159  -0.002072
    22  C   -0.000045   0.000016   0.664415  -0.048367  -0.045675   0.006485
    23  H    0.000000   0.000000  -0.044813   0.005103  -0.005817  -0.000123
    24  C    0.000041  -0.000061  -0.052128   0.002108   0.005364   0.000041
    25  H    0.000002   0.000003   0.006650  -0.000001  -0.000122  -0.000003
    26  C   -0.000007  -0.000005  -0.030852  -0.041503  -0.000189   0.005367
    27  H    0.000000   0.000000   0.001776   0.002072   0.000007  -0.000125
    28  H    0.000000  -0.000001   0.000909   0.000520   0.000017  -0.000153
              19         20         21         22         23         24
     1  C   -0.000020   0.000003   0.000000  -0.000592   0.000032   0.000294
     2  C   -0.000005   0.000000   0.000000   0.001728  -0.000328  -0.003315
     3  C    0.000344   0.000008  -0.000013  -0.000081   0.000776  -0.051734
     4  C   -0.022458   0.000202   0.001268  -0.038846   0.002712   0.368184
     5  C   -0.033103   0.004738  -0.006382  -0.030718  -0.000032  -0.045726
     6  C    0.003889  -0.000160   0.000139  -0.000043  -0.000014   0.003074
     7  H   -0.000005   0.000000   0.000000  -0.000217  -0.000042  -0.001397
     8  H    0.000000   0.000000   0.000000  -0.000087  -0.000004  -0.000039
     9  H   -0.000007   0.000001  -0.000002   0.000825   0.000020   0.000284
    10  H    0.000002   0.000000   0.000000   0.000078   0.000000  -0.000024
    11  H    0.000433   0.000010  -0.000343   0.005765  -0.000162  -0.043023
    12  H   -0.006064   0.000201   0.006070   0.001017   0.000019   0.000489
    13  H   -0.000182   0.000003  -0.000016  -0.000045   0.000000   0.000041
    14  H    0.000120  -0.000007  -0.000001   0.000016   0.000000  -0.000061
    15  C   -0.036199  -0.004156   0.005128   0.664415  -0.044813  -0.052128
    16  C    0.364864  -0.032524  -0.033484  -0.048367   0.005103   0.002108
    17  H    0.003212   0.000504  -0.000159  -0.045675  -0.005817   0.005364
    18  H   -0.038238  -0.002174  -0.002072   0.006485  -0.000123   0.000041
    19  C    5.114421   0.371669   0.365680  -0.031279  -0.000144  -0.037947
    20  H    0.371669   0.574619  -0.034753   0.002569  -0.000020   0.000732
    21  H    0.365680  -0.034753   0.583982   0.000984   0.000017   0.001615
    22  C   -0.031279   0.002569   0.000984   4.977491   0.369706   0.377536
    23  H   -0.000144  -0.000020   0.000017   0.369706   0.562067  -0.041710
    24  C   -0.037947   0.000732   0.001615   0.377536  -0.041710   5.008752
    25  H    0.005227  -0.000142  -0.000138  -0.038327  -0.005372   0.374105
    26  C    0.344287  -0.031198  -0.032306  -0.033418   0.003277   0.357115
    27  H   -0.031511  -0.009452   0.003633  -0.004168   0.000347  -0.029266
    28  H   -0.031547   0.004125  -0.008036   0.004913  -0.000153  -0.035488
              25         26         27         28
     1  C   -0.000010   0.000008   0.000000  -0.000001
     2  C    0.000067  -0.000043   0.000000   0.000000
     3  C   -0.002998   0.004794  -0.000158   0.000147
     4  C   -0.041437  -0.035973   0.004326  -0.005537
     5  C    0.005435  -0.021010   0.000163   0.001564
     6  C   -0.000103   0.000069   0.000005  -0.000021
     7  H    0.003621  -0.000012   0.000002  -0.000009
     8  H   -0.000004   0.000002   0.000000   0.000000
     9  H   -0.000003  -0.000007   0.000000  -0.000001
    10  H    0.000000   0.000001   0.000000   0.000000
    11  H   -0.002656  -0.005079  -0.000014   0.005536
    12  H   -0.000208   0.001171  -0.000019  -0.000687
    13  H    0.000002  -0.000007   0.000000   0.000000
    14  H    0.000003  -0.000005   0.000000  -0.000001
    15  C    0.006650  -0.030852   0.001776   0.000909
    16  C   -0.000001  -0.041503   0.002072   0.000520
    17  H   -0.000122  -0.000189   0.000007   0.000017
    18  H   -0.000003   0.005367  -0.000125  -0.000153
    19  C    0.005227   0.344287  -0.031511  -0.031547
    20  H   -0.000142  -0.031198  -0.009452   0.004125
    21  H   -0.000138  -0.032306   0.003633  -0.008036
    22  C   -0.038327  -0.033418  -0.004168   0.004913
    23  H   -0.005372   0.003277   0.000347  -0.000153
    24  C    0.374105   0.357115  -0.029266  -0.035488
    25  H    0.600142  -0.037878  -0.002804  -0.001389
    26  C   -0.037878   5.114496   0.374059   0.366587
    27  H   -0.002804   0.374059   0.568342  -0.035404
    28  H   -0.001389   0.366587  -0.035404   0.585621
 Mulliken charges:
               1
     1  C   -0.323112
     2  C   -0.148538
     3  C   -0.131722
     4  C   -0.148884
     5  C   -0.101479
     6  C   -0.311633
     7  H    0.141127
     8  H    0.147133
     9  H    0.160737
    10  H    0.155866
    11  H    0.144176
    12  H    0.136595
    13  H    0.153177
    14  H    0.144010
    15  C   -0.142515
    16  C   -0.159027
    17  H    0.152226
    18  H    0.134527
    19  C   -0.305439
    20  H    0.155201
    21  H    0.149189
    22  C   -0.141665
    23  H    0.154657
    24  C   -0.157875
    25  H    0.138342
    26  C   -0.301753
    27  H    0.158189
    28  H    0.148487
 Sum of Mulliken charges =   0.00000
 Mulliken charges with hydrogens summed into heavy atoms:
               1
     1  C   -0.006508
     2  C   -0.001405
     3  C    0.009405
     4  C   -0.004708
     5  C    0.035116
     6  C   -0.014446
    15  C    0.009711
    16  C   -0.024500
    19  C   -0.001049
    22  C    0.012993
    24  C   -0.019533
    26  C    0.004923
 Electronic spatial extent (au):  <R**2>=           1709.5990
 Charge=              0.0000 electrons
 Dipole moment (field-independent basis, Debye):
    X=              0.2341    Y=             -0.2005    Z=             -0.1566  Tot=              0.3457
 Quadrupole moment (field-independent basis, Debye-Ang):
   XX=            -72.3978   YY=            -69.7042   ZZ=            -71.5486
   XY=              0.7181   XZ=             -1.3427   YZ=             -0.3644
 Traceless Quadrupole moment (field-independent basis, Debye-Ang):
   XX=             -1.1809   YY=              1.5127   ZZ=             -0.3318
   XY=              0.7181   XZ=             -1.3427   YZ=             -0.3644
 Octapole moment (field-independent basis, Debye-Ang**2):
  XXX=             -6.3432  YYY=              3.5389  ZZZ=              1.9312  XYY=              0.2063
  XXY=             -0.0284  XXZ=              2.3333  XZZ=              1.9917  YZZ=             -1.4316
  YYZ=              1.3923  XYZ=             -0.3934
 Hexadecapole moment (field-independent basis, Debye-Ang**3):
 XXXX=          -1286.3454 YYYY=           -588.8866 ZZZZ=           -394.1212 XXXY=              0.2663
 XXXZ=            -12.1403 YYYX=             -2.8219 YYYZ=             -2.4723 ZZZX=             -4.0339
 ZZZY=              0.0296 XXYY=           -315.8878 XXZZ=           -295.3320 YYZZ=           -165.2270
 XXYZ=              4.3498 YYXZ=              1.0389 ZZXY=              2.7921
 N-N= 7.371159722346D+02 E-N=-2.555056169829D+03  KE= 4.623808566753D+02
 No NMR shielding tensors so no spin-rotation constants.
 Leave Link  601 at Thu Jun  4 12:15:25 2020, MaxMem=   104857600 cpu:               0.3 elap:               0.1
 (Enter /home/roberto/software/g16A03/g16/l9999.exe)
 1\1\GINC-ROBERTO-XPS-15-9570\SP\RB3LYP\6-31G(d)\C12H16\ROBERTO\04-Jun-
 2020\0\\#p b3lyp/6-31g(d) # scrf=(iefpcm,solvent=Cyclohexane,read) nos
 ym\\endo-2 xp-pcm for eta=3\\0,1\C,0,-2.454531,-0.62092,0.450078\C,0,-
 2.429115,0.860192,0.177901\C,0,-1.411688,1.453495,-0.452012\C,0,-0.144
 149,0.761548,-0.892337\C,0,-0.185628,-0.801613,-0.78974\C,0,-1.604183,
 -1.370946,-0.585116\H,0,-1.44621,2.528854,-0.632087\H,0,-3.28202,1.454
 343,0.503764\H,0,-2.092649,-0.822074,1.469083\H,0,-3.486923,-0.994204,
 0.418758\H,0,0.057528,1.047828,-1.935726\H,0,0.169231,-1.207683,-1.746
 829\H,0,-2.132404,-1.318363,-1.546324\H,0,-1.534534,-2.436262,-0.32713
 2\C,0,0.716641,-0.470708,1.551966\C,0,0.8629,-1.264979,0.274427\H,0,0.
 54992,-0.955102,2.511169\H,0,0.766306,-2.343321,0.443899\C,0,2.267636,
 -0.935217,-0.307517\H,0,3.039458,-1.259338,0.398554\H,0,2.424242,-1.49
 8287,-1.236154\C,0,0.843594,0.852001,1.392785\H,0,0.780145,1.57224,2.2
 04115\C,0,1.068138,1.281056,-0.039061\H,0,1.146978,2.369349,-0.136763\
 C,0,2.359537,0.594607,-0.563515\H,0,3.233257,1.02347,-0.061341\H,0,2.4
 72773,0.807458,-1.634143\\Version=ES64L-G16RevA.03\HF=-466.8286601\RMS
 D=5.880e-09\Dipole=0.0921039,-0.0788761,-0.0616143\Quadrupole=-0.87797
 ,1.1246303,-0.2466603,0.5338699,-0.9982984,-0.2709591\PG=C01 [X(C12H16
 )]\\@


 IT PROBABLY IS NOT POSSIBLE FOR A SCIENTIST TO INTERROGATE NATURE 
 FROM A WHOLLY DISINTERESTED VIEWPOINT.
 EVEN IF HE HAS NO PARTICULAR AXE TO GRIND, HE IS LIKELY TO HAVE 
 A DISTINCTIVE WAY OF VIEWING NATURE.

                                                   -- JOHN LOSEE
 Job cpu time:       0 days  0 hours  9 minutes 49.2 seconds.
 Elapsed time:       0 days  0 hours  1 minutes 46.3 seconds.
 File lengths (MBytes):  RWF=    389 Int=      0 D2E=      0 Chk=      8 Scr=      1
 Normal termination of Gaussian 16 at Thu Jun  4 12:15:25 2020.
