 Entering Gaussian System, Link 0=g16
 Input=1_pcm.com
 Output=1_pcm.log
 Initial command:
 /scratch/scicomp/CentOS/7.3.1611/Haswell/software/Gaussian/g16/l1.exe "/scratch/bochen/cyclohexadiene-dimerization/wb97xd-def2tzvp/xp-pcm/meso/Gau-7312.inp" -scrdir="/scratch/bochen/cyclohexadiene-dimerization/wb97xd-def2tzvp/xp-pcm/meso/"
 Entering Link 1 = /scratch/scicomp/CentOS/7.3.1611/Haswell/software/Gaussian/g16/l1.exe PID=      7317.
  
 Copyright (c) 1988-2017, Gaussian, Inc.  All Rights Reserved.
  
 This is part of the Gaussian(R) 16 program.  It is based on
 the Gaussian(R) 09 system (copyright 2009, Gaussian, Inc.),
 the Gaussian(R) 03 system (copyright 2003, Gaussian, Inc.),
 the Gaussian(R) 98 system (copyright 1998, Gaussian, Inc.),
 the Gaussian(R) 94 system (copyright 1995, Gaussian, Inc.),
 the Gaussian 92(TM) system (copyright 1992, Gaussian, Inc.),
 the Gaussian 90(TM) system (copyright 1990, Gaussian, Inc.),
 the Gaussian 88(TM) system (copyright 1988, Gaussian, Inc.),
 the Gaussian 86(TM) system (copyright 1986, Carnegie Mellon
 University), and the Gaussian 82(TM) system (copyright 1983,
 Carnegie Mellon University). Gaussian is a federally registered
 trademark of Gaussian, Inc.
  
 This software contains proprietary and confidential information,
 including trade secrets, belonging to Gaussian, Inc.
  
 This software is provided under written license and may be
 used, copied, transmitted, or stored only in accord with that
 written license.
  
 The following legend is applicable only to US Government
 contracts under FAR:
  
                    RESTRICTED RIGHTS LEGEND
  
 Use, reproduction and disclosure by the US Government is
 subject to restrictions as set forth in subparagraphs (a)
 and (c) of the Commercial Computer Software - Restricted
 Rights clause in FAR 52.227-19.
  
 Gaussian, Inc.
 340 Quinnipiac St., Bldg. 40, Wallingford CT 06492
  
  
 ---------------------------------------------------------------
 Warning -- This program may not be used in any manner that
 competes with the business of Gaussian, Inc. or will provide
 assistance to any competitor of Gaussian, Inc.  The licensee
 of this program is prohibited from giving any competitor of
 Gaussian, Inc. access to this program.  By using this program,
 the user acknowledges that Gaussian, Inc. is engaged in the
 business of creating and licensing software in the field of
 computational chemistry and represents and warrants to the
 licensee that it is not a competitor of Gaussian, Inc. and that
 it will not use this program in any manner prohibited above.
 ---------------------------------------------------------------
  

 Cite this work as:
 Gaussian 16, Revision B.01,
 M. J. Frisch, G. W. Trucks, H. B. Schlegel, G. E. Scuseria, 
 M. A. Robb, J. R. Cheeseman, G. Scalmani, V. Barone, 
 G. A. Petersson, H. Nakatsuji, X. Li, M. Caricato, A. V. Marenich, 
 J. Bloino, B. G. Janesko, R. Gomperts, B. Mennucci, H. P. Hratchian, 
 J. V. Ortiz, A. F. Izmaylov, J. L. Sonnenberg, D. Williams-Young, 
 F. Ding, F. Lipparini, F. Egidi, J. Goings, B. Peng, A. Petrone, 
 T. Henderson, D. Ranasinghe, V. G. Zakrzewski, J. Gao, N. Rega, 
 G. Zheng, W. Liang, M. Hada, M. Ehara, K. Toyota, R. Fukuda, 
 J. Hasegawa, M. Ishida, T. Nakajima, Y. Honda, O. Kitao, H. Nakai, 
 T. Vreven, K. Throssell, J. A. Montgomery, Jr., J. E. Peralta, 
 F. Ogliaro, M. J. Bearpark, J. J. Heyd, E. N. Brothers, K. N. Kudin, 
 V. N. Staroverov, T. A. Keith, R. Kobayashi, J. Normand, 
 K. Raghavachari, A. P. Rendell, J. C. Burant, S. S. Iyengar, 
 J. Tomasi, M. Cossi, J. M. Millam, M. Klene, C. Adamo, R. Cammi, 
 J. W. Ochterski, R. L. Martin, K. Morokuma, O. Farkas, 
 J. B. Foresman, and D. J. Fox, Gaussian, Inc., Wallingford CT, 2016.
 
 ******************************************
 Gaussian 16:  ES64L-G16RevB.01 20-Dec-2017
                 3-Aug-2020 
 ******************************************
 %nproc=24
 Will use up to   24 processors via shared memory.
 %mem=48GB
 ----------------------------------------------------------------------
 #p wb97xd def2tzvp # scrf=(iefpcm,solvent=Cyclohexane,read) nosym 6d 1
 0f
 ----------------------------------------------------------------------
 1/38=1,40=2,172=1/1;
 2/12=2,15=1,17=6,18=5,40=1/2;
 3/5=44,7=101,8=22,11=2,25=1,30=1,70=2203,72=17,74=-58/1,2,3;
 4//1;
 5/5=2,38=5,53=17/2;
 6/7=2,8=2,9=2,10=2,28=1/1;
 99/5=1,9=1/99;
 Leave Link    1 at Mon Aug  3 13:31:04 2020, MaxMem=  6442450944 cpu:               2.6 elap:               0.1
 (Enter /scratch/scicomp/CentOS/7.3.1611/Haswell/software/Gaussian/g16/l101.exe)
 ----------------------------------------------------------------
 cyclohexadiene wb97xd/def2tzvp//wb97xd/def2tzvp xp-pcm for eta=3
 ----------------------------------------------------------------
 Symbolic Z-matrix:
 Charge =  0 Multiplicity = 1
 C                    -1.26822  -0.54427   0.16059 
 C                    -1.16859   0.78436   0.16208 
 C                     0.13106   1.44989  -0.19797 
 C                     1.33067   0.5905    0.19796 
 C                     1.1186   -0.85411  -0.16211 
 C                    -0.10734  -1.37588  -0.16054 
 H                     0.14125   1.61972  -1.28329 
 H                    -2.21319  -1.02808   0.37624 
 H                     2.23915   0.97639  -0.26706 
 H                     1.98327  -1.4751   -0.36447 
 H                    -0.26138  -2.42626  -0.37619 
 H                    -2.03475   1.40329   0.36436 
 H                     0.20415   2.43419   0.26709 
 H                     1.48814   0.65478   1.2833 
 
 ITRead=  0  0  0  0  0  0  0  0  0  0  0  0  0  0
 MicOpt= -1 -1 -1 -1 -1 -1 -1 -1 -1 -1 -1 -1 -1 -1
 NAtoms=     14 NQM=       14 NQMF=       0 NMMI=      0 NMMIF=      0
                NMic=       0 NMicF=      0.
                    Isotopes and Nuclear Properties:
 (Nuclear quadrupole moments (NQMom) in fm**2, nuclear magnetic moments (NMagM)
  in nuclear magnetons)

  Atom         1           2           3           4           5           6           7           8           9          10
 IAtWgt=          12          12          12          12          12          12           1           1           1           1
 AtmWgt=  12.0000000  12.0000000  12.0000000  12.0000000  12.0000000  12.0000000   1.0078250   1.0078250   1.0078250   1.0078250
 NucSpn=           0           0           0           0           0           0           1           1           1           1
 AtZEff=  -0.0000000  -0.0000000  -0.0000000  -0.0000000  -0.0000000  -0.0000000  -0.0000000  -0.0000000  -0.0000000  -0.0000000
 NQMom=    0.0000000   0.0000000   0.0000000   0.0000000   0.0000000   0.0000000   0.0000000   0.0000000   0.0000000   0.0000000
 NMagM=    0.0000000   0.0000000   0.0000000   0.0000000   0.0000000   0.0000000   2.7928460   2.7928460   2.7928460   2.7928460
 AtZNuc=   6.0000000   6.0000000   6.0000000   6.0000000   6.0000000   6.0000000   1.0000000   1.0000000   1.0000000   1.0000000

  Atom        11          12          13          14
 IAtWgt=           1           1           1           1
 AtmWgt=   1.0078250   1.0078250   1.0078250   1.0078250
 NucSpn=           1           1           1           1
 AtZEff=  -0.0000000  -0.0000000  -0.0000000  -0.0000000
 NQMom=    0.0000000   0.0000000   0.0000000   0.0000000
 NMagM=    2.7928460   2.7928460   2.7928460   2.7928460
 AtZNuc=   1.0000000   1.0000000   1.0000000   1.0000000
 Leave Link  101 at Mon Aug  3 13:31:04 2020, MaxMem=  6442450944 cpu:               2.3 elap:               0.1
 (Enter /scratch/scicomp/CentOS/7.3.1611/Haswell/software/Gaussian/g16/l202.exe)
                          Input orientation:                          
 ---------------------------------------------------------------------
 Center     Atomic      Atomic             Coordinates (Angstroms)
 Number     Number       Type             X           Y           Z
 ---------------------------------------------------------------------
      1          6           0       -1.268219   -0.544265    0.160588
      2          6           0       -1.168591    0.784355    0.162078
      3          6           0        0.131055    1.449886   -0.197967
      4          6           0        1.330673    0.590498    0.197963
      5          6           0        1.118597   -0.854108   -0.162114
      6          6           0       -0.107338   -1.375876   -0.160543
      7          1           0        0.141251    1.619717   -1.283290
      8          1           0       -2.213189   -1.028076    0.376236
      9          1           0        2.239150    0.976392   -0.267055
     10          1           0        1.983265   -1.475095   -0.364468
     11          1           0       -0.261383   -2.426260   -0.376190
     12          1           0       -2.034746    1.403292    0.364360
     13          1           0        0.204154    2.434194    0.267093
     14          1           0        1.488138    0.654781    1.283304
 ---------------------------------------------------------------------
                    Distance matrix (angstroms):
                    1          2          3          4          5
     1  C    0.000000
     2  C    1.332351   0.000000
     3  C    2.462350   1.503876   0.000000
     4  C    2.836075   2.507028   1.527872   0.000000
     5  C    2.428380   2.832118   2.506973   1.503834   0.000000
     6  C    1.463676   2.428362   2.836047   2.462322   1.332352
     7  H    2.958751   2.121934   1.098578   2.160585   2.886529
     8  H    1.083303   2.102844   3.459116   3.900067   3.379480
     9  H    3.846676   3.440019   2.161720   1.091094   2.148809
    10  H    3.422613   3.913638   3.466110   2.238053   1.083616
    11  H    2.200853   3.379469   3.900036   3.459064   2.102816
    12  H    2.102871   1.083617   2.238097   3.466175   3.913643
    13  H    3.324221   2.148820   1.091094   2.161721   3.439964
    14  H    3.208692   2.886546   2.160562   1.098587   2.121919
                    6          7          8          9         10
     6  C    0.000000
     7  H    3.208728   0.000000
     8  H    2.200842   3.912572   0.000000
     9  H    3.324232   2.418219   4.924940   0.000000
    10  H    2.102867   3.716868   4.284705   2.466730   0.000000
    11  H    1.083301   4.165918   2.516070   4.224052   2.437888
    12  H    3.422601   2.737983   2.437936   4.341326   4.996070
    13  H    3.846626   1.752432   4.224071   2.559631   4.341272
    14  H    2.958683   3.054932   4.165885   1.752446   2.738006
                   11         12         13         14
    11  H    0.000000
    12  H    4.284705   0.000000
    13  H    4.924891   2.466758   0.000000
    14  H    3.912487   3.716912   2.418183   0.000000
 Symmetry turned off by external request.
 Stoichiometry    C6H8
 Framework group  C1[X(C6H8)]
 Deg. of freedom    36
 Full point group                 C1      NOp   1
 Rotational constants (GHZ):           5.1173393           5.1108715           2.7163312
 Leave Link  202 at Mon Aug  3 13:31:04 2020, MaxMem=  6442450944 cpu:               0.3 elap:               0.1
 (Enter /scratch/scicomp/CentOS/7.3.1611/Haswell/software/Gaussian/g16/l301.exe)
 Standard basis: def2TZVP (6D, 10F)
 Ernie: Thresh=  0.10000D-02 Tol=  0.10000D-05 Strict=F.
   264 basis functions,   370 primitive gaussians,   264 cartesian basis functions
    22 alpha electrons       22 beta electrons
       nuclear repulsion energy       219.9850485276 Hartrees.
 IExCor= 4639 DFT=T Ex+Corr=wB97XD ExCW=0 ScaHFX=  1.000000
 ScaDFX=  1.000000  1.000000  1.000000  1.000000 ScalE2=  1.000000  1.000000
 IRadAn=      5 IRanWt=     -1 IRanGd=            0 ICorTp=0 IEmpDi=121
 HFx  wShort=  0.000000 wLong=  0.200000 cFull=  0.222036 cShort=  0.000000 cLong=  0.777964
 DFx  wShort=  0.000000 wLong=  0.200000 cFull=  0.000000 cShort=  0.000000 cLong=  1.000000
 NAtoms=   14 NActive=   14 NUniq=   14 SFac= 1.00D+00 NAtFMM=   60 NAOKFM=F Big=F
 Integral buffers will be    131072 words long.
 Raffenetti 2 integral format.
 Two-electron integral symmetry is turned off.
 R6Disp:  Grimme-D2 Dispersion energy=       -0.0062943126 Hartrees.
 Nuclear repulsion after empirical dispersion term =      219.9787542149 Hartrees.
 Using the following non-standard input for PCM:
 norep pcmdoc geomview  nodis nocav g03defaults tsare=0.075
 Warning! Using old PCM defaults because the g03defaults keyword was found.
 These settings can be overridden by following keywords.
 nsfe=14
 NVESolv=36  SolvMW=84.1595   Rsolv=2.815
 eps=2.0165 RhoS=0.7781
 --- end of non-standard input.
 Reading user-defined spheres from input:
 ISph  on   Nord    Re0     Alpha      Xe            Ye            Ze
 --- end of user-defined spheres data.
 ------------------------------------------------------------------------------
 Polarizable Continuum Model (PCM)
 =================================
 Model                : PCM.
 Atomic radii         : UA0 (Simple United Atom Topological Model).
 Polarization charges : Total charges.
 Charge compensation  : None.
 Solution method      : On-the-fly selection.
 Cavity type          : SES (Solvent Excluding Surface) (Alpha=1.000).
 Cavity algorithm     : GePol (RMin=0.200 OFac=0.890).
                        User-defined sphere list used, NSphG=   14.
                        Tesserae with average area of 0.075 Ang**2.
                        Smoothing algorithm: None.
                        Polarization charges: point-like.
                        Self-potential: constant (ISelfS= 1).
                        Self-field    : global E.n sum rule (ISelfD= 3).
 Solvent              : CycloHexane, Eps=   2.016500 Eps(inf)=   2.035188
                        RSolv=   2.815000 Ang.
 ------------------------------------------------------------------------------
 Spheres list:
 ISph  on   Nord     Re0    Alpha      Xe            Ye            Ze
    1   C      1    1.7000  1.200     -1.268219     -0.544265      0.160588
    2   C      2    1.7000  1.200     -1.168591      0.784355      0.162078
    3   C      3    1.7000  1.200      0.131055      1.449886     -0.197967
    4   C      4    1.7000  1.200      1.330673      0.590498      0.197963
    5   C      5    1.7000  1.200      1.118597     -0.854108     -0.162114
    6   C      6    1.7000  1.200     -0.107338     -1.375876     -0.160543
    7   H      7    1.2000  1.200      0.141251      1.619717     -1.283290
    8   H      8    1.2000  1.200     -2.213189     -1.028076      0.376236
    9   H      9    1.2000  1.200      2.239150      0.976392     -0.267055
   10   H     10    1.2000  1.200      1.983265     -1.475095     -0.364468
   11   H     11    1.2000  1.200     -0.261383     -2.426260     -0.376190
   12   H     12    1.2000  1.200     -2.034746      1.403292      0.364360
   13   H     13    1.2000  1.200      0.204154      2.434194      0.267093
   14   H     14    1.2000  1.200      1.488138      0.654781      1.283304
 ------------------------------------------------------------------------------
 GePol: Number of generator spheres                  =      14
 GePol: Total number of spheres                      =      37
 GePol: Number of exposed spheres                    =      37 (100.00%)
 GePol: Number of tesserae                           =    2757
 GePol: Average area of tesserae                     =       0.05 Ang**2
 GePol: Minimum area of tessera                      =   0.10D-02 Ang**2
 GePol: Maximum area of tessera                      =    0.12395 Ang**2
 GePol: Number of small tesserae                     =       0
 GePol: Fraction of small tesserae (<1% of avg)      =       0.00%
 GePol: Total count of vertices                      =    9563
 GePol: Maximum number of vertices in a tessera      =       6
 GePol: Cavity surface area                          =    136.298 Ang**2
 GePol: Cavity volume                                =    127.788 Ang**3
 Leave Link  301 at Mon Aug  3 13:31:04 2020, MaxMem=  6442450944 cpu:               4.3 elap:               0.2
 (Enter /scratch/scicomp/CentOS/7.3.1611/Haswell/software/Gaussian/g16/l302.exe)
 NPDir=0 NMtPBC=     1 NCelOv=     1 NCel=       1 NClECP=     1 NCelD=      1
         NCelK=      1 NCelE2=     1 NClLst=     1 CellRange=     0.0.
 One-electron integrals computed using PRISM.
   1 Symmetry operations used in ECPInt.
 ECPInt:  NShTT=    4851 NPrTT=   14352 LenC2=    4827 LenP2D=   12081.
 LDataN:  DoStor=T MaxTD1= 6 Len=  172
 NBasis=   264 RedAO= T EigKep=  3.93D-05  NBF=   264
 NBsUse=   264 1.00D-06 EigRej= -1.00D+00 NBFU=   264
 Precomputing XC quadrature grid using
 IXCGrd= 4 IRadAn=           5 IRanWt=          -1 IRanGd=           0 AccXCQ= 0.00D+00.
 Generated NRdTot=       0 NPtTot=           0 NUsed=           0 NTot=          32
 NSgBfM=   263   263   263   263   263 MxSgAt=    14 MxSgA2=    14.
 Leave Link  302 at Mon Aug  3 13:31:05 2020, MaxMem=  6442450944 cpu:               5.8 elap:               0.3
 (Enter /scratch/scicomp/CentOS/7.3.1611/Haswell/software/Gaussian/g16/l303.exe)
 DipDrv:  MaxL=1.
 Leave Link  303 at Mon Aug  3 13:31:05 2020, MaxMem=  6442450944 cpu:               0.9 elap:               0.1
 (Enter /scratch/scicomp/CentOS/7.3.1611/Haswell/software/Gaussian/g16/l401.exe)
 ExpMin= 9.52D-02 ExpMax= 1.36D+04 ExpMxC= 4.63D+02 IAcc=3 IRadAn=         5 AccDes= 0.00D+00
 Harris functional with IExCor= 4639 and IRadAn=       5 diagonalized for initial guess.
 HarFok:  IExCor= 4639 AccDes= 0.00D+00 IRadAn=         5 IDoV= 1 UseB2=F ITyADJ=14
 ICtDFT=  3500011 ScaDFX=  1.000000  1.000000  1.000000  1.000000
 FoFCou: FMM=F IPFlag=           0 FMFlag=      100000 FMFlg1=           0
         NFxFlg=           0 DoJE=T BraDBF=F KetDBF=T FulRan=T
         wScrn=  0.000000 ICntrl=       500 IOpCl=  0 I1Cent=   200000004 NGrid=           0
         NMat0=    1 NMatS0=      1 NMatT0=    0 NMatD0=    1 NMtDS0=    0 NMtDT0=    0
 Symmetry not used in FoFCou.
 Harris En= -222.328951119041    
 JPrj=0 DoOrth=F DoCkMO=F.
 Leave Link  401 at Mon Aug  3 13:31:06 2020, MaxMem=  6442450944 cpu:              14.5 elap:               0.7
 (Enter /scratch/scicomp/CentOS/7.3.1611/Haswell/software/Gaussian/g16/l502.exe)
 Two-electron integral symmetry not used.
 Closed shell SCF:
 Using DIIS extrapolation, IDIIS=  1040.
 NGot=  6442450944 LenX=  6442303296 LenY=  6442233159
 Requested convergence on RMS density matrix=1.00D-08 within 128 cycles.
 Requested convergence on MAX density matrix=1.00D-06.
 Requested convergence on             energy=1.00D-06.
 No special actions if energy rises.
 Fock matrices will be formed incrementally for  20 cycles.

 Cycle   1  Pass 1  IDiag  1:
 FoFJK:  IHMeth= 1 ICntrl=       0 DoSepK=T KAlg= 0 I1Cent=           0 FoldK=F
 IRaf=         1 NMat=       1 IRICut=       1 DoRegI=T DoRafI=F ISym2E= 0 IDoP0=0 IntGTp=1.
 FoFCou: FMM=F IPFlag=           0 FMFlag=      100000 FMFlg1=           0
         NFxFlg=           0 DoJE=T BraDBF=F KetDBF=F FulRan=T
         wScrn=  0.000000 ICntrl=       500 IOpCl=  0 I1Cent=           0 NGrid=           0
         NMat0=    1 NMatS0=      1 NMatT0=    0 NMatD0=    1 NMtDS0=    0 NMtDT0=    0
 Symmetry not used in FoFCou.
 Inv3:  Mode=1 IEnd=    22803147.
 Iteration    1 A*A^-1 deviation from unit magnitude is 3.44D-15 for    967.
 Iteration    1 A*A^-1 deviation from orthogonality  is 2.17D-15 for   1142    798.
 Iteration    1 A^-1*A deviation from unit magnitude is 3.22D-15 for    967.
 Iteration    1 A^-1*A deviation from orthogonality  is 1.67D-15 for   1146   1135.
 E= -233.358687367205    
 DIIS: error= 5.75D-02 at cycle   1 NSaved=   1.
 NSaved= 1 IEnMin= 1 EnMin= -233.358687367205     IErMin= 1 ErrMin= 5.75D-02
 ErrMax= 5.75D-02  0.00D+00 EMaxC= 1.00D-01 BMatC= 5.12D-01 BMatP= 5.12D-01
 IDIUse=3 WtCom= 4.25D-01 WtEn= 5.75D-01
 Coeff-Com:  0.100D+01
 Coeff-En:   0.100D+01
 Coeff:      0.100D+01
 Gap=     0.328 Goal=   None    Shift=    0.000
 GapD=    0.328 DampG=1.000 DampE=0.500 DampFc=0.5000 IDamp=-1.
 Damping current iteration by 5.00D-01
 RMSDP=1.76D-03 MaxDP=9.76D-02              OVMax= 4.95D-02

 Cycle   2  Pass 1  IDiag  1:
 RMSU=  8.52D-04    CP:  9.75D-01
 E= -233.393771483410     Delta-E=       -0.035084116205 Rises=F Damp=T
 DIIS: error= 2.73D-02 at cycle   2 NSaved=   2.
 NSaved= 2 IEnMin= 2 EnMin= -233.393771483410     IErMin= 2 ErrMin= 2.73D-02
 ErrMax= 2.73D-02  0.00D+00 EMaxC= 1.00D-01 BMatC= 1.15D-01 BMatP= 5.12D-01
 IDIUse=3 WtCom= 7.27D-01 WtEn= 2.73D-01
 Coeff-Com: -0.856D+00 0.186D+01
 Coeff-En:   0.000D+00 0.100D+01
 Coeff:     -0.623D+00 0.162D+01
 Gap=     0.335 Goal=   None    Shift=    0.000
 RMSDP=9.95D-04 MaxDP=4.89D-02 DE=-3.51D-02 OVMax= 2.55D-02

 Cycle   3  Pass 1  IDiag  1:
 RMSU=  4.80D-04    CP:  9.50D-01  1.99D+00
 E= -233.425335451714     Delta-E=       -0.031563968304 Rises=F Damp=F
 DIIS: error= 3.41D-03 at cycle   3 NSaved=   3.
 NSaved= 3 IEnMin= 3 EnMin= -233.425335451714     IErMin= 3 ErrMin= 3.41D-03
 ErrMax= 3.41D-03  0.00D+00 EMaxC= 1.00D-01 BMatC= 2.45D-03 BMatP= 1.15D-01
 IDIUse=3 WtCom= 9.66D-01 WtEn= 3.41D-02
 Coeff-Com: -0.313D+00 0.677D+00 0.636D+00
 Coeff-En:   0.000D+00 0.000D+00 0.100D+01
 Coeff:     -0.302D+00 0.654D+00 0.648D+00
 Gap=     0.333 Goal=   None    Shift=    0.000
 RMSDP=1.28D-04 MaxDP=3.18D-03 DE=-3.16D-02 OVMax= 9.42D-03

 Cycle   4  Pass 1  IDiag  1:
 RMSU=  8.48D-05    CP:  9.48D-01  2.04D+00  8.25D-01
 E= -233.427579675083     Delta-E=       -0.002244223369 Rises=F Damp=F
 DIIS: error= 3.22D-04 at cycle   4 NSaved=   4.
 NSaved= 4 IEnMin= 4 EnMin= -233.427579675083     IErMin= 4 ErrMin= 3.22D-04
 ErrMax= 3.22D-04  0.00D+00 EMaxC= 1.00D-01 BMatC= 1.74D-05 BMatP= 2.45D-03
 IDIUse=3 WtCom= 9.97D-01 WtEn= 3.22D-03
 Coeff-Com:  0.877D-02-0.183D-01 0.405D-01 0.969D+00
 Coeff-En:   0.000D+00 0.000D+00 0.000D+00 0.100D+01
 Coeff:      0.874D-02-0.182D-01 0.404D-01 0.969D+00
 Gap=     0.333 Goal=   None    Shift=    0.000
 RMSDP=3.90D-05 MaxDP=7.59D-04 DE=-2.24D-03 OVMax= 1.83D-03

 Cycle   5  Pass 1  IDiag  1:
 RMSU=  1.91D-05    CP:  9.48D-01  2.06D+00  8.83D-01  1.17D+00
 E= -233.427600541851     Delta-E=       -0.000020866769 Rises=F Damp=F
 DIIS: error= 1.73D-04 at cycle   5 NSaved=   5.
 NSaved= 5 IEnMin= 5 EnMin= -233.427600541851     IErMin= 5 ErrMin= 1.73D-04
 ErrMax= 1.73D-04  0.00D+00 EMaxC= 1.00D-01 BMatC= 3.51D-06 BMatP= 1.74D-05
 IDIUse=3 WtCom= 9.98D-01 WtEn= 1.73D-03
 Coeff-Com:  0.195D-01-0.421D-01-0.182D-01 0.350D+00 0.691D+00
 Coeff-En:   0.000D+00 0.000D+00 0.000D+00 0.000D+00 0.100D+01
 Coeff:      0.194D-01-0.420D-01-0.182D-01 0.349D+00 0.692D+00
 Gap=     0.333 Goal=   None    Shift=    0.000
 RMSDP=1.00D-05 MaxDP=2.35D-04 DE=-2.09D-05 OVMax= 1.17D-03

 Cycle   6  Pass 1  IDiag  1:
 RMSU=  5.83D-06    CP:  9.48D-01  2.06D+00  8.95D-01  1.23D+00  1.06D+00
 E= -233.427604345604     Delta-E=       -0.000003803752 Rises=F Damp=F
 DIIS: error= 8.25D-05 at cycle   6 NSaved=   6.
 NSaved= 6 IEnMin= 6 EnMin= -233.427604345604     IErMin= 6 ErrMin= 8.25D-05
 ErrMax= 8.25D-05  0.00D+00 EMaxC= 1.00D-01 BMatC= 4.96D-07 BMatP= 3.51D-06
 IDIUse=1 WtCom= 1.00D+00 WtEn= 0.00D+00
 Coeff-Com:  0.660D-02-0.143D-01-0.122D-01 0.114D-01 0.272D+00 0.737D+00
 Coeff:      0.660D-02-0.143D-01-0.122D-01 0.114D-01 0.272D+00 0.737D+00
 Gap=     0.333 Goal=   None    Shift=    0.000
 RMSDP=4.16D-06 MaxDP=6.71D-05 DE=-3.80D-06 OVMax= 4.19D-04

 Cycle   7  Pass 1  IDiag  1:
 RMSU=  2.36D-06    CP:  9.48D-01  2.06D+00  8.99D-01  1.25D+00  1.17D+00
                    CP:  1.06D+00
 E= -233.427605006882     Delta-E=       -0.000000661278 Rises=F Damp=F
 DIIS: error= 2.55D-05 at cycle   7 NSaved=   7.
 NSaved= 7 IEnMin= 7 EnMin= -233.427605006882     IErMin= 7 ErrMin= 2.55D-05
 ErrMax= 2.55D-05  0.00D+00 EMaxC= 1.00D-01 BMatC= 2.98D-08 BMatP= 4.96D-07
 IDIUse=1 WtCom= 1.00D+00 WtEn= 0.00D+00
 Coeff-Com: -0.978D-03 0.211D-02-0.336D-03-0.418D-01-0.159D-01 0.152D+00
 Coeff-Com:  0.905D+00
 Coeff:     -0.978D-03 0.211D-02-0.336D-03-0.418D-01-0.159D-01 0.152D+00
 Coeff:      0.905D+00
 Gap=     0.333 Goal=   None    Shift=    0.000
 RMSDP=1.70D-06 MaxDP=3.63D-05 DE=-6.61D-07 OVMax= 2.21D-04

 Cycle   8  Pass 1  IDiag  1:
 RMSU=  8.17D-07    CP:  9.48D-01  2.06D+00  9.00D-01  1.25D+00  1.22D+00
                    CP:  1.19D+00  1.27D+00
 E= -233.427605083126     Delta-E=       -0.000000076244 Rises=F Damp=F
 DIIS: error= 6.43D-06 at cycle   8 NSaved=   8.
 NSaved= 8 IEnMin= 8 EnMin= -233.427605083126     IErMin= 8 ErrMin= 6.43D-06
 ErrMax= 6.43D-06  0.00D+00 EMaxC= 1.00D-01 BMatC= 5.57D-09 BMatP= 2.98D-08
 IDIUse=1 WtCom= 1.00D+00 WtEn= 0.00D+00
 Coeff-Com: -0.120D-02 0.261D-02 0.141D-02-0.176D-01-0.358D-01-0.346D-01
 Coeff-Com:  0.328D+00 0.758D+00
 Coeff:     -0.120D-02 0.261D-02 0.141D-02-0.176D-01-0.358D-01-0.346D-01
 Coeff:      0.328D+00 0.758D+00
 Gap=     0.334 Goal=   None    Shift=    0.000
 RMSDP=5.98D-07 MaxDP=1.28D-05 DE=-7.62D-08 OVMax= 5.94D-05

 Cycle   9  Pass 1  IDiag  1:
 RMSU=  2.40D-07    CP:  9.48D-01  2.06D+00  9.00D-01  1.25D+00  1.23D+00
                    CP:  1.23D+00  1.44D+00  1.20D+00
 E= -233.427605094040     Delta-E=       -0.000000010914 Rises=F Damp=F
 DIIS: error= 2.00D-06 at cycle   9 NSaved=   9.
 NSaved= 9 IEnMin= 9 EnMin= -233.427605094040     IErMin= 9 ErrMin= 2.00D-06
 ErrMax= 2.00D-06  0.00D+00 EMaxC= 1.00D-01 BMatC= 1.94D-10 BMatP= 5.57D-09
 IDIUse=1 WtCom= 1.00D+00 WtEn= 0.00D+00
 Coeff-Com:  0.225D-03-0.490D-03-0.121D-03 0.600D-02 0.718D-02-0.113D-01
 Coeff-Com: -0.138D+00-0.951D-01 0.123D+01
 Coeff:      0.225D-03-0.490D-03-0.121D-03 0.600D-02 0.718D-02-0.113D-01
 Coeff:     -0.138D+00-0.951D-01 0.123D+01
 Gap=     0.334 Goal=   None    Shift=    0.000
 RMSDP=3.41D-07 MaxDP=9.32D-06 DE=-1.09D-08 OVMax= 2.77D-05

 Cycle  10  Pass 1  IDiag  1:
 RMSU=  9.85D-08    CP:  9.48D-01  2.06D+00  8.99D-01  1.25D+00  1.23D+00
                    CP:  1.24D+00  1.52D+00  1.44D+00  1.44D+00
 E= -233.427605095006     Delta-E=       -0.000000000966 Rises=F Damp=F
 DIIS: error= 2.19D-07 at cycle  10 NSaved=  10.
 NSaved=10 IEnMin=10 EnMin= -233.427605095006     IErMin=10 ErrMin= 2.19D-07
 ErrMax= 2.19D-07  0.00D+00 EMaxC= 1.00D-01 BMatC= 3.61D-12 BMatP= 1.94D-10
 IDIUse=1 WtCom= 1.00D+00 WtEn= 0.00D+00
 Coeff-Com:  0.373D-04-0.804D-04-0.408D-04 0.700D-03 0.129D-02 0.673D-03
 Coeff-Com: -0.160D-01-0.254D-01 0.701D-01 0.969D+00
 Coeff:      0.373D-04-0.804D-04-0.408D-04 0.700D-03 0.129D-02 0.673D-03
 Coeff:     -0.160D-01-0.254D-01 0.701D-01 0.969D+00
 Gap=     0.334 Goal=   None    Shift=    0.000
 RMSDP=4.90D-08 MaxDP=1.59D-06 DE=-9.66D-10 OVMax= 2.42D-06

 Cycle  11  Pass 1  IDiag  1:
 RMSU=  1.34D-08    CP:  9.48D-01  2.06D+00  8.99D-01  1.25D+00  1.23D+00
                    CP:  1.24D+00  1.52D+00  1.47D+00  1.52D+00  1.34D+00
 E= -233.427605095018     Delta-E=       -0.000000000013 Rises=F Damp=F
 DIIS: error= 5.04D-08 at cycle  11 NSaved=  11.
 NSaved=11 IEnMin=11 EnMin= -233.427605095018     IErMin=11 ErrMin= 5.04D-08
 ErrMax= 5.04D-08  0.00D+00 EMaxC= 1.00D-01 BMatC= 2.19D-13 BMatP= 3.61D-12
 IDIUse=1 WtCom= 1.00D+00 WtEn= 0.00D+00
 Coeff-Com: -0.169D-04 0.366D-04 0.110D-04-0.406D-03-0.525D-03 0.700D-03
 Coeff-Com:  0.902D-02 0.678D-02-0.762D-01-0.824D-01 0.114D+01
 Coeff:     -0.169D-04 0.366D-04 0.110D-04-0.406D-03-0.525D-03 0.700D-03
 Coeff:      0.902D-02 0.678D-02-0.762D-01-0.824D-01 0.114D+01
 Gap=     0.334 Goal=   None    Shift=    0.000
 RMSDP=1.99D-08 MaxDP=5.97D-07 DE=-1.27D-11 OVMax= 7.64D-07

 Cycle  12  Pass 1  IDiag  1:
 RMSU=  3.60D-09    CP:  9.48D-01  2.06D+00  8.99D-01  1.25D+00  1.23D+00
                    CP:  1.24D+00  1.52D+00  1.47D+00  1.54D+00  1.50D+00
                    CP:  1.44D+00
 E= -233.427605095020     Delta-E=       -0.000000000001 Rises=F Damp=F
 DIIS: error= 5.73D-09 at cycle  12 NSaved=  12.
 NSaved=12 IEnMin=12 EnMin= -233.427605095020     IErMin=12 ErrMin= 5.73D-09
 ErrMax= 5.73D-09  0.00D+00 EMaxC= 1.00D-01 BMatC= 7.31D-15 BMatP= 2.19D-13
 IDIUse=1 WtCom= 1.00D+00 WtEn= 0.00D+00
 Coeff-Com:  0.137D-06-0.318D-06-0.446D-06 0.585D-05-0.394D-05-0.115D-04
 Coeff-Com: -0.151D-03 0.254D-03 0.271D-02-0.220D-01-0.726D-01 0.109D+01
 Coeff:      0.137D-06-0.318D-06-0.446D-06 0.585D-05-0.394D-05-0.115D-04
 Coeff:     -0.151D-03 0.254D-03 0.271D-02-0.220D-01-0.726D-01 0.109D+01
 Gap=     0.334 Goal=   None    Shift=    0.000
 RMSDP=3.53D-09 MaxDP=1.08D-07 DE=-1.48D-12 OVMax= 1.14D-07

 Error on total polarization charges =  0.00949
 SCF Done:  E(RwB97XD) =  -233.427605095     A.U. after   12 cycles
            NFock= 12  Conv=0.35D-08     -V/T= 2.0059
 KE= 2.320563024625D+02 PE=-9.807504775561D+02 EE= 2.952878157836D+02
 --------------------------------------------------------------------
 Variational PCM results
 =======================
 <psi(f)|   H    |psi(f)>                     (a.u.) =    -233.426579
 <psi(f)|H+V(f)/2|psi(f)>                     (a.u.) =    -233.427605
 (Polarized solute)-Solvent               (kcal/mol) =      -0.64
 --------------------------------------------------------------------
 Partition over spheres:
 Sphere  on Atom  Surface  Charge   GEl     GCav    GDR
    1      C1       7.78   0.011   -0.07    0.00    0.00
    2      C2       7.80   0.011   -0.05    0.00    0.00
    3      C3       3.47   0.001    0.00    0.00    0.00
    4      C4       3.58   0.001    0.00    0.00    0.00
    5      C5       7.88   0.011   -0.05    0.00    0.00
    6      C6       7.78   0.012   -0.07    0.00    0.00
    7      H7       7.52  -0.007   -0.01    0.00    0.00
    8      H8       7.51  -0.011   -0.03    0.00    0.00
    9      H9       7.59  -0.008   -0.03    0.00    0.00
   10      H10      7.52  -0.010   -0.04    0.00    0.00
   11      H11      7.51  -0.011   -0.03    0.00    0.00
   12      H12      7.52  -0.010   -0.04    0.00    0.00
   13      H13      7.59  -0.008   -0.03    0.00    0.00
   14      H14      7.56  -0.008   -0.01    0.00    0.00
 Added spheres:    37.68   0.016   -0.16    0.00    0.00
 --------------------------------------------------------------------
 After PCM corrections, the energy is  -233.427605095     a.u.
 --------------------------------------------------------------------
 Leave Link  502 at Mon Aug  3 13:32:11 2020, MaxMem=  6442450944 cpu:            1530.0 elap:              64.7
 (Enter /scratch/scicomp/CentOS/7.3.1611/Haswell/software/Gaussian/g16/l601.exe)
 Copying SCF densities to generalized density rwf, IOpCl= 0 IROHF=0.

 **********************************************************************

            Population analysis using the SCF Density.

 **********************************************************************

 Alpha  occ. eigenvalues --  -10.28587 -10.28564 -10.28478 -10.28477 -10.28153
 Alpha  occ. eigenvalues --  -10.28118  -0.94287  -0.84194  -0.84075  -0.71360
 Alpha  occ. eigenvalues --   -0.68088  -0.59889  -0.57691  -0.52992  -0.50964
 Alpha  occ. eigenvalues --   -0.50063  -0.47491  -0.45326  -0.41381  -0.39611
 Alpha  occ. eigenvalues --   -0.39302  -0.29275
 Alpha virt. eigenvalues --    0.04075   0.11580   0.13732   0.15536   0.16108
 Alpha virt. eigenvalues --    0.16420   0.18146   0.18201   0.19934   0.21809
 Alpha virt. eigenvalues --    0.24604   0.25589   0.27545   0.28378   0.28801
 Alpha virt. eigenvalues --    0.29469   0.30760   0.31202   0.31533   0.33914
 Alpha virt. eigenvalues --    0.34756   0.37909   0.40661   0.40766   0.41613
 Alpha virt. eigenvalues --    0.44256   0.44776   0.46058   0.47439   0.47476
 Alpha virt. eigenvalues --    0.48933   0.49170   0.49345   0.49777   0.50680
 Alpha virt. eigenvalues --    0.52828   0.53144   0.53537   0.55650   0.61013
 Alpha virt. eigenvalues --    0.61930   0.64429   0.66297   0.68590   0.72010
 Alpha virt. eigenvalues --    0.74419   0.76563   0.80433   0.81285   0.82767
 Alpha virt. eigenvalues --    0.85901   0.88057   0.92537   0.92939   0.95578
 Alpha virt. eigenvalues --    0.98154   0.98784   1.00958   1.02551   1.05190
 Alpha virt. eigenvalues --    1.05694   1.11638   1.12629   1.12783   1.15256
 Alpha virt. eigenvalues --    1.18100   1.18930   1.20861   1.21593   1.24438
 Alpha virt. eigenvalues --    1.25691   1.27616   1.29328   1.30467   1.31690
 Alpha virt. eigenvalues --    1.33899   1.37092   1.37485   1.39975   1.41098
 Alpha virt. eigenvalues --    1.42361   1.43446   1.44521   1.48565   1.49898
 Alpha virt. eigenvalues --    1.52249   1.55298   1.56414   1.57783   1.60419
 Alpha virt. eigenvalues --    1.61521   1.68272   1.72920   1.76946   1.78776
 Alpha virt. eigenvalues --    1.83396   1.84994   1.88366   1.96406   1.98227
 Alpha virt. eigenvalues --    2.02462   2.02947   2.06960   2.11833   2.11860
 Alpha virt. eigenvalues --    2.17359   2.18530   2.19395   2.20020   2.21713
 Alpha virt. eigenvalues --    2.23961   2.34604   2.35119   2.41005   2.43405
 Alpha virt. eigenvalues --    2.47471   2.49159   2.54279   2.55835   2.56408
 Alpha virt. eigenvalues --    2.61035   2.62975   2.65747   2.67275   2.70691
 Alpha virt. eigenvalues --    2.72052   2.74982   2.75115   2.77522   2.78137
 Alpha virt. eigenvalues --    2.80338   2.80494   2.82707   2.83141   2.87560
 Alpha virt. eigenvalues --    2.87948   2.89873   2.90249   2.92487   2.93682
 Alpha virt. eigenvalues --    2.99232   2.99365   3.05041   3.05838   3.07445
 Alpha virt. eigenvalues --    3.09141   3.11440   3.11898   3.14893   3.15372
 Alpha virt. eigenvalues --    3.16530   3.17554   3.18667   3.19497   3.21316
 Alpha virt. eigenvalues --    3.22360   3.23978   3.25868   3.26781   3.28240
 Alpha virt. eigenvalues --    3.28295   3.30252   3.32697   3.32805   3.34056
 Alpha virt. eigenvalues --    3.35092   3.36446   3.39030   3.41876   3.44655
 Alpha virt. eigenvalues --    3.45667   3.47033   3.47676   3.48654   3.49703
 Alpha virt. eigenvalues --    3.51989   3.54152   3.59365   3.59985   3.60117
 Alpha virt. eigenvalues --    3.64605   3.66372   3.69058   3.71248   3.72871
 Alpha virt. eigenvalues --    3.80482   3.83066   3.83219   3.85909   3.91106
 Alpha virt. eigenvalues --    3.93393   3.95216   3.97748   4.07136   4.08518
 Alpha virt. eigenvalues --    4.10551   4.11937   4.19070   4.19724   4.20756
 Alpha virt. eigenvalues --    4.23516   4.27375   4.34158   4.34561   4.36170
 Alpha virt. eigenvalues --    4.42237   4.43850   4.44067   4.58575   4.58838
 Alpha virt. eigenvalues --    4.67409   4.68780   4.72920   4.72989   4.77101
 Alpha virt. eigenvalues --    4.80390   4.85910   4.88104   4.95032   5.00971
 Alpha virt. eigenvalues --    5.06897   5.17262   5.23586   5.26330   5.37943
 Alpha virt. eigenvalues --    5.43543   5.44419   5.65617   5.72212   5.87936
 Alpha virt. eigenvalues --    7.90712   7.95864   8.02360   8.09185   8.14910
 Alpha virt. eigenvalues --    8.31040  34.70525  34.78211  34.78543  34.94571
 Alpha virt. eigenvalues --   34.96646  35.13196
          Condensed to atoms (all electrons):
               1          2          3          4          5          6
     1  C    4.968076   0.612938  -0.072660   0.011467  -0.074879   0.350249
     2  C    0.612938   5.091881   0.302979  -0.074519   0.007585  -0.074850
     3  C   -0.072660   0.302979   4.890206   0.384066  -0.074536   0.011460
     4  C    0.011467  -0.074519   0.384066   4.890050   0.303008  -0.072661
     5  C   -0.074879   0.007585  -0.074536   0.303008   5.091950   0.612952
     6  C    0.350249  -0.074850   0.011460  -0.072661   0.612952   4.968084
     7  H   -0.011161  -0.031242   0.386226  -0.040447   0.006313   0.007190
     8  H    0.419916  -0.026479   0.004468  -0.000591   0.003584  -0.033247
     9  H   -0.002505   0.011402  -0.043680   0.433236  -0.043091   0.006934
    10  H    0.006173  -0.001514   0.004724  -0.027593   0.419611  -0.031874
    11  H   -0.033242   0.003584  -0.000591   0.004468  -0.026481   0.419914
    12  H   -0.031871   0.419611  -0.027589   0.004721  -0.001513   0.006171
    13  H    0.006933  -0.043095   0.433247  -0.043692   0.011405  -0.002505
    14  H    0.007187   0.006306  -0.040442   0.386222  -0.031248  -0.011162
               7          8          9         10         11         12
     1  C   -0.011161   0.419916  -0.002505   0.006173  -0.033242  -0.031871
     2  C   -0.031242  -0.026479   0.011402  -0.001514   0.003584   0.419611
     3  C    0.386226   0.004468  -0.043680   0.004724  -0.000591  -0.027589
     4  C   -0.040447  -0.000591   0.433236  -0.027593   0.004468   0.004721
     5  C    0.006313   0.003584  -0.043091   0.419611  -0.026481  -0.001513
     6  C    0.007190  -0.033247   0.006934  -0.031874   0.419914   0.006171
     7  H    0.596621  -0.000293  -0.007009   0.000116   0.000010   0.001640
     8  H   -0.000293   0.494914   0.000045  -0.000140  -0.003484  -0.006067
     9  H   -0.007009   0.000045   0.553181  -0.004757  -0.000107  -0.000145
    10  H    0.000116  -0.000140  -0.004757   0.495056  -0.006068   0.000036
    11  H    0.000010  -0.003484  -0.000107  -0.006068   0.494926  -0.000140
    12  H    0.001640  -0.006067  -0.000145   0.000036  -0.000140   0.495049
    13  H   -0.022329  -0.000107  -0.002913  -0.000145   0.000045  -0.004756
    14  H    0.009254   0.000010  -0.022332   0.001640  -0.000293   0.000116
              13         14
     1  C    0.006933   0.007187
     2  C   -0.043095   0.006306
     3  C    0.433247  -0.040442
     4  C   -0.043692   0.386222
     5  C    0.011405  -0.031248
     6  C   -0.002505  -0.011162
     7  H   -0.022329   0.009254
     8  H   -0.000107   0.000010
     9  H   -0.002913  -0.022332
    10  H   -0.000145   0.001640
    11  H    0.000045  -0.000293
    12  H   -0.004756   0.000116
    13  H    0.553171  -0.007008
    14  H   -0.007008   0.596617
 Mulliken charges:
               1
     1  C   -0.156621
     2  C   -0.204588
     3  C   -0.157878
     4  C   -0.157734
     5  C   -0.204660
     6  C   -0.156656
     7  H    0.105111
     8  H    0.147472
     9  H    0.121741
    10  H    0.144734
    11  H    0.147460
    12  H    0.144736
    13  H    0.121750
    14  H    0.105133
 Sum of Mulliken charges =  -0.00000
 Mulliken charges with hydrogens summed into heavy atoms:
               1
     1  C   -0.009149
     2  C   -0.059852
     3  C    0.068983
     4  C    0.069140
     5  C   -0.059925
     6  C   -0.009196
 Electronic spatial extent (au):  <R**2>=            503.6255
 Charge=             -0.0000 electrons
 Dipole moment (field-independent basis, Debye):
    X=              0.3355    Y=              0.4683    Z=              0.0000  Tot=              0.5761
 Quadrupole moment (field-independent basis, Debye-Ang):
   XX=            -34.5899   YY=            -34.3439   ZZ=            -39.3450
   XY=              0.3624   XZ=             -0.6075   YZ=              0.4350
 Traceless Quadrupole moment (field-independent basis, Debye-Ang):
   XX=              1.5030   YY=              1.7491   ZZ=             -3.2521
   XY=              0.3624   XZ=             -0.6075   YZ=              0.4350
 Octapole moment (field-independent basis, Debye-Ang**2):
  XXX=             -3.6422  YYY=             -6.7659  ZZZ=              0.0001  XYY=             -3.2653
  XXY=             -2.8765  XXZ=              0.9063  XZZ=              0.4098  YZZ=              0.5717
  YYZ=             -0.9066  XYZ=              0.3083
 Hexadecapole moment (field-independent basis, Debye-Ang**3):
 XXXX=           -299.3015 YYYY=           -302.3472 ZZZZ=            -69.5808 XXXY=             -3.3894
 XXXZ=             -0.9116 YYYX=             -1.0998 YYYZ=              1.6451 ZZZX=             10.2583
 ZZZY=             -7.3475 XXYY=            -98.2875 XXZZ=            -67.5131 YYZZ=            -66.7081
 XXYZ=             -1.1400 YYXZ=              0.2075 ZZXY=              1.1831
 N-N= 2.199787542149D+02 E-N=-9.807504772913D+02  KE= 2.320563024625D+02
 No NMR shielding tensors so no spin-rotation constants.
 Leave Link  601 at Mon Aug  3 13:32:11 2020, MaxMem=  6442450944 cpu:               3.3 elap:               0.2
 (Enter /scratch/scicomp/CentOS/7.3.1611/Haswell/software/Gaussian/g16/l9999.exe)
 1\1\GINC-ATLAS-205\SP\RwB97XD\def2TZVP\C6H8\BOCHEN\03-Aug-2020\0\\#p w
 b97xd def2tzvp # scrf=(iefpcm,solvent=Cyclohexane,read) nosym 6d 10f\\
 cyclohexadiene wb97xd/def2tzvp//wb97xd/def2tzvp xp-pcm for eta=3\\0,1\
 C,0,-1.268219,-0.544265,0.160588\C,0,-1.168591,0.784355,0.162078\C,0,0
 .131055,1.449886,-0.197967\C,0,1.330673,0.590498,0.197963\C,0,1.118597
 ,-0.854108,-0.162114\C,0,-0.107338,-1.375876,-0.160543\H,0,0.141251,1.
 619717,-1.28329\H,0,-2.213189,-1.028076,0.376236\H,0,2.23915,0.976392,
 -0.267055\H,0,1.983265,-1.475095,-0.364468\H,0,-0.261383,-2.42626,-0.3
 7619\H,0,-2.034746,1.403292,0.36436\H,0,0.204154,2.434194,0.267093\H,0
 ,1.488138,0.654781,1.283304\\Version=ES64L-G16RevB.01\HF=-233.4276051\
 RMSD=3.527e-09\Dipole=0.1320101,0.1842264,0.000017\Quadrupole=1.117447
 4,1.3003917,-2.4178391,0.2694096,-0.4516441,0.323441\PG=C01 [X(C6H8)]\
 \@


 LENDING MONEY TO FRIENDS CAUSES THEM TO LOSE THEIR MEMORIES.

    --  PETER'S THEORY OF RECIPROCAL INHIBITION OF FISCAL RECALL
 Job cpu time:       0 days  0 hours 26 minutes  5.9 seconds.
 Elapsed time:       0 days  0 hours  1 minutes  6.6 seconds.
 File lengths (MBytes):  RWF=    177 Int=      0 D2E=      0 Chk=      7 Scr=      1
 Normal termination of Gaussian 16 at Mon Aug  3 13:32:11 2020.
