 Entering Gaussian System, Link 0=g16
 Input=1_xp-Ger.com
 Output=1_xp-Ger.log
 Initial command:
 /scratch/scicomp/CentOS/7.3.1611/Haswell/software/Gaussian/g16/l1.exe "/scratch/bochen/cyclohexadiene-dimerization/wb97xd-def2tzvp/xp-pcm/meso/Gau-124438.inp" -scrdir="/scratch/bochen/cyclohexadiene-dimerization/wb97xd-def2tzvp/xp-pcm/meso/"
 Entering Link 1 = /scratch/scicomp/CentOS/7.3.1611/Haswell/software/Gaussian/g16/l1.exe PID=    124439.
  
 Copyright (c) 1988-2017, Gaussian, Inc.  All Rights Reserved.
  
 This is part of the Gaussian(R) 16 program.  It is based on
 the Gaussian(R) 09 system (copyright 2009, Gaussian, Inc.),
 the Gaussian(R) 03 system (copyright 2003, Gaussian, Inc.),
 the Gaussian(R) 98 system (copyright 1998, Gaussian, Inc.),
 the Gaussian(R) 94 system (copyright 1995, Gaussian, Inc.),
 the Gaussian 92(TM) system (copyright 1992, Gaussian, Inc.),
 the Gaussian 90(TM) system (copyright 1990, Gaussian, Inc.),
 the Gaussian 88(TM) system (copyright 1988, Gaussian, Inc.),
 the Gaussian 86(TM) system (copyright 1986, Carnegie Mellon
 University), and the Gaussian 82(TM) system (copyright 1983,
 Carnegie Mellon University). Gaussian is a federally registered
 trademark of Gaussian, Inc.
  
 This software contains proprietary and confidential information,
 including trade secrets, belonging to Gaussian, Inc.
  
 This software is provided under written license and may be
 used, copied, transmitted, or stored only in accord with that
 written license.
  
 The following legend is applicable only to US Government
 contracts under FAR:
  
                    RESTRICTED RIGHTS LEGEND
  
 Use, reproduction and disclosure by the US Government is
 subject to restrictions as set forth in subparagraphs (a)
 and (c) of the Commercial Computer Software - Restricted
 Rights clause in FAR 52.227-19.
  
 Gaussian, Inc.
 340 Quinnipiac St., Bldg. 40, Wallingford CT 06492
  
  
 ---------------------------------------------------------------
 Warning -- This program may not be used in any manner that
 competes with the business of Gaussian, Inc. or will provide
 assistance to any competitor of Gaussian, Inc.  The licensee
 of this program is prohibited from giving any competitor of
 Gaussian, Inc. access to this program.  By using this program,
 the user acknowledges that Gaussian, Inc. is engaged in the
 business of creating and licensing software in the field of
 computational chemistry and represents and warrants to the
 licensee that it is not a competitor of Gaussian, Inc. and that
 it will not use this program in any manner prohibited above.
 ---------------------------------------------------------------
  

 Cite this work as:
 Gaussian 16, Revision B.01,
 M. J. Frisch, G. W. Trucks, H. B. Schlegel, G. E. Scuseria, 
 M. A. Robb, J. R. Cheeseman, G. Scalmani, V. Barone, 
 G. A. Petersson, H. Nakatsuji, X. Li, M. Caricato, A. V. Marenich, 
 J. Bloino, B. G. Janesko, R. Gomperts, B. Mennucci, H. P. Hratchian, 
 J. V. Ortiz, A. F. Izmaylov, J. L. Sonnenberg, D. Williams-Young, 
 F. Ding, F. Lipparini, F. Egidi, J. Goings, B. Peng, A. Petrone, 
 T. Henderson, D. Ranasinghe, V. G. Zakrzewski, J. Gao, N. Rega, 
 G. Zheng, W. Liang, M. Hada, M. Ehara, K. Toyota, R. Fukuda, 
 J. Hasegawa, M. Ishida, T. Nakajima, Y. Honda, O. Kitao, H. Nakai, 
 T. Vreven, K. Throssell, J. A. Montgomery, Jr., J. E. Peralta, 
 F. Ogliaro, M. J. Bearpark, J. J. Heyd, E. N. Brothers, K. N. Kudin, 
 V. N. Staroverov, T. A. Keith, R. Kobayashi, J. Normand, 
 K. Raghavachari, A. P. Rendell, J. C. Burant, S. S. Iyengar, 
 J. Tomasi, M. Cossi, J. M. Millam, M. Klene, C. Adamo, R. Cammi, 
 J. W. Ochterski, R. L. Martin, K. Morokuma, O. Farkas, 
 J. B. Foresman, and D. J. Fox, Gaussian, Inc., Wallingford CT, 2016.
 
 ******************************************
 Gaussian 16:  ES64L-G16RevB.01 20-Dec-2017
                 3-Aug-2020 
 ******************************************
 %chk=1_xp-12.chk
 %nproc=24
 Will use up to   24 processors via shared memory.
 %mem=48GB
 ----------------------------------------------------------------------
 #p wb97xd def2tzvp # scrf=(iefpcm,solvent=Cyclohexane,read) nosym 6d 1
 0f
 ----------------------------------------------------------------------
 1/38=1,40=2,172=1/1;
 2/12=2,15=1,17=6,18=5,40=1/2;
 3/5=44,7=101,8=22,11=2,25=1,30=1,70=2203,72=17,74=-58/1,2,3;
 4//1;
 5/5=2,38=5,53=17/2;
 6/7=2,8=2,9=2,10=2,28=1/1;
 99/5=1,9=1/99;
 Leave Link    1 at Mon Aug  3 17:44:53 2020, MaxMem=  6442450944 cpu:               1.5 elap:               0.1
 (Enter /scratch/scicomp/CentOS/7.3.1611/Haswell/software/Gaussian/g16/l101.exe)
 ----------------------------------------------------------------
 cyclohexadiene wb97xd/def2tzvp//wb97xd/def2tzvp xp-pcm for eta=3
 ----------------------------------------------------------------
 Symbolic Z-matrix:
 Charge =  0 Multiplicity = 1
 C                    -1.26822  -0.54427   0.16059 
 C                    -1.16859   0.78436   0.16208 
 C                     0.13106   1.44989  -0.19797 
 C                     1.33067   0.5905    0.19796 
 C                     1.1186   -0.85411  -0.16211 
 C                    -0.10734  -1.37588  -0.16054 
 H                     0.14125   1.61972  -1.28329 
 H                    -2.21319  -1.02808   0.37624 
 H                     2.23915   0.97639  -0.26706 
 H                     1.98327  -1.4751   -0.36447 
 H                    -0.26138  -2.42626  -0.37619 
 H                    -2.03475   1.40329   0.36436 
 H                     0.20415   2.43419   0.26709 
 H                     1.48814   0.65478   1.2833 
 
 ITRead=  0  0  0  0  0  0  0  0  0  0  0  0  0  0
 MicOpt= -1 -1 -1 -1 -1 -1 -1 -1 -1 -1 -1 -1 -1 -1
 NAtoms=     14 NQM=       14 NQMF=       0 NMMI=      0 NMMIF=      0
                NMic=       0 NMicF=      0.
                    Isotopes and Nuclear Properties:
 (Nuclear quadrupole moments (NQMom) in fm**2, nuclear magnetic moments (NMagM)
  in nuclear magnetons)

  Atom         1           2           3           4           5           6           7           8           9          10
 IAtWgt=          12          12          12          12          12          12           1           1           1           1
 AtmWgt=  12.0000000  12.0000000  12.0000000  12.0000000  12.0000000  12.0000000   1.0078250   1.0078250   1.0078250   1.0078250
 NucSpn=           0           0           0           0           0           0           1           1           1           1
 AtZEff=  -0.0000000  -0.0000000  -0.0000000  -0.0000000  -0.0000000  -0.0000000  -0.0000000  -0.0000000  -0.0000000  -0.0000000
 NQMom=    0.0000000   0.0000000   0.0000000   0.0000000   0.0000000   0.0000000   0.0000000   0.0000000   0.0000000   0.0000000
 NMagM=    0.0000000   0.0000000   0.0000000   0.0000000   0.0000000   0.0000000   2.7928460   2.7928460   2.7928460   2.7928460
 AtZNuc=   6.0000000   6.0000000   6.0000000   6.0000000   6.0000000   6.0000000   1.0000000   1.0000000   1.0000000   1.0000000

  Atom        11          12          13          14
 IAtWgt=           1           1           1           1
 AtmWgt=   1.0078250   1.0078250   1.0078250   1.0078250
 NucSpn=           1           1           1           1
 AtZEff=  -0.0000000  -0.0000000  -0.0000000  -0.0000000
 NQMom=    0.0000000   0.0000000   0.0000000   0.0000000
 NMagM=    2.7928460   2.7928460   2.7928460   2.7928460
 AtZNuc=   1.0000000   1.0000000   1.0000000   1.0000000
 Leave Link  101 at Mon Aug  3 17:44:54 2020, MaxMem=  6442450944 cpu:               2.3 elap:               0.1
 (Enter /scratch/scicomp/CentOS/7.3.1611/Haswell/software/Gaussian/g16/l202.exe)
                          Input orientation:                          
 ---------------------------------------------------------------------
 Center     Atomic      Atomic             Coordinates (Angstroms)
 Number     Number       Type             X           Y           Z
 ---------------------------------------------------------------------
      1          6           0       -1.268219   -0.544265    0.160588
      2          6           0       -1.168591    0.784355    0.162078
      3          6           0        0.131055    1.449886   -0.197967
      4          6           0        1.330673    0.590498    0.197963
      5          6           0        1.118597   -0.854108   -0.162114
      6          6           0       -0.107338   -1.375876   -0.160543
      7          1           0        0.141251    1.619717   -1.283290
      8          1           0       -2.213189   -1.028076    0.376236
      9          1           0        2.239150    0.976392   -0.267055
     10          1           0        1.983265   -1.475095   -0.364468
     11          1           0       -0.261383   -2.426260   -0.376190
     12          1           0       -2.034746    1.403292    0.364360
     13          1           0        0.204154    2.434194    0.267093
     14          1           0        1.488138    0.654781    1.283304
 ---------------------------------------------------------------------
                    Distance matrix (angstroms):
                    1          2          3          4          5
     1  C    0.000000
     2  C    1.332351   0.000000
     3  C    2.462350   1.503876   0.000000
     4  C    2.836075   2.507028   1.527872   0.000000
     5  C    2.428380   2.832118   2.506973   1.503834   0.000000
     6  C    1.463676   2.428362   2.836047   2.462322   1.332352
     7  H    2.958751   2.121934   1.098578   2.160585   2.886529
     8  H    1.083303   2.102844   3.459116   3.900067   3.379480
     9  H    3.846676   3.440019   2.161720   1.091094   2.148809
    10  H    3.422613   3.913638   3.466110   2.238053   1.083616
    11  H    2.200853   3.379469   3.900036   3.459064   2.102816
    12  H    2.102871   1.083617   2.238097   3.466175   3.913643
    13  H    3.324221   2.148820   1.091094   2.161721   3.439964
    14  H    3.208692   2.886546   2.160562   1.098587   2.121919
                    6          7          8          9         10
     6  C    0.000000
     7  H    3.208728   0.000000
     8  H    2.200842   3.912572   0.000000
     9  H    3.324232   2.418219   4.924940   0.000000
    10  H    2.102867   3.716868   4.284705   2.466730   0.000000
    11  H    1.083301   4.165918   2.516070   4.224052   2.437888
    12  H    3.422601   2.737983   2.437936   4.341326   4.996070
    13  H    3.846626   1.752432   4.224071   2.559631   4.341272
    14  H    2.958683   3.054932   4.165885   1.752446   2.738006
                   11         12         13         14
    11  H    0.000000
    12  H    4.284705   0.000000
    13  H    4.924891   2.466758   0.000000
    14  H    3.912487   3.716912   2.418183   0.000000
 Symmetry turned off by external request.
 Stoichiometry    C6H8
 Framework group  C1[X(C6H8)]
 Deg. of freedom    36
 Full point group                 C1      NOp   1
 Rotational constants (GHZ):           5.1173393           5.1108715           2.7163312
 Leave Link  202 at Mon Aug  3 17:44:54 2020, MaxMem=  6442450944 cpu:               0.3 elap:               0.0
 (Enter /scratch/scicomp/CentOS/7.3.1611/Haswell/software/Gaussian/g16/l301.exe)
 Standard basis: def2TZVP (6D, 10F)
 Ernie: Thresh=  0.10000D-02 Tol=  0.10000D-05 Strict=F.
   264 basis functions,   370 primitive gaussians,   264 cartesian basis functions
    22 alpha electrons       22 beta electrons
       nuclear repulsion energy       219.9850485276 Hartrees.
 IExCor= 4639 DFT=T Ex+Corr=wB97XD ExCW=0 ScaHFX=  1.000000
 ScaDFX=  1.000000  1.000000  1.000000  1.000000 ScalE2=  1.000000  1.000000
 IRadAn=      5 IRanWt=     -1 IRanGd=            0 ICorTp=0 IEmpDi=121
 HFx  wShort=  0.000000 wLong=  0.200000 cFull=  0.222036 cShort=  0.000000 cLong=  0.777964
 DFx  wShort=  0.000000 wLong=  0.200000 cFull=  0.000000 cShort=  0.000000 cLong=  1.000000
 NAtoms=   14 NActive=   14 NUniq=   14 SFac= 1.00D+00 NAtFMM=   60 NAOKFM=F Big=F
 Integral buffers will be    131072 words long.
 Raffenetti 2 integral format.
 Two-electron integral symmetry is turned off.
 R6Disp:  Grimme-D2 Dispersion energy=       -0.0062943126 Hartrees.
 Nuclear repulsion after empirical dispersion term =      219.9787542149 Hartrees.
 Using the following non-standard input for PCM:
 qrep pcmdoc geomview  nodis nocav g03defaults tsare=0.075
 Warning! Using old PCM defaults because the g03defaults keyword was found.
 These settings can be overridden by following keywords.
 nsfe=14
 NVESolv=36  SolvMW=84.1595   Rsolv=2.815
 eps=2.0165 RhoS=0.778099999999998
 --- end of non-standard input.
 Reading user-defined spheres from input:
 ISph  on   Nord    Re0     Alpha      Xe            Ye            Ze
 --- end of user-defined spheres data.
 ------------------------------------------------------------------------------
 Polarizable Continuum Model (PCM)
 =================================
 Model                : PCM.
 Atomic radii         : UA0 (Simple United Atom Topological Model).
 Polarization charges : Total charges.
 Charge compensation  : None.
 Solution method      : On-the-fly selection.
 Cavity type          : SES (Solvent Excluding Surface) (Alpha=1.000).
 Cavity algorithm     : GePol (RMin=0.200 OFac=0.890).
                        User-defined sphere list used, NSphG=   14.
                        Tesserae with average area of 0.075 Ang**2.
                        Smoothing algorithm: None.
                        Polarization charges: point-like.
                        Self-potential: constant (ISelfS= 1).
                        Self-field    : global E.n sum rule (ISelfD= 3).
 Solvent              : CycloHexane, Eps=   2.016500 Eps(inf)=   2.035188
                        RSolv=   2.815000 Ang.
 ------------------------------------------------------------------------------
 Spheres list:
 ISph  on   Nord     Re0    Alpha      Xe            Ye            Ze
    1               1.7000  1.200     -1.268219     -0.544265      0.160588
    2               1.7000  1.200     -1.168591      0.784355      0.162078
    3               1.7000  1.200      0.131055      1.449886     -0.197967
    4               1.7000  1.200      1.330673      0.590498      0.197963
    5               1.7000  1.200      1.118597     -0.854108     -0.162114
    6               1.7000  1.200     -0.107338     -1.375876     -0.160543
    7               1.2000  1.200      0.141251      1.619717     -1.283290
    8               1.2000  1.200     -2.213189     -1.028076      0.376236
    9               1.2000  1.200      2.239150      0.976392     -0.267055
   10               1.2000  1.200      1.983265     -1.475095     -0.364468
   11               1.2000  1.200     -0.261383     -2.426260     -0.376190
   12               1.2000  1.200     -2.034746      1.403292      0.364360
   13               1.2000  1.200      0.204154      2.434194      0.267093
   14               1.2000  1.200      1.488138      0.654781      1.283304
 ------------------------------------------------------------------------------
 GePol: Number of generator spheres                  =      14
 GePol: Total number of spheres                      =      37
 GePol: Number of exposed spheres                    =      37 (100.00%)
 GePol: Number of tesserae                           =    2757
 GePol: Average area of tesserae                     =       0.05 Ang**2
 GePol: Minimum area of tessera                      =   0.10D-02 Ang**2
 GePol: Maximum area of tessera                      =    0.12395 Ang**2
 GePol: Number of small tesserae                     =       0
 GePol: Fraction of small tesserae (<1% of avg)      =       0.00%
 GePol: Total count of vertices                      =    9563
 GePol: Maximum number of vertices in a tessera      =       6
 GePol: Cavity surface area                          =    136.298 Ang**2
 GePol: Cavity volume                                =    127.788 Ang**3
 Leave Link  301 at Mon Aug  3 17:44:54 2020, MaxMem=  6442450944 cpu:               3.8 elap:               0.2
 (Enter /scratch/scicomp/CentOS/7.3.1611/Haswell/software/Gaussian/g16/l302.exe)
 NPDir=0 NMtPBC=     1 NCelOv=     1 NCel=       1 NClECP=     1 NCelD=      1
         NCelK=      1 NCelE2=     1 NClLst=     1 CellRange=     0.0.
 One-electron integrals computed using PRISM.
   1 Symmetry operations used in ECPInt.
 ECPInt:  NShTT=    4851 NPrTT=   14352 LenC2=    4827 LenP2D=   12081.
 LDataN:  DoStor=T MaxTD1= 6 Len=  172
 NBasis=   264 RedAO= T EigKep=  3.93D-05  NBF=   264
 NBsUse=   264 1.00D-06 EigRej= -1.00D+00 NBFU=   264
 Precomputing XC quadrature grid using
 IXCGrd= 4 IRadAn=           5 IRanWt=          -1 IRanGd=           0 AccXCQ= 0.00D+00.
 Generated NRdTot=       0 NPtTot=           0 NUsed=           0 NTot=          32
 NSgBfM=   263   263   263   263   263 MxSgAt=    14 MxSgA2=    14.
 Leave Link  302 at Mon Aug  3 17:44:54 2020, MaxMem=  6442450944 cpu:               5.8 elap:               0.3
 (Enter /scratch/scicomp/CentOS/7.3.1611/Haswell/software/Gaussian/g16/l303.exe)
 DipDrv:  MaxL=1.
 Leave Link  303 at Mon Aug  3 17:44:54 2020, MaxMem=  6442450944 cpu:               0.9 elap:               0.1
 (Enter /scratch/scicomp/CentOS/7.3.1611/Haswell/software/Gaussian/g16/l401.exe)
 ExpMin= 9.52D-02 ExpMax= 1.36D+04 ExpMxC= 4.63D+02 IAcc=3 IRadAn=         5 AccDes= 0.00D+00
 Harris functional with IExCor= 4639 and IRadAn=       5 diagonalized for initial guess.
 HarFok:  IExCor= 4639 AccDes= 0.00D+00 IRadAn=         5 IDoV= 1 UseB2=F ITyADJ=14
 ICtDFT=  3500011 ScaDFX=  1.000000  1.000000  1.000000  1.000000
 FoFCou: FMM=F IPFlag=           0 FMFlag=      100000 FMFlg1=           0
         NFxFlg=           0 DoJE=T BraDBF=F KetDBF=T FulRan=T
         wScrn=  0.000000 ICntrl=       500 IOpCl=  0 I1Cent=   200000004 NGrid=           0
         NMat0=    1 NMatS0=      1 NMatT0=    0 NMatD0=    1 NMtDS0=    0 NMtDT0=    0
 Symmetry not used in FoFCou.
 Harris En= -222.328951119041    
 JPrj=0 DoOrth=F DoCkMO=F.
 Leave Link  401 at Mon Aug  3 17:44:55 2020, MaxMem=  6442450944 cpu:              14.0 elap:               0.6
 (Enter /scratch/scicomp/CentOS/7.3.1611/Haswell/software/Gaussian/g16/l502.exe)
 Two-electron integral symmetry not used.
 Closed shell SCF:
 Using DIIS extrapolation, IDIIS=  1040.
 NGot=  6442450944 LenX=  6442303296 LenY=  6442233159
 Requested convergence on RMS density matrix=1.00D-08 within 128 cycles.
 Requested convergence on MAX density matrix=1.00D-06.
 Requested convergence on             energy=1.00D-06.
 No special actions if energy rises.
 Fock matrices will be formed incrementally for  20 cycles.

 Cycle   1  Pass 1  IDiag  1:
 FoFJK:  IHMeth= 1 ICntrl=       0 DoSepK=T KAlg= 0 I1Cent=           0 FoldK=F
 IRaf=         1 NMat=       1 IRICut=       1 DoRegI=T DoRafI=F ISym2E= 0 IDoP0=0 IntGTp=1.
 FoFCou: FMM=F IPFlag=           0 FMFlag=      100000 FMFlg1=           0
         NFxFlg=           0 DoJE=T BraDBF=F KetDBF=F FulRan=T
         wScrn=  0.000000 ICntrl=       500 IOpCl=  0 I1Cent=           0 NGrid=           0
         NMat0=    1 NMatS0=      1 NMatT0=    0 NMatD0=    1 NMtDS0=    0 NMtDT0=    0
 Symmetry not used in FoFCou.
 Inv3:  Mode=1 IEnd=    22803147.
 Iteration    1 A*A^-1 deviation from unit magnitude is 3.33D-15 for   1897.
 Iteration    1 A*A^-1 deviation from orthogonality  is 1.95D-15 for   1896    938.
 Iteration    1 A^-1*A deviation from unit magnitude is 2.89D-15 for    279.
 Iteration    1 A^-1*A deviation from orthogonality  is 1.70D-15 for   1319    231.
 E= -233.353113712258    
 DIIS: error= 5.75D-02 at cycle   1 NSaved=   1.
 NSaved= 1 IEnMin= 1 EnMin= -233.353113712258     IErMin= 1 ErrMin= 5.75D-02
 ErrMax= 5.75D-02  0.00D+00 EMaxC= 1.00D-01 BMatC= 5.12D-01 BMatP= 5.12D-01
 IDIUse=3 WtCom= 4.25D-01 WtEn= 5.75D-01
 Coeff-Com:  0.100D+01
 Coeff-En:   0.100D+01
 Coeff:      0.100D+01
 Gap=     0.328 Goal=   None    Shift=    0.000
 GapD=    0.328 DampG=1.000 DampE=0.500 DampFc=0.5000 IDamp=-1.
 Damping current iteration by 5.00D-01
 RMSDP=1.83D-03 MaxDP=9.81D-02              OVMax= 4.89D-02

 Cycle   2  Pass 1  IDiag  1:
 RMSU=  8.91D-04    CP:  9.75D-01
 E= -233.388047990745     Delta-E=       -0.034934278488 Rises=F Damp=T
 DIIS: error= 2.72D-02 at cycle   2 NSaved=   2.
 NSaved= 2 IEnMin= 2 EnMin= -233.388047990745     IErMin= 2 ErrMin= 2.72D-02
 ErrMax= 2.72D-02  0.00D+00 EMaxC= 1.00D-01 BMatC= 1.15D-01 BMatP= 5.12D-01
 IDIUse=3 WtCom= 7.28D-01 WtEn= 2.72D-01
 Coeff-Com: -0.858D+00 0.186D+01
 Coeff-En:   0.000D+00 0.100D+01
 Coeff:     -0.624D+00 0.162D+01
 Gap=     0.335 Goal=   None    Shift=    0.000
 RMSDP=1.07D-03 MaxDP=4.97D-02 DE=-3.49D-02 OVMax= 2.52D-02

 Cycle   3  Pass 1  IDiag  1:
 RMSU=  4.71D-04    CP:  9.50D-01  2.05D+00
 E= -233.419636191998     Delta-E=       -0.031588201253 Rises=F Damp=F
 DIIS: error= 3.35D-03 at cycle   3 NSaved=   3.
 NSaved= 3 IEnMin= 3 EnMin= -233.419636191998     IErMin= 3 ErrMin= 3.35D-03
 ErrMax= 3.35D-03  0.00D+00 EMaxC= 1.00D-01 BMatC= 2.36D-03 BMatP= 1.15D-01
 IDIUse=3 WtCom= 9.67D-01 WtEn= 3.35D-02
 Coeff-Com: -0.313D+00 0.677D+00 0.636D+00
 Coeff-En:   0.000D+00 0.000D+00 0.100D+01
 Coeff:     -0.302D+00 0.654D+00 0.648D+00
 Gap=     0.334 Goal=   None    Shift=    0.000
 RMSDP=1.24D-04 MaxDP=3.11D-03 DE=-3.16D-02 OVMax= 9.18D-03

 Cycle   4  Pass 1  IDiag  1:
 RMSU=  8.90D-05    CP:  9.48D-01  2.11D+00  8.49D-01
 E= -233.421783606795     Delta-E=       -0.002147414796 Rises=F Damp=F
 DIIS: error= 3.07D-04 at cycle   4 NSaved=   4.
 NSaved= 4 IEnMin= 4 EnMin= -233.421783606795     IErMin= 4 ErrMin= 3.07D-04
 ErrMax= 3.07D-04  0.00D+00 EMaxC= 1.00D-01 BMatC= 1.69D-05 BMatP= 2.36D-03
 IDIUse=3 WtCom= 9.97D-01 WtEn= 3.07D-03
 Coeff-Com:  0.103D-01-0.216D-01 0.364D-01 0.975D+00
 Coeff-En:   0.000D+00 0.000D+00 0.000D+00 0.100D+01
 Coeff:      0.102D-01-0.216D-01 0.363D-01 0.975D+00
 Gap=     0.334 Goal=   None    Shift=    0.000
 RMSDP=4.35D-05 MaxDP=8.25D-04 DE=-2.15D-03 OVMax= 1.90D-03

 Cycle   5  Pass 1  IDiag  1:
 RMSU=  1.92D-05    CP:  9.48D-01  2.13D+00  9.13D-01  1.18D+00
 E= -233.421804223948     Delta-E=       -0.000020617153 Rises=F Damp=F
 DIIS: error= 1.78D-04 at cycle   5 NSaved=   5.
 NSaved= 5 IEnMin= 5 EnMin= -233.421804223948     IErMin= 5 ErrMin= 1.78D-04
 ErrMax= 1.78D-04  0.00D+00 EMaxC= 1.00D-01 BMatC= 3.70D-06 BMatP= 1.69D-05
 IDIUse=3 WtCom= 9.98D-01 WtEn= 1.78D-03
 Coeff-Com:  0.200D-01-0.431D-01-0.198D-01 0.357D+00 0.686D+00
 Coeff-En:   0.000D+00 0.000D+00 0.000D+00 0.000D+00 0.100D+01
 Coeff:      0.199D-01-0.430D-01-0.197D-01 0.356D+00 0.687D+00
 Gap=     0.334 Goal=   None    Shift=    0.000
 RMSDP=1.07D-05 MaxDP=2.50D-04 DE=-2.06D-05 OVMax= 1.19D-03

 Cycle   6  Pass 1  IDiag  1:
 RMSU=  5.89D-06    CP:  9.48D-01  2.13D+00  9.26D-01  1.24D+00  1.05D+00
 E= -233.421808201830     Delta-E=       -0.000003977882 Rises=F Damp=F
 DIIS: error= 8.34D-05 at cycle   6 NSaved=   6.
 NSaved= 6 IEnMin= 6 EnMin= -233.421808201830     IErMin= 6 ErrMin= 8.34D-05
 ErrMax= 8.34D-05  0.00D+00 EMaxC= 1.00D-01 BMatC= 5.09D-07 BMatP= 3.70D-06
 IDIUse=1 WtCom= 1.00D+00 WtEn= 0.00D+00
 Coeff-Com:  0.647D-02-0.141D-01-0.123D-01 0.120D-01 0.269D+00 0.739D+00
 Coeff:      0.647D-02-0.141D-01-0.123D-01 0.120D-01 0.269D+00 0.739D+00
 Gap=     0.334 Goal=   None    Shift=    0.000
 RMSDP=4.29D-06 MaxDP=7.17D-05 DE=-3.98D-06 OVMax= 4.27D-04

 Cycle   7  Pass 1  IDiag  1:
 RMSU=  2.38D-06    CP:  9.48D-01  2.13D+00  9.30D-01  1.26D+00  1.15D+00
                    CP:  1.05D+00
 E= -233.421808878404     Delta-E=       -0.000000676574 Rises=F Damp=F
 DIIS: error= 2.54D-05 at cycle   7 NSaved=   7.
 NSaved= 7 IEnMin= 7 EnMin= -233.421808878404     IErMin= 7 ErrMin= 2.54D-05
 ErrMax= 2.54D-05  0.00D+00 EMaxC= 1.00D-01 BMatC= 3.01D-08 BMatP= 5.09D-07
 IDIUse=1 WtCom= 1.00D+00 WtEn= 0.00D+00
 Coeff-Com: -0.104D-02 0.224D-02-0.208D-03-0.420D-01-0.147D-01 0.151D+00
 Coeff-Com:  0.905D+00
 Coeff:     -0.104D-02 0.224D-02-0.208D-03-0.420D-01-0.147D-01 0.151D+00
 Coeff:      0.905D+00
 Gap=     0.334 Goal=   None    Shift=    0.000
 RMSDP=1.70D-06 MaxDP=3.93D-05 DE=-6.77D-07 OVMax= 2.20D-04

 Cycle   8  Pass 1  IDiag  1:
 RMSU=  8.28D-07    CP:  9.48D-01  2.13D+00  9.31D-01  1.26D+00  1.20D+00
                    CP:  1.18D+00  1.28D+00
 E= -233.421808955571     Delta-E=       -0.000000077167 Rises=F Damp=F
 DIIS: error= 6.39D-06 at cycle   8 NSaved=   8.
 NSaved= 8 IEnMin= 8 EnMin= -233.421808955571     IErMin= 8 ErrMin= 6.39D-06
 ErrMax= 6.39D-06  0.00D+00 EMaxC= 1.00D-01 BMatC= 5.50D-09 BMatP= 3.01D-08
 IDIUse=1 WtCom= 1.00D+00 WtEn= 0.00D+00
 Coeff-Com: -0.121D-02 0.262D-02 0.148D-02-0.175D-01-0.349D-01-0.360D-01
 Coeff-Com:  0.321D+00 0.765D+00
 Coeff:     -0.121D-02 0.262D-02 0.148D-02-0.175D-01-0.349D-01-0.360D-01
 Coeff:      0.321D+00 0.765D+00
 Gap=     0.334 Goal=   None    Shift=    0.000
 RMSDP=5.93D-07 MaxDP=1.29D-05 DE=-7.72D-08 OVMax= 6.05D-05

 Cycle   9  Pass 1  IDiag  1:
 RMSU=  2.36D-07    CP:  9.48D-01  2.13D+00  9.31D-01  1.26D+00  1.21D+00
                    CP:  1.22D+00  1.45D+00  1.19D+00
 E= -233.421808966612     Delta-E=       -0.000000011041 Rises=F Damp=F
 DIIS: error= 2.03D-06 at cycle   9 NSaved=   9.
 NSaved= 9 IEnMin= 9 EnMin= -233.421808966612     IErMin= 9 ErrMin= 2.03D-06
 ErrMax= 2.03D-06  0.00D+00 EMaxC= 1.00D-01 BMatC= 2.00D-10 BMatP= 5.50D-09
 IDIUse=1 WtCom= 1.00D+00 WtEn= 0.00D+00
 Coeff-Com:  0.224D-03-0.487D-03-0.119D-03 0.598D-02 0.652D-02-0.120D-01
 Coeff-Com: -0.137D+00-0.871D-01 0.122D+01
 Coeff:      0.224D-03-0.487D-03-0.119D-03 0.598D-02 0.652D-02-0.120D-01
 Coeff:     -0.137D+00-0.871D-01 0.122D+01
 Gap=     0.334 Goal=   None    Shift=    0.000
 RMSDP=3.40D-07 MaxDP=9.20D-06 DE=-1.10D-08 OVMax= 2.79D-05

 Cycle  10  Pass 1  IDiag  1:
 RMSU=  9.32D-08    CP:  9.48D-01  2.13D+00  9.30D-01  1.26D+00  1.21D+00
                    CP:  1.23D+00  1.53D+00  1.43D+00  1.41D+00
 E= -233.421808967592     Delta-E=       -0.000000000980 Rises=F Damp=F
 DIIS: error= 2.18D-07 at cycle  10 NSaved=  10.
 NSaved=10 IEnMin=10 EnMin= -233.421808967592     IErMin=10 ErrMin= 2.18D-07
 ErrMax= 2.18D-07  0.00D+00 EMaxC= 1.00D-01 BMatC= 3.43D-12 BMatP= 2.00D-10
 IDIUse=1 WtCom= 1.00D+00 WtEn= 0.00D+00
 Coeff-Com:  0.366D-04-0.790D-04-0.403D-04 0.689D-03 0.118D-02 0.543D-03
 Coeff-Com: -0.156D-01-0.241D-01 0.753D-01 0.962D+00
 Coeff:      0.366D-04-0.790D-04-0.403D-04 0.689D-03 0.118D-02 0.543D-03
 Coeff:     -0.156D-01-0.241D-01 0.753D-01 0.962D+00
 Gap=     0.334 Goal=   None    Shift=    0.000
 RMSDP=4.32D-08 MaxDP=1.42D-06 DE=-9.80D-10 OVMax= 2.25D-06

 Cycle  11  Pass 1  IDiag  1:
 RMSU=  1.25D-08    CP:  9.48D-01  2.13D+00  9.30D-01  1.26D+00  1.21D+00
                    CP:  1.23D+00  1.53D+00  1.45D+00  1.47D+00  1.33D+00
 E= -233.421808967604     Delta-E=       -0.000000000011 Rises=F Damp=F
 DIIS: error= 5.24D-08 at cycle  11 NSaved=  11.
 NSaved=11 IEnMin=11 EnMin= -233.421808967604     IErMin=11 ErrMin= 5.24D-08
 ErrMax= 5.24D-08  0.00D+00 EMaxC= 1.00D-01 BMatC= 2.14D-13 BMatP= 3.43D-12
 IDIUse=1 WtCom= 1.00D+00 WtEn= 0.00D+00
 Coeff-Com: -0.169D-04 0.366D-04 0.110D-04-0.407D-03-0.486D-03 0.754D-03
 Coeff-Com:  0.904D-02 0.626D-02-0.768D-01-0.891D-01 0.115D+01
 Coeff:     -0.169D-04 0.366D-04 0.110D-04-0.407D-03-0.486D-03 0.754D-03
 Coeff:      0.904D-02 0.626D-02-0.768D-01-0.891D-01 0.115D+01
 Gap=     0.334 Goal=   None    Shift=    0.000
 RMSDP=1.78D-08 MaxDP=5.35D-07 DE=-1.12D-11 OVMax= 7.24D-07

 Cycle  12  Pass 1  IDiag  1:
 RMSU=  3.33D-09    CP:  9.48D-01  2.13D+00  9.30D-01  1.26D+00  1.21D+00
                    CP:  1.23D+00  1.53D+00  1.46D+00  1.50D+00  1.48D+00
                    CP:  1.42D+00
 E= -233.421808967605     Delta-E=       -0.000000000001 Rises=F Damp=F
 DIIS: error= 5.96D-09 at cycle  12 NSaved=  12.
 NSaved=12 IEnMin=12 EnMin= -233.421808967605     IErMin=12 ErrMin= 5.96D-09
 ErrMax= 5.96D-09  0.00D+00 EMaxC= 1.00D-01 BMatC= 7.05D-15 BMatP= 2.14D-13
 IDIUse=1 WtCom= 1.00D+00 WtEn= 0.00D+00
 Coeff-Com: -0.113D-06 0.220D-06-0.302D-06 0.556D-07-0.105D-04-0.928D-06
 Coeff-Com: -0.240D-04 0.327D-03 0.143D-02-0.229D-01-0.510D-01 0.107D+01
 Coeff:     -0.113D-06 0.220D-06-0.302D-06 0.556D-07-0.105D-04-0.928D-06
 Coeff:     -0.240D-04 0.327D-03 0.143D-02-0.229D-01-0.510D-01 0.107D+01
 Gap=     0.334 Goal=   None    Shift=    0.000
 RMSDP=2.85D-09 MaxDP=8.52D-08 DE=-9.66D-13 OVMax= 9.78D-08

 Error on total polarization charges =  0.00901
 SCF Done:  E(RwB97XD) =  -233.421808968     A.U. after   12 cycles
            NFock= 12  Conv=0.29D-08     -V/T= 2.0058
 KE= 2.320756420253D+02 PE=-9.808533829722D+02 EE= 2.953771777644D+02
 --------------------------------------------------------------------
 Variational PCM results
 =======================
 <psi(f)|   H    |psi(f)>                     (a.u.) =    -233.426472
 <psi(f)|H+V(f)/2|psi(f)>                     (a.u.) =    -233.427504
 Total free energy in solution:
 - with all non electrostatic terms           (a.u.) =    -233.421809
 --------------------------------------------------------------------
 (Polarized solute)-Solvent               (kcal/mol) =      -0.65
 --------------------------------------------------------------------
 Quantum repulsion energy                 (kcal/mol) =       3.57
 Total non electrostatic                  (kcal/mol) =       3.57
 --------------------------------------------------------------------
 Partition over spheres:
 Sphere  on Atom  Surface  Charge   GEl     GCav    GDR
    1               7.78   0.012   -0.07    0.00    0.00
    2               7.80   0.011   -0.05    0.00    0.00
    3               3.47   0.001    0.00    0.00    0.00
    4               3.58   0.001    0.00    0.00    0.00
    5               7.88   0.011   -0.05    0.00    0.00
    6               7.78   0.012   -0.07    0.00    0.00
    7               7.52  -0.008   -0.01    0.00    0.00
    8               7.51  -0.011   -0.03    0.00    0.00
    9               7.59  -0.008   -0.03    0.00    0.00
   10               7.52  -0.010   -0.04    0.00    0.00
   11               7.51  -0.011   -0.03    0.00    0.00
   12               7.52  -0.011   -0.04    0.00    0.00
   13               7.59  -0.008   -0.03    0.00    0.00
   14               7.56  -0.008   -0.01    0.00    0.00
 Added spheres:    37.68   0.017   -0.17    0.00    0.00
 --------------------------------------------------------------------
 After PCM corrections, the energy is  -233.421808968     a.u.
 --------------------------------------------------------------------
 Leave Link  502 at Mon Aug  3 17:46:02 2020, MaxMem=  6442450944 cpu:            1572.2 elap:              66.4
 (Enter /scratch/scicomp/CentOS/7.3.1611/Haswell/software/Gaussian/g16/l601.exe)
 Copying SCF densities to generalized density rwf, IOpCl= 0 IROHF=0.

 **********************************************************************

            Population analysis using the SCF Density.

 **********************************************************************

 Alpha  occ. eigenvalues --  -10.28367 -10.28344 -10.28239 -10.28238 -10.27915
 Alpha  occ. eigenvalues --  -10.27880  -0.94088  -0.83999  -0.83886  -0.71176
 Alpha  occ. eigenvalues --   -0.67903  -0.59701  -0.57515  -0.52814  -0.50764
 Alpha  occ. eigenvalues --   -0.49868  -0.47298  -0.45144  -0.41189  -0.39424
 Alpha  occ. eigenvalues --   -0.39105  -0.29069
 Alpha virt. eigenvalues --    0.04335   0.12585   0.14420   0.16740   0.17160
 Alpha virt. eigenvalues --    0.17292   0.19188   0.19256   0.20931   0.22937
 Alpha virt. eigenvalues --    0.25282   0.26503   0.28164   0.29175   0.29574
 Alpha virt. eigenvalues --    0.30400   0.31575   0.31893   0.32246   0.34784
 Alpha virt. eigenvalues --    0.35373   0.38751   0.41365   0.41495   0.42374
 Alpha virt. eigenvalues --    0.44935   0.45792   0.46704   0.48334   0.48432
 Alpha virt. eigenvalues --    0.49835   0.50051   0.50258   0.50650   0.51515
 Alpha virt. eigenvalues --    0.53569   0.53957   0.54534   0.56373   0.61766
 Alpha virt. eigenvalues --    0.62510   0.65031   0.66714   0.69083   0.72436
 Alpha virt. eigenvalues --    0.74876   0.77005   0.81032   0.81929   0.83175
 Alpha virt. eigenvalues --    0.86482   0.88398   0.92913   0.93359   0.96034
 Alpha virt. eigenvalues --    0.98535   0.99338   1.01412   1.03120   1.05695
 Alpha virt. eigenvalues --    1.06200   1.12058   1.12964   1.13091   1.15703
 Alpha virt. eigenvalues --    1.18504   1.19360   1.21268   1.22037   1.24810
 Alpha virt. eigenvalues --    1.26012   1.27964   1.29787   1.30894   1.32012
 Alpha virt. eigenvalues --    1.34154   1.37407   1.37860   1.40285   1.41412
 Alpha virt. eigenvalues --    1.42683   1.43688   1.44832   1.48813   1.50209
 Alpha virt. eigenvalues --    1.52488   1.55533   1.56687   1.58029   1.60629
 Alpha virt. eigenvalues --    1.61777   1.68438   1.73176   1.77166   1.78981
 Alpha virt. eigenvalues --    1.83571   1.85190   1.88629   1.96582   1.98384
 Alpha virt. eigenvalues --    2.02679   2.03137   2.07170   2.12002   2.12049
 Alpha virt. eigenvalues --    2.17611   2.18762   2.19602   2.20260   2.21950
 Alpha virt. eigenvalues --    2.24154   2.34859   2.35323   2.41237   2.43621
 Alpha virt. eigenvalues --    2.47703   2.49354   2.54493   2.56022   2.56602
 Alpha virt. eigenvalues --    2.61227   2.63168   2.65934   2.67469   2.70896
 Alpha virt. eigenvalues --    2.72260   2.75171   2.75314   2.77721   2.78337
 Alpha virt. eigenvalues --    2.80544   2.80706   2.82940   2.83348   2.87790
 Alpha virt. eigenvalues --    2.88153   2.90084   2.90466   2.92707   2.93931
 Alpha virt. eigenvalues --    2.99437   2.99587   3.05270   3.06055   3.07653
 Alpha virt. eigenvalues --    3.09368   3.11664   3.12123   3.15125   3.15612
 Alpha virt. eigenvalues --    3.16764   3.17777   3.18896   3.19731   3.21554
 Alpha virt. eigenvalues --    3.22594   3.24220   3.26083   3.27007   3.28469
 Alpha virt. eigenvalues --    3.28509   3.30478   3.32912   3.33021   3.34283
 Alpha virt. eigenvalues --    3.35290   3.36658   3.39257   3.42087   3.44862
 Alpha virt. eigenvalues --    3.45859   3.47230   3.47875   3.48851   3.49903
 Alpha virt. eigenvalues --    3.52187   3.54354   3.59568   3.60180   3.60322
 Alpha virt. eigenvalues --    3.64805   3.66557   3.69256   3.71452   3.73065
 Alpha virt. eigenvalues --    3.80685   3.83286   3.83417   3.86111   3.91296
 Alpha virt. eigenvalues --    3.93584   3.95421   3.97940   4.07326   4.08713
 Alpha virt. eigenvalues --    4.10746   4.12137   4.19269   4.19922   4.20949
 Alpha virt. eigenvalues --    4.23715   4.27565   4.34357   4.34751   4.36374
 Alpha virt. eigenvalues --    4.42441   4.44047   4.44266   4.58765   4.59038
 Alpha virt. eigenvalues --    4.67604   4.68982   4.73122   4.73186   4.77302
 Alpha virt. eigenvalues --    4.80597   4.86109   4.88306   4.95233   5.01165
 Alpha virt. eigenvalues --    5.07100   5.17477   5.23790   5.26543   5.38157
 Alpha virt. eigenvalues --    5.43748   5.44617   5.65836   5.72414   5.88147
 Alpha virt. eigenvalues --    7.90940   7.96091   8.02581   8.09404   8.15137
 Alpha virt. eigenvalues --    8.31267  34.70760  34.78438  34.78777  34.94802
 Alpha virt. eigenvalues --   34.96873  35.13426
          Condensed to atoms (all electrons):
               1          2          3          4          5          6
     1  C    4.976458   0.598877  -0.071655   0.015796  -0.072182   0.347211
     2  C    0.598877   5.110292   0.292360  -0.068734   0.006013  -0.072160
     3  C   -0.071655   0.292360   4.902696   0.368803  -0.068740   0.015807
     4  C    0.015796  -0.068734   0.368803   4.902266   0.292429  -0.071674
     5  C   -0.072182   0.006013  -0.068740   0.292429   5.110222   0.598898
     6  C    0.347211  -0.072160   0.015807  -0.071674   0.598898   4.976497
     7  H   -0.010399  -0.032563   0.391752  -0.037756   0.004560   0.006357
     8  H    0.417558  -0.023227   0.003467  -0.000365   0.002907  -0.029735
     9  H   -0.003127   0.011871  -0.046125   0.439876  -0.045280   0.007510
    10  H    0.005546  -0.001467   0.004170  -0.024097   0.418569  -0.029796
    11  H   -0.029729   0.002905  -0.000364   0.003469  -0.023246   0.417568
    12  H   -0.029795   0.418583  -0.024100   0.004167  -0.001467   0.005548
    13  H    0.007503  -0.045290   0.439874  -0.046123   0.011870  -0.003127
    14  H    0.006320   0.004572  -0.037646   0.391618  -0.032560  -0.010372
               7          8          9         10         11         12
     1  C   -0.010399   0.417558  -0.003127   0.005546  -0.029729  -0.029795
     2  C   -0.032563  -0.023227   0.011871  -0.001467   0.002905   0.418583
     3  C    0.391752   0.003467  -0.046125   0.004170  -0.000364  -0.024100
     4  C   -0.037756  -0.000365   0.439876  -0.024097   0.003469   0.004167
     5  C    0.004560   0.002907  -0.045280   0.418569  -0.023246  -0.001467
     6  C    0.006357  -0.029735   0.007510  -0.029796   0.417568   0.005548
     7  H    0.587030  -0.000252  -0.006384   0.000094   0.000007   0.001222
     8  H   -0.000252   0.488151   0.000033  -0.000110  -0.003001  -0.005125
     9  H   -0.006384   0.000033   0.546117  -0.004550  -0.000065  -0.000100
    10  H    0.000094  -0.000110  -0.004550   0.488800  -0.005126   0.000028
    11  H    0.000007  -0.003001  -0.000065  -0.005126   0.488200  -0.000110
    12  H    0.001222  -0.005125  -0.000100   0.000028  -0.000110   0.488780
    13  H   -0.021320  -0.000065  -0.002853  -0.000100   0.000033  -0.004547
    14  H    0.008180   0.000006  -0.021332   0.001222  -0.000251   0.000095
              13         14
     1  C    0.007503   0.006320
     2  C   -0.045290   0.004572
     3  C    0.439874  -0.037646
     4  C   -0.046123   0.391618
     5  C    0.011870  -0.032560
     6  C   -0.003127  -0.010372
     7  H   -0.021320   0.008180
     8  H   -0.000065   0.000006
     9  H   -0.002853  -0.021332
    10  H   -0.000100   0.001222
    11  H    0.000033  -0.000251
    12  H   -0.004547   0.000095
    13  H    0.546039  -0.006392
    14  H   -0.006392   0.587105
 Mulliken charges:
               1
     1  C   -0.158382
     2  C   -0.202033
     3  C   -0.170299
     4  C   -0.169676
     5  C   -0.201992
     6  C   -0.158532
     7  H    0.109472
     8  H    0.149755
     9  H    0.124407
    10  H    0.146818
    11  H    0.149710
    12  H    0.146822
    13  H    0.124497
    14  H    0.109434
 Sum of Mulliken charges =  -0.00000
 Mulliken charges with hydrogens summed into heavy atoms:
               1
     1  C   -0.008627
     2  C   -0.055211
     3  C    0.063670
     4  C    0.064166
     5  C   -0.055175
     6  C   -0.008823
 Electronic spatial extent (au):  <R**2>=            503.1686
 Charge=             -0.0000 electrons
 Dipole moment (field-independent basis, Debye):
    X=              0.3359    Y=              0.4687    Z=              0.0000  Tot=              0.5767
 Quadrupole moment (field-independent basis, Debye-Ang):
   XX=            -34.3826   YY=            -34.1380   ZZ=            -39.1437
   XY=              0.3608   XZ=             -0.6116   YZ=              0.4378
 Traceless Quadrupole moment (field-independent basis, Debye-Ang):
   XX=              1.5055   YY=              1.7501   ZZ=             -3.2556
   XY=              0.3608   XZ=             -0.6116   YZ=              0.4378
 Octapole moment (field-independent basis, Debye-Ang**2):
  XXX=             -3.6256  YYY=             -6.7268  ZZZ=             -0.0001  XYY=             -3.2404
  XXY=             -2.8570  XXZ=              0.9239  XZZ=              0.4261  YZZ=              0.5938
  YYZ=             -0.9241  XYZ=              0.3142
 Hexadecapole moment (field-independent basis, Debye-Ang**3):
 XXXX=           -296.6863 YYYY=           -299.7295 ZZZZ=            -68.4762 XXXY=             -3.3702
 XXXZ=             -0.9858 YYYX=             -1.1108 YYYZ=              1.6825 ZZZX=             10.2217
 ZZZY=             -7.3221 XXYY=            -97.4412 XXZZ=            -66.9107 YYZZ=            -66.1028
 XXYZ=             -1.1018 YYXZ=              0.1750 ZZXY=              1.1891
 N-N= 2.199787542149D+02 E-N=-9.808533826816D+02  KE= 2.320756420253D+02
 No NMR shielding tensors so no spin-rotation constants.
 Leave Link  601 at Mon Aug  3 17:46:02 2020, MaxMem=  6442450944 cpu:               3.2 elap:               0.2
 (Enter /scratch/scicomp/CentOS/7.3.1611/Haswell/software/Gaussian/g16/l9999.exe)
 1\1\GINC-ATLAS-205\SP\RwB97XD\def2TZVP\C6H8\BOCHEN\03-Aug-2020\0\\#p w
 b97xd def2tzvp # scrf=(iefpcm,solvent=Cyclohexane,read) nosym 6d 10f\\
 cyclohexadiene wb97xd/def2tzvp//wb97xd/def2tzvp xp-pcm for eta=3\\0,1\
 C,0,-1.268219,-0.544265,0.160588\C,0,-1.168591,0.784355,0.162078\C,0,0
 .131055,1.449886,-0.197967\C,0,1.330673,0.590498,0.197963\C,0,1.118597
 ,-0.854108,-0.162114\C,0,-0.107338,-1.375876,-0.160543\H,0,0.141251,1.
 619717,-1.28329\H,0,-2.213189,-1.028076,0.376236\H,0,2.23915,0.976392,
 -0.267055\H,0,1.983265,-1.475095,-0.364468\H,0,-0.261383,-2.42626,-0.3
 7619\H,0,-2.034746,1.403292,0.36436\H,0,0.204154,2.434194,0.267093\H,0
 ,1.488138,0.654781,1.283304\\Version=ES64L-G16RevB.01\HF=-233.421809\R
 MSD=2.850e-09\Dipole=0.1321674,0.1844127,0.0000153\Quadrupole=1.119293
 9,1.3011455,-2.4204394,0.2682753,-0.4547401,0.3255218\PG=C01 [X(C6H8)]
 \\@


 EXPERIMENTALISTS THINK SILICON IS REALLY FUN TO USE
     ITS PLACE IN NOVEL COMPOUNDS IS CERTAIN TO AMUSE
 THEY SIT ALL DAY IN LABORATORIES MAKING ALL THIS SLUDGE
     "LOADED WITH THE SILICON THEY SAY", TO ME IT LOOKS LIKE FUDGE.
 FOR HAPPY THOUGH THEY BE WITH CRUD, I'D LIKE TO KNOW A LITTLE
      ABOUT THE PI BONDS ON THE EDGE AND SIGMAS IN THE MIDDLE.

 SO LETS DERIVE A WAVEFUNCTION.....6-31G*
     USE AN OPTIMAL GEOMETRY AND SEE WHERE ELECTRONS ARE.
 BUT WHAT OF CORRELATION?  ASKS THE WIRY LITTLE SKEPTIC.
     WE'LL THROW IN PERTURBATION AS AN ELECTRON ANTISEPTIC.
 AND WHEN THE PROGRAM GIVES US ANSWERS IN THEM WE CAN TRUST
     SINCE NOBODY CAN MAKE THE STUFF, WE HAVE NO CHOICE, WE MUST.

 SO THEORY GUYS HAVE GOT IT MADE, IN ROOMS FREE OF POLLUTION.
     INSTEAD OF PROBLEMS WITH THE REFLUX, THEY HAVE ONLY SOLUTIONS.
 AND WHEN THE FEDS ANNOUNCE THE LIST OF CARCINOGENIC TERRORS,
     THE THEORISTS SIT SAFELY AT THEIR TERMINALS FIXING ERRORS.
 IN OTHER WORDS, EXPERIMENTALISTS WILL LIKELY DIE OF CANCER
     FROM WORKING HARD YET FRUITLESSLY...TILL THEORY GIVES THE ANSWER.
          -- THOMAS A. HOLME, 1983
 Job cpu time:       0 days  0 hours 26 minutes 45.5 seconds.
 Elapsed time:       0 days  0 hours  1 minutes  8.2 seconds.
 File lengths (MBytes):  RWF=    177 Int=      0 D2E=      0 Chk=      7 Scr=      1
 Normal termination of Gaussian 16 at Mon Aug  3 17:46:02 2020.
 Initial command:
 /scratch/scicomp/CentOS/7.3.1611/Haswell/software/Gaussian/g16/l1.exe "/scratch/bochen/cyclohexadiene-dimerization/wb97xd-def2tzvp/xp-pcm/meso/Gau-124438.inp" -scrdir="/scratch/bochen/cyclohexadiene-dimerization/wb97xd-def2tzvp/xp-pcm/meso/"
 Entering Link 1 = /scratch/scicomp/CentOS/7.3.1611/Haswell/software/Gaussian/g16/l1.exe PID=    124994.
  
 Copyright (c) 1988-2017, Gaussian, Inc.  All Rights Reserved.
  
 This is part of the Gaussian(R) 16 program.  It is based on
 the Gaussian(R) 09 system (copyright 2009, Gaussian, Inc.),
 the Gaussian(R) 03 system (copyright 2003, Gaussian, Inc.),
 the Gaussian(R) 98 system (copyright 1998, Gaussian, Inc.),
 the Gaussian(R) 94 system (copyright 1995, Gaussian, Inc.),
 the Gaussian 92(TM) system (copyright 1992, Gaussian, Inc.),
 the Gaussian 90(TM) system (copyright 1990, Gaussian, Inc.),
 the Gaussian 88(TM) system (copyright 1988, Gaussian, Inc.),
 the Gaussian 86(TM) system (copyright 1986, Carnegie Mellon
 University), and the Gaussian 82(TM) system (copyright 1983,
 Carnegie Mellon University). Gaussian is a federally registered
 trademark of Gaussian, Inc.
  
 This software contains proprietary and confidential information,
 including trade secrets, belonging to Gaussian, Inc.
  
 This software is provided under written license and may be
 used, copied, transmitted, or stored only in accord with that
 written license.
  
 The following legend is applicable only to US Government
 contracts under FAR:
  
                    RESTRICTED RIGHTS LEGEND
  
 Use, reproduction and disclosure by the US Government is
 subject to restrictions as set forth in subparagraphs (a)
 and (c) of the Commercial Computer Software - Restricted
 Rights clause in FAR 52.227-19.
  
 Gaussian, Inc.
 340 Quinnipiac St., Bldg. 40, Wallingford CT 06492
  
  
 ---------------------------------------------------------------
 Warning -- This program may not be used in any manner that
 competes with the business of Gaussian, Inc. or will provide
 assistance to any competitor of Gaussian, Inc.  The licensee
 of this program is prohibited from giving any competitor of
 Gaussian, Inc. access to this program.  By using this program,
 the user acknowledges that Gaussian, Inc. is engaged in the
 business of creating and licensing software in the field of
 computational chemistry and represents and warrants to the
 licensee that it is not a competitor of Gaussian, Inc. and that
 it will not use this program in any manner prohibited above.
 ---------------------------------------------------------------
  

 Cite this work as:
 Gaussian 16, Revision B.01,
 M. J. Frisch, G. W. Trucks, H. B. Schlegel, G. E. Scuseria, 
 M. A. Robb, J. R. Cheeseman, G. Scalmani, V. Barone, 
 G. A. Petersson, H. Nakatsuji, X. Li, M. Caricato, A. V. Marenich, 
 J. Bloino, B. G. Janesko, R. Gomperts, B. Mennucci, H. P. Hratchian, 
 J. V. Ortiz, A. F. Izmaylov, J. L. Sonnenberg, D. Williams-Young, 
 F. Ding, F. Lipparini, F. Egidi, J. Goings, B. Peng, A. Petrone, 
 T. Henderson, D. Ranasinghe, V. G. Zakrzewski, J. Gao, N. Rega, 
 G. Zheng, W. Liang, M. Hada, M. Ehara, K. Toyota, R. Fukuda, 
 J. Hasegawa, M. Ishida, T. Nakajima, Y. Honda, O. Kitao, H. Nakai, 
 T. Vreven, K. Throssell, J. A. Montgomery, Jr., J. E. Peralta, 
 F. Ogliaro, M. J. Bearpark, J. J. Heyd, E. N. Brothers, K. N. Kudin, 
 V. N. Staroverov, T. A. Keith, R. Kobayashi, J. Normand, 
 K. Raghavachari, A. P. Rendell, J. C. Burant, S. S. Iyengar, 
 J. Tomasi, M. Cossi, J. M. Millam, M. Klene, C. Adamo, R. Cammi, 
 J. W. Ochterski, R. L. Martin, K. Morokuma, O. Farkas, 
 J. B. Foresman, and D. J. Fox, Gaussian, Inc., Wallingford CT, 2016.
 
 ******************************************
 Gaussian 16:  ES64L-G16RevB.01 20-Dec-2017
                 3-Aug-2020 
 ******************************************
 %chk=1_xp-115.chk
 %nproc=24
 Will use up to   24 processors via shared memory.
 %mem=48GB
 ----------------------------------------------------------------------
 #p wb97xd def2tzvp # scrf=(iefpcm,solvent=Cyclohexane,read) nosym 6d 1
 0f
 ----------------------------------------------------------------------
 1/38=1,40=2,172=1/1;
 2/12=2,15=1,17=6,18=5,40=1/2;
 3/5=44,7=101,8=22,11=2,25=1,30=1,70=2203,72=17,74=-58/1,2,3;
 4//1;
 5/5=2,38=5,53=17/2;
 6/7=2,8=2,9=2,10=2,28=1/1;
 99/5=1,9=1/99;
 Leave Link    1 at Mon Aug  3 17:46:02 2020, MaxMem=  6442450944 cpu:               1.5 elap:               0.1
 (Enter /scratch/scicomp/CentOS/7.3.1611/Haswell/software/Gaussian/g16/l101.exe)
 ----------------------------------------------------------------
 cyclohexadiene wb97xd/def2tzvp//wb97xd/def2tzvp xp-pcm for eta=3
 ----------------------------------------------------------------
 Symbolic Z-matrix:
 Charge =  0 Multiplicity = 1
 C                    -1.26822  -0.54427   0.16059 
 C                    -1.16859   0.78436   0.16208 
 C                     0.13106   1.44989  -0.19797 
 C                     1.33067   0.5905    0.19796 
 C                     1.1186   -0.85411  -0.16211 
 C                    -0.10734  -1.37588  -0.16054 
 H                     0.14125   1.61972  -1.28329 
 H                    -2.21319  -1.02808   0.37624 
 H                     2.23915   0.97639  -0.26706 
 H                     1.98327  -1.4751   -0.36447 
 H                    -0.26138  -2.42626  -0.37619 
 H                    -2.03475   1.40329   0.36436 
 H                     0.20415   2.43419   0.26709 
 H                     1.48814   0.65478   1.2833 
 
 ITRead=  0  0  0  0  0  0  0  0  0  0  0  0  0  0
 MicOpt= -1 -1 -1 -1 -1 -1 -1 -1 -1 -1 -1 -1 -1 -1
 NAtoms=     14 NQM=       14 NQMF=       0 NMMI=      0 NMMIF=      0
                NMic=       0 NMicF=      0.
                    Isotopes and Nuclear Properties:
 (Nuclear quadrupole moments (NQMom) in fm**2, nuclear magnetic moments (NMagM)
  in nuclear magnetons)

  Atom         1           2           3           4           5           6           7           8           9          10
 IAtWgt=          12          12          12          12          12          12           1           1           1           1
 AtmWgt=  12.0000000  12.0000000  12.0000000  12.0000000  12.0000000  12.0000000   1.0078250   1.0078250   1.0078250   1.0078250
 NucSpn=           0           0           0           0           0           0           1           1           1           1
 AtZEff=  -0.0000000  -0.0000000  -0.0000000  -0.0000000  -0.0000000  -0.0000000  -0.0000000  -0.0000000  -0.0000000  -0.0000000
 NQMom=    0.0000000   0.0000000   0.0000000   0.0000000   0.0000000   0.0000000   0.0000000   0.0000000   0.0000000   0.0000000
 NMagM=    0.0000000   0.0000000   0.0000000   0.0000000   0.0000000   0.0000000   2.7928460   2.7928460   2.7928460   2.7928460
 AtZNuc=   6.0000000   6.0000000   6.0000000   6.0000000   6.0000000   6.0000000   1.0000000   1.0000000   1.0000000   1.0000000

  Atom        11          12          13          14
 IAtWgt=           1           1           1           1
 AtmWgt=   1.0078250   1.0078250   1.0078250   1.0078250
 NucSpn=           1           1           1           1
 AtZEff=  -0.0000000  -0.0000000  -0.0000000  -0.0000000
 NQMom=    0.0000000   0.0000000   0.0000000   0.0000000
 NMagM=    2.7928460   2.7928460   2.7928460   2.7928460
 AtZNuc=   1.0000000   1.0000000   1.0000000   1.0000000
 Leave Link  101 at Mon Aug  3 17:46:02 2020, MaxMem=  6442450944 cpu:               2.3 elap:               0.1
 (Enter /scratch/scicomp/CentOS/7.3.1611/Haswell/software/Gaussian/g16/l202.exe)
                          Input orientation:                          
 ---------------------------------------------------------------------
 Center     Atomic      Atomic             Coordinates (Angstroms)
 Number     Number       Type             X           Y           Z
 ---------------------------------------------------------------------
      1          6           0       -1.268219   -0.544265    0.160588
      2          6           0       -1.168591    0.784355    0.162078
      3          6           0        0.131055    1.449886   -0.197967
      4          6           0        1.330673    0.590498    0.197963
      5          6           0        1.118597   -0.854108   -0.162114
      6          6           0       -0.107338   -1.375876   -0.160543
      7          1           0        0.141251    1.619717   -1.283290
      8          1           0       -2.213189   -1.028076    0.376236
      9          1           0        2.239150    0.976392   -0.267055
     10          1           0        1.983265   -1.475095   -0.364468
     11          1           0       -0.261383   -2.426260   -0.376190
     12          1           0       -2.034746    1.403292    0.364360
     13          1           0        0.204154    2.434194    0.267093
     14          1           0        1.488138    0.654781    1.283304
 ---------------------------------------------------------------------
                    Distance matrix (angstroms):
                    1          2          3          4          5
     1  C    0.000000
     2  C    1.332351   0.000000
     3  C    2.462350   1.503876   0.000000
     4  C    2.836075   2.507028   1.527872   0.000000
     5  C    2.428380   2.832118   2.506973   1.503834   0.000000
     6  C    1.463676   2.428362   2.836047   2.462322   1.332352
     7  H    2.958751   2.121934   1.098578   2.160585   2.886529
     8  H    1.083303   2.102844   3.459116   3.900067   3.379480
     9  H    3.846676   3.440019   2.161720   1.091094   2.148809
    10  H    3.422613   3.913638   3.466110   2.238053   1.083616
    11  H    2.200853   3.379469   3.900036   3.459064   2.102816
    12  H    2.102871   1.083617   2.238097   3.466175   3.913643
    13  H    3.324221   2.148820   1.091094   2.161721   3.439964
    14  H    3.208692   2.886546   2.160562   1.098587   2.121919
                    6          7          8          9         10
     6  C    0.000000
     7  H    3.208728   0.000000
     8  H    2.200842   3.912572   0.000000
     9  H    3.324232   2.418219   4.924940   0.000000
    10  H    2.102867   3.716868   4.284705   2.466730   0.000000
    11  H    1.083301   4.165918   2.516070   4.224052   2.437888
    12  H    3.422601   2.737983   2.437936   4.341326   4.996070
    13  H    3.846626   1.752432   4.224071   2.559631   4.341272
    14  H    2.958683   3.054932   4.165885   1.752446   2.738006
                   11         12         13         14
    11  H    0.000000
    12  H    4.284705   0.000000
    13  H    4.924891   2.466758   0.000000
    14  H    3.912487   3.716912   2.418183   0.000000
 Symmetry turned off by external request.
 Stoichiometry    C6H8
 Framework group  C1[X(C6H8)]
 Deg. of freedom    36
 Full point group                 C1      NOp   1
 Rotational constants (GHZ):           5.1173393           5.1108715           2.7163312
 Leave Link  202 at Mon Aug  3 17:46:02 2020, MaxMem=  6442450944 cpu:               0.3 elap:               0.0
 (Enter /scratch/scicomp/CentOS/7.3.1611/Haswell/software/Gaussian/g16/l301.exe)
 Standard basis: def2TZVP (6D, 10F)
 Ernie: Thresh=  0.10000D-02 Tol=  0.10000D-05 Strict=F.
   264 basis functions,   370 primitive gaussians,   264 cartesian basis functions
    22 alpha electrons       22 beta electrons
       nuclear repulsion energy       219.9850485276 Hartrees.
 IExCor= 4639 DFT=T Ex+Corr=wB97XD ExCW=0 ScaHFX=  1.000000
 ScaDFX=  1.000000  1.000000  1.000000  1.000000 ScalE2=  1.000000  1.000000
 IRadAn=      5 IRanWt=     -1 IRanGd=            0 ICorTp=0 IEmpDi=121
 HFx  wShort=  0.000000 wLong=  0.200000 cFull=  0.222036 cShort=  0.000000 cLong=  0.777964
 DFx  wShort=  0.000000 wLong=  0.200000 cFull=  0.000000 cShort=  0.000000 cLong=  1.000000
 NAtoms=   14 NActive=   14 NUniq=   14 SFac= 1.00D+00 NAtFMM=   60 NAOKFM=F Big=F
 Integral buffers will be    131072 words long.
 Raffenetti 2 integral format.
 Two-electron integral symmetry is turned off.
 R6Disp:  Grimme-D2 Dispersion energy=       -0.0062943126 Hartrees.
 Nuclear repulsion after empirical dispersion term =      219.9787542149 Hartrees.
 Using the following non-standard input for PCM:
 qrep pcmdoc geomview  nodis nocav g03defaults tsare=0.075
 Warning! Using old PCM defaults because the g03defaults keyword was found.
 These settings can be overridden by following keywords.
 nsfe=14
 NVESolv=36  SolvMW=84.1595   Rsolv=2.815
 eps=2.08074995319988 RhoS=0.87957140140931
 --- end of non-standard input.
 Reading user-defined spheres from input:
 ISph  on   Nord    Re0     Alpha      Xe            Ye            Ze
 --- end of user-defined spheres data.
 ------------------------------------------------------------------------------
 Polarizable Continuum Model (PCM)
 =================================
 Model                : PCM.
 Atomic radii         : UA0 (Simple United Atom Topological Model).
 Polarization charges : Total charges.
 Charge compensation  : None.
 Solution method      : On-the-fly selection.
 Cavity type          : SES (Solvent Excluding Surface) (Alpha=1.000).
 Cavity algorithm     : GePol (RMin=0.200 OFac=0.890).
                        User-defined sphere list used, NSphG=   14.
                        Tesserae with average area of 0.075 Ang**2.
                        Smoothing algorithm: None.
                        Polarization charges: point-like.
                        Self-potential: constant (ISelfS= 1).
                        Self-field    : global E.n sum rule (ISelfD= 3).
 Solvent              : CycloHexane, Eps=   2.080750 Eps(inf)=   2.035188
                        RSolv=   2.815000 Ang.
 ------------------------------------------------------------------------------
 Spheres list:
 ISph  on   Nord     Re0    Alpha      Xe            Ye            Ze
    1               1.7000  1.150     -1.268219     -0.544265      0.160588
    2               1.7000  1.150     -1.168591      0.784355      0.162078
    3               1.7000  1.150      0.131055      1.449886     -0.197967
    4               1.7000  1.150      1.330673      0.590498      0.197963
    5               1.7000  1.150      1.118597     -0.854108     -0.162114
    6               1.7000  1.150     -0.107338     -1.375876     -0.160543
    7               1.2000  1.150      0.141251      1.619717     -1.283290
    8               1.2000  1.150     -2.213189     -1.028076      0.376236
    9               1.2000  1.150      2.239150      0.976392     -0.267055
   10               1.2000  1.150      1.983265     -1.475095     -0.364468
   11               1.2000  1.150     -0.261383     -2.426260     -0.376190
   12               1.2000  1.150     -2.034746      1.403292      0.364360
   13               1.2000  1.150      0.204154      2.434194      0.267093
   14               1.2000  1.150      1.488138      0.654781      1.283304
 ------------------------------------------------------------------------------
 GePol: Number of generator spheres                  =      14
 GePol: Total number of spheres                      =      51
 GePol: Number of exposed spheres                    =      50 ( 98.04%)
 GePol: Number of tesserae                           =    2758
 GePol: Average area of tesserae                     =       0.05 Ang**2
 GePol: Minimum area of tessera                      =   0.10D-02 Ang**2
 GePol: Maximum area of tessera                      =    0.10972 Ang**2
 GePol: Number of small tesserae                     =       0
 GePol: Fraction of small tesserae (<1% of avg)      =       0.00%
 GePol: Total count of vertices                      =    9623
 GePol: Maximum number of vertices in a tessera      =       6
 GePol: Cavity surface area                          =    130.664 Ang**2
 GePol: Cavity volume                                =    119.071 Ang**3
 Leave Link  301 at Mon Aug  3 17:46:03 2020, MaxMem=  6442450944 cpu:               4.0 elap:               0.2
 (Enter /scratch/scicomp/CentOS/7.3.1611/Haswell/software/Gaussian/g16/l302.exe)
 NPDir=0 NMtPBC=     1 NCelOv=     1 NCel=       1 NClECP=     1 NCelD=      1
         NCelK=      1 NCelE2=     1 NClLst=     1 CellRange=     0.0.
 One-electron integrals computed using PRISM.
   1 Symmetry operations used in ECPInt.
 ECPInt:  NShTT=    4851 NPrTT=   14352 LenC2=    4827 LenP2D=   12081.
 LDataN:  DoStor=T MaxTD1= 6 Len=  172
 NBasis=   264 RedAO= T EigKep=  3.93D-05  NBF=   264
 NBsUse=   264 1.00D-06 EigRej= -1.00D+00 NBFU=   264
 Precomputing XC quadrature grid using
 IXCGrd= 4 IRadAn=           5 IRanWt=          -1 IRanGd=           0 AccXCQ= 0.00D+00.
 Generated NRdTot=       0 NPtTot=           0 NUsed=           0 NTot=          32
 NSgBfM=   263   263   263   263   263 MxSgAt=    14 MxSgA2=    14.
 Leave Link  302 at Mon Aug  3 17:46:04 2020, MaxMem=  6442450944 cpu:              24.1 elap:               1.1
 (Enter /scratch/scicomp/CentOS/7.3.1611/Haswell/software/Gaussian/g16/l303.exe)
 DipDrv:  MaxL=1.
 Leave Link  303 at Mon Aug  3 17:46:04 2020, MaxMem=  6442450944 cpu:               0.9 elap:               0.1
 (Enter /scratch/scicomp/CentOS/7.3.1611/Haswell/software/Gaussian/g16/l401.exe)
 ExpMin= 9.52D-02 ExpMax= 1.36D+04 ExpMxC= 4.63D+02 IAcc=3 IRadAn=         5 AccDes= 0.00D+00
 Harris functional with IExCor= 4639 and IRadAn=       5 diagonalized for initial guess.
 HarFok:  IExCor= 4639 AccDes= 0.00D+00 IRadAn=         5 IDoV= 1 UseB2=F ITyADJ=14
 ICtDFT=  3500011 ScaDFX=  1.000000  1.000000  1.000000  1.000000
 FoFCou: FMM=F IPFlag=           0 FMFlag=      100000 FMFlg1=           0
         NFxFlg=           0 DoJE=T BraDBF=F KetDBF=T FulRan=T
         wScrn=  0.000000 ICntrl=       500 IOpCl=  0 I1Cent=   200000004 NGrid=           0
         NMat0=    1 NMatS0=      1 NMatT0=    0 NMatD0=    1 NMtDS0=    0 NMtDT0=    0
 Symmetry not used in FoFCou.
 Harris En= -222.328951119041    
 JPrj=0 DoOrth=F DoCkMO=F.
 Leave Link  401 at Mon Aug  3 17:46:05 2020, MaxMem=  6442450944 cpu:              14.1 elap:               0.6
 (Enter /scratch/scicomp/CentOS/7.3.1611/Haswell/software/Gaussian/g16/l502.exe)
 Two-electron integral symmetry not used.
 Closed shell SCF:
 Using DIIS extrapolation, IDIIS=  1040.
 NGot=  6442450944 LenX=  6442303296 LenY=  6442233159
 Requested convergence on RMS density matrix=1.00D-08 within 128 cycles.
 Requested convergence on MAX density matrix=1.00D-06.
 Requested convergence on             energy=1.00D-06.
 No special actions if energy rises.
 Fock matrices will be formed incrementally for  20 cycles.

 Cycle   1  Pass 1  IDiag  1:
 FoFJK:  IHMeth= 1 ICntrl=       0 DoSepK=T KAlg= 0 I1Cent=           0 FoldK=F
 IRaf=         1 NMat=       1 IRICut=       1 DoRegI=T DoRafI=F ISym2E= 0 IDoP0=0 IntGTp=1.
 FoFCou: FMM=F IPFlag=           0 FMFlag=      100000 FMFlg1=           0
         NFxFlg=           0 DoJE=T BraDBF=F KetDBF=F FulRan=T
         wScrn=  0.000000 ICntrl=       500 IOpCl=  0 I1Cent=           0 NGrid=           0
         NMat0=    1 NMatS0=      1 NMatT0=    0 NMatD0=    1 NMtDS0=    0 NMtDT0=    0
 Symmetry not used in FoFCou.
 Inv3:  Mode=1 IEnd=    22819692.
 Iteration    1 A*A^-1 deviation from unit magnitude is 4.22D-15 for    107.
 Iteration    1 A*A^-1 deviation from orthogonality  is 2.12D-15 for    107     99.
 Iteration    1 A^-1*A deviation from unit magnitude is 3.77D-15 for    107.
 Iteration    1 A^-1*A deviation from orthogonality  is 1.89D-15 for   1103    120.
 E= -233.351297482918    
 DIIS: error= 5.75D-02 at cycle   1 NSaved=   1.
 NSaved= 1 IEnMin= 1 EnMin= -233.351297482918     IErMin= 1 ErrMin= 5.75D-02
 ErrMax= 5.75D-02  0.00D+00 EMaxC= 1.00D-01 BMatC= 5.12D-01 BMatP= 5.12D-01
 IDIUse=3 WtCom= 4.25D-01 WtEn= 5.75D-01
 Coeff-Com:  0.100D+01
 Coeff-En:   0.100D+01
 Coeff:      0.100D+01
 Gap=     0.329 Goal=   None    Shift=    0.000
 GapD=    0.329 DampG=1.000 DampE=0.500 DampFc=0.5000 IDamp=-1.
 Damping current iteration by 5.00D-01
 RMSDP=1.85D-03 MaxDP=9.85D-02              OVMax= 4.83D-02

 Cycle   2  Pass 1  IDiag  1:
 RMSU=  9.00D-04    CP:  9.74D-01
 E= -233.386104289595     Delta-E=       -0.034806806677 Rises=F Damp=T
 DIIS: error= 2.72D-02 at cycle   2 NSaved=   2.
 NSaved= 2 IEnMin= 2 EnMin= -233.386104289595     IErMin= 2 ErrMin= 2.72D-02
 ErrMax= 2.72D-02  0.00D+00 EMaxC= 1.00D-01 BMatC= 1.15D-01 BMatP= 5.12D-01
 IDIUse=3 WtCom= 7.28D-01 WtEn= 2.72D-01
 Coeff-Com: -0.859D+00 0.186D+01
 Coeff-En:   0.000D+00 0.100D+01
 Coeff:     -0.625D+00 0.163D+01
 Gap=     0.336 Goal=   None    Shift=    0.000
 RMSDP=1.08D-03 MaxDP=5.00D-02 DE=-3.48D-02 OVMax= 2.48D-02

 Cycle   3  Pass 1  IDiag  1:
 RMSU=  4.61D-04    CP:  9.50D-01  2.06D+00
 E= -233.417676984698     Delta-E=       -0.031572695103 Rises=F Damp=F
 DIIS: error= 3.27D-03 at cycle   3 NSaved=   3.
 NSaved= 3 IEnMin= 3 EnMin= -233.417676984698     IErMin= 3 ErrMin= 3.27D-03
 ErrMax= 3.27D-03  0.00D+00 EMaxC= 1.00D-01 BMatC= 2.27D-03 BMatP= 1.15D-01
 IDIUse=3 WtCom= 9.67D-01 WtEn= 3.27D-02
 Coeff-Com: -0.312D+00 0.674D+00 0.637D+00
 Coeff-En:   0.000D+00 0.000D+00 0.100D+01
 Coeff:     -0.302D+00 0.652D+00 0.649D+00
 Gap=     0.334 Goal=   None    Shift=    0.000
 RMSDP=1.21D-04 MaxDP=3.08D-03 DE=-3.16D-02 OVMax= 8.99D-03

 Cycle   4  Pass 1  IDiag  1:
 RMSU=  8.88D-05    CP:  9.48D-01  2.11D+00  8.56D-01
 E= -233.419739391632     Delta-E=       -0.002062406935 Rises=F Damp=F
 DIIS: error= 3.00D-04 at cycle   4 NSaved=   4.
 NSaved= 4 IEnMin= 4 EnMin= -233.419739391632     IErMin= 4 ErrMin= 3.00D-04
 ErrMax= 3.00D-04  0.00D+00 EMaxC= 1.00D-01 BMatC= 1.63D-05 BMatP= 2.27D-03
 IDIUse=3 WtCom= 9.97D-01 WtEn= 3.00D-03
 Coeff-Com:  0.121D-01-0.255D-01 0.327D-01 0.981D+00
 Coeff-En:   0.000D+00 0.000D+00 0.000D+00 0.100D+01
 Coeff:      0.120D-01-0.255D-01 0.326D-01 0.981D+00
 Gap=     0.334 Goal=   None    Shift=    0.000
 RMSDP=4.42D-05 MaxDP=8.39D-04 DE=-2.06D-03 OVMax= 1.86D-03

 Cycle   5  Pass 1  IDiag  1:
 RMSU=  1.90D-05    CP:  9.47D-01  2.14D+00  9.22D-01  1.19D+00
 E= -233.419759829266     Delta-E=       -0.000020437634 Rises=F Damp=F
 DIIS: error= 1.71D-04 at cycle   5 NSaved=   5.
 NSaved= 5 IEnMin= 5 EnMin= -233.419759829266     IErMin= 5 ErrMin= 1.71D-04
 ErrMax= 1.71D-04  0.00D+00 EMaxC= 1.00D-01 BMatC= 3.47D-06 BMatP= 1.63D-05
 IDIUse=3 WtCom= 9.98D-01 WtEn= 1.71D-03
 Coeff-Com:  0.200D-01-0.433D-01-0.206D-01 0.351D+00 0.693D+00
 Coeff-En:   0.000D+00 0.000D+00 0.000D+00 0.000D+00 0.100D+01
 Coeff:      0.200D-01-0.432D-01-0.206D-01 0.351D+00 0.693D+00
 Gap=     0.334 Goal=   None    Shift=    0.000
 RMSDP=1.07D-05 MaxDP=2.50D-04 DE=-2.04D-05 OVMax= 1.16D-03

 Cycle   6  Pass 1  IDiag  1:
 RMSU=  5.76D-06    CP:  9.47D-01  2.14D+00  9.35D-01  1.24D+00  1.05D+00
 E= -233.419763598998     Delta-E=       -0.000003769732 Rises=F Damp=F
 DIIS: error= 8.11D-05 at cycle   6 NSaved=   6.
 NSaved= 6 IEnMin= 6 EnMin= -233.419763598998     IErMin= 6 ErrMin= 8.11D-05
 ErrMax= 8.11D-05  0.00D+00 EMaxC= 1.00D-01 BMatC= 4.90D-07 BMatP= 3.47D-06
 IDIUse=1 WtCom= 1.00D+00 WtEn= 0.00D+00
 Coeff-Com:  0.625D-02-0.136D-01-0.120D-01 0.999D-02 0.271D+00 0.739D+00
 Coeff:      0.625D-02-0.136D-01-0.120D-01 0.999D-02 0.271D+00 0.739D+00
 Gap=     0.334 Goal=   None    Shift=    0.000
 RMSDP=4.21D-06 MaxDP=7.07D-05 DE=-3.77D-06 OVMax= 4.20D-04

 Cycle   7  Pass 1  IDiag  1:
 RMSU=  2.34D-06    CP:  9.47D-01  2.14D+00  9.39D-01  1.26D+00  1.16D+00
                    CP:  1.06D+00
 E= -233.419764251675     Delta-E=       -0.000000652677 Rises=F Damp=F
 DIIS: error= 2.55D-05 at cycle   7 NSaved=   7.
 NSaved= 7 IEnMin= 7 EnMin= -233.419764251675     IErMin= 7 ErrMin= 2.55D-05
 ErrMax= 2.55D-05  0.00D+00 EMaxC= 1.00D-01 BMatC= 3.01D-08 BMatP= 4.90D-07
 IDIUse=1 WtCom= 1.00D+00 WtEn= 0.00D+00
 Coeff-Com: -0.108D-02 0.233D-02-0.123D-03-0.423D-01-0.141D-01 0.157D+00
 Coeff-Com:  0.898D+00
 Coeff:     -0.108D-02 0.233D-02-0.123D-03-0.423D-01-0.141D-01 0.157D+00
 Coeff:      0.898D+00
 Gap=     0.334 Goal=   None    Shift=    0.000
 RMSDP=1.68D-06 MaxDP=3.91D-05 DE=-6.53D-07 OVMax= 2.19D-04

 Cycle   8  Pass 1  IDiag  1:
 RMSU=  8.21D-07    CP:  9.47D-01  2.14D+00  9.40D-01  1.27D+00  1.20D+00
                    CP:  1.19D+00  1.28D+00
 E= -233.419764327848     Delta-E=       -0.000000076173 Rises=F Damp=F
 DIIS: error= 6.41D-06 at cycle   8 NSaved=   8.
 NSaved= 8 IEnMin= 8 EnMin= -233.419764327848     IErMin= 8 ErrMin= 6.41D-06
 ErrMax= 6.41D-06  0.00D+00 EMaxC= 1.00D-01 BMatC= 5.44D-09 BMatP= 3.01D-08
 IDIUse=1 WtCom= 1.00D+00 WtEn= 0.00D+00
 Coeff-Com: -0.120D-02 0.260D-02 0.150D-02-0.173D-01-0.350D-01-0.348D-01
 Coeff-Com:  0.318D+00 0.766D+00
 Coeff:     -0.120D-02 0.260D-02 0.150D-02-0.173D-01-0.350D-01-0.348D-01
 Coeff:      0.318D+00 0.766D+00
 Gap=     0.334 Goal=   None    Shift=    0.000
 RMSDP=5.88D-07 MaxDP=1.27D-05 DE=-7.62D-08 OVMax= 6.05D-05

 Cycle   9  Pass 1  IDiag  1:
 RMSU=  2.34D-07    CP:  9.47D-01  2.14D+00  9.39D-01  1.27D+00  1.22D+00
                    CP:  1.22D+00  1.45D+00  1.19D+00
 E= -233.419764338780     Delta-E=       -0.000000010932 Rises=F Damp=F
 DIIS: error= 2.03D-06 at cycle   9 NSaved=   9.
 NSaved= 9 IEnMin= 9 EnMin= -233.419764338780     IErMin= 9 ErrMin= 2.03D-06
 ErrMax= 2.03D-06  0.00D+00 EMaxC= 1.00D-01 BMatC= 1.99D-10 BMatP= 5.44D-09
 IDIUse=1 WtCom= 1.00D+00 WtEn= 0.00D+00
 Coeff-Com:  0.223D-03-0.484D-03-0.118D-03 0.597D-02 0.629D-02-0.133D-01
 Coeff-Com: -0.135D+00-0.829D-01 0.122D+01
 Coeff:      0.223D-03-0.484D-03-0.118D-03 0.597D-02 0.629D-02-0.133D-01
 Coeff:     -0.135D+00-0.829D-01 0.122D+01
 Gap=     0.334 Goal=   None    Shift=    0.000
 RMSDP=3.37D-07 MaxDP=9.14D-06 DE=-1.09D-08 OVMax= 2.79D-05

 Cycle  10  Pass 1  IDiag  1:
 RMSU=  9.08D-08    CP:  9.47D-01  2.14D+00  9.39D-01  1.27D+00  1.22D+00
                    CP:  1.23D+00  1.53D+00  1.42D+00  1.40D+00
 E= -233.419764339751     Delta-E=       -0.000000000971 Rises=F Damp=F
 DIIS: error= 2.16D-07 at cycle  10 NSaved=  10.
 NSaved=10 IEnMin=10 EnMin= -233.419764339751     IErMin=10 ErrMin= 2.16D-07
 ErrMax= 2.16D-07  0.00D+00 EMaxC= 1.00D-01 BMatC= 3.35D-12 BMatP= 1.99D-10
 IDIUse=1 WtCom= 1.00D+00 WtEn= 0.00D+00
 Coeff-Com:  0.356D-04-0.767D-04-0.398D-04 0.669D-03 0.114D-02 0.423D-03
 Coeff-Com: -0.151D-01-0.234D-01 0.743D-01 0.962D+00
 Coeff:      0.356D-04-0.767D-04-0.398D-04 0.669D-03 0.114D-02 0.423D-03
 Coeff:     -0.151D-01-0.234D-01 0.743D-01 0.962D+00
 Gap=     0.334 Goal=   None    Shift=    0.000
 RMSDP=4.20D-08 MaxDP=1.38D-06 DE=-9.71D-10 OVMax= 2.20D-06

 Cycle  11  Pass 1  IDiag  1:
 RMSU=  1.23D-08    CP:  9.47D-01  2.14D+00  9.39D-01  1.27D+00  1.22D+00
                    CP:  1.23D+00  1.54D+00  1.45D+00  1.47D+00  1.33D+00
 E= -233.419764339761     Delta-E=       -0.000000000010 Rises=F Damp=F
 DIIS: error= 5.27D-08 at cycle  11 NSaved=  11.
 NSaved=11 IEnMin=11 EnMin= -233.419764339761     IErMin=11 ErrMin= 5.27D-08
 ErrMax= 5.27D-08  0.00D+00 EMaxC= 1.00D-01 BMatC= 2.14D-13 BMatP= 3.35D-12
 IDIUse=1 WtCom= 1.00D+00 WtEn= 0.00D+00
 Coeff-Com: -0.169D-04 0.365D-04 0.109D-04-0.408D-03-0.473D-03 0.854D-03
 Coeff-Com:  0.898D-02 0.599D-02-0.772D-01-0.905D-01 0.115D+01
 Coeff:     -0.169D-04 0.365D-04 0.109D-04-0.408D-03-0.473D-03 0.854D-03
 Coeff:      0.898D-02 0.599D-02-0.772D-01-0.905D-01 0.115D+01
 Gap=     0.334 Goal=   None    Shift=    0.000
 RMSDP=1.75D-08 MaxDP=5.28D-07 DE=-9.63D-12 OVMax= 7.20D-07

 Cycle  12  Pass 1  IDiag  1:
 RMSU=  3.28D-09    CP:  9.47D-01  2.14D+00  9.39D-01  1.27D+00  1.22D+00
                    CP:  1.23D+00  1.54D+00  1.45D+00  1.49D+00  1.48D+00
                    CP:  1.42D+00
 E= -233.419764339763     Delta-E=       -0.000000000002 Rises=F Damp=F
 DIIS: error= 5.81D-09 at cycle  12 NSaved=  12.
 NSaved=12 IEnMin=12 EnMin= -233.419764339763     IErMin=12 ErrMin= 5.81D-09
 ErrMax= 5.81D-09  0.00D+00 EMaxC= 1.00D-01 BMatC= 9.00D-15 BMatP= 2.14D-13
 IDIUse=1 WtCom= 1.00D+00 WtEn= 0.00D+00
 Coeff-Com: -0.128D-05 0.274D-05 0.493D-06-0.279D-04-0.425D-04 0.549D-04
 Coeff-Com:  0.593D-03 0.735D-03-0.393D-02-0.290D-01 0.310D-01 0.100D+01
 Coeff:     -0.128D-05 0.274D-05 0.493D-06-0.279D-04-0.425D-04 0.549D-04
 Coeff:      0.593D-03 0.735D-03-0.393D-02-0.290D-01 0.310D-01 0.100D+01
 Gap=     0.334 Goal=   None    Shift=    0.000
 RMSDP=2.61D-09 MaxDP=7.77D-08 DE=-2.30D-12 OVMax= 9.77D-08

 Error on total polarization charges =  0.01177
 SCF Done:  E(RwB97XD) =  -233.419764340     A.U. after   12 cycles
            NFock= 12  Conv=0.26D-08     -V/T= 2.0058
 KE= 2.320830517872D+02 PE=-9.808959126507D+02 EE= 2.954143423088D+02
 --------------------------------------------------------------------
 Variational PCM results
 =======================
 <psi(f)|   H    |psi(f)>                     (a.u.) =    -233.426391
 <psi(f)|H+V(f)/2|psi(f)>                     (a.u.) =    -233.427623
 Total free energy in solution:
 - with all non electrostatic terms           (a.u.) =    -233.419764
 --------------------------------------------------------------------
 (Polarized solute)-Solvent               (kcal/mol) =      -0.77
 --------------------------------------------------------------------
 Quantum repulsion energy                 (kcal/mol) =       4.93
 Total non electrostatic                  (kcal/mol) =       4.93
 --------------------------------------------------------------------
 Partition over spheres:
 Sphere  on Atom  Surface  Charge   GEl     GCav    GDR
    1               7.11   0.012   -0.08    0.00    0.00
    2               6.86   0.011   -0.06    0.00    0.00
    3               3.18   0.002    0.00    0.00    0.00
    4               3.18   0.002    0.00    0.00    0.00
    5               6.86   0.011   -0.06    0.00    0.00
    6               7.11   0.012   -0.08    0.00    0.00
    7               6.97  -0.008   -0.02    0.00    0.00
    8               7.31  -0.012   -0.05    0.00    0.00
    9               6.92  -0.009   -0.04    0.00    0.00
   10               7.29  -0.012   -0.05    0.00    0.00
   11               7.31  -0.012   -0.05    0.00    0.00
   12               7.29  -0.012   -0.05    0.00    0.00
   13               6.92  -0.009   -0.04    0.00    0.00
   14               6.97  -0.008   -0.02    0.00    0.00
 Added spheres:    39.39   0.021   -0.19    0.00    0.00
 --------------------------------------------------------------------
 After PCM corrections, the energy is  -233.419764340     a.u.
 --------------------------------------------------------------------
 Leave Link  502 at Mon Aug  3 17:47:11 2020, MaxMem=  6442450944 cpu:            1569.7 elap:              66.3
 (Enter /scratch/scicomp/CentOS/7.3.1611/Haswell/software/Gaussian/g16/l601.exe)
 Copying SCF densities to generalized density rwf, IOpCl= 0 IROHF=0.

 **********************************************************************

            Population analysis using the SCF Density.

 **********************************************************************

 Alpha  occ. eigenvalues --  -10.28252 -10.28229 -10.28131 -10.28130 -10.27806
 Alpha  occ. eigenvalues --  -10.27771  -0.93995  -0.83908  -0.83790  -0.71080
 Alpha  occ. eigenvalues --   -0.67810  -0.59604  -0.57419  -0.52716  -0.50667
 Alpha  occ. eigenvalues --   -0.49769  -0.47195  -0.45044  -0.41088  -0.39323
 Alpha  occ. eigenvalues --   -0.39023  -0.28984
 Alpha virt. eigenvalues --    0.04442   0.12845   0.14625   0.17041   0.17445
 Alpha virt. eigenvalues --    0.17538   0.19458   0.19545   0.21212   0.23232
 Alpha virt. eigenvalues --    0.25496   0.26769   0.28374   0.29419   0.29840
 Alpha virt. eigenvalues --    0.30694   0.31835   0.32102   0.32477   0.35047
 Alpha virt. eigenvalues --    0.35594   0.39010   0.41552   0.41735   0.42621
 Alpha virt. eigenvalues --    0.45136   0.46085   0.46900   0.48557   0.48681
 Alpha virt. eigenvalues --    0.50081   0.50295   0.50482   0.50899   0.51727
 Alpha virt. eigenvalues --    0.53762   0.54212   0.54796   0.56565   0.61998
 Alpha virt. eigenvalues --    0.62692   0.65230   0.66866   0.69252   0.72594
 Alpha virt. eigenvalues --    0.75015   0.77153   0.81224   0.82139   0.83317
 Alpha virt. eigenvalues --    0.86661   0.88519   0.93043   0.93498   0.96186
 Alpha virt. eigenvalues --    0.98663   0.99513   1.01558   1.03292   1.05853
 Alpha virt. eigenvalues --    1.06364   1.12185   1.13084   1.13197   1.15848
 Alpha virt. eigenvalues --    1.18634   1.19487   1.21405   1.22173   1.24939
 Alpha virt. eigenvalues --    1.26120   1.28067   1.29938   1.31012   1.32132
 Alpha virt. eigenvalues --    1.34262   1.37524   1.37990   1.40410   1.41523
 Alpha virt. eigenvalues --    1.42813   1.43781   1.44963   1.48912   1.50329
 Alpha virt. eigenvalues --    1.52589   1.55605   1.56800   1.58133   1.60724
 Alpha virt. eigenvalues --    1.61882   1.68514   1.73283   1.77265   1.79081
 Alpha virt. eigenvalues --    1.83661   1.85281   1.88738   1.96666   1.98468
 Alpha virt. eigenvalues --    2.02775   2.03229   2.07262   2.12093   2.12141
 Alpha virt. eigenvalues --    2.17717   2.18865   2.19702   2.20367   2.22055
 Alpha virt. eigenvalues --    2.24245   2.34969   2.35425   2.41341   2.43721
 Alpha virt. eigenvalues --    2.47803   2.49446   2.54594   2.56117   2.56690
 Alpha virt. eigenvalues --    2.61321   2.63258   2.66032   2.67569   2.70991
 Alpha virt. eigenvalues --    2.72361   2.75272   2.75418   2.77815   2.78429
 Alpha virt. eigenvalues --    2.80640   2.80810   2.83043   2.83450   2.87889
 Alpha virt. eigenvalues --    2.88250   2.90183   2.90559   2.92804   2.94035
 Alpha virt. eigenvalues --    2.99527   2.99682   3.05368   3.06150   3.07751
 Alpha virt. eigenvalues --    3.09470   3.11765   3.12225   3.15225   3.15720
 Alpha virt. eigenvalues --    3.16868   3.17878   3.18987   3.19828   3.21648
 Alpha virt. eigenvalues --    3.22689   3.24332   3.26181   3.27099   3.28577
 Alpha virt. eigenvalues --    3.28612   3.30575   3.33005   3.33116   3.34386
 Alpha virt. eigenvalues --    3.35377   3.36754   3.39356   3.42183   3.44955
 Alpha virt. eigenvalues --    3.45956   3.47325   3.47972   3.48943   3.49998
 Alpha virt. eigenvalues --    3.52278   3.54447   3.59657   3.60269   3.60420
 Alpha virt. eigenvalues --    3.64899   3.66650   3.69349   3.71546   3.73157
 Alpha virt. eigenvalues --    3.80781   3.83382   3.83508   3.86201   3.91393
 Alpha virt. eigenvalues --    3.93673   3.95518   3.98033   4.07422   4.08806
 Alpha virt. eigenvalues --    4.10844   4.12231   4.19368   4.20018   4.21048
 Alpha virt. eigenvalues --    4.23805   4.27663   4.34452   4.34845   4.36468
 Alpha virt. eigenvalues --    4.42533   4.44134   4.44361   4.58856   4.59134
 Alpha virt. eigenvalues --    4.67698   4.69079   4.73221   4.73279   4.77394
 Alpha virt. eigenvalues --    4.80701   4.86202   4.88409   4.95334   5.01261
 Alpha virt. eigenvalues --    5.07204   5.17580   5.23892   5.26643   5.38255
 Alpha virt. eigenvalues --    5.43848   5.44717   5.65930   5.72509   5.88240
 Alpha virt. eigenvalues --    7.91036   7.96189   8.02689   8.09511   8.15237
 Alpha virt. eigenvalues --    8.31369  34.70867  34.78548  34.78884  34.94910
 Alpha virt. eigenvalues --   34.96983  35.13535
          Condensed to atoms (all electrons):
               1          2          3          4          5          6
     1  C    4.976327   0.597810  -0.071866   0.016757  -0.071769   0.347826
     2  C    0.597810   5.111804   0.291767  -0.067815   0.005262  -0.071729
     3  C   -0.071866   0.291767   4.903299   0.367459  -0.067838   0.016735
     4  C    0.016757  -0.067815   0.367459   4.903197   0.291798  -0.071876
     5  C   -0.071769   0.005262  -0.067838   0.291798   5.111758   0.597839
     6  C    0.347826  -0.071729   0.016735  -0.071876   0.597839   4.976425
     7  H   -0.010195  -0.032596   0.392253  -0.037392   0.004542   0.005982
     8  H    0.417415  -0.022875   0.003351  -0.000348   0.002855  -0.029239
     9  H   -0.003138   0.011784  -0.045918   0.439771  -0.045093   0.007594
    10  H    0.005387  -0.001415   0.004041  -0.023544   0.417924  -0.028862
    11  H   -0.029246   0.002855  -0.000348   0.003352  -0.022881   0.417422
    12  H   -0.028862   0.417929  -0.023542   0.004039  -0.001414   0.005386
    13  H    0.007596  -0.045107   0.439796  -0.045931   0.011788  -0.003140
    14  H    0.005959   0.004560  -0.037425   0.392294  -0.032635  -0.010177
               7          8          9         10         11         12
     1  C   -0.010195   0.417415  -0.003138   0.005387  -0.029246  -0.028862
     2  C   -0.032596  -0.022875   0.011784  -0.001415   0.002855   0.417929
     3  C    0.392253   0.003351  -0.045918   0.004041  -0.000348  -0.023542
     4  C   -0.037392  -0.000348   0.439771  -0.023544   0.003352   0.004039
     5  C    0.004542   0.002855  -0.045093   0.417924  -0.022881  -0.001414
     6  C    0.005982  -0.029239   0.007594  -0.028862   0.417422   0.005386
     7  H    0.584757  -0.000246  -0.006252   0.000103   0.000004   0.001189
     8  H   -0.000246   0.486643   0.000032  -0.000106  -0.002986  -0.005011
     9  H   -0.006252   0.000032   0.544477  -0.004506  -0.000060  -0.000095
    10  H    0.000103  -0.000106  -0.004506   0.487065  -0.005012   0.000027
    11  H    0.000004  -0.002986  -0.000060  -0.005012   0.486689  -0.000106
    12  H    0.001189  -0.005011  -0.000095   0.000027  -0.000106   0.487070
[...]
 Gap=     0.336 Goal=   None    Shift=    0.000
 RMSDP=3.57D-08 MaxDP=1.17D-06 DE=-8.93D-10 OVMax= 1.97D-06

 Cycle  11  Pass 1  IDiag  1:
 RMSU=  1.14D-08    CP:  9.46D-01  2.17D+00  9.96D-01  1.30D+00  1.23D+00
                    CP:  1.28D+00  1.56D+00  1.43D+00  1.44D+00  1.33D+00
 E= -233.397779359477     Delta-E=       -0.000000000010 Rises=F Damp=F
 DIIS: error= 5.42D-08 at cycle  11 NSaved=  11.
 NSaved=11 IEnMin=11 EnMin= -233.397779359477     IErMin=11 ErrMin= 5.42D-08
 ErrMax= 5.42D-08  0.00D+00 EMaxC= 1.00D-01 BMatC= 2.10D-13 BMatP= 2.95D-12
 IDIUse=1 WtCom= 1.00D+00 WtEn= 0.00D+00
 Coeff-Com: -0.168D-04 0.363D-04 0.974D-05-0.416D-03-0.339D-03 0.148D-02
 Coeff-Com:  0.853D-02 0.357D-02-0.804D-01-0.976D-01 0.117D+01
 Coeff:     -0.168D-04 0.363D-04 0.974D-05-0.416D-03-0.339D-03 0.148D-02
 Coeff:      0.853D-02 0.357D-02-0.804D-01-0.976D-01 0.117D+01
 Gap=     0.336 Goal=   None    Shift=    0.000
 RMSDP=1.51D-08 MaxDP=4.57D-07 DE=-9.66D-12 OVMax= 7.00D-07

 Cycle  12  Pass 1  IDiag  1:
 RMSU=  2.90D-09    CP:  9.46D-01  2.17D+00  9.96D-01  1.30D+00  1.23D+00
                    CP:  1.28D+00  1.56D+00  1.43D+00  1.46D+00  1.49D+00
                    CP:  1.44D+00
 E= -233.397779359477     Delta-E=        0.000000000000 Rises=F Damp=F
 DIIS: error= 4.92D-09 at cycle  12 NSaved=  12.
 NSaved=12 IEnMin=11 EnMin= -233.397779359477     IErMin=12 ErrMin= 4.92D-09
 ErrMax= 4.92D-09  0.00D+00 EMaxC= 1.00D-01 BMatC= 5.29D-15 BMatP= 2.10D-13
 IDIUse=1 WtCom= 1.00D+00 WtEn= 0.00D+00
 Coeff-Com:  0.614D-06-0.135D-05-0.810D-06 0.187D-04 0.608D-05-0.671D-04
 Coeff-Com: -0.408D-03 0.182D-03 0.463D-02-0.201D-01-0.771D-01 0.109D+01
 Coeff:      0.614D-06-0.135D-05-0.810D-06 0.187D-04 0.608D-05-0.671D-04
 Coeff:     -0.408D-03 0.182D-03 0.463D-02-0.201D-01-0.771D-01 0.109D+01
 Gap=     0.336 Goal=   None    Shift=    0.000
 RMSDP=2.07D-09 MaxDP=5.80D-08 DE= 0.00D+00 OVMax= 7.95D-08

 Error on total polarization charges =  0.03324
 SCF Done:  E(RwB97XD) =  -233.397779359     A.U. after   12 cycles
            NFock= 12  Conv=0.21D-08     -V/T= 2.0054
 KE= 2.321476943569D+02 PE=-9.812315366367D+02 EE= 2.957073087054D+02
 --------------------------------------------------------------------
 Variational PCM results
 =======================
 <psi(f)|   H    |psi(f)>                     (a.u.) =    -233.425275
 <psi(f)|H+V(f)/2|psi(f)>                     (a.u.) =    -233.427857
 Total free energy in solution:
 - with all non electrostatic terms           (a.u.) =    -233.397779
 --------------------------------------------------------------------
 (Polarized solute)-Solvent               (kcal/mol) =      -1.62
 --------------------------------------------------------------------
 Quantum repulsion energy                 (kcal/mol) =      18.87
 Total non electrostatic                  (kcal/mol) =      18.87
 --------------------------------------------------------------------
 Partition over spheres:
 Sphere  on Atom  Surface  Charge   GEl     GCav    GDR
    1               4.30   0.013   -0.09    0.00    0.00
    2               3.82   0.011   -0.07    0.00    0.00
    3               0.94   0.001    0.00    0.00    0.00
    4               0.94   0.001    0.00    0.00    0.00
    5               3.83   0.011   -0.07    0.00    0.00
    6               4.30   0.013   -0.09    0.00    0.00
    7               5.22  -0.015   -0.08    0.00    0.00
    8               5.54  -0.020   -0.14    0.00    0.00
    9               5.60  -0.016   -0.12    0.00    0.00
   10               5.74  -0.020   -0.15    0.00    0.00
   11               5.54  -0.020   -0.14    0.00    0.00
   12               5.74  -0.020   -0.15    0.00    0.00
   13               5.53  -0.016   -0.12    0.00    0.00
   14               5.13  -0.014   -0.08    0.00    0.00
 Added spheres:    47.16   0.057   -0.33    0.00    0.00
 --------------------------------------------------------------------
 After PCM corrections, the energy is  -233.397779359     a.u.
 --------------------------------------------------------------------
 Leave Link  502 at Mon Aug  3 17:52:55 2020, MaxMem=  6442450944 cpu:            1569.1 elap:              66.2
 (Enter /scratch/scicomp/CentOS/7.3.1611/Haswell/software/Gaussian/g16/l601.exe)
 Copying SCF densities to generalized density rwf, IOpCl= 0 IROHF=0.

 **********************************************************************

            Population analysis using the SCF Density.

 **********************************************************************

 Alpha  occ. eigenvalues --  -10.27282 -10.27260 -10.27175 -10.27175 -10.26853
 Alpha  occ. eigenvalues --  -10.26818  -0.93181  -0.83102  -0.82965  -0.70251
 Alpha  occ. eigenvalues --   -0.66994  -0.58762  -0.56588  -0.51876  -0.49825
 Alpha  occ. eigenvalues --   -0.48908  -0.46315  -0.44189  -0.40222  -0.38456
 Alpha  occ. eigenvalues --   -0.38239  -0.28179
 Alpha virt. eigenvalues --    0.05395   0.14588   0.16081   0.19021   0.19181
 Alpha virt. eigenvalues --    0.19309   0.21265   0.21406   0.23140   0.25119
 Alpha virt. eigenvalues --    0.27093   0.28669   0.29963   0.31171   0.31679
 Alpha virt. eigenvalues --    0.32808   0.33625   0.33701   0.34255   0.36705
 Alpha virt. eigenvalues --    0.37384   0.40798   0.42869   0.43521   0.44437
 Alpha virt. eigenvalues --    0.46688   0.48024   0.48365   0.50082   0.50379
 Alpha virt. eigenvalues --    0.51784   0.52016   0.52024   0.52591   0.53174
 Alpha virt. eigenvalues --    0.55128   0.55911   0.56567   0.57928   0.63578
 Alpha virt. eigenvalues --    0.64057   0.66701   0.68038   0.70488   0.73904
 Alpha virt. eigenvalues --    0.76150   0.78306   0.82618   0.83682   0.84482
 Alpha virt. eigenvalues --    0.88067   0.89497   0.94068   0.94533   0.97272
 Alpha virt. eigenvalues --    0.99694   1.00814   1.02694   1.04508   1.06941
 Alpha virt. eigenvalues --    1.07474   1.13122   1.13977   1.14043   1.16905
 Alpha virt. eigenvalues --    1.19600   1.20400   1.22385   1.23154   1.25893
 Alpha virt. eigenvalues --    1.27018   1.28906   1.31026   1.31920   1.33105
 Alpha virt. eigenvalues --    1.35200   1.38526   1.39094   1.41496   1.42420
 Alpha virt. eigenvalues --    1.44022   1.44668   1.46179   1.49837   1.51412
 Alpha virt. eigenvalues --    1.53553   1.56418   1.57777   1.59062   1.61600
 Alpha virt. eigenvalues --    1.62781   1.69237   1.74214   1.78115   1.79945
 Alpha virt. eigenvalues --    1.84449   1.86106   1.89638   1.97458   1.99249
 Alpha virt. eigenvalues --    2.03635   2.04068   2.08079   2.12871   2.12958
 Alpha virt. eigenvalues --    2.18640   2.19757   2.20561   2.21290   2.22986
 Alpha virt. eigenvalues --    2.25043   2.35933   2.36304   2.42240   2.44568
 Alpha virt. eigenvalues --    2.48659   2.50298   2.55471   2.56968   2.57519
 Alpha virt. eigenvalues --    2.62188   2.64083   2.66898   2.68430   2.71837
 Alpha virt. eigenvalues --    2.73257   2.76140   2.76327   2.78642   2.79253
 Alpha virt. eigenvalues --    2.81492   2.81726   2.83939   2.84332   2.88755
 Alpha virt. eigenvalues --    2.89116   2.91095   2.91405   2.93701   2.94932
 Alpha virt. eigenvalues --    3.00360   3.00543   3.06277   3.07017   3.08628
 Alpha virt. eigenvalues --    3.10378   3.12657   3.13140   3.16087   3.16681
 Alpha virt. eigenvalues --    3.17794   3.18781   3.19820   3.20700   3.22507
 Alpha virt. eigenvalues --    3.23552   3.25293   3.27061   3.27966   3.29526
 Alpha virt. eigenvalues --    3.29527   3.31428   3.33855   3.33965   3.35286
 Alpha virt. eigenvalues --    3.36230   3.37635   3.40234   3.43047   3.45801
 Alpha virt. eigenvalues --    3.46828   3.48191   3.48845   3.49809   3.50818
 Alpha virt. eigenvalues --    3.53114   3.55276   3.60552   3.61103   3.61309
 Alpha virt. eigenvalues --    3.65724   3.67488   3.70207   3.72392   3.73974
 Alpha virt. eigenvalues --    3.81639   3.84252   3.84349   3.87022   3.92256
 Alpha virt. eigenvalues --    3.94468   3.96388   3.98862   4.08261   4.09648
 Alpha virt. eigenvalues --    4.11700   4.13087   4.20225   4.20907   4.21908
 Alpha virt. eigenvalues --    4.24651   4.28508   4.35287   4.35699   4.37329
 Alpha virt. eigenvalues --    4.43377   4.44957   4.45213   4.59696   4.59999
 Alpha virt. eigenvalues --    4.68587   4.69923   4.74131   4.74137   4.78222
 Alpha virt. eigenvalues --    4.81609   4.87059   4.89304   4.96206   5.02125
 Alpha virt. eigenvalues --    5.08096   5.18485   5.24760   5.27530   5.39111
 Alpha virt. eigenvalues --    5.44720   5.45598   5.66816   5.73352   5.89120
 Alpha virt. eigenvalues --    7.91909   7.97071   8.03605   8.10439   8.16144
 Alpha virt. eigenvalues --    8.32294  34.71805  34.79497  34.79825  34.95856
 Alpha virt. eigenvalues --   34.97931  35.14483
          Condensed to atoms (all electrons):
               1          2          3          4          5          6
     1  C    4.958813   0.600172  -0.072131   0.019884  -0.068546   0.356776
     2  C    0.600172   5.096374   0.300700  -0.067319   0.005003  -0.068460
     3  C   -0.072131   0.300700   4.888624   0.378308  -0.067336   0.019749
     4  C    0.019884  -0.067319   0.378308   4.889055   0.300490  -0.072086
     5  C   -0.068546   0.005003  -0.067336   0.300490   5.096437   0.600318
     6  C    0.356776  -0.068460   0.019749  -0.072086   0.600318   4.958816
     7  H   -0.010157  -0.028769   0.388983  -0.033033   0.003244   0.005197
     8  H    0.415497  -0.021676   0.003313  -0.000310   0.003000  -0.027438
     9  H   -0.002677   0.010843  -0.042638   0.434694  -0.041545   0.006992
    10  H    0.005331  -0.001256   0.003648  -0.021377   0.415830  -0.026855
    11  H   -0.027406   0.002995  -0.000309   0.003307  -0.021640   0.415433
    12  H   -0.026903   0.415899  -0.021387   0.003650  -0.001257   0.005338
    13  H    0.007029  -0.041672   0.434944  -0.042792   0.010881  -0.002695
    14  H    0.005088   0.003377  -0.033446   0.389616  -0.029153  -0.010000
               7          8          9         10         11         12
     1  C   -0.010157   0.415497  -0.002677   0.005331  -0.027406  -0.026903
     2  C   -0.028769  -0.021676   0.010843  -0.001256   0.002995   0.415899
     3  C    0.388983   0.003313  -0.042638   0.003648  -0.000309  -0.021387
     4  C   -0.033033  -0.000310   0.434694  -0.021377   0.003307   0.003650
     5  C    0.003244   0.003000  -0.041545   0.415830  -0.021640  -0.001257
     6  C    0.005197  -0.027438   0.006992  -0.026855   0.415433   0.005338
     7  H    0.572790  -0.000230  -0.005972   0.000144   0.000004   0.001195
     8  H   -0.000230   0.483519   0.000030  -0.000092  -0.003195  -0.005044
     9  H   -0.005972   0.000030   0.536757  -0.004395  -0.000057  -0.000092
    10  H    0.000144  -0.000092  -0.004395   0.482588  -0.005039   0.000025
    11  H    0.000004  -0.003195  -0.000057  -0.005039   0.483514  -0.000092
    12  H    0.001195  -0.005044  -0.000092   0.000025  -0.000092   0.482622
    13  H   -0.017530  -0.000057  -0.002783  -0.000091   0.000030  -0.004409
    14  H    0.007052   0.000004  -0.017495   0.001175  -0.000229   0.000148
              13         14
     1  C    0.007029   0.005088
     2  C   -0.041672   0.003377
     3  C    0.434944  -0.033446
     4  C   -0.042792   0.389616
     5  C    0.010881  -0.029153
     6  C   -0.002695  -0.010000
     7  H   -0.017530   0.007052
     8  H   -0.000057   0.000004
     9  H   -0.002783  -0.017495
    10  H   -0.000091   0.001175
    11  H    0.000030  -0.000229
    12  H   -0.004409   0.000148
    13  H    0.536846  -0.005962
    14  H   -0.005962   0.572630
 Mulliken charges:
               1
     1  C   -0.160771
     2  C   -0.206211
     3  C   -0.181022
     4  C   -0.182088
     5  C   -0.205726
     6  C   -0.161086
     7  H    0.117081
     8  H    0.152678
     9  H    0.128337
    10  H    0.150364
    11  H    0.152684
    12  H    0.150306
    13  H    0.128259
    14  H    0.117195
 Sum of Mulliken charges =  -0.00000
 Mulliken charges with hydrogens summed into heavy atoms:
               1
     1  C   -0.008094
     2  C   -0.055904
     3  C    0.064318
     4  C    0.063444
     5  C   -0.055362
     6  C   -0.008402
 Electronic spatial extent (au):  <R**2>=            501.6952
 Charge=              0.0000 electrons
 Dipole moment (field-independent basis, Debye):
    X=              0.3527    Y=              0.4921    Z=              0.0001  Tot=              0.6054
 Quadrupole moment (field-independent basis, Debye-Ang):
   XX=            -33.6573   YY=            -33.4135   ZZ=            -38.6118
   XY=              0.3608   XZ=             -0.6288   YZ=              0.4494
 Traceless Quadrupole moment (field-independent basis, Debye-Ang):
   XX=              1.5703   YY=              1.8141   ZZ=             -3.3843
   XY=              0.3608   XZ=             -0.6288   YZ=              0.4494
 Octapole moment (field-independent basis, Debye-Ang**2):
  XXX=             -3.5469  YYY=             -6.6304  ZZZ=             -0.0008  XYY=             -3.2280
  XXY=             -2.8291  XXZ=              0.9881  XZZ=              0.4708  YZZ=              0.6563
  YYZ=             -0.9876  XYZ=              0.3354
 Hexadecapole moment (field-independent basis, Debye-Ang**3):
 XXXX=           -289.0870 YYYY=           -292.1766 ZZZZ=            -65.8806 XXXY=             -3.3977
 XXXZ=             -1.2370 YYYX=             -1.1448 YYYZ=              1.8180 ZZZX=             10.1346
 ZZZY=             -7.2616 XXYY=            -94.9204 XXZZ=            -65.3568 YYZZ=            -64.5387
 XXYZ=             -0.9842 YYXZ=              0.0694 ZZXY=              1.2033
 N-N= 2.199787542149D+02 E-N=-9.812315362798D+02  KE= 2.321476943569D+02
 No NMR shielding tensors so no spin-rotation constants.
 Leave Link  601 at Mon Aug  3 17:52:55 2020, MaxMem=  6442450944 cpu:               3.2 elap:               0.2
 (Enter /scratch/scicomp/CentOS/7.3.1611/Haswell/software/Gaussian/g16/l9999.exe)
 1\1\GINC-ATLAS-205\SP\RwB97XD\def2TZVP\C6H8\BOCHEN\03-Aug-2020\0\\#p w
 b97xd def2tzvp # scrf=(iefpcm,solvent=Cyclohexane,read) nosym 6d 10f\\
 cyclohexadiene wb97xd/def2tzvp//wb97xd/def2tzvp xp-pcm for eta=3\\0,1\
 C,0,-1.268219,-0.544265,0.160588\C,0,-1.168591,0.784355,0.162078\C,0,0
 .131055,1.449886,-0.197967\C,0,1.330673,0.590498,0.197963\C,0,1.118597
 ,-0.854108,-0.162114\C,0,-0.107338,-1.375876,-0.160543\H,0,0.141251,1.
 619717,-1.28329\H,0,-2.213189,-1.028076,0.376236\H,0,2.23915,0.976392,
 -0.267055\H,0,1.983265,-1.475095,-0.364468\H,0,-0.261383,-2.42626,-0.3
 7619\H,0,-2.034746,1.403292,0.36436\H,0,0.204154,2.434194,0.267093\H,0
 ,1.488138,0.654781,1.283304\\Version=ES64L-G16RevB.01\HF=-233.3977794\
 RMSD=2.069e-09\Dipole=0.138756,0.1935924,0.0000486\Quadrupole=1.167446
 ,1.3487042,-2.5161502,0.268261,-0.4675132,0.334115\PG=C01 [X(C6H8)]\\@


                                                                                    A
                                                                                  AA
                                                                                 AAA
                                                                                AAAA
                                                                               AAAAA
                                                                              AAAAAA   KKKKKKKK
                                                                             AAAAAAA   KKKKKKKK
                                                                            AAAAAAAA   KKKKKKKK
                                       ZZZZZZZZZZZZZZZZZZZZ                AAAA  AAA   KKKKKKKK
                                       ZZZZZZZZZZZZZZZZZZZ                AAAA   AAA   KKKKKKKK          K
                                       ZZZZZZZZZZZZZZZZZZ                AAAA    AAA   KKKKKKKK         KKK
                                       ZZZZZZZZZZZZZZZZZ                AAAA     AAA   KKKKKKKK        KKKKK
                                       ZZZZZZZZZZZZZZZZ                AAAA      AAA   KKKKKKKK       KKKKKKK
                                                ZZZZZZ                AAAA       AAA   KKKKKKKK      KKKKKKK
                                               ZZZZZZ                AAAA        AAA   KKKKKKKK     KKKKKKK
                                              ZZZZZZ                AAAA         AAA   KKKKKKKK    KKKKKKK
                                             ZZZZZZ                AAAA          AAA   KKKKKKKK   KKKKKKK
                                            ZZZZZZ                AAAAAAAAAAAAAAAAAA   KKKKKKKK  KKKKKKK
                                           ZZZZZZ                AAAAAAAAAAAAAAAAAAA   KKKKKKKK KKKKKKK
                                          ZZZZZZ                AAAAAAAAAAAAAAAAAAAA   KKKKKKKKKKKKKKK
                                         ZZZZZZ                AAAAAAAAAAAAAAAAAAAAA   KKKKKKKKKKKKKK
                                        ZZZZZZ                AAAAAA        AAAAAAAA   KKKKKKKKKKKKK
                                       ZZZZZZ                AAAAAA         AAAAAAAA   KKKKKKKKKKKK
                                      ZZZZZZ                AAAAAA          AAAAAAAA   KKKKKKKKKKK
                                     ZZZZZZ                AAAAAA           AAAAAAAA   KKKKKKKKKKKK
                                    ZZZZZZ                AAAAAA            AAAAAAAA   KKKKKKKKKKKKK
                                   ZZZZZZ                AAAAAA             AAAAAAAA   KKKKKKKKKKKKKK
                                  ZZZZZZ                AAAAAA              AAAAAAAA   KKKKKKKKKKKKKKK
                                 ZZZZZZ                AAAAAA               AAAAAAAA   KKKKK KKKKKKKKKK
                                ZZZZZZ                AAAAAA                AAAAAAAA   KKKKK  KKKKKKKKKK
                               ZZZZZZ                AAAAAA                            KKKKK   KKKKKKKKKK
                              ZZZZZZ                AAAAAA                             KKKKK    KKKKKKKKKK
                             ZZZZZZ                                                    KKKKK     KKKKKKKKKK
                            ZZZZZZ                                                     KKKKK      KKKKKKKKKK
                           ZZZZZZ                                                      KKKKK       KKKKKKKKKK
                          ZZZZZZ                                                       KKKKK        KKKKKKKKKK
                         ZZZZZZZZZZZZZZZZZZZZZZZZZZZZZZZZZZZZZZZZ                      KKKKK         KKKKKKKKKK
                        ZZZZZZZZZZZZZZZZZZZZZZZZZZZZZZZZZZZZZZZZZ                      KKKKK          KKKKKKKKKK
                       ZZZZZZZZZZZZZZZZZZZZZZZZZZZZZZZZZZZZZZZZZZ                      KKKKK           KKKKKKKKKK
                       ZZZZZZZZZZZZZZZZZZZZZZZZZZZZZZZZZZZZZZZZZZ                      KKKKK            KKKKKKKKKK
                       ZZZZZZZZZZZZZZZZZZZZZZZZZZZZZZZZZZZZZZZZZZ                      KKKKK             KKKKKKKKKK
                       ZZZZZZZZZZZZZZZZZZZZZZZZZZZZZZZZZZZZZZZZZZ                      KKKKK              KKKKKKKKKK
                       ZZZZZZZZZZZZZZZZZZZZZZZZZZZZZZZZZZZZZZZZZZ                      KKKKK               KKKKKKKKKK
                       ZZZZZZZZZZZZZZZZZZZZZZZZZZZZZZZZZZZZZZZZZZ                      KKKKK                KKKKKKKKKK
                       ZZZZZZZZZZZZZZZZZZZZZZZZZZZZZZZZZZZZZZZZZZ                      KKKKK
                                                                                       KKKKK
                                                                                          (J.P.)
 Job cpu time:       0 days  0 hours 26 minutes 43.7 seconds.
 Elapsed time:       0 days  0 hours  1 minutes  8.0 seconds.
 File lengths (MBytes):  RWF=    165 Int=      0 D2E=      0 Chk=      7 Scr=      1
 Normal termination of Gaussian 16 at Mon Aug  3 17:52:55 2020.
