 Entering Gaussian System, Link 0=g16
 Input=meso-TS_64_2_xp-Vc.com
 Output=meso-TS_64_2_xp-Vc.log
 Initial command:
 /scratch/scicomp/CentOS/7.3.1611/Haswell/software/Gaussian/g16/l1.exe "/scratch/bochen/cyclohexadiene-dimerization/wb97xd-def2tzvp/xp-pcm/meso/Gau-78883.inp" -scrdir="/scratch/bochen/cyclohexadiene-dimerization/wb97xd-def2tzvp/xp-pcm/meso/"
 Entering Link 1 = /scratch/scicomp/CentOS/7.3.1611/Haswell/software/Gaussian/g16/l1.exe PID=     78884.
  
 Copyright (c) 1988-2017, Gaussian, Inc.  All Rights Reserved.
  
 This is part of the Gaussian(R) 16 program.  It is based on
 the Gaussian(R) 09 system (copyright 2009, Gaussian, Inc.),
 the Gaussian(R) 03 system (copyright 2003, Gaussian, Inc.),
 the Gaussian(R) 98 system (copyright 1998, Gaussian, Inc.),
 the Gaussian(R) 94 system (copyright 1995, Gaussian, Inc.),
 the Gaussian 92(TM) system (copyright 1992, Gaussian, Inc.),
 the Gaussian 90(TM) system (copyright 1990, Gaussian, Inc.),
 the Gaussian 88(TM) system (copyright 1988, Gaussian, Inc.),
 the Gaussian 86(TM) system (copyright 1986, Carnegie Mellon
 University), and the Gaussian 82(TM) system (copyright 1983,
 Carnegie Mellon University). Gaussian is a federally registered
 trademark of Gaussian, Inc.
  
 This software contains proprietary and confidential information,
 including trade secrets, belonging to Gaussian, Inc.
  
 This software is provided under written license and may be
 used, copied, transmitted, or stored only in accord with that
 written license.
  
 The following legend is applicable only to US Government
 contracts under FAR:
  
                    RESTRICTED RIGHTS LEGEND
  
 Use, reproduction and disclosure by the US Government is
 subject to restrictions as set forth in subparagraphs (a)
 and (c) of the Commercial Computer Software - Restricted
 Rights clause in FAR 52.227-19.
  
 Gaussian, Inc.
 340 Quinnipiac St., Bldg. 40, Wallingford CT 06492
  
  
 ---------------------------------------------------------------
 Warning -- This program may not be used in any manner that
 competes with the business of Gaussian, Inc. or will provide
 assistance to any competitor of Gaussian, Inc.  The licensee
 of this program is prohibited from giving any competitor of
 Gaussian, Inc. access to this program.  By using this program,
 the user acknowledges that Gaussian, Inc. is engaged in the
 business of creating and licensing software in the field of
 computational chemistry and represents and warrants to the
 licensee that it is not a competitor of Gaussian, Inc. and that
 it will not use this program in any manner prohibited above.
 ---------------------------------------------------------------
  

 Cite this work as:
 Gaussian 16, Revision B.01,
 M. J. Frisch, G. W. Trucks, H. B. Schlegel, G. E. Scuseria, 
 M. A. Robb, J. R. Cheeseman, G. Scalmani, V. Barone, 
 G. A. Petersson, H. Nakatsuji, X. Li, M. Caricato, A. V. Marenich, 
 J. Bloino, B. G. Janesko, R. Gomperts, B. Mennucci, H. P. Hratchian, 
 J. V. Ortiz, A. F. Izmaylov, J. L. Sonnenberg, D. Williams-Young, 
 F. Ding, F. Lipparini, F. Egidi, J. Goings, B. Peng, A. Petrone, 
 T. Henderson, D. Ranasinghe, V. G. Zakrzewski, J. Gao, N. Rega, 
 G. Zheng, W. Liang, M. Hada, M. Ehara, K. Toyota, R. Fukuda, 
 J. Hasegawa, M. Ishida, T. Nakajima, Y. Honda, O. Kitao, H. Nakai, 
 T. Vreven, K. Throssell, J. A. Montgomery, Jr., J. E. Peralta, 
 F. Ogliaro, M. J. Bearpark, J. J. Heyd, E. N. Brothers, K. N. Kudin, 
 V. N. Staroverov, T. A. Keith, R. Kobayashi, J. Normand, 
 K. Raghavachari, A. P. Rendell, J. C. Burant, S. S. Iyengar, 
 J. Tomasi, M. Cossi, J. M. Millam, M. Klene, C. Adamo, R. Cammi, 
 J. W. Ochterski, R. L. Martin, K. Morokuma, O. Farkas, 
 J. B. Foresman, and D. J. Fox, Gaussian, Inc., Wallingford CT, 2016.
 
 ******************************************
 Gaussian 16:  ES64L-G16RevB.01 20-Dec-2017
                 3-Aug-2020 
 ******************************************
 %chk=meso-TS_64_2_xp-12.chk
 %nproc=24
 Will use up to   24 processors via shared memory.
 %mem=48GB
 ----------------------------------------------------------------------
 #p uwb97xd guess=mix def2tzvp # scrf=(iefpcm,solvent=Cyclohexane,read)
  nosym guess=only pop=none
 ----------------------------------------------------------------------
 1/38=1,40=2,172=1/1;
 2/12=2,15=1,17=6,18=5,40=1/2;
 3/5=44,7=101,11=2,25=1,30=1,70=2203,72=17,74=-58,89=1,116=2/1,2;
 4/13=-1/1;
 99/5=2/99;
 Leave Link    1 at Mon Aug  3 17:20:56 2020, MaxMem=  6442450944 cpu:               1.5 elap:               0.1
 (Enter /scratch/scicomp/CentOS/7.3.1611/Haswell/software/Gaussian/g16/l101.exe)
 -----------------------
 endo-2 xp-pcm for eta=3
 -----------------------
 Symbolic Z-matrix:
 Charge =  0 Multiplicity = 1
 6                    -3.12468  -0.44069   0.27304 
 6                    -0.77579  -0.26199  -1.30218 
 1                    -4.05407  -0.52582   0.82419 
 1                     0.1616   -0.18453  -1.83944 
 6                     1.19854   1.43292   0.83418 
 6                     0.77579   0.26199   1.30218 
 1                     0.6082    2.33018   0.97771 
 1                    -0.1616    0.18453   1.83944 
 6                     1.60523  -0.98179   1.16163 
 1                     2.17694  -1.10827   2.09015 
 1                     0.9563   -1.85528   1.08385 
 6                     2.47187   1.53314   0.11941 
 1                     2.87141   2.51693  -0.09608 
 6                     3.12468   0.44069  -0.27304 
 1                     4.05407   0.52582  -0.82419 
 6                     2.56349  -0.93427  -0.03247 
 1                     2.04332  -1.25613  -0.943 
 1                     3.37242  -1.65219   0.11536 
 6                    -1.19854  -1.43292  -0.83418 
 1                    -0.6082   -2.33018  -0.97771 
 6                    -2.47187  -1.53314  -0.11941 
 1                    -2.87141  -2.51693   0.09608 
 6                    -1.60523   0.98179  -1.16163 
 1                    -0.9563    1.85528  -1.08385 
 1                    -2.17694   1.10827  -2.09015 
 6                    -2.56349   0.93427   0.03247 
 1                    -3.37242   1.65219  -0.11536 
 1                    -2.04332   1.25613   0.943 
 
 ITRead=  0  0  0  0  0  0  0  0  0  0  0  0  0  0  0  0  0  0  0  0
 ITRead=  0  0  0  0  0  0  0  0
 MicOpt= -1 -1 -1 -1 -1 -1 -1 -1 -1 -1 -1 -1 -1 -1 -1 -1 -1 -1 -1 -1
 MicOpt= -1 -1 -1 -1 -1 -1 -1 -1
 NAtoms=     28 NQM=       28 NQMF=       0 NMMI=      0 NMMIF=      0
                NMic=       0 NMicF=      0.
                    Isotopes and Nuclear Properties:
 (Nuclear quadrupole moments (NQMom) in fm**2, nuclear magnetic moments (NMagM)
  in nuclear magnetons)

  Atom         1           2           3           4           5           6           7           8           9          10
 IAtWgt=          12          12           1           1          12          12           1           1          12           1
 AtmWgt=  12.0000000  12.0000000   1.0078250   1.0078250  12.0000000  12.0000000   1.0078250   1.0078250  12.0000000   1.0078250
 NucSpn=           0           0           1           1           0           0           1           1           0           1
 AtZEff=  -0.0000000  -0.0000000  -0.0000000  -0.0000000  -0.0000000  -0.0000000  -0.0000000  -0.0000000  -0.0000000  -0.0000000
 NQMom=    0.0000000   0.0000000   0.0000000   0.0000000   0.0000000   0.0000000   0.0000000   0.0000000   0.0000000   0.0000000
 NMagM=    0.0000000   0.0000000   2.7928460   2.7928460   0.0000000   0.0000000   2.7928460   2.7928460   0.0000000   2.7928460
 AtZNuc=   6.0000000   6.0000000   1.0000000   1.0000000   6.0000000   6.0000000   1.0000000   1.0000000   6.0000000   1.0000000

  Atom        11          12          13          14          15          16          17          18          19          20
 IAtWgt=           1          12           1          12           1          12           1           1          12           1
 AtmWgt=   1.0078250  12.0000000   1.0078250  12.0000000   1.0078250  12.0000000   1.0078250   1.0078250  12.0000000   1.0078250
 NucSpn=           1           0           1           0           1           0           1           1           0           1
 AtZEff=  -0.0000000  -0.0000000  -0.0000000  -0.0000000  -0.0000000  -0.0000000  -0.0000000  -0.0000000  -0.0000000  -0.0000000
 NQMom=    0.0000000   0.0000000   0.0000000   0.0000000   0.0000000   0.0000000   0.0000000   0.0000000   0.0000000   0.0000000
 NMagM=    2.7928460   0.0000000   2.7928460   0.0000000   2.7928460   0.0000000   2.7928460   2.7928460   0.0000000   2.7928460
 AtZNuc=   1.0000000   6.0000000   1.0000000   6.0000000   1.0000000   6.0000000   1.0000000   1.0000000   6.0000000   1.0000000

  Atom        21          22          23          24          25          26          27          28
 IAtWgt=          12           1          12           1           1          12           1           1
 AtmWgt=  12.0000000   1.0078250  12.0000000   1.0078250   1.0078250  12.0000000   1.0078250   1.0078250
 NucSpn=           0           1           0           1           1           0           1           1
 AtZEff=  -0.0000000  -0.0000000  -0.0000000  -0.0000000  -0.0000000  -0.0000000  -0.0000000  -0.0000000
 NQMom=    0.0000000   0.0000000   0.0000000   0.0000000   0.0000000   0.0000000   0.0000000   0.0000000
 NMagM=    0.0000000   2.7928460   0.0000000   2.7928460   2.7928460   0.0000000   2.7928460   2.7928460
 AtZNuc=   6.0000000   1.0000000   6.0000000   1.0000000   1.0000000   6.0000000   1.0000000   1.0000000
 Leave Link  101 at Mon Aug  3 17:20:56 2020, MaxMem=  6442450944 cpu:               2.4 elap:               0.1
 (Enter /scratch/scicomp/CentOS/7.3.1611/Haswell/software/Gaussian/g16/l202.exe)
                          Input orientation:                          
 ---------------------------------------------------------------------
 Center     Atomic      Atomic             Coordinates (Angstroms)
 Number     Number       Type             X           Y           Z
 ---------------------------------------------------------------------
      1          6           0       -3.124680   -0.440685    0.273036
      2          6           0       -0.775792   -0.261985   -1.302176
      3          1           0       -4.054066   -0.525819    0.824190
      4          1           0        0.161604   -0.184531   -1.839436
      5          6           0        1.198536    1.432924    0.834184
      6          6           0        0.775792    0.261985    1.302176
      7          1           0        0.608196    2.330179    0.977711
      8          1           0       -0.161604    0.184531    1.839436
      9          6           0        1.605227   -0.981794    1.161635
     10          1           0        2.176937   -1.108268    2.090145
     11          1           0        0.956297   -1.855279    1.083849
     12          6           0        2.471867    1.533139    0.119408
     13          1           0        2.871405    2.516926   -0.096077
     14          6           0        3.124680    0.440685   -0.273036
     15          1           0        4.054066    0.525819   -0.824190
     16          6           0        2.563488   -0.934271   -0.032474
     17          1           0        2.043317   -1.256129   -0.942998
     18          1           0        3.372415   -1.652191    0.115362
     19          6           0       -1.198536   -1.432924   -0.834184
     20          1           0       -0.608196   -2.330179   -0.977711
     21          6           0       -2.471867   -1.533139   -0.119408
     22          1           0       -2.871405   -2.516926    0.096077
     23          6           0       -1.605227    0.981794   -1.161635
     24          1           0       -0.956297    1.855279   -1.083849
     25          1           0       -2.176937    1.108268   -2.090145
     26          6           0       -2.563488    0.934271    0.032474
     27          1           0       -3.372415    1.652191   -0.115362
     28          1           0       -2.043317    1.256129    0.942998
 ---------------------------------------------------------------------
                    Distance matrix (angstroms):
                    1          2          3          4          5
     1  C    0.000000
     2  C    2.833814   0.000000
     3  H    1.083871   3.916391   0.000000
     4  H    3.915075   1.083217   4.998325   0.000000
     5  C    4.745049   3.366708   5.605943   3.292360   0.000000
     6  C    4.094699   3.076460   4.916974   3.232078   1.329973
     7  H    4.701980   3.719223   5.469642   3.802569   1.083590
     8  H    3.409446   3.232078   4.084921   3.711438   2.102141
     9  C    4.842977   3.501106   5.687652   3.424340   2.470523
    10  H    5.643996   4.576313   6.384927   4.511814   2.998727
    11  H    4.394641   3.351393   5.190243   3.459556   3.306553
    12  C    5.936406   3.973746   6.879232   3.482065   1.463666
    13  H    6.696024   4.741209   7.620193   4.204782   2.199758
    14  C    6.334786   4.094699   7.326147   3.409446   2.433209
    15  H    7.326147   4.916974   8.340558   4.084921   3.424485
    16  C    5.717711   3.635231   6.685262   3.097784   2.866671
    17  H    5.371395   3.010765   6.390179   2.343665   3.332122
    18  H    6.610964   4.598881   7.544784   4.035414   3.841925
    19  C    2.433209   1.329973   3.424485   2.102141   4.091759
    20  H    3.386332   2.100189   4.286792   2.437000   4.550625
    21  C    1.331778   2.427229   2.099625   3.422340   4.814429
    22  H    2.099104   3.381045   2.427621   4.287822   5.719313
    23  C    2.527937   1.501566   3.494740   2.222930   3.471008
    24  H    3.437219   2.136131   4.348151   2.445698   2.915568
    25  H    2.980285   2.112273   3.832389   2.683833   4.477825
    26  C    1.504430   2.531438   2.231703   3.490257   3.878688
    27  H    2.142978   3.437302   2.468022   4.339962   4.673683
    28  H    2.120701   2.992005   2.689343   3.831334   3.248493
                    6          7          8          9         10
     6  C    0.000000
     7  H    2.100189   0.000000
     8  H    1.083217   2.437000   0.000000
     9  C    1.501566   3.463678   2.222930   0.000000
    10  H    2.112273   3.939718   2.683833   1.097715   0.000000
    11  H    2.136131   4.201250   2.445698   1.090934   1.749463
    12  C    2.427229   2.201187   3.422340   2.856955   3.308749
    13  H    3.381045   2.511973   4.287822   3.927606   4.289975
    14  C    2.833814   3.386332   3.915075   2.527937   2.980285
    15  H    3.916391   4.286792   4.998325   3.494740   3.832389
    16  C    2.531438   3.937039   3.490257   1.531802   2.164534
    17  H    2.992005   4.313966   3.831334   2.167178   3.039683
    18  H    3.437302   4.923802   4.339962   2.160341   2.371664
    19  C    3.366708   4.550625   3.292360   3.471008   4.477825
    20  H    3.719223   5.198290   3.802569   3.360682   4.319927
    21  C    3.973746   5.061194   3.482065   4.309031   5.164690
    22  H    4.741209   6.031528   4.204782   4.851008   5.607707
    23  C    3.501106   3.360682   3.424340   4.422700   5.408068
    24  H    3.351393   2.631197   3.459556   4.433124   5.354811
    25  H    4.576313   4.319927   4.511814   5.408068   6.429936
    26  C    3.635231   3.591881   3.097784   4.724880   5.556762
    27  H    4.598881   4.183269   4.035414   5.774558   6.578731
    28  H    3.010765   2.860998   2.343665   4.285788   4.971606
                   11         12         13         14         15
    11  H    0.000000
    12  C    3.835163   0.000000
    13  H    4.916914   1.083467   0.000000
    14  C    3.437219   1.331778   2.099104   0.000000
    15  H    4.348151   2.099625   2.427621   1.083871   0.000000
    16  C    2.162752   2.473777   3.465490   1.504430   2.231703
    17  H    2.376700   3.015357   3.954611   2.120701   2.689343
    18  H    2.610908   3.310186   4.204433   2.142978   2.468022
    19  C    2.915568   4.814429   5.719313   4.745049   5.605943
    20  H    2.631197   5.061194   6.031528   4.701980   5.469642
    21  C    3.647453   5.822336   6.704784   5.936406   6.879232
    22  H    4.008088   6.704784   7.639140   6.696024   7.620193
    23  C    4.433124   4.309031   4.851008   4.842977   5.687652
    24  H    4.703740   3.647453   4.008088   4.394641   5.190243
    25  H    5.354811   5.164690   5.607707   5.643996   6.384927
    26  C    4.612577   5.071588   5.662101   5.717711   6.685262
    27  H    5.698965   5.850207   6.303446   6.610964   7.544784
    28  H    4.324163   4.598035   5.179168   5.371395   6.390179
                   16         17         18         19         20
    16  C    0.000000
    17  H    1.096916   0.000000
    18  H    1.091617   1.744561   0.000000
    19  C    3.878688   3.248493   4.673683   0.000000
    20  H    3.591881   2.860998   4.183269   1.083590   0.000000
    21  C    5.071588   4.598035   5.850207   1.463666   2.201187
    22  H    5.662101   5.179168   6.303446   2.199758   2.511973
    23  C    4.724880   4.285788   5.774558   2.470523   3.463678
    24  H    4.612577   4.324163   5.698965   3.306553   4.201250
    25  H    5.556762   4.971606   6.578731   2.998727   3.939718
    26  C    5.457248   5.193462   6.475461   2.866671   3.937039
    27  H    6.475461   6.202698   7.514313   3.841925   4.923802
    28  H    5.193462   5.154512   6.202698   3.332122   4.313966
                   21         22         23         24         25
    21  C    0.000000
    22  H    1.083467   0.000000
    23  C    2.856955   3.927606   0.000000
    24  H    3.835163   4.916914   1.090934   0.000000
    25  H    3.308749   4.289975   1.097715   1.749463   0.000000
    26  C    2.473777   3.465490   1.531802   2.162752   2.164534
    27  H    3.310186   4.204433   2.160341   2.610908   2.371664
    28  H    3.015357   3.954611   2.167178   2.376700   3.039683
                   26         27         28
    26  C    0.000000
    27  H    1.091617   0.000000
    28  H    1.096916   1.744561   0.000000
 Symmetry turned off by external request.
 Stoichiometry    C12H16
 Framework group  CI[X(C12H16)]
 Deg. of freedom    39
 Full point group                 CI      NOp   2
 Rotational constants (GHZ):           1.7158847           0.5828782           0.5313882
 Leave Link  202 at Mon Aug  3 17:20:56 2020, MaxMem=  6442450944 cpu:               0.3 elap:               0.0
 (Enter /scratch/scicomp/CentOS/7.3.1611/Haswell/software/Gaussian/g16/l301.exe)
 Standard basis: def2TZVP (5D, 7F)
 Ernie: Thresh=  0.10000D-02 Tol=  0.10000D-05 Strict=F.
   468 basis functions,   740 primitive gaussians,   528 cartesian basis functions
    44 alpha electrons       44 beta electrons
       nuclear repulsion energy       672.5181360396 Hartrees.
 IExCor= 4639 DFT=T Ex+Corr=wB97XD ExCW=0 ScaHFX=  1.000000
 ScaDFX=  1.000000  1.000000  1.000000  1.000000 ScalE2=  1.000000  1.000000
 IRadAn=      5 IRanWt=     -1 IRanGd=            0 ICorTp=0 IEmpDi=121
 HFx  wShort=  0.000000 wLong=  0.200000 cFull=  0.222036 cShort=  0.000000 cLong=  0.777964
 DFx  wShort=  0.000000 wLong=  0.200000 cFull=  0.000000 cShort=  0.000000 cLong=  1.000000
 NAtoms=   28 NActive=   28 NUniq=   28 SFac= 1.00D+00 NAtFMM=   60 NAOKFM=F Big=F
 Integral buffers will be    131072 words long.
 Raffenetti 2 integral format.
 Two-electron integral symmetry is turned off.
 R6Disp:  Grimme-D2 Dispersion energy=       -0.0216072657 Hartrees.
 Nuclear repulsion after empirical dispersion term =      672.4965287740 Hartrees.
 Using the following non-standard input for PCM:
 qrep pcmdoc geomview  nodis nocav g03defaults tsare=0.075
 Warning! Using old PCM defaults because the g03defaults keyword was found.
 These settings can be overridden by following keywords.
 nsfe=28
 NVESolv=36  SolvMW=84.1595   Rsolv=2.815
 eps=2.0165 RhoS=0.7781
 --- end of non-standard input.
 Reading user-defined spheres from input:
 ISph  on   Nord    Re0     Alpha      Xe            Ye            Ze
 --- end of user-defined spheres data.
 ------------------------------------------------------------------------------
 Polarizable Continuum Model (PCM)
 =================================
 Model                : PCM.
 Atomic radii         : UA0 (Simple United Atom Topological Model).
 Polarization charges : Total charges.
 Charge compensation  : None.
 Solution method      : On-the-fly selection.
 Cavity type          : SES (Solvent Excluding Surface) (Alpha=1.000).
 Cavity algorithm     : GePol (RMin=0.200 OFac=0.890).
                        User-defined sphere list used, NSphG=   28.
                        Tesserae with average area of 0.075 Ang**2.
                        Smoothing algorithm: None.
                        Polarization charges: point-like.
                        Self-potential: constant (ISelfS= 1).
                        Self-field    : global E.n sum rule (ISelfD= 3).
 Solvent              : CycloHexane, Eps=   2.016500 Eps(inf)=   2.035188
                        RSolv=   2.815000 Ang.
 ------------------------------------------------------------------------------
 GePol: Number of generator spheres                  =      28
 GePol: Total number of spheres                      =     181
 GePol: Number of exposed spheres                    =     123 ( 67.96%)
 GePol: Number of tesserae                           =    4644
 GePol: Average area of tesserae                     =       0.05 Ang**2
 GePol: Minimum area of tessera                      =   0.10D-02 Ang**2
 GePol: Maximum area of tessera                      =    0.12659 Ang**2
 GePol: Number of small tesserae                     =       0
 GePol: Fraction of small tesserae (<1% of avg)      =       0.00%
 GePol: Total count of vertices                      =   16410
 GePol: Maximum number of vertices in a tessera      =       6
 GePol: Cavity surface area                          =    223.663 Ang**2
 GePol: Cavity volume                                =    255.380 Ang**3
 Leave Link  301 at Mon Aug  3 17:20:56 2020, MaxMem=  6442450944 cpu:               7.8 elap:               0.4
 (Enter /scratch/scicomp/CentOS/7.3.1611/Haswell/software/Gaussian/g16/l302.exe)
 NPDir=0 NMtPBC=     1 NCelOv=     1 NCel=       1 NClECP=     1 NCelD=      1
         NCelK=      1 NCelE2=     1 NClLst=     1 CellRange=     0.0.
 One-electron integrals computed using PRISM.
   1 Symmetry operations used in ECPInt.
 ECPInt:  NShTT=   19306 NPrTT=   56928 LenC2=   18453 LenP2D=   41793.
 LDataN:  DoStor=T MaxTD1= 6 Len=  172
 NBasis=   468 RedAO= T EigKep=  2.54D-05  NBF=   468
 NBsUse=   468 1.00D-06 EigRej= -1.00D+00 NBFU=   468
 Precomputing XC quadrature grid using
 IXCGrd= 4 IRadAn=           5 IRanWt=          -1 IRanGd=           0 AccXCQ= 0.00D+00.
 Generated NRdTot=       0 NPtTot=           0 NUsed=           0 NTot=          32
 NSgBfM=   526   525   525   526   526 MxSgAt=    28 MxSgA2=    28.
 Leave Link  302 at Mon Aug  3 17:20:57 2020, MaxMem=  6442450944 cpu:              11.7 elap:               0.5
 (Enter /scratch/scicomp/CentOS/7.3.1611/Haswell/software/Gaussian/g16/l401.exe)
 ExpMin= 9.52D-02 ExpMax= 1.36D+04 ExpMxC= 4.63D+02 IAcc=3 IRadAn=         5 AccDes= 0.00D+00
 Harris functional with IExCor= 4639 and IRadAn=       5 diagonalized for initial guess.
 HarFok:  IExCor= 4639 AccDes= 0.00D+00 IRadAn=         5 IDoV= 1 UseB2=F ITyADJ=14
 ICtDFT=  3500011 ScaDFX=  1.000000  1.000000  1.000000  1.000000
 FoFCou: FMM=F IPFlag=           0 FMFlag=      100000 FMFlg1=           0
         NFxFlg=           0 DoJE=T BraDBF=F KetDBF=T FulRan=T
         wScrn=  0.000000 ICntrl=       500 IOpCl=  0 I1Cent=   200000004 NGrid=           0
         NMat0=    1 NMatS0=      1 NMatT0=    0 NMatD0=    1 NMtDS0=    0 NMtDT0=    0
 Symmetry not used in FoFCou.
 Harris En= -444.637246536651    
 JPrj=0 DoOrth=F DoCkMO=T.
 Mixing orbitals, IMix= 1 IMixAn=  0 NRI=1 NE=   44 Coef=  7.07106781D-01  7.07106781D-01
 Mixing orbitals, IMix= 1 IMixAn=  0 NRI=1 NE=   44 Coef= -7.07106781D-01  7.07106781D-01
 Initial guess <Sx>= 0.0000 <Sy>= 0.0000 <Sz>= 0.0000 <S**2>= 1.0000 S= 0.6180
 Leave Link  401 at Mon Aug  3 17:20:59 2020, MaxMem=  6442450944 cpu:              47.1 elap:               2.0
 (Enter /scratch/scicomp/CentOS/7.3.1611/Haswell/software/Gaussian/g16/l9999.exe)

 This type of calculation cannot be archived.


 STEINBACH'S GUIDELINES FOR SYSTEMS PROGRAMMING:
 NEVER TEST FOR AN ERROR CONDITION YOU DON'T KNOW HOW
 TO HANDLE.
 Job cpu time:       0 days  0 hours  1 minutes 11.8 seconds.
 Elapsed time:       0 days  0 hours  0 minutes  3.3 seconds.
 File lengths (MBytes):  RWF=    396 Int=      0 D2E=      0 Chk=      1 Scr=      1
 Normal termination of Gaussian 16 at Mon Aug  3 17:20:59 2020.
 Initial command:
 /scratch/scicomp/CentOS/7.3.1611/Haswell/software/Gaussian/g16/l1.exe "/scratch/bochen/cyclohexadiene-dimerization/wb97xd-def2tzvp/xp-pcm/meso/Gau-78883.inp" -scrdir="/scratch/bochen/cyclohexadiene-dimerization/wb97xd-def2tzvp/xp-pcm/meso/"
 Entering Link 1 = /scratch/scicomp/CentOS/7.3.1611/Haswell/software/Gaussian/g16/l1.exe PID=     79047.
  
 Copyright (c) 1988-2017, Gaussian, Inc.  All Rights Reserved.
  
 This is part of the Gaussian(R) 16 program.  It is based on
 the Gaussian(R) 09 system (copyright 2009, Gaussian, Inc.),
 the Gaussian(R) 03 system (copyright 2003, Gaussian, Inc.),
 the Gaussian(R) 98 system (copyright 1998, Gaussian, Inc.),
 the Gaussian(R) 94 system (copyright 1995, Gaussian, Inc.),
 the Gaussian 92(TM) system (copyright 1992, Gaussian, Inc.),
 the Gaussian 90(TM) system (copyright 1990, Gaussian, Inc.),
 the Gaussian 88(TM) system (copyright 1988, Gaussian, Inc.),
 the Gaussian 86(TM) system (copyright 1986, Carnegie Mellon
 University), and the Gaussian 82(TM) system (copyright 1983,
 Carnegie Mellon University). Gaussian is a federally registered
 trademark of Gaussian, Inc.
  
 This software contains proprietary and confidential information,
 including trade secrets, belonging to Gaussian, Inc.
  
 This software is provided under written license and may be
 used, copied, transmitted, or stored only in accord with that
 written license.
  
 The following legend is applicable only to US Government
 contracts under FAR:
  
                    RESTRICTED RIGHTS LEGEND
  
 Use, reproduction and disclosure by the US Government is
 subject to restrictions as set forth in subparagraphs (a)
 and (c) of the Commercial Computer Software - Restricted
 Rights clause in FAR 52.227-19.
  
 Gaussian, Inc.
 340 Quinnipiac St., Bldg. 40, Wallingford CT 06492
  
  
 ---------------------------------------------------------------
 Warning -- This program may not be used in any manner that
 competes with the business of Gaussian, Inc. or will provide
 assistance to any competitor of Gaussian, Inc.  The licensee
 of this program is prohibited from giving any competitor of
 Gaussian, Inc. access to this program.  By using this program,
 the user acknowledges that Gaussian, Inc. is engaged in the
 business of creating and licensing software in the field of
 computational chemistry and represents and warrants to the
 licensee that it is not a competitor of Gaussian, Inc. and that
 it will not use this program in any manner prohibited above.
 ---------------------------------------------------------------
  

 Cite this work as:
 Gaussian 16, Revision B.01,
 M. J. Frisch, G. W. Trucks, H. B. Schlegel, G. E. Scuseria, 
 M. A. Robb, J. R. Cheeseman, G. Scalmani, V. Barone, 
 G. A. Petersson, H. Nakatsuji, X. Li, M. Caricato, A. V. Marenich, 
 J. Bloino, B. G. Janesko, R. Gomperts, B. Mennucci, H. P. Hratchian, 
 J. V. Ortiz, A. F. Izmaylov, J. L. Sonnenberg, D. Williams-Young, 
 F. Ding, F. Lipparini, F. Egidi, J. Goings, B. Peng, A. Petrone, 
 T. Henderson, D. Ranasinghe, V. G. Zakrzewski, J. Gao, N. Rega, 
 G. Zheng, W. Liang, M. Hada, M. Ehara, K. Toyota, R. Fukuda, 
 J. Hasegawa, M. Ishida, T. Nakajima, Y. Honda, O. Kitao, H. Nakai, 
 T. Vreven, K. Throssell, J. A. Montgomery, Jr., J. E. Peralta, 
 F. Ogliaro, M. J. Bearpark, J. J. Heyd, E. N. Brothers, K. N. Kudin, 
 V. N. Staroverov, T. A. Keith, R. Kobayashi, J. Normand, 
 K. Raghavachari, A. P. Rendell, J. C. Burant, S. S. Iyengar, 
 J. Tomasi, M. Cossi, J. M. Millam, M. Klene, C. Adamo, R. Cammi, 
 J. W. Ochterski, R. L. Martin, K. Morokuma, O. Farkas, 
 J. B. Foresman, and D. J. Fox, Gaussian, Inc., Wallingford CT, 2016.
 
 ******************************************
 Gaussian 16:  ES64L-G16RevB.01 20-Dec-2017
                 3-Aug-2020 
 ******************************************
 %chk=meso-TS_64_2_xp-115.chk
 %nproc=24
 Will use up to   24 processors via shared memory.
 %mem=48GB
 ----------------------------------------------------------------------
 #p uwb97xd guess=mix def2tzvp # scrf=(iefpcm,solvent=Cyclohexane,read)
  nosym guess=only pop=none
 ----------------------------------------------------------------------
 1/38=1,40=2,172=1/1;
 2/12=2,15=1,17=6,18=5,40=1/2;
 3/5=44,7=101,11=2,25=1,30=1,70=2203,72=17,74=-58,89=1,116=2/1,2;
 4/13=-1/1;
 99/5=2/99;
 Leave Link    1 at Mon Aug  3 17:20:59 2020, MaxMem=  6442450944 cpu:               2.0 elap:               0.1
 (Enter /scratch/scicomp/CentOS/7.3.1611/Haswell/software/Gaussian/g16/l101.exe)
 -----------------------
 endo-2 xp-pcm for eta=3
 -----------------------
 Symbolic Z-matrix:
 Charge =  0 Multiplicity = 1
 6                    -3.12468  -0.44069   0.27304 
 6                    -0.77579  -0.26199  -1.30218 
 1                    -4.05407  -0.52582   0.82419 
 1                     0.1616   -0.18453  -1.83944 
 6                     1.19854   1.43292   0.83418 
 6                     0.77579   0.26199   1.30218 
 1                     0.6082    2.33018   0.97771 
 1                    -0.1616    0.18453   1.83944 
 6                     1.60523  -0.98179   1.16163 
 1                     2.17694  -1.10827   2.09015 
 1                     0.9563   -1.85528   1.08385 
 6                     2.47187   1.53314   0.11941 
 1                     2.87141   2.51693  -0.09608 
 6                     3.12468   0.44069  -0.27304 
 1                     4.05407   0.52582  -0.82419 
 6                     2.56349  -0.93427  -0.03247 
 1                     2.04332  -1.25613  -0.943 
 1                     3.37242  -1.65219   0.11536 
 6                    -1.19854  -1.43292  -0.83418 
 1                    -0.6082   -2.33018  -0.97771 
 6                    -2.47187  -1.53314  -0.11941 
 1                    -2.87141  -2.51693   0.09608 
 6                    -1.60523   0.98179  -1.16163 
 1                    -0.9563    1.85528  -1.08385 
 1                    -2.17694   1.10827  -2.09015 
 6                    -2.56349   0.93427   0.03247 
 1                    -3.37242   1.65219  -0.11536 
 1                    -2.04332   1.25613   0.943 
 
 ITRead=  0  0  0  0  0  0  0  0  0  0  0  0  0  0  0  0  0  0  0  0
 ITRead=  0  0  0  0  0  0  0  0
 MicOpt= -1 -1 -1 -1 -1 -1 -1 -1 -1 -1 -1 -1 -1 -1 -1 -1 -1 -1 -1 -1
 MicOpt= -1 -1 -1 -1 -1 -1 -1 -1
 NAtoms=     28 NQM=       28 NQMF=       0 NMMI=      0 NMMIF=      0
                NMic=       0 NMicF=      0.
                    Isotopes and Nuclear Properties:
 (Nuclear quadrupole moments (NQMom) in fm**2, nuclear magnetic moments (NMagM)
  in nuclear magnetons)

  Atom         1           2           3           4           5           6           7           8           9          10
 IAtWgt=          12          12           1           1          12          12           1           1          12           1
 AtmWgt=  12.0000000  12.0000000   1.0078250   1.0078250  12.0000000  12.0000000   1.0078250   1.0078250  12.0000000   1.0078250
 NucSpn=           0           0           1           1           0           0           1           1           0           1
 AtZEff=  -0.0000000  -0.0000000  -0.0000000  -0.0000000  -0.0000000  -0.0000000  -0.0000000  -0.0000000  -0.0000000  -0.0000000
 NQMom=    0.0000000   0.0000000   0.0000000   0.0000000   0.0000000   0.0000000   0.0000000   0.0000000   0.0000000   0.0000000
 NMagM=    0.0000000   0.0000000   2.7928460   2.7928460   0.0000000   0.0000000   2.7928460   2.7928460   0.0000000   2.7928460
 AtZNuc=   6.0000000   6.0000000   1.0000000   1.0000000   6.0000000   6.0000000   1.0000000   1.0000000   6.0000000   1.0000000

  Atom        11          12          13          14          15          16          17          18          19          20
 IAtWgt=           1          12           1          12           1          12           1           1          12           1
 AtmWgt=   1.0078250  12.0000000   1.0078250  12.0000000   1.0078250  12.0000000   1.0078250   1.0078250  12.0000000   1.0078250
 NucSpn=           1           0           1           0           1           0           1           1           0           1
 AtZEff=  -0.0000000  -0.0000000  -0.0000000  -0.0000000  -0.0000000  -0.0000000  -0.0000000  -0.0000000  -0.0000000  -0.0000000
 NQMom=    0.0000000   0.0000000   0.0000000   0.0000000   0.0000000   0.0000000   0.0000000   0.0000000   0.0000000   0.0000000
 NMagM=    2.7928460   0.0000000   2.7928460   0.0000000   2.7928460   0.0000000   2.7928460   2.7928460   0.0000000   2.7928460
 AtZNuc=   1.0000000   6.0000000   1.0000000   6.0000000   1.0000000   6.0000000   1.0000000   1.0000000   6.0000000   1.0000000

  Atom        21          22          23          24          25          26          27          28
 IAtWgt=          12           1          12           1           1          12           1           1
 AtmWgt=  12.0000000   1.0078250  12.0000000   1.0078250   1.0078250  12.0000000   1.0078250   1.0078250
 NucSpn=           0           1           0           1           1           0           1           1
 AtZEff=  -0.0000000  -0.0000000  -0.0000000  -0.0000000  -0.0000000  -0.0000000  -0.0000000  -0.0000000
 NQMom=    0.0000000   0.0000000   0.0000000   0.0000000   0.0000000   0.0000000   0.0000000   0.0000000
 NMagM=    0.0000000   2.7928460   0.0000000   2.7928460   2.7928460   0.0000000   2.7928460   2.7928460
 AtZNuc=   6.0000000   1.0000000   6.0000000   1.0000000   1.0000000   6.0000000   1.0000000   1.0000000
 Leave Link  101 at Mon Aug  3 17:21:00 2020, MaxMem=  6442450944 cpu:               2.4 elap:               0.1
 (Enter /scratch/scicomp/CentOS/7.3.1611/Haswell/software/Gaussian/g16/l202.exe)
                          Input orientation:                          
 ---------------------------------------------------------------------
 Center     Atomic      Atomic             Coordinates (Angstroms)
 Number     Number       Type             X           Y           Z
 ---------------------------------------------------------------------
      1          6           0       -3.124680   -0.440685    0.273036
      2          6           0       -0.775792   -0.261985   -1.302176
      3          1           0       -4.054066   -0.525819    0.824190
      4          1           0        0.161604   -0.184531   -1.839436
      5          6           0        1.198536    1.432924    0.834184
      6          6           0        0.775792    0.261985    1.302176
      7          1           0        0.608196    2.330179    0.977711
      8          1           0       -0.161604    0.184531    1.839436
      9          6           0        1.605227   -0.981794    1.161635
     10          1           0        2.176937   -1.108268    2.090145
     11          1           0        0.956297   -1.855279    1.083849
     12          6           0        2.471867    1.533139    0.119408
     13          1           0        2.871405    2.516926   -0.096077
     14          6           0        3.124680    0.440685   -0.273036
     15          1           0        4.054066    0.525819   -0.824190
     16          6           0        2.563488   -0.934271   -0.032474
     17          1           0        2.043317   -1.256129   -0.942998
     18          1           0        3.372415   -1.652191    0.115362
     19          6           0       -1.198536   -1.432924   -0.834184
     20          1           0       -0.608196   -2.330179   -0.977711
     21          6           0       -2.471867   -1.533139   -0.119408
     22          1           0       -2.871405   -2.516926    0.096077
     23          6           0       -1.605227    0.981794   -1.161635
     24          1           0       -0.956297    1.855279   -1.083849
     25          1           0       -2.176937    1.108268   -2.090145
     26          6           0       -2.563488    0.934271    0.032474
     27          1           0       -3.372415    1.652191   -0.115362
     28          1           0       -2.043317    1.256129    0.942998
 ---------------------------------------------------------------------
                    Distance matrix (angstroms):
                    1          2          3          4          5
     1  C    0.000000
     2  C    2.833814   0.000000
     3  H    1.083871   3.916391   0.000000
     4  H    3.915075   1.083217   4.998325   0.000000
     5  C    4.745049   3.366708   5.605943   3.292360   0.000000
     6  C    4.094699   3.076460   4.916974   3.232078   1.329973
     7  H    4.701980   3.719223   5.469642   3.802569   1.083590
     8  H    3.409446   3.232078   4.084921   3.711438   2.102141
     9  C    4.842977   3.501106   5.687652   3.424340   2.470523
    10  H    5.643996   4.576313   6.384927   4.511814   2.998727
    11  H    4.394641   3.351393   5.190243   3.459556   3.306553
    12  C    5.936406   3.973746   6.879232   3.482065   1.463666
    13  H    6.696024   4.741209   7.620193   4.204782   2.199758
    14  C    6.334786   4.094699   7.326147   3.409446   2.433209
    15  H    7.326147   4.916974   8.340558   4.084921   3.424485
    16  C    5.717711   3.635231   6.685262   3.097784   2.866671
    17  H    5.371395   3.010765   6.390179   2.343665   3.332122
    18  H    6.610964   4.598881   7.544784   4.035414   3.841925
    19  C    2.433209   1.329973   3.424485   2.102141   4.091759
    20  H    3.386332   2.100189   4.286792   2.437000   4.550625
    21  C    1.331778   2.427229   2.099625   3.422340   4.814429
    22  H    2.099104   3.381045   2.427621   4.287822   5.719313
    23  C    2.527937   1.501566   3.494740   2.222930   3.471008
    24  H    3.437219   2.136131   4.348151   2.445698   2.915568
    25  H    2.980285   2.112273   3.832389   2.683833   4.477825
    26  C    1.504430   2.531438   2.231703   3.490257   3.878688
    27  H    2.142978   3.437302   2.468022   4.339962   4.673683
    28  H    2.120701   2.992005   2.689343   3.831334   3.248493
                    6          7          8          9         10
     6  C    0.000000
     7  H    2.100189   0.000000
     8  H    1.083217   2.437000   0.000000
     9  C    1.501566   3.463678   2.222930   0.000000
    10  H    2.112273   3.939718   2.683833   1.097715   0.000000
    11  H    2.136131   4.201250   2.445698   1.090934   1.749463
    12  C    2.427229   2.201187   3.422340   2.856955   3.308749
    13  H    3.381045   2.511973   4.287822   3.927606   4.289975
    14  C    2.833814   3.386332   3.915075   2.527937   2.980285
    15  H    3.916391   4.286792   4.998325   3.494740   3.832389
    16  C    2.531438   3.937039   3.490257   1.531802   2.164534
    17  H    2.992005   4.313966   3.831334   2.167178   3.039683
    18  H    3.437302   4.923802   4.339962   2.160341   2.371664
    19  C    3.366708   4.550625   3.292360   3.471008   4.477825
    20  H    3.719223   5.198290   3.802569   3.360682   4.319927
    21  C    3.973746   5.061194   3.482065   4.309031   5.164690
    22  H    4.741209   6.031528   4.204782   4.851008   5.607707
    23  C    3.501106   3.360682   3.424340   4.422700   5.408068
    24  H    3.351393   2.631197   3.459556   4.433124   5.354811
    25  H    4.576313   4.319927   4.511814   5.408068   6.429936
    26  C    3.635231   3.591881   3.097784   4.724880   5.556762
    27  H    4.598881   4.183269   4.035414   5.774558   6.578731
    28  H    3.010765   2.860998   2.343665   4.285788   4.971606
                   11         12         13         14         15
    11  H    0.000000
    12  C    3.835163   0.000000
    13  H    4.916914   1.083467   0.000000
    14  C    3.437219   1.331778   2.099104   0.000000
    15  H    4.348151   2.099625   2.427621   1.083871   0.000000
    16  C    2.162752   2.473777   3.465490   1.504430   2.231703
    17  H    2.376700   3.015357   3.954611   2.120701   2.689343
    18  H    2.610908   3.310186   4.204433   2.142978   2.468022
    19  C    2.915568   4.814429   5.719313   4.745049   5.605943
    20  H    2.631197   5.061194   6.031528   4.701980   5.469642
    21  C    3.647453   5.822336   6.704784   5.936406   6.879232
    22  H    4.008088   6.704784   7.639140   6.696024   7.620193
    23  C    4.433124   4.309031   4.851008   4.842977   5.687652
    24  H    4.703740   3.647453   4.008088   4.394641   5.190243
    25  H    5.354811   5.164690   5.607707   5.643996   6.384927
    26  C    4.612577   5.071588   5.662101   5.717711   6.685262
    27  H    5.698965   5.850207   6.303446   6.610964   7.544784
    28  H    4.324163   4.598035   5.179168   5.371395   6.390179
                   16         17         18         19         20
    16  C    0.000000
    17  H    1.096916   0.000000
    18  H    1.091617   1.744561   0.000000
    19  C    3.878688   3.248493   4.673683   0.000000
    20  H    3.591881   2.860998   4.183269   1.083590   0.000000
    21  C    5.071588   4.598035   5.850207   1.463666   2.201187
    22  H    5.662101   5.179168   6.303446   2.199758   2.511973
    23  C    4.724880   4.285788   5.774558   2.470523   3.463678
    24  H    4.612577   4.324163   5.698965   3.306553   4.201250
    25  H    5.556762   4.971606   6.578731   2.998727   3.939718
    26  C    5.457248   5.193462   6.475461   2.866671   3.937039
    27  H    6.475461   6.202698   7.514313   3.841925   4.923802
    28  H    5.193462   5.154512   6.202698   3.332122   4.313966
                   21         22         23         24         25
    21  C    0.000000
    22  H    1.083467   0.000000
    23  C    2.856955   3.927606   0.000000
    24  H    3.835163   4.916914   1.090934   0.000000
    25  H    3.308749   4.289975   1.097715   1.749463   0.000000
    26  C    2.473777   3.465490   1.531802   2.162752   2.164534
    27  H    3.310186   4.204433   2.160341   2.610908   2.371664
    28  H    3.015357   3.954611   2.167178   2.376700   3.039683
                   26         27         28
    26  C    0.000000
    27  H    1.091617   0.000000
    28  H    1.096916   1.744561   0.000000
 Symmetry turned off by external request.
 Stoichiometry    C12H16
 Framework group  CI[X(C12H16)]
 Deg. of freedom    39
 Full point group                 CI      NOp   2
 Rotational constants (GHZ):           1.7158847           0.5828782           0.5313882
 Leave Link  202 at Mon Aug  3 17:21:00 2020, MaxMem=  6442450944 cpu:               0.3 elap:               0.0
 (Enter /scratch/scicomp/CentOS/7.3.1611/Haswell/software/Gaussian/g16/l301.exe)
 Standard basis: def2TZVP (5D, 7F)
 Ernie: Thresh=  0.10000D-02 Tol=  0.10000D-05 Strict=F.
   468 basis functions,   740 primitive gaussians,   528 cartesian basis functions
    44 alpha electrons       44 beta electrons
       nuclear repulsion energy       672.5181360396 Hartrees.
 IExCor= 4639 DFT=T Ex+Corr=wB97XD ExCW=0 ScaHFX=  1.000000
 ScaDFX=  1.000000  1.000000  1.000000  1.000000 ScalE2=  1.000000  1.000000
 IRadAn=      5 IRanWt=     -1 IRanGd=            0 ICorTp=0 IEmpDi=121
 HFx  wShort=  0.000000 wLong=  0.200000 cFull=  0.222036 cShort=  0.000000 cLong=  0.777964
 DFx  wShort=  0.000000 wLong=  0.200000 cFull=  0.000000 cShort=  0.000000 cLong=  1.000000
 NAtoms=   28 NActive=   28 NUniq=   28 SFac= 1.00D+00 NAtFMM=   60 NAOKFM=F Big=F
 Integral buffers will be    131072 words long.
 Raffenetti 2 integral format.
 Two-electron integral symmetry is turned off.
 R6Disp:  Grimme-D2 Dispersion energy=       -0.0216072657 Hartrees.
 Nuclear repulsion after empirical dispersion term =      672.4965287740 Hartrees.
 Using the following non-standard input for PCM:
 qrep pcmdoc geomview  nodis nocav g03defaults tsare=0.075
 Warning! Using old PCM defaults because the g03defaults keyword was found.
 These settings can be overridden by following keywords.
 nsfe=28
 NVESolv=36  SolvMW=84.1595   Rsolv=2.815
 eps=2.0165 RhoS=0.7781
 --- end of non-standard input.
 Reading user-defined spheres from input:
 ISph  on   Nord    Re0     Alpha      Xe            Ye            Ze
 --- end of user-defined spheres data.
 ------------------------------------------------------------------------------
 Polarizable Continuum Model (PCM)
 =================================
 Model                : PCM.
 Atomic radii         : UA0 (Simple United Atom Topological Model).
 Polarization charges : Total charges.
 Charge compensation  : None.
 Solution method      : On-the-fly selection.
 Cavity type          : SES (Solvent Excluding Surface) (Alpha=1.000).
 Cavity algorithm     : GePol (RMin=0.200 OFac=0.890).
                        User-defined sphere list used, NSphG=   28.
                        Tesserae with average area of 0.075 Ang**2.
                        Smoothing algorithm: None.
                        Polarization charges: point-like.
                        Self-potential: constant (ISelfS= 1).
                        Self-field    : global E.n sum rule (ISelfD= 3).
 Solvent              : CycloHexane, Eps=   2.016500 Eps(inf)=   2.035188
                        RSolv=   2.815000 Ang.
 ------------------------------------------------------------------------------
 GePol: Number of generator spheres                  =      28
 GePol: Total number of spheres                      =     221
 GePol: Number of exposed spheres                    =     150 ( 67.87%)
 GePol: Number of tesserae                           =    4801
 GePol: Average area of tesserae                     =       0.05 Ang**2
 GePol: Minimum area of tessera                      =   0.10D-02 Ang**2
 GePol: Maximum area of tessera                      =    0.11162 Ang**2
 GePol: Number of small tesserae                     =       0
 GePol: Fraction of small tesserae (<1% of avg)      =       0.00%
 GePol: Total count of vertices                      =   17068
 GePol: Maximum number of vertices in a tessera      =       7
 GePol: Cavity surface area                          =    216.162 Ang**2
 GePol: Cavity volume                                =    240.138 Ang**3
 Leave Link  301 at Mon Aug  3 17:21:00 2020, MaxMem=  6442450944 cpu:               8.6 elap:               0.4
 (Enter /scratch/scicomp/CentOS/7.3.1611/Haswell/software/Gaussian/g16/l302.exe)
 NPDir=0 NMtPBC=     1 NCelOv=     1 NCel=       1 NClECP=     1 NCelD=      1
         NCelK=      1 NCelE2=     1 NClLst=     1 CellRange=     0.0.
 One-electron integrals computed using PRISM.
   1 Symmetry operations used in ECPInt.
 ECPInt:  NShTT=   19306 NPrTT=   56928 LenC2=   18453 LenP2D=   41793.
 LDataN:  DoStor=T MaxTD1= 6 Len=  172
 NBasis=   468 RedAO= T EigKep=  2.54D-05  NBF=   468
 NBsUse=   468 1.00D-06 EigRej= -1.00D+00 NBFU=   468
 Precomputing XC quadrature grid using
 IXCGrd= 4 IRadAn=           5 IRanWt=          -1 IRanGd=           0 AccXCQ= 0.00D+00.
 Generated NRdTot=       0 NPtTot=           0 NUsed=           0 NTot=          32
 NSgBfM=   526   525   525   526   526 MxSgAt=    28 MxSgA2=    28.
 Leave Link  302 at Mon Aug  3 17:21:01 2020, MaxMem=  6442450944 cpu:              11.8 elap:               0.5
 (Enter /scratch/scicomp/CentOS/7.3.1611/Haswell/software/Gaussian/g16/l401.exe)
 ExpMin= 9.52D-02 ExpMax= 1.36D+04 ExpMxC= 4.63D+02 IAcc=3 IRadAn=         5 AccDes= 0.00D+00
 Harris functional with IExCor= 4639 and IRadAn=       5 diagonalized for initial guess.
 HarFok:  IExCor= 4639 AccDes= 0.00D+00 IRadAn=         5 IDoV= 1 UseB2=F ITyADJ=14
 ICtDFT=  3500011 ScaDFX=  1.000000  1.000000  1.000000  1.000000
 FoFCou: FMM=F IPFlag=           0 FMFlag=      100000 FMFlg1=           0
         NFxFlg=           0 DoJE=T BraDBF=F KetDBF=T FulRan=T
         wScrn=  0.000000 ICntrl=       500 IOpCl=  0 I1Cent=   200000004 NGrid=           0
         NMat0=    1 NMatS0=      1 NMatT0=    0 NMatD0=    1 NMtDS0=    0 NMtDT0=    0
 Symmetry not used in FoFCou.
 Harris En= -444.637246536651    
 JPrj=0 DoOrth=F DoCkMO=T.
 Mixing orbitals, IMix= 1 IMixAn=  0 NRI=1 NE=   44 Coef=  7.07106781D-01  7.07106781D-01
 Mixing orbitals, IMix= 1 IMixAn=  0 NRI=1 NE=   44 Coef= -7.07106781D-01  7.07106781D-01
 Initial guess <Sx>= 0.0000 <Sy>= 0.0000 <Sz>= 0.0000 <S**2>= 1.0000 S= 0.6180
 Leave Link  401 at Mon Aug  3 17:21:03 2020, MaxMem=  6442450944 cpu:              47.2 elap:               2.0
 (Enter /scratch/scicomp/CentOS/7.3.1611/Haswell/software/Gaussian/g16/l9999.exe)

 This type of calculation cannot be archived.


      LET US REMEMBER, PLEASE, THAT THE SEARCH FOR THE CONSTITUTION
      OF THE WORLD IS ONE OF THE GREATEST AND NOBLEST PROBLEMS PRESENTED 
      BY NATURE.

                                                  -- GALILEO
 Job cpu time:       0 days  0 hours  1 minutes 13.3 seconds.
 Elapsed time:       0 days  0 hours  0 minutes  3.3 seconds.
 File lengths (MBytes):  RWF=    421 Int=      0 D2E=      0 Chk=      1 Scr=      1
 Normal termination of Gaussian 16 at Mon Aug  3 17:21:03 2020.
 Initial command:
 /scratch/scicomp/CentOS/7.3.1611/Haswell/software/Gaussian/g16/l1.exe "/scratch/bochen/cyclohexadiene-dimerization/wb97xd-def2tzvp/xp-pcm/meso/Gau-78883.inp" -scrdir="/scratch/bochen/cyclohexadiene-dimerization/wb97xd-def2tzvp/xp-pcm/meso/"
 Entering Link 1 = /scratch/scicomp/CentOS/7.3.1611/Haswell/software/Gaussian/g16/l1.exe PID=     79210.
  
 Copyright (c) 1988-2017, Gaussian, Inc.  All Rights Reserved.
  
 This is part of the Gaussian(R) 16 program.  It is based on
 the Gaussian(R) 09 system (copyright 2009, Gaussian, Inc.),
 the Gaussian(R) 03 system (copyright 2003, Gaussian, Inc.),
 the Gaussian(R) 98 system (copyright 1998, Gaussian, Inc.),
 the Gaussian(R) 94 system (copyright 1995, Gaussian, Inc.),
 the Gaussian 92(TM) system (copyright 1992, Gaussian, Inc.),
 the Gaussian 90(TM) system (copyright 1990, Gaussian, Inc.),
 the Gaussian 88(TM) system (copyright 1988, Gaussian, Inc.),
 the Gaussian 86(TM) system (copyright 1986, Carnegie Mellon
 University), and the Gaussian 82(TM) system (copyright 1983,
 Carnegie Mellon University). Gaussian is a federally registered
 trademark of Gaussian, Inc.
  
 This software contains proprietary and confidential information,
 including trade secrets, belonging to Gaussian, Inc.
  
 This software is provided under written license and may be
 used, copied, transmitted, or stored only in accord with that
 written license.
  
 The following legend is applicable only to US Government
 contracts under FAR:
  
                    RESTRICTED RIGHTS LEGEND
  
 Use, reproduction and disclosure by the US Government is
 subject to restrictions as set forth in subparagraphs (a)
 and (c) of the Commercial Computer Software - Restricted
 Rights clause in FAR 52.227-19.
  
 Gaussian, Inc.
 340 Quinnipiac St., Bldg. 40, Wallingford CT 06492
  
  
 ---------------------------------------------------------------
 Warning -- This program may not be used in any manner that
 competes with the business of Gaussian, Inc. or will provide
 assistance to any competitor of Gaussian, Inc.  The licensee
 of this program is prohibited from giving any competitor of
 Gaussian, Inc. access to this program.  By using this program,
 the user acknowledges that Gaussian, Inc. is engaged in the
 business of creating and licensing software in the field of
 computational chemistry and represents and warrants to the
 licensee that it is not a competitor of Gaussian, Inc. and that
 it will not use this program in any manner prohibited above.
 ---------------------------------------------------------------
  

 Cite this work as:
 Gaussian 16, Revision B.01,
 M. J. Frisch, G. W. Trucks, H. B. Schlegel, G. E. Scuseria, 
 M. A. Robb, J. R. Cheeseman, G. Scalmani, V. Barone, 
 G. A. Petersson, H. Nakatsuji, X. Li, M. Caricato, A. V. Marenich, 
 J. Bloino, B. G. Janesko, R. Gomperts, B. Mennucci, H. P. Hratchian, 
 J. V. Ortiz, A. F. Izmaylov, J. L. Sonnenberg, D. Williams-Young, 
 F. Ding, F. Lipparini, F. Egidi, J. Goings, B. Peng, A. Petrone, 
 T. Henderson, D. Ranasinghe, V. G. Zakrzewski, J. Gao, N. Rega, 
 G. Zheng, W. Liang, M. Hada, M. Ehara, K. Toyota, R. Fukuda, 
 J. Hasegawa, M. Ishida, T. Nakajima, Y. Honda, O. Kitao, H. Nakai, 
 T. Vreven, K. Throssell, J. A. Montgomery, Jr., J. E. Peralta, 
 F. Ogliaro, M. J. Bearpark, J. J. Heyd, E. N. Brothers, K. N. Kudin, 
 V. N. Staroverov, T. A. Keith, R. Kobayashi, J. Normand, 
 K. Raghavachari, A. P. Rendell, J. C. Burant, S. S. Iyengar, 
 J. Tomasi, M. Cossi, J. M. Millam, M. Klene, C. Adamo, R. Cammi, 
 J. W. Ochterski, R. L. Martin, K. Morokuma, O. Farkas, 
 J. B. Foresman, and D. J. Fox, Gaussian, Inc., Wallingford CT, 2016.
 
 ******************************************
 Gaussian 16:  ES64L-G16RevB.01 20-Dec-2017
                 3-Aug-2020 
 ******************************************
 %chk=meso-TS_64_2_xp-110.chk
 %nproc=24
 Will use up to   24 processors via shared memory.
 %mem=48GB
 ----------------------------------------------------------------------
 #p uwb97xd guess=mix def2tzvp # scrf=(iefpcm,solvent=Cyclohexane,read)
  nosym guess=only pop=none
 ----------------------------------------------------------------------
 1/38=1,40=2,172=1/1;
 2/12=2,15=1,17=6,18=5,40=1/2;
 3/5=44,7=101,11=2,25=1,30=1,70=2203,72=17,74=-58,89=1,116=2/1,2;
 4/13=-1/1;
 99/5=2/99;
 Leave Link    1 at Mon Aug  3 17:21:03 2020, MaxMem=  6442450944 cpu:               4.9 elap:               0.2
 (Enter /scratch/scicomp/CentOS/7.3.1611/Haswell/software/Gaussian/g16/l101.exe)
 -----------------------
 endo-2 xp-pcm for eta=3
 -----------------------
 Symbolic Z-matrix:
 Charge =  0 Multiplicity = 1
 6                    -3.12468  -0.44069   0.27304 
 6                    -0.77579  -0.26199  -1.30218 
 1                    -4.05407  -0.52582   0.82419 
 1                     0.1616   -0.18453  -1.83944 
 6                     1.19854   1.43292   0.83418 
 6                     0.77579   0.26199   1.30218 
 1                     0.6082    2.33018   0.97771 
 1                    -0.1616    0.18453   1.83944 
 6                     1.60523  -0.98179   1.16163 
 1                     2.17694  -1.10827   2.09015 
 1                     0.9563   -1.85528   1.08385 
 6                     2.47187   1.53314   0.11941 
 1                     2.87141   2.51693  -0.09608 
 6                     3.12468   0.44069  -0.27304 
 1                     4.05407   0.52582  -0.82419 
 6                     2.56349  -0.93427  -0.03247 
 1                     2.04332  -1.25613  -0.943 
 1                     3.37242  -1.65219   0.11536 
 6                    -1.19854  -1.43292  -0.83418 
 1                    -0.6082   -2.33018  -0.97771 
 6                    -2.47187  -1.53314  -0.11941 
 1                    -2.87141  -2.51693   0.09608 
 6                    -1.60523   0.98179  -1.16163 
 1                    -0.9563    1.85528  -1.08385 
 1                    -2.17694   1.10827  -2.09015 
 6                    -2.56349   0.93427   0.03247 
 1                    -3.37242   1.65219  -0.11536 
 1                    -2.04332   1.25613   0.943 
 
 ITRead=  0  0  0  0  0  0  0  0  0  0  0  0  0  0  0  0  0  0  0  0
 ITRead=  0  0  0  0  0  0  0  0
 MicOpt= -1 -1 -1 -1 -1 -1 -1 -1 -1 -1 -1 -1 -1 -1 -1 -1 -1 -1 -1 -1
 MicOpt= -1 -1 -1 -1 -1 -1 -1 -1
 NAtoms=     28 NQM=       28 NQMF=       0 NMMI=      0 NMMIF=      0
                NMic=       0 NMicF=      0.
                    Isotopes and Nuclear Properties:
 (Nuclear quadrupole moments (NQMom) in fm**2, nuclear magnetic moments (NMagM)
  in nuclear magnetons)

  Atom         1           2           3           4           5           6           7           8           9          10
 IAtWgt=          12          12           1           1          12          12           1           1          12           1
 AtmWgt=  12.0000000  12.0000000   1.0078250   1.0078250  12.0000000  12.0000000   1.0078250   1.0078250  12.0000000   1.0078250
 NucSpn=           0           0           1           1           0           0           1           1           0           1
 AtZEff=  -0.0000000  -0.0000000  -0.0000000  -0.0000000  -0.0000000  -0.0000000  -0.0000000  -0.0000000  -0.0000000  -0.0000000
 NQMom=    0.0000000   0.0000000   0.0000000   0.0000000   0.0000000   0.0000000   0.0000000   0.0000000   0.0000000   0.0000000
 NMagM=    0.0000000   0.0000000   2.7928460   2.7928460   0.0000000   0.0000000   2.7928460   2.7928460   0.0000000   2.7928460
 AtZNuc=   6.0000000   6.0000000   1.0000000   1.0000000   6.0000000   6.0000000   1.0000000   1.0000000   6.0000000   1.0000000

  Atom        11          12          13          14          15          16          17          18          19          20
 IAtWgt=           1          12           1          12           1          12           1           1          12           1
 AtmWgt=   1.0078250  12.0000000   1.0078250  12.0000000   1.0078250  12.0000000   1.0078250   1.0078250  12.0000000   1.0078250
 NucSpn=           1           0           1           0           1           0           1           1           0           1
 AtZEff=  -0.0000000  -0.0000000  -0.0000000  -0.0000000  -0.0000000  -0.0000000  -0.0000000  -0.0000000  -0.0000000  -0.0000000
 NQMom=    0.0000000   0.0000000   0.0000000   0.0000000   0.0000000   0.0000000   0.0000000   0.0000000   0.0000000   0.0000000
 NMagM=    2.7928460   0.0000000   2.7928460   0.0000000   2.7928460   0.0000000   2.7928460   2.7928460   0.0000000   2.7928460
 AtZNuc=   1.0000000   6.0000000   1.0000000   6.0000000   1.0000000   6.0000000   1.0000000   1.0000000   6.0000000   1.0000000

  Atom        21          22          23          24          25          26          27          28
 IAtWgt=          12           1          12           1           1          12           1           1
 AtmWgt=  12.0000000   1.0078250  12.0000000   1.0078250   1.0078250  12.0000000   1.0078250   1.0078250
 NucSpn=           0           1           0           1           1           0           1           1
 AtZEff=  -0.0000000  -0.0000000  -0.0000000  -0.0000000  -0.0000000  -0.0000000  -0.0000000  -0.0000000
 NQMom=    0.0000000   0.0000000   0.0000000   0.0000000   0.0000000   0.0000000   0.0000000   0.0000000
 NMagM=    0.0000000   2.7928460   0.0000000   2.7928460   2.7928460   0.0000000   2.7928460   2.7928460
 AtZNuc=   6.0000000   1.0000000   6.0000000   1.0000000   1.0000000   6.0000000   1.0000000   1.0000000
 Leave Link  101 at Mon Aug  3 17:21:03 2020, MaxMem=  6442450944 cpu:               2.4 elap:               0.1
 (Enter /scratch/scicomp/CentOS/7.3.1611/Haswell/software/Gaussian/g16/l202.exe)
                          Input orientation:                          
 ---------------------------------------------------------------------
 Center     Atomic      Atomic             Coordinates (Angstroms)
 Number     Number       Type             X           Y           Z
 ---------------------------------------------------------------------
      1          6           0       -3.124680   -0.440685    0.273036
      2          6           0       -0.775792   -0.261985   -1.302176
      3          1           0       -4.054066   -0.525819    0.824190
      4          1           0        0.161604   -0.184531   -1.839436
      5          6           0        1.198536    1.432924    0.834184
      6          6           0        0.775792    0.261985    1.302176
      7          1           0        0.608196    2.330179    0.977711
      8          1           0       -0.161604    0.184531    1.839436
      9          6           0        1.605227   -0.981794    1.161635
     10          1           0        2.176937   -1.108268    2.090145
     11          1           0        0.956297   -1.855279    1.083849
     12          6           0        2.471867    1.533139    0.119408
     13          1           0        2.871405    2.516926   -0.096077
     14          6           0        3.124680    0.440685   -0.273036
     15          1           0        4.054066    0.525819   -0.824190
     16          6           0        2.563488   -0.934271   -0.032474
     17          1           0        2.043317   -1.256129   -0.942998
     18          1           0        3.372415   -1.652191    0.115362
     19          6           0       -1.198536   -1.432924   -0.834184
     20          1           0       -0.608196   -2.330179   -0.977711
     21          6           0       -2.471867   -1.533139   -0.119408
     22          1           0       -2.871405   -2.516926    0.096077
     23          6           0       -1.605227    0.981794   -1.161635
     24          1           0       -0.956297    1.855279   -1.083849
     25          1           0       -2.176937    1.108268   -2.090145
     26          6           0       -2.563488    0.934271    0.032474
     27          1           0       -3.372415    1.652191   -0.115362
     28          1           0       -2.043317    1.256129    0.942998
 ---------------------------------------------------------------------
                    Distance matrix (angstroms):
                    1          2          3          4          5
     1  C    0.000000
     2  C    2.833814   0.000000
     3  H    1.083871   3.916391   0.000000
     4  H    3.915075   1.083217   4.998325   0.000000
     5  C    4.745049   3.366708   5.605943   3.292360   0.000000
     6  C    4.094699   3.076460   4.916974   3.232078   1.329973
     7  H    4.701980   3.719223   5.469642   3.802569   1.083590
     8  H    3.409446   3.232078   4.084921   3.711438   2.102141
     9  C    4.842977   3.501106   5.687652   3.424340   2.470523
    10  H    5.643996   4.576313   6.384927   4.511814   2.998727
    11  H    4.394641   3.351393   5.190243   3.459556   3.306553
    12  C    5.936406   3.973746   6.879232   3.482065   1.463666
    13  H    6.696024   4.741209   7.620193   4.204782   2.199758
    14  C    6.334786   4.094699   7.326147   3.409446   2.433209
    15  H    7.326147   4.916974   8.340558   4.084921   3.424485
    16  C    5.717711   3.635231   6.685262   3.097784   2.866671
    17  H    5.371395   3.010765   6.390179   2.343665   3.332122
    18  H    6.610964   4.598881   7.544784   4.035414   3.841925
    19  C    2.433209   1.329973   3.424485   2.102141   4.091759
    20  H    3.386332   2.100189   4.286792   2.437000   4.550625
    21  C    1.331778   2.427229   2.099625   3.422340   4.814429
    22  H    2.099104   3.381045   2.427621   4.287822   5.719313
    23  C    2.527937   1.501566   3.494740   2.222930   3.471008
    24  H    3.437219   2.136131   4.348151   2.445698   2.915568
    25  H    2.980285   2.112273   3.832389   2.683833   4.477825
    26  C    1.504430   2.531438   2.231703   3.490257   3.878688
    27  H    2.142978   3.437302   2.468022   4.339962   4.673683
    28  H    2.120701   2.992005   2.689343   3.831334   3.248493
                    6          7          8          9         10
     6  C    0.000000
     7  H    2.100189   0.000000
     8  H    1.083217   2.437000   0.000000
     9  C    1.501566   3.463678   2.222930   0.000000
    10  H    2.112273   3.939718   2.683833   1.097715   0.000000
    11  H    2.136131   4.201250   2.445698   1.090934   1.749463
    12  C    2.427229   2.201187   3.422340   2.856955   3.308749
    13  H    3.381045   2.511973   4.287822   3.927606   4.289975
    14  C    2.833814   3.386332   3.915075   2.527937   2.980285
    15  H    3.916391   4.286792   4.998325   3.494740   3.832389
    16  C    2.531438   3.937039   3.490257   1.531802   2.164534
    17  H    2.992005   4.313966   3.831334   2.167178   3.039683
    18  H    3.437302   4.923802   4.339962   2.160341   2.371664
    19  C    3.366708   4.550625   3.292360   3.471008   4.477825
    20  H    3.719223   5.198290   3.802569   3.360682   4.319927
    21  C    3.973746   5.061194   3.482065   4.309031   5.164690
    22  H    4.741209   6.031528   4.204782   4.851008   5.607707
    23  C    3.501106   3.360682   3.424340   4.422700   5.408068
    24  H    3.351393   2.631197   3.459556   4.433124   5.354811
    25  H    4.576313   4.319927   4.511814   5.408068   6.429936
    26  C    3.635231   3.591881   3.097784   4.724880   5.556762
    27  H    4.598881   4.183269   4.035414   5.774558   6.578731
    28  H    3.010765   2.860998   2.343665   4.285788   4.971606
                   11         12         13         14         15
    11  H    0.000000
    12  C    3.835163   0.000000
    13  H    4.916914   1.083467   0.000000
    14  C    3.437219   1.331778   2.099104   0.000000
    15  H    4.348151   2.099625   2.427621   1.083871   0.000000
    16  C    2.162752   2.473777   3.465490   1.504430   2.231703
    17  H    2.376700   3.015357   3.954611   2.120701   2.689343
    18  H    2.610908   3.310186   4.204433   2.142978   2.468022
    19  C    2.915568   4.814429   5.719313   4.745049   5.605943
    20  H    2.631197   5.061194   6.031528   4.701980   5.469642
    21  C    3.647453   5.822336   6.704784   5.936406   6.879232
    22  H    4.008088   6.704784   7.639140   6.696024   7.620193
    23  C    4.433124   4.309031   4.851008   4.842977   5.687652
    24  H    4.703740   3.647453   4.008088   4.394641   5.190243
    25  H    5.354811   5.164690   5.607707   5.643996   6.384927
    26  C    4.612577   5.071588   5.662101   5.717711   6.685262
    27  H    5.698965   5.850207   6.303446   6.610964   7.544784
    28  H    4.324163   4.598035   5.179168   5.371395   6.390179
                   16         17         18         19         20
    16  C    0.000000
    17  H    1.096916   0.000000
    18  H    1.091617   1.744561   0.000000
    19  C    3.878688   3.248493   4.673683   0.000000
    20  H    3.591881   2.860998   4.183269   1.083590   0.000000
    21  C    5.071588   4.598035   5.850207   1.463666   2.201187
    22  H    5.662101   5.179168   6.303446   2.199758   2.511973
    23  C    4.724880   4.285788   5.774558   2.470523   3.463678
    24  H    4.612577   4.324163   5.698965   3.306553   4.201250
    25  H    5.556762   4.971606   6.578731   2.998727   3.939718
    26  C    5.457248   5.193462   6.475461   2.866671   3.937039
    27  H    6.475461   6.202698   7.514313   3.841925   4.923802
    28  H    5.193462   5.154512   6.202698   3.332122   4.313966
                   21         22         23         24         25
    21  C    0.000000
    22  H    1.083467   0.000000
    23  C    2.856955   3.927606   0.000000
    24  H    3.835163   4.916914   1.090934   0.000000
    25  H    3.308749   4.289975   1.097715   1.749463   0.000000
    26  C    2.473777   3.465490   1.531802   2.162752   2.164534
    27  H    3.310186   4.204433   2.160341   2.610908   2.371664
    28  H    3.015357   3.954611   2.167178   2.376700   3.039683
                   26         27         28
    26  C    0.000000
    27  H    1.091617   0.000000
    28  H    1.096916   1.744561   0.000000
 Symmetry turned off by external request.
 Stoichiometry    C12H16
 Framework group  CI[X(C12H16)]
 Deg. of freedom    39
 Full point group                 CI      NOp   2
 Rotational constants (GHZ):           1.7158847           0.5828782           0.5313882
 Leave Link  202 at Mon Aug  3 17:21:03 2020, MaxMem=  6442450944 cpu:               0.3 elap:               0.0
 (Enter /scratch/scicomp/CentOS/7.3.1611/Haswell/software/Gaussian/g16/l301.exe)
 Standard basis: def2TZVP (5D, 7F)
 Ernie: Thresh=  0.10000D-02 Tol=  0.10000D-05 Strict=F.
   468 basis functions,   740 primitive gaussians,   528 cartesian basis functions
    44 alpha electrons       44 beta electrons
       nuclear repulsion energy       672.5181360396 Hartrees.
 IExCor= 4639 DFT=T Ex+Corr=wB97XD ExCW=0 ScaHFX=  1.000000
 ScaDFX=  1.000000  1.000000  1.000000  1.000000 ScalE2=  1.000000  1.000000
 IRadAn=      5 IRanWt=     -1 IRanGd=            0 ICorTp=0 IEmpDi=121
 HFx  wShort=  0.000000 wLong=  0.200000 cFull=  0.222036 cShort=  0.000000 cLong=  0.777964
 DFx  wShort=  0.000000 wLong=  0.200000 cFull=  0.000000 cShort=  0.000000 cLong=  1.000000
 NAtoms=   28 NActive=   28 NUniq=   28 SFac= 1.00D+00 NAtFMM=   60 NAOKFM=F Big=F
 Integral buffers will be    131072 words long.
 Raffenetti 2 integral format.
 Two-electron integral symmetry is turned off.
 R6Disp:  Grimme-D2 Dispersion energy=       -0.0216072657 Hartrees.
 Nuclear repulsion after empirical dispersion term =      672.4965287740 Hartrees.
 Using the following non-standard input for PCM:
 qrep pcmdoc geomview  nodis nocav g03defaults tsare=0.075
 Warning! Using old PCM defaults because the g03defaults keyword was found.
 These settings can be overridden by following keywords.
 nsfe=28
 NVESolv=36  SolvMW=84.1595   Rsolv=2.815
 eps=2.0165 RhoS=0.7781
 --- end of non-standard input.
 Reading user-defined spheres from input:
 ISph  on   Nord    Re0     Alpha      Xe            Ye            Ze
 --- end of user-defined spheres data.
 ------------------------------------------------------------------------------
 Polarizable Continuum Model (PCM)
 =================================
 Model                : PCM.
 Atomic radii         : UA0 (Simple United Atom Topological Model).
 Polarization charges : Total charges.
 Charge compensation  : None.
 Solution method      : On-the-fly selection.
 Cavity type          : SES (Solvent Excluding Surface) (Alpha=1.000).
 Cavity algorithm     : GePol (RMin=0.200 OFac=0.890).
                        User-defined sphere list used, NSphG=   28.
                        Tesserae with average area of 0.075 Ang**2.
                        Smoothing algorithm: None.
                        Polarization charges: point-like.
                        Self-potential: constant (ISelfS= 1).
                        Self-field    : global E.n sum rule (ISelfD= 3).
 Solvent              : CycloHexane, Eps=   2.016500 Eps(inf)=   2.035188
                        RSolv=   2.815000 Ang.
 ------------------------------------------------------------------------------
 GePol: Number of generator spheres                  =      28
 GePol: Total number of spheres                      =     272
 GePol: Number of exposed spheres                    =     177 ( 65.07%)
 GePol: Number of tesserae                           =    4632
 GePol: Average area of tesserae                     =       0.05 Ang**2
 GePol: Minimum area of tessera                      =   0.10D-02 Ang**2
 GePol: Maximum area of tessera                      =    0.11641 Ang**2
 GePol: Number of small tesserae                     =       0
 GePol: Fraction of small tesserae (<1% of avg)      =       0.00%
 GePol: Total count of vertices                      =   16639
 GePol: Maximum number of vertices in a tessera      =       7
 GePol: Cavity surface area                          =    209.228 Ang**2
 GePol: Cavity volume                                =    226.477 Ang**3
 Leave Link  301 at Mon Aug  3 17:21:04 2020, MaxMem=  6442450944 cpu:               8.8 elap:               0.4
 (Enter /scratch/scicomp/CentOS/7.3.1611/Haswell/software/Gaussian/g16/l302.exe)
 NPDir=0 NMtPBC=     1 NCelOv=     1 NCel=       1 NClECP=     1 NCelD=      1
         NCelK=      1 NCelE2=     1 NClLst=     1 CellRange=     0.0.
 One-electron integrals computed using PRISM.
   1 Symmetry operations used in ECPInt.
 ECPInt:  NShTT=   19306 NPrTT=   56928 LenC2=   18453 LenP2D=   41793.
 LDataN:  DoStor=T MaxTD1= 6 Len=  172
 NBasis=   468 RedAO= T EigKep=  2.54D-05  NBF=   468
 NBsUse=   468 1.00D-06 EigRej= -1.00D+00 NBFU=   468
 Precomputing XC quadrature grid using
 IXCGrd= 4 IRadAn=           5 IRanWt=          -1 IRanGd=           0 AccXCQ= 0.00D+00.
 Generated NRdTot=       0 NPtTot=           0 NUsed=           0 NTot=          32
 NSgBfM=   526   525   525   526   526 MxSgAt=    28 MxSgA2=    28.
 Leave Link  302 at Mon Aug  3 17:21:05 2020, MaxMem=  6442450944 cpu:              11.7 elap:               0.5
 (Enter /scratch/scicomp/CentOS/7.3.1611/Haswell/software/Gaussian/g16/l401.exe)
 ExpMin= 9.52D-02 ExpMax= 1.36D+04 ExpMxC= 4.63D+02 IAcc=3 IRadAn=         5 AccDes= 0.00D+00
 Harris functional with IExCor= 4639 and IRadAn=       5 diagonalized for initial guess.
 HarFok:  IExCor= 4639 AccDes= 0.00D+00 IRadAn=         5 IDoV= 1 UseB2=F ITyADJ=14
 ICtDFT=  3500011 ScaDFX=  1.000000  1.000000  1.000000  1.000000
 FoFCou: FMM=F IPFlag=           0 FMFlag=      100000 FMFlg1=           0
         NFxFlg=           0 DoJE=T BraDBF=F KetDBF=T FulRan=T
         wScrn=  0.000000 ICntrl=       500 IOpCl=  0 I1Cent=   200000004 NGrid=           0
         NMat0=    1 NMatS0=      1 NMatT0=    0 NMatD0=    1 NMtDS0=    0 NMtDT0=    0
 Symmetry not used in FoFCou.
 Harris En= -444.637246536651    
 JPrj=0 DoOrth=F DoCkMO=T.
 Mixing orbitals, IMix= 1 IMixAn=  0 NRI=1 NE=   44 Coef=  7.07106781D-01  7.07106781D-01
 Mixing orbitals, IMix= 1 IMixAn=  0 NRI=1 NE=   44 Coef= -7.07106781D-01  7.07106781D-01
 Initial guess <Sx>= 0.0000 <Sy>= 0.0000 <Sz>= 0.0000 <S**2>= 1.0000 S= 0.6180
 Leave Link  401 at Mon Aug  3 17:21:07 2020, MaxMem=  6442450944 cpu:              46.7 elap:               2.0
 (Enter /scratch/scicomp/CentOS/7.3.1611/Haswell/software/Gaussian/g16/l9999.exe)

 This type of calculation cannot be archived.


 TIMES HAVE CHANGED. IN THE BIBLE WHEN AN ASS
 SPOKE IT WAS CONSIDERED A MIRACLE.
 Job cpu time:       0 days  0 hours  1 minutes 15.8 seconds.
 Elapsed time:       0 days  0 hours  0 minutes  3.4 seconds.
 File lengths (MBytes):  RWF=    393 Int=      0 D2E=      0 Chk=      1 Scr=      1
 Normal termination of Gaussian 16 at Mon Aug  3 17:21:07 2020.
 Initial command:
 /scratch/scicomp/CentOS/7.3.1611/Haswell/software/Gaussian/g16/l1.exe "/scratch/bochen/cyclohexadiene-dimerization/wb97xd-def2tzvp/xp-pcm/meso/Gau-78883.inp" -scrdir="/scratch/bochen/cyclohexadiene-dimerization/wb97xd-def2tzvp/xp-pcm/meso/"
 Entering Link 1 = /scratch/scicomp/CentOS/7.3.1611/Haswell/software/Gaussian/g16/l1.exe PID=     79373.
  
 Copyright (c) 1988-2017, Gaussian, Inc.  All Rights Reserved.
  
 This is part of the Gaussian(R) 16 program.  It is based on
 the Gaussian(R) 09 system (copyright 2009, Gaussian, Inc.),
 the Gaussian(R) 03 system (copyright 2003, Gaussian, Inc.),
 the Gaussian(R) 98 system (copyright 1998, Gaussian, Inc.),
 the Gaussian(R) 94 system (copyright 1995, Gaussian, Inc.),
 the Gaussian 92(TM) system (copyright 1992, Gaussian, Inc.),
 the Gaussian 90(TM) system (copyright 1990, Gaussian, Inc.),
 the Gaussian 88(TM) system (copyright 1988, Gaussian, Inc.),
 the Gaussian 86(TM) system (copyright 1986, Carnegie Mellon
 University), and the Gaussian 82(TM) system (copyright 1983,
 Carnegie Mellon University). Gaussian is a federally registered
 trademark of Gaussian, Inc.
  
 This software contains proprietary and confidential information,
 including trade secrets, belonging to Gaussian, Inc.
  
 This software is provided under written license and may be
 used, copied, transmitted, or stored only in accord with that
 written license.
  
 The following legend is applicable only to US Government
 contracts under FAR:
  
                    RESTRICTED RIGHTS LEGEND
  
 Use, reproduction and disclosure by the US Government is
 subject to restrictions as set forth in subparagraphs (a)
 and (c) of the Commercial Computer Software - Restricted
 Rights clause in FAR 52.227-19.
  
 Gaussian, Inc.
 340 Quinnipiac St., Bldg. 40, Wallingford CT 06492
  
  
 ---------------------------------------------------------------
 Warning -- This program may not be used in any manner that
 competes with the business of Gaussian, Inc. or will provide
 assistance to any competitor of Gaussian, Inc.  The licensee
 of this program is prohibited from giving any competitor of
 Gaussian, Inc. access to this program.  By using this program,
 the user acknowledges that Gaussian, Inc. is engaged in the
 business of creating and licensing software in the field of
 computational chemistry and represents and warrants to the
 licensee that it is not a competitor of Gaussian, Inc. and that
 it will not use this program in any manner prohibited above.
 ---------------------------------------------------------------
  

 Cite this work as:
 Gaussian 16, Revision B.01,
 M. J. Frisch, G. W. Trucks, H. B. Schlegel, G. E. Scuseria, 
 M. A. Robb, J. R. Cheeseman, G. Scalmani, V. Barone, 
 G. A. Petersson, H. Nakatsuji, X. Li, M. Caricato, A. V. Marenich, 
 J. Bloino, B. G. Janesko, R. Gomperts, B. Mennucci, H. P. Hratchian, 
 J. V. Ortiz, A. F. Izmaylov, J. L. Sonnenberg, D. Williams-Young, 
 F. Ding, F. Lipparini, F. Egidi, J. Goings, B. Peng, A. Petrone, 
 T. Henderson, D. Ranasinghe, V. G. Zakrzewski, J. Gao, N. Rega, 
 G. Zheng, W. Liang, M. Hada, M. Ehara, K. Toyota, R. Fukuda, 
 J. Hasegawa, M. Ishida, T. Nakajima, Y. Honda, O. Kitao, H. Nakai, 
 T. Vreven, K. Throssell, J. A. Montgomery, Jr., J. E. Peralta, 
 F. Ogliaro, M. J. Bearpark, J. J. Heyd, E. N. Brothers, K. N. Kudin, 
 V. N. Staroverov, T. A. Keith, R. Kobayashi, J. Normand, 
 K. Raghavachari, A. P. Rendell, J. C. Burant, S. S. Iyengar, 
 J. Tomasi, M. Cossi, J. M. Millam, M. Klene, C. Adamo, R. Cammi, 
 J. W. Ochterski, R. L. Martin, K. Morokuma, O. Farkas, 
 J. B. Foresman, and D. J. Fox, Gaussian, Inc., Wallingford CT, 2016.
 
 ******************************************
 Gaussian 16:  ES64L-G16RevB.01 20-Dec-2017
                 3-Aug-2020 
 ******************************************
 %chk=meso-TS_64_2_xp-105.chk
 %nproc=24
 Will use up to   24 processors via shared memory.
 %mem=48GB
 ----------------------------------------------------------------------
 #p uwb97xd guess=mix def2tzvp # scrf=(iefpcm,solvent=Cyclohexane,read)
  nosym guess=only pop=none
 ----------------------------------------------------------------------
 1/38=1,40=2,172=1/1;
 2/12=2,15=1,17=6,18=5,40=1/2;
 3/5=44,7=101,11=2,25=1,30=1,70=2203,72=17,74=-58,89=1,116=2/1,2;
 4/13=-1/1;
 99/5=2/99;
 Leave Link    1 at Mon Aug  3 17:21:07 2020, MaxMem=  6442450944 cpu:               1.5 elap:               0.1
 (Enter /scratch/scicomp/CentOS/7.3.1611/Haswell/software/Gaussian/g16/l101.exe)
 -----------------------
 endo-2 xp-pcm for eta=3
 -----------------------
 Symbolic Z-matrix:
 Charge =  0 Multiplicity = 1
 6                    -3.12468  -0.44069   0.27304 
 6                    -0.77579  -0.26199  -1.30218 
 1                    -4.05407  -0.52582   0.82419 
 1                     0.1616   -0.18453  -1.83944 
 6                     1.19854   1.43292   0.83418 
 6                     0.77579   0.26199   1.30218 
 1                     0.6082    2.33018   0.97771 
 1                    -0.1616    0.18453   1.83944 
 6                     1.60523  -0.98179   1.16163 
 1                     2.17694  -1.10827   2.09015 
 1                     0.9563   -1.85528   1.08385 
 6                     2.47187   1.53314   0.11941 
 1                     2.87141   2.51693  -0.09608 
 6                     3.12468   0.44069  -0.27304 
 1                     4.05407   0.52582  -0.82419 
 6                     2.56349  -0.93427  -0.03247 
 1                     2.04332  -1.25613  -0.943 
 1                     3.37242  -1.65219   0.11536 
 6                    -1.19854  -1.43292  -0.83418 
 1                    -0.6082   -2.33018  -0.97771 
 6                    -2.47187  -1.53314  -0.11941 
[...]
 1                    -4.05407  -0.52582   0.82419 
 1                     0.1616   -0.18453  -1.83944 
 6                     1.19854   1.43292   0.83418 
 6                     0.77579   0.26199   1.30218 
 1                     0.6082    2.33018   0.97771 
 1                    -0.1616    0.18453   1.83944 
 6                     1.60523  -0.98179   1.16163 
 1                     2.17694  -1.10827   2.09015 
 1                     0.9563   -1.85528   1.08385 
 6                     2.47187   1.53314   0.11941 
 1                     2.87141   2.51693  -0.09608 
 6                     3.12468   0.44069  -0.27304 
 1                     4.05407   0.52582  -0.82419 
 6                     2.56349  -0.93427  -0.03247 
 1                     2.04332  -1.25613  -0.943 
 1                     3.37242  -1.65219   0.11536 
 6                    -1.19854  -1.43292  -0.83418 
 1                    -0.6082   -2.33018  -0.97771 
 6                    -2.47187  -1.53314  -0.11941 
 1                    -2.87141  -2.51693   0.09608 
 6                    -1.60523   0.98179  -1.16163 
 1                    -0.9563    1.85528  -1.08385 
 1                    -2.17694   1.10827  -2.09015 
 6                    -2.56349   0.93427   0.03247 
 1                    -3.37242   1.65219  -0.11536 
 1                    -2.04332   1.25613   0.943 
 
 ITRead=  0  0  0  0  0  0  0  0  0  0  0  0  0  0  0  0  0  0  0  0
 ITRead=  0  0  0  0  0  0  0  0
 MicOpt= -1 -1 -1 -1 -1 -1 -1 -1 -1 -1 -1 -1 -1 -1 -1 -1 -1 -1 -1 -1
 MicOpt= -1 -1 -1 -1 -1 -1 -1 -1
 NAtoms=     28 NQM=       28 NQMF=       0 NMMI=      0 NMMIF=      0
                NMic=       0 NMicF=      0.
                    Isotopes and Nuclear Properties:
 (Nuclear quadrupole moments (NQMom) in fm**2, nuclear magnetic moments (NMagM)
  in nuclear magnetons)

  Atom         1           2           3           4           5           6           7           8           9          10
 IAtWgt=          12          12           1           1          12          12           1           1          12           1
 AtmWgt=  12.0000000  12.0000000   1.0078250   1.0078250  12.0000000  12.0000000   1.0078250   1.0078250  12.0000000   1.0078250
 NucSpn=           0           0           1           1           0           0           1           1           0           1
 AtZEff=  -0.0000000  -0.0000000  -0.0000000  -0.0000000  -0.0000000  -0.0000000  -0.0000000  -0.0000000  -0.0000000  -0.0000000
 NQMom=    0.0000000   0.0000000   0.0000000   0.0000000   0.0000000   0.0000000   0.0000000   0.0000000   0.0000000   0.0000000
 NMagM=    0.0000000   0.0000000   2.7928460   2.7928460   0.0000000   0.0000000   2.7928460   2.7928460   0.0000000   2.7928460
 AtZNuc=   6.0000000   6.0000000   1.0000000   1.0000000   6.0000000   6.0000000   1.0000000   1.0000000   6.0000000   1.0000000

  Atom        11          12          13          14          15          16          17          18          19          20
 IAtWgt=           1          12           1          12           1          12           1           1          12           1
 AtmWgt=   1.0078250  12.0000000   1.0078250  12.0000000   1.0078250  12.0000000   1.0078250   1.0078250  12.0000000   1.0078250
 NucSpn=           1           0           1           0           1           0           1           1           0           1
 AtZEff=  -0.0000000  -0.0000000  -0.0000000  -0.0000000  -0.0000000  -0.0000000  -0.0000000  -0.0000000  -0.0000000  -0.0000000
 NQMom=    0.0000000   0.0000000   0.0000000   0.0000000   0.0000000   0.0000000   0.0000000   0.0000000   0.0000000   0.0000000
 NMagM=    2.7928460   0.0000000   2.7928460   0.0000000   2.7928460   0.0000000   2.7928460   2.7928460   0.0000000   2.7928460
 AtZNuc=   1.0000000   6.0000000   1.0000000   6.0000000   1.0000000   6.0000000   1.0000000   1.0000000   6.0000000   1.0000000

  Atom        21          22          23          24          25          26          27          28
 IAtWgt=          12           1          12           1           1          12           1           1
 AtmWgt=  12.0000000   1.0078250  12.0000000   1.0078250   1.0078250  12.0000000   1.0078250   1.0078250
 NucSpn=           0           1           0           1           1           0           1           1
 AtZEff=  -0.0000000  -0.0000000  -0.0000000  -0.0000000  -0.0000000  -0.0000000  -0.0000000  -0.0000000
 NQMom=    0.0000000   0.0000000   0.0000000   0.0000000   0.0000000   0.0000000   0.0000000   0.0000000
 NMagM=    0.0000000   2.7928460   0.0000000   2.7928460   2.7928460   0.0000000   2.7928460   2.7928460
 AtZNuc=   6.0000000   1.0000000   6.0000000   1.0000000   1.0000000   6.0000000   1.0000000   1.0000000
 Leave Link  101 at Mon Aug  3 17:21:21 2020, MaxMem=  6442450944 cpu:               2.4 elap:               0.1
 (Enter /scratch/scicomp/CentOS/7.3.1611/Haswell/software/Gaussian/g16/l202.exe)
                          Input orientation:                          
 ---------------------------------------------------------------------
 Center     Atomic      Atomic             Coordinates (Angstroms)
 Number     Number       Type             X           Y           Z
 ---------------------------------------------------------------------
      1          6           0       -3.124680   -0.440685    0.273036
      2          6           0       -0.775792   -0.261985   -1.302176
      3          1           0       -4.054066   -0.525819    0.824190
      4          1           0        0.161604   -0.184531   -1.839436
      5          6           0        1.198536    1.432924    0.834184
      6          6           0        0.775792    0.261985    1.302176
      7          1           0        0.608196    2.330179    0.977711
      8          1           0       -0.161604    0.184531    1.839436
      9          6           0        1.605227   -0.981794    1.161635
     10          1           0        2.176937   -1.108268    2.090145
     11          1           0        0.956297   -1.855279    1.083849
     12          6           0        2.471867    1.533139    0.119408
     13          1           0        2.871405    2.516926   -0.096077
     14          6           0        3.124680    0.440685   -0.273036
     15          1           0        4.054066    0.525819   -0.824190
     16          6           0        2.563488   -0.934271   -0.032474
     17          1           0        2.043317   -1.256129   -0.942998
     18          1           0        3.372415   -1.652191    0.115362
     19          6           0       -1.198536   -1.432924   -0.834184
     20          1           0       -0.608196   -2.330179   -0.977711
     21          6           0       -2.471867   -1.533139   -0.119408
     22          1           0       -2.871405   -2.516926    0.096077
     23          6           0       -1.605227    0.981794   -1.161635
     24          1           0       -0.956297    1.855279   -1.083849
     25          1           0       -2.176937    1.108268   -2.090145
     26          6           0       -2.563488    0.934271    0.032474
     27          1           0       -3.372415    1.652191   -0.115362
     28          1           0       -2.043317    1.256129    0.942998
 ---------------------------------------------------------------------
                    Distance matrix (angstroms):
                    1          2          3          4          5
     1  C    0.000000
     2  C    2.833814   0.000000
     3  H    1.083871   3.916391   0.000000
     4  H    3.915075   1.083217   4.998325   0.000000
     5  C    4.745049   3.366708   5.605943   3.292360   0.000000
     6  C    4.094699   3.076460   4.916974   3.232078   1.329973
     7  H    4.701980   3.719223   5.469642   3.802569   1.083590
     8  H    3.409446   3.232078   4.084921   3.711438   2.102141
     9  C    4.842977   3.501106   5.687652   3.424340   2.470523
    10  H    5.643996   4.576313   6.384927   4.511814   2.998727
    11  H    4.394641   3.351393   5.190243   3.459556   3.306553
    12  C    5.936406   3.973746   6.879232   3.482065   1.463666
    13  H    6.696024   4.741209   7.620193   4.204782   2.199758
    14  C    6.334786   4.094699   7.326147   3.409446   2.433209
    15  H    7.326147   4.916974   8.340558   4.084921   3.424485
    16  C    5.717711   3.635231   6.685262   3.097784   2.866671
    17  H    5.371395   3.010765   6.390179   2.343665   3.332122
    18  H    6.610964   4.598881   7.544784   4.035414   3.841925
    19  C    2.433209   1.329973   3.424485   2.102141   4.091759
    20  H    3.386332   2.100189   4.286792   2.437000   4.550625
    21  C    1.331778   2.427229   2.099625   3.422340   4.814429
    22  H    2.099104   3.381045   2.427621   4.287822   5.719313
    23  C    2.527937   1.501566   3.494740   2.222930   3.471008
    24  H    3.437219   2.136131   4.348151   2.445698   2.915568
    25  H    2.980285   2.112273   3.832389   2.683833   4.477825
    26  C    1.504430   2.531438   2.231703   3.490257   3.878688
    27  H    2.142978   3.437302   2.468022   4.339962   4.673683
    28  H    2.120701   2.992005   2.689343   3.831334   3.248493
                    6          7          8          9         10
     6  C    0.000000
     7  H    2.100189   0.000000
     8  H    1.083217   2.437000   0.000000
     9  C    1.501566   3.463678   2.222930   0.000000
    10  H    2.112273   3.939718   2.683833   1.097715   0.000000
    11  H    2.136131   4.201250   2.445698   1.090934   1.749463
    12  C    2.427229   2.201187   3.422340   2.856955   3.308749
    13  H    3.381045   2.511973   4.287822   3.927606   4.289975
    14  C    2.833814   3.386332   3.915075   2.527937   2.980285
    15  H    3.916391   4.286792   4.998325   3.494740   3.832389
    16  C    2.531438   3.937039   3.490257   1.531802   2.164534
    17  H    2.992005   4.313966   3.831334   2.167178   3.039683
    18  H    3.437302   4.923802   4.339962   2.160341   2.371664
    19  C    3.366708   4.550625   3.292360   3.471008   4.477825
    20  H    3.719223   5.198290   3.802569   3.360682   4.319927
    21  C    3.973746   5.061194   3.482065   4.309031   5.164690
    22  H    4.741209   6.031528   4.204782   4.851008   5.607707
    23  C    3.501106   3.360682   3.424340   4.422700   5.408068
    24  H    3.351393   2.631197   3.459556   4.433124   5.354811
    25  H    4.576313   4.319927   4.511814   5.408068   6.429936
    26  C    3.635231   3.591881   3.097784   4.724880   5.556762
    27  H    4.598881   4.183269   4.035414   5.774558   6.578731
    28  H    3.010765   2.860998   2.343665   4.285788   4.971606
                   11         12         13         14         15
    11  H    0.000000
    12  C    3.835163   0.000000
    13  H    4.916914   1.083467   0.000000
    14  C    3.437219   1.331778   2.099104   0.000000
    15  H    4.348151   2.099625   2.427621   1.083871   0.000000
    16  C    2.162752   2.473777   3.465490   1.504430   2.231703
    17  H    2.376700   3.015357   3.954611   2.120701   2.689343
    18  H    2.610908   3.310186   4.204433   2.142978   2.468022
    19  C    2.915568   4.814429   5.719313   4.745049   5.605943
    20  H    2.631197   5.061194   6.031528   4.701980   5.469642
    21  C    3.647453   5.822336   6.704784   5.936406   6.879232
    22  H    4.008088   6.704784   7.639140   6.696024   7.620193
    23  C    4.433124   4.309031   4.851008   4.842977   5.687652
    24  H    4.703740   3.647453   4.008088   4.394641   5.190243
    25  H    5.354811   5.164690   5.607707   5.643996   6.384927
    26  C    4.612577   5.071588   5.662101   5.717711   6.685262
    27  H    5.698965   5.850207   6.303446   6.610964   7.544784
    28  H    4.324163   4.598035   5.179168   5.371395   6.390179
                   16         17         18         19         20
    16  C    0.000000
    17  H    1.096916   0.000000
    18  H    1.091617   1.744561   0.000000
    19  C    3.878688   3.248493   4.673683   0.000000
    20  H    3.591881   2.860998   4.183269   1.083590   0.000000
    21  C    5.071588   4.598035   5.850207   1.463666   2.201187
    22  H    5.662101   5.179168   6.303446   2.199758   2.511973
    23  C    4.724880   4.285788   5.774558   2.470523   3.463678
    24  H    4.612577   4.324163   5.698965   3.306553   4.201250
    25  H    5.556762   4.971606   6.578731   2.998727   3.939718
    26  C    5.457248   5.193462   6.475461   2.866671   3.937039
    27  H    6.475461   6.202698   7.514313   3.841925   4.923802
    28  H    5.193462   5.154512   6.202698   3.332122   4.313966
                   21         22         23         24         25
    21  C    0.000000
    22  H    1.083467   0.000000
    23  C    2.856955   3.927606   0.000000
    24  H    3.835163   4.916914   1.090934   0.000000
    25  H    3.308749   4.289975   1.097715   1.749463   0.000000
    26  C    2.473777   3.465490   1.531802   2.162752   2.164534
    27  H    3.310186   4.204433   2.160341   2.610908   2.371664
    28  H    3.015357   3.954611   2.167178   2.376700   3.039683
                   26         27         28
    26  C    0.000000
    27  H    1.091617   0.000000
    28  H    1.096916   1.744561   0.000000
 Symmetry turned off by external request.
 Stoichiometry    C12H16
 Framework group  CI[X(C12H16)]
 Deg. of freedom    39
 Full point group                 CI      NOp   2
 Rotational constants (GHZ):           1.7158847           0.5828782           0.5313882
 Leave Link  202 at Mon Aug  3 17:21:21 2020, MaxMem=  6442450944 cpu:               0.3 elap:               0.0
 (Enter /scratch/scicomp/CentOS/7.3.1611/Haswell/software/Gaussian/g16/l301.exe)
 Standard basis: def2TZVP (5D, 7F)
 Ernie: Thresh=  0.10000D-02 Tol=  0.10000D-05 Strict=F.
   468 basis functions,   740 primitive gaussians,   528 cartesian basis functions
    44 alpha electrons       44 beta electrons
       nuclear repulsion energy       672.5181360396 Hartrees.
 IExCor= 4639 DFT=T Ex+Corr=wB97XD ExCW=0 ScaHFX=  1.000000
 ScaDFX=  1.000000  1.000000  1.000000  1.000000 ScalE2=  1.000000  1.000000
 IRadAn=      5 IRanWt=     -1 IRanGd=            0 ICorTp=0 IEmpDi=121
 HFx  wShort=  0.000000 wLong=  0.200000 cFull=  0.222036 cShort=  0.000000 cLong=  0.777964
 DFx  wShort=  0.000000 wLong=  0.200000 cFull=  0.000000 cShort=  0.000000 cLong=  1.000000
 NAtoms=   28 NActive=   28 NUniq=   28 SFac= 1.00D+00 NAtFMM=   60 NAOKFM=F Big=F
 Integral buffers will be    131072 words long.
 Raffenetti 2 integral format.
 Two-electron integral symmetry is turned off.
 R6Disp:  Grimme-D2 Dispersion energy=       -0.0216072657 Hartrees.
 Nuclear repulsion after empirical dispersion term =      672.4965287740 Hartrees.
 Using the following non-standard input for PCM:
 qrep pcmdoc geomview  nodis nocav g03defaults tsare=0.075
 Warning! Using old PCM defaults because the g03defaults keyword was found.
 These settings can be overridden by following keywords.
 nsfe=28
 NVESolv=36  SolvMW=84.1595   Rsolv=2.815
 eps=2.0165 RhoS=0.7781
 --- end of non-standard input.
 Reading user-defined spheres from input:
 ISph  on   Nord    Re0     Alpha      Xe            Ye            Ze
 --- end of user-defined spheres data.
 ------------------------------------------------------------------------------
 Polarizable Continuum Model (PCM)
 =================================
 Model                : PCM.
 Atomic radii         : UA0 (Simple United Atom Topological Model).
 Polarization charges : Total charges.
 Charge compensation  : None.
 Solution method      : On-the-fly selection.
 Cavity type          : SES (Solvent Excluding Surface) (Alpha=1.000).
 Cavity algorithm     : GePol (RMin=0.200 OFac=0.890).
                        User-defined sphere list used, NSphG=   28.
                        Tesserae with average area of 0.075 Ang**2.
                        Smoothing algorithm: None.
                        Polarization charges: point-like.
                        Self-potential: constant (ISelfS= 1).
                        Self-field    : global E.n sum rule (ISelfD= 3).
 Solvent              : CycloHexane, Eps=   2.016500 Eps(inf)=   2.035188
                        RSolv=   2.815000 Ang.
 ------------------------------------------------------------------------------
 GePol: Number of generator spheres                  =      28
 GePol: Total number of spheres                      =     484
 GePol: Number of exposed spheres                    =     297 ( 61.36%)
 GePol: Number of tesserae                           =    4732
 GePol: Average area of tesserae                     =       0.04 Ang**2
 GePol: Minimum area of tessera                      =   0.10D-02 Ang**2
 GePol: Maximum area of tessera                      =    0.12513 Ang**2
 GePol: Number of small tesserae                     =       0
 GePol: Fraction of small tesserae (<1% of avg)      =       0.00%
 GePol: Total count of vertices                      =   17783
 GePol: Maximum number of vertices in a tessera      =       8
 GePol: Cavity surface area                          =    187.940 Ang**2
 GePol: Cavity volume                                =    187.572 Ang**3
 Leave Link  301 at Mon Aug  3 17:21:21 2020, MaxMem=  6442450944 cpu:              12.7 elap:               0.6
 (Enter /scratch/scicomp/CentOS/7.3.1611/Haswell/software/Gaussian/g16/l302.exe)
 NPDir=0 NMtPBC=     1 NCelOv=     1 NCel=       1 NClECP=     1 NCelD=      1
         NCelK=      1 NCelE2=     1 NClLst=     1 CellRange=     0.0.
 One-electron integrals computed using PRISM.
   1 Symmetry operations used in ECPInt.
 ECPInt:  NShTT=   19306 NPrTT=   56928 LenC2=   18453 LenP2D=   41793.
 LDataN:  DoStor=T MaxTD1= 6 Len=  172
 NBasis=   468 RedAO= T EigKep=  2.54D-05  NBF=   468
 NBsUse=   468 1.00D-06 EigRej= -1.00D+00 NBFU=   468
 Precomputing XC quadrature grid using
 IXCGrd= 4 IRadAn=           5 IRanWt=          -1 IRanGd=           0 AccXCQ= 0.00D+00.
 Generated NRdTot=       0 NPtTot=           0 NUsed=           0 NTot=          32
 NSgBfM=   526   525   525   526   526 MxSgAt=    28 MxSgA2=    28.
 Leave Link  302 at Mon Aug  3 17:21:22 2020, MaxMem=  6442450944 cpu:              11.8 elap:               0.5
 (Enter /scratch/scicomp/CentOS/7.3.1611/Haswell/software/Gaussian/g16/l401.exe)
 ExpMin= 9.52D-02 ExpMax= 1.36D+04 ExpMxC= 4.63D+02 IAcc=3 IRadAn=         5 AccDes= 0.00D+00
 Harris functional with IExCor= 4639 and IRadAn=       5 diagonalized for initial guess.
 HarFok:  IExCor= 4639 AccDes= 0.00D+00 IRadAn=         5 IDoV= 1 UseB2=F ITyADJ=14
 ICtDFT=  3500011 ScaDFX=  1.000000  1.000000  1.000000  1.000000
 FoFCou: FMM=F IPFlag=           0 FMFlag=      100000 FMFlg1=           0
         NFxFlg=           0 DoJE=T BraDBF=F KetDBF=T FulRan=T
         wScrn=  0.000000 ICntrl=       500 IOpCl=  0 I1Cent=   200000004 NGrid=           0
         NMat0=    1 NMatS0=      1 NMatT0=    0 NMatD0=    1 NMtDS0=    0 NMtDT0=    0
 Symmetry not used in FoFCou.
 Harris En= -444.637246536651    
 JPrj=0 DoOrth=F DoCkMO=T.
 Mixing orbitals, IMix= 1 IMixAn=  0 NRI=1 NE=   44 Coef=  7.07106781D-01  7.07106781D-01
 Mixing orbitals, IMix= 1 IMixAn=  0 NRI=1 NE=   44 Coef= -7.07106781D-01  7.07106781D-01
 Initial guess <Sx>= 0.0000 <Sy>= 0.0000 <Sz>= 0.0000 <S**2>= 1.0000 S= 0.6180
 Leave Link  401 at Mon Aug  3 17:21:24 2020, MaxMem=  6442450944 cpu:              47.5 elap:               2.0
 (Enter /scratch/scicomp/CentOS/7.3.1611/Haswell/software/Gaussian/g16/l9999.exe)

 This type of calculation cannot be archived.


 I DO NOT DEFINE TIME, SPACE, PLACE, AND MOTION, AS BEING WELL KNOWN TO ALL.
                                            -- NEWTON (1642-1726), PRINCIPIA
 Job cpu time:       0 days  0 hours  1 minutes 46.6 seconds.
 Elapsed time:       0 days  0 hours  0 minutes  4.8 seconds.
 File lengths (MBytes):  RWF=    409 Int=      0 D2E=      0 Chk=      1 Scr=      1
 Normal termination of Gaussian 16 at Mon Aug  3 17:21:24 2020.
