 Entering Gaussian System, Link 0=g16
 Input=meso-TS_10_1_pcm.com
 Output=meso-TS_10_1_pcm.log
 Initial command:
 /scratch/scicomp/CentOS/7.3.1611/Haswell/software/Gaussian/g16/l1.exe "/scratch/bochen/cyclohexadiene-dimerization/wb97xd-def2tzvp/xp-pcm/meso/Gau-56102.inp" -scrdir="/scratch/bochen/cyclohexadiene-dimerization/wb97xd-def2tzvp/xp-pcm/meso/"
 Entering Link 1 = /scratch/scicomp/CentOS/7.3.1611/Haswell/software/Gaussian/g16/l1.exe PID=     56109.
  
 Copyright (c) 1988-2017, Gaussian, Inc.  All Rights Reserved.
  
 This is part of the Gaussian(R) 16 program.  It is based on
 the Gaussian(R) 09 system (copyright 2009, Gaussian, Inc.),
 the Gaussian(R) 03 system (copyright 2003, Gaussian, Inc.),
 the Gaussian(R) 98 system (copyright 1998, Gaussian, Inc.),
 the Gaussian(R) 94 system (copyright 1995, Gaussian, Inc.),
 the Gaussian 92(TM) system (copyright 1992, Gaussian, Inc.),
 the Gaussian 90(TM) system (copyright 1990, Gaussian, Inc.),
 the Gaussian 88(TM) system (copyright 1988, Gaussian, Inc.),
 the Gaussian 86(TM) system (copyright 1986, Carnegie Mellon
 University), and the Gaussian 82(TM) system (copyright 1983,
 Carnegie Mellon University). Gaussian is a federally registered
 trademark of Gaussian, Inc.
  
 This software contains proprietary and confidential information,
 including trade secrets, belonging to Gaussian, Inc.
  
 This software is provided under written license and may be
 used, copied, transmitted, or stored only in accord with that
 written license.
  
 The following legend is applicable only to US Government
 contracts under FAR:
  
                    RESTRICTED RIGHTS LEGEND
  
 Use, reproduction and disclosure by the US Government is
 subject to restrictions as set forth in subparagraphs (a)
 and (c) of the Commercial Computer Software - Restricted
 Rights clause in FAR 52.227-19.
  
 Gaussian, Inc.
 340 Quinnipiac St., Bldg. 40, Wallingford CT 06492
  
  
 ---------------------------------------------------------------
 Warning -- This program may not be used in any manner that
 competes with the business of Gaussian, Inc. or will provide
 assistance to any competitor of Gaussian, Inc.  The licensee
 of this program is prohibited from giving any competitor of
 Gaussian, Inc. access to this program.  By using this program,
 the user acknowledges that Gaussian, Inc. is engaged in the
 business of creating and licensing software in the field of
 computational chemistry and represents and warrants to the
 licensee that it is not a competitor of Gaussian, Inc. and that
 it will not use this program in any manner prohibited above.
 ---------------------------------------------------------------
  

 Cite this work as:
 Gaussian 16, Revision B.01,
 M. J. Frisch, G. W. Trucks, H. B. Schlegel, G. E. Scuseria, 
 M. A. Robb, J. R. Cheeseman, G. Scalmani, V. Barone, 
 G. A. Petersson, H. Nakatsuji, X. Li, M. Caricato, A. V. Marenich, 
 J. Bloino, B. G. Janesko, R. Gomperts, B. Mennucci, H. P. Hratchian, 
 J. V. Ortiz, A. F. Izmaylov, J. L. Sonnenberg, D. Williams-Young, 
 F. Ding, F. Lipparini, F. Egidi, J. Goings, B. Peng, A. Petrone, 
 T. Henderson, D. Ranasinghe, V. G. Zakrzewski, J. Gao, N. Rega, 
 G. Zheng, W. Liang, M. Hada, M. Ehara, K. Toyota, R. Fukuda, 
 J. Hasegawa, M. Ishida, T. Nakajima, Y. Honda, O. Kitao, H. Nakai, 
 T. Vreven, K. Throssell, J. A. Montgomery, Jr., J. E. Peralta, 
 F. Ogliaro, M. J. Bearpark, J. J. Heyd, E. N. Brothers, K. N. Kudin, 
 V. N. Staroverov, T. A. Keith, R. Kobayashi, J. Normand, 
 K. Raghavachari, A. P. Rendell, J. C. Burant, S. S. Iyengar, 
 J. Tomasi, M. Cossi, J. M. Millam, M. Klene, C. Adamo, R. Cammi, 
 J. W. Ochterski, R. L. Martin, K. Morokuma, O. Farkas, 
 J. B. Foresman, and D. J. Fox, Gaussian, Inc., Wallingford CT, 2016.
 
 ******************************************
 Gaussian 16:  ES64L-G16RevB.01 20-Dec-2017
                 3-Aug-2020 
 ******************************************
 %nproc=24
 Will use up to   24 processors via shared memory.
 %mem=48GB
 ----------------------------------------------------------------------
 #p uwb97xd guess=mix def2tzvp # scrf=(iefpcm,solvent=Cyclohexane,read)
  nosym 6d 10f
 ----------------------------------------------------------------------
 1/38=1,40=2,172=1/1;
 2/12=2,15=1,17=6,18=5,40=1/2;
 3/5=44,7=101,8=22,11=2,25=1,30=1,70=2203,72=17,74=-58,116=2/1,2,3;
 4/13=-1/1;
 5/5=2,38=5,53=17/2;
 6/7=2,8=2,9=2,10=2,28=1/1;
 99/5=1,9=1/99;
 Leave Link    1 at Mon Aug  3 16:40:11 2020, MaxMem=  6442450944 cpu:               1.6 elap:               0.1
 (Enter /scratch/scicomp/CentOS/7.3.1611/Haswell/software/Gaussian/g16/l101.exe)
 -----------------------
 endo-2 xp-pcm for eta=3
 -----------------------
 Symbolic Z-matrix:
 Charge =  0 Multiplicity = 1
 6                    -3.11973  -0.42693   0.24821 
 6                    -0.45263  -0.13438  -0.76652 
 1                    -4.08603  -0.54735   0.72263 
 1                     0.3327   -0.11178  -1.52177 
 6                     1.11517   1.43066   0.67263 
 6                     0.45263   0.13438   0.76652 
 1                     0.562     2.3317    0.90552 
 1                    -0.3327    0.11178   1.52177 
 6                     1.45722  -0.99872   0.98256 
 1                     1.88213  -0.90424   1.98647 
 1                     0.94466  -1.96124   0.94627 
 6                     2.39769   1.52836   0.12339 
 1                     2.82598   2.5125   -0.03105 
 6                     3.11973   0.42693  -0.24821 
 1                     4.08603   0.54735  -0.72263 
 6                     2.5928   -0.9593   -0.04255 
 1                     2.24621  -1.35883  -1.00479 
 1                     3.4016   -1.62455   0.27105 
 6                    -1.11517  -1.43066  -0.67263 
 1                    -0.562    -2.3317   -0.90552 
 6                    -2.39769  -1.52836  -0.12339 
 1                    -2.82598  -2.5125    0.03105 
 6                    -1.45722   0.99872  -0.98256 
 1                    -0.94466   1.96124  -0.94627 
 1                    -1.88213   0.90424  -1.98647 
 6                    -2.5928    0.9593    0.04255 
 1                    -3.4016    1.62455  -0.27105 
 1                    -2.24621   1.35883   1.00479 
 
 ITRead=  0  0  0  0  0  0  0  0  0  0  0  0  0  0  0  0  0  0  0  0
 ITRead=  0  0  0  0  0  0  0  0
 MicOpt= -1 -1 -1 -1 -1 -1 -1 -1 -1 -1 -1 -1 -1 -1 -1 -1 -1 -1 -1 -1
 MicOpt= -1 -1 -1 -1 -1 -1 -1 -1
 NAtoms=     28 NQM=       28 NQMF=       0 NMMI=      0 NMMIF=      0
                NMic=       0 NMicF=      0.
                    Isotopes and Nuclear Properties:
 (Nuclear quadrupole moments (NQMom) in fm**2, nuclear magnetic moments (NMagM)
  in nuclear magnetons)

  Atom         1           2           3           4           5           6           7           8           9          10
 IAtWgt=          12          12           1           1          12          12           1           1          12           1
 AtmWgt=  12.0000000  12.0000000   1.0078250   1.0078250  12.0000000  12.0000000   1.0078250   1.0078250  12.0000000   1.0078250
 NucSpn=           0           0           1           1           0           0           1           1           0           1
 AtZEff=  -0.0000000  -0.0000000  -0.0000000  -0.0000000  -0.0000000  -0.0000000  -0.0000000  -0.0000000  -0.0000000  -0.0000000
 NQMom=    0.0000000   0.0000000   0.0000000   0.0000000   0.0000000   0.0000000   0.0000000   0.0000000   0.0000000   0.0000000
 NMagM=    0.0000000   0.0000000   2.7928460   2.7928460   0.0000000   0.0000000   2.7928460   2.7928460   0.0000000   2.7928460
 AtZNuc=   6.0000000   6.0000000   1.0000000   1.0000000   6.0000000   6.0000000   1.0000000   1.0000000   6.0000000   1.0000000

  Atom        11          12          13          14          15          16          17          18          19          20
 IAtWgt=           1          12           1          12           1          12           1           1          12           1
 AtmWgt=   1.0078250  12.0000000   1.0078250  12.0000000   1.0078250  12.0000000   1.0078250   1.0078250  12.0000000   1.0078250
 NucSpn=           1           0           1           0           1           0           1           1           0           1
 AtZEff=  -0.0000000  -0.0000000  -0.0000000  -0.0000000  -0.0000000  -0.0000000  -0.0000000  -0.0000000  -0.0000000  -0.0000000
 NQMom=    0.0000000   0.0000000   0.0000000   0.0000000   0.0000000   0.0000000   0.0000000   0.0000000   0.0000000   0.0000000
 NMagM=    2.7928460   0.0000000   2.7928460   0.0000000   2.7928460   0.0000000   2.7928460   2.7928460   0.0000000   2.7928460
 AtZNuc=   1.0000000   6.0000000   1.0000000   6.0000000   1.0000000   6.0000000   1.0000000   1.0000000   6.0000000   1.0000000

  Atom        21          22          23          24          25          26          27          28
 IAtWgt=          12           1          12           1           1          12           1           1
 AtmWgt=  12.0000000   1.0078250  12.0000000   1.0078250   1.0078250  12.0000000   1.0078250   1.0078250
 NucSpn=           0           1           0           1           1           0           1           1
 AtZEff=  -0.0000000  -0.0000000  -0.0000000  -0.0000000  -0.0000000  -0.0000000  -0.0000000  -0.0000000
 NQMom=    0.0000000   0.0000000   0.0000000   0.0000000   0.0000000   0.0000000   0.0000000   0.0000000
 NMagM=    0.0000000   2.7928460   0.0000000   2.7928460   2.7928460   0.0000000   2.7928460   2.7928460
 AtZNuc=   6.0000000   1.0000000   6.0000000   1.0000000   1.0000000   6.0000000   1.0000000   1.0000000
 Leave Link  101 at Mon Aug  3 16:40:11 2020, MaxMem=  6442450944 cpu:               2.4 elap:               0.1
 (Enter /scratch/scicomp/CentOS/7.3.1611/Haswell/software/Gaussian/g16/l202.exe)
                          Input orientation:                          
 ---------------------------------------------------------------------
 Center     Atomic      Atomic             Coordinates (Angstroms)
 Number     Number       Type             X           Y           Z
 ---------------------------------------------------------------------
      1          6           0       -3.119734   -0.426930    0.248214
      2          6           0       -0.452630   -0.134377   -0.766522
      3          1           0       -4.086028   -0.547352    0.722629
      4          1           0        0.332703   -0.111776   -1.521768
      5          6           0        1.115166    1.430657    0.672626
      6          6           0        0.452630    0.134377    0.766522
      7          1           0        0.561998    2.331699    0.905522
      8          1           0       -0.332703    0.111776    1.521768
      9          6           0        1.457223   -0.998723    0.982555
     10          1           0        1.882127   -0.904241    1.986471
     11          1           0        0.944658   -1.961243    0.946268
     12          6           0        2.397689    1.528359    0.123394
     13          1           0        2.825979    2.512496   -0.031045
     14          6           0        3.119734    0.426930   -0.248214
     15          1           0        4.086028    0.547352   -0.722629
     16          6           0        2.592798   -0.959299   -0.042549
     17          1           0        2.246207   -1.358828   -1.004791
     18          1           0        3.401603   -1.624548    0.271052
     19          6           0       -1.115166   -1.430657   -0.672626
     20          1           0       -0.561998   -2.331699   -0.905522
     21          6           0       -2.397689   -1.528359   -0.123394
     22          1           0       -2.825979   -2.512496    0.031045
     23          6           0       -1.457223    0.998723   -0.982556
     24          1           0       -0.944658    1.961243   -0.946268
     25          1           0       -1.882127    0.904241   -1.986471
     26          6           0       -2.592798    0.959299    0.042549
     27          1           0       -3.401603    1.624548   -0.271052
     28          1           0       -2.246207    1.358828    1.004791
 ---------------------------------------------------------------------
                    Distance matrix (angstroms):
                    1          2          3          4          5
     1  C    0.000000
     2  C    2.868575   0.000000
     3  H    1.083187   3.948379   0.000000
     4  H    3.892490   1.089796   4.975161   0.000000
     5  C    4.643827   2.641678   5.564840   2.794050   0.000000
     6  C    3.653148   1.800541   4.589782   2.304614   1.458805
     7  H    4.647283   3.147496   5.470515   3.451794   1.082641
     8  H    3.111219   2.304614   3.893651   3.123436   2.134669
     9  C    4.670625   2.730184   5.567668   2.884936   2.472842
    10  H    5.316764   3.690901   6.110936   3.916179   2.786784
    11  H    4.400077   2.867665   5.230383   3.144236   3.407189
    12  C    5.854972   3.417742   6.834197   3.108178   1.398595
    13  H    6.638502   4.277399   7.596482   3.914778   2.142991
    14  C    6.317157   3.653148   7.335855   3.111219   2.423573
    15  H    7.335855   4.589782   8.370761   3.893651   3.398968
    16  C    5.744648   3.237169   6.735125   2.830974   2.899442
    17  H    5.588540   2.973176   6.613598   2.341773   3.445897
    18  H    6.630433   4.260549   7.578185   3.862749   3.837100
    19  C    2.423573   1.458805   3.398968   2.134669   3.869264
    20  H    3.391352   2.204429   4.272418   2.471499   4.411208
    21  C    1.368425   2.477913   2.128055   3.378934   4.661499
    22  H    2.117319   3.453165   2.434708   4.260511   5.611836
    23  C    2.512215   1.529638   3.494084   2.174349   3.089236
    24  H    3.443997   2.160098   4.352754   2.502051   2.673053
    25  H    2.880539   2.147199   3.782000   2.480668   4.041247
    26  C    1.497194   2.535950   2.227609   3.486093   3.790537
    27  H    2.134865   3.469258   2.484550   4.303969   4.618368
    28  H    2.127061   2.929868   2.664222   3.898327   3.378509
                    6          7          8          9         10
     6  C    0.000000
     7  H    2.204429   0.000000
     8  H    1.089796   2.471499   0.000000
     9  C    1.529638   3.449503   2.174349   0.000000
    10  H    2.147199   3.658210   2.480668   1.094220   0.000000
    11  H    2.160098   4.310155   2.502051   1.091093   1.754458
    12  C    2.477913   2.151009   3.378934   2.829978   3.107153
    13  H    3.453165   2.456716   4.260511   3.902504   4.078642
    14  C    2.868575   3.391352   3.892490   2.512214   2.880539
    15  H    3.948379   4.272418   4.975161   3.494083   3.782000
    16  C    2.535950   3.981665   3.486093   1.530334   2.150583
    17  H    2.929868   4.483954   3.898327   2.168344   3.047434
    18  H    3.469258   4.910988   4.303969   2.162986   2.402147
    19  C    2.641678   4.411208   2.794050   3.089236   4.041247
    20  H    3.147496   5.127429   3.451794   3.069025   4.046604
    21  C    3.417742   4.971767   3.108178   4.045242   4.812263
    22  H    4.277399   5.975728   3.914778   4.641411   5.345693
    23  C    2.730184   3.069025   2.884937   4.042950   4.856712
    24  H    2.867665   2.415859   3.144236   4.272094   4.980228
    25  H    3.690901   4.046604   3.916179   4.856711   5.764068
    26  C    3.237169   3.546962   2.830974   4.595664   5.222697
    27  H    4.260549   4.194582   3.862749   5.662267   6.277658
    28  H    2.973176   2.973609   2.341773   4.390209   4.809191
                   11         12         13         14         15
    11  H    0.000000
    12  C    3.868558   0.000000
    13  H    4.950641   1.084347   0.000000
    14  C    3.443997   1.368425   2.117319   0.000000
    15  H    4.352754   2.128055   2.434708   1.083187   0.000000
    16  C    2.167491   2.500809   3.479636   1.497194   2.227609
    17  H    2.421480   3.103481   4.033791   2.127061   2.664222
    18  H    2.570187   3.312170   4.187808   2.134865   2.484550
    19  C    2.673053   4.661499   5.611836   4.643827   5.564840
    20  H    2.415859   4.971767   5.975728   4.647283   5.470515
    21  C    3.535937   5.692107   6.604827   5.854972   6.834197
    22  H    3.919084   6.604827   7.563004   6.638502   7.596482
    23  C    4.272095   4.045242   4.641412   4.670625   5.567668
    24  H    4.747326   3.535937   3.919084   4.400077   5.230383
    25  H    4.980228   4.812263   5.345693   5.316764   6.110936
    26  C    4.675454   5.023477   5.637462   5.744648   6.735125
    27  H    5.764525   5.813487   6.295144   6.630433   7.578185
    28  H    4.605205   4.729838   5.303864   5.588540   6.613598
                   16         17         18         19         20
    16  C    0.000000
    17  H    1.098025   0.000000
    18  H    1.093191   1.741644   0.000000
    19  C    3.790537   3.378509   4.618368   0.000000
    20  H    3.546962   2.973609   4.194582   1.082641   0.000000
    21  C    5.023477   4.729838   5.813487   1.398595   2.151009
    22  H    5.637462   5.303864   6.295144   2.142991   2.456716
    23  C    4.595665   4.390209   5.662268   2.472842   3.449503
    24  H    4.675454   4.605205   5.764525   3.407189   4.310155
    25  H    5.222697   4.809191   6.277658   2.786784   3.658210
    26  C    5.529798   5.466864   6.531564   2.899442   3.981665
    27  H    6.531564   6.429359   7.558711   3.837100   4.910988
    28  H    5.466864   5.621909   6.429359   3.445897   4.483954
                   21         22         23         24         25
    21  C    0.000000
    22  H    1.084347   0.000000
    23  C    2.829979   3.902504   0.000000
    24  H    3.868558   4.950641   1.091093   0.000000
    25  H    3.107153   4.078642   1.094219   1.754458   0.000000
    26  C    2.500809   3.479636   1.530335   2.167491   2.150583
    27  H    3.312170   4.187808   2.162986   2.570187   2.402147
    28  H    3.103481   4.033791   2.168345   2.421480   3.047434
                   26         27         28
    26  C    0.000000
    27  H    1.093191   0.000000
    28  H    1.098025   1.741644   0.000000
 Symmetry turned off by external request.
 Stoichiometry    C12H16
 Framework group  CI[X(C12H16)]
 Deg. of freedom    39
 Full point group                 CI      NOp   2
 Rotational constants (GHZ):           1.9639847           0.6410689           0.5529977
 Leave Link  202 at Mon Aug  3 16:40:11 2020, MaxMem=  6442450944 cpu:               0.3 elap:               0.0
 (Enter /scratch/scicomp/CentOS/7.3.1611/Haswell/software/Gaussian/g16/l301.exe)
 Standard basis: def2TZVP (6D, 10F)
 Ernie: Thresh=  0.10000D-02 Tol=  0.10000D-05 Strict=F.
   528 basis functions,   740 primitive gaussians,   528 cartesian basis functions
    44 alpha electrons       44 beta electrons
       nuclear repulsion energy       692.7544140269 Hartrees.
 IExCor= 4639 DFT=T Ex+Corr=wB97XD ExCW=0 ScaHFX=  1.000000
 ScaDFX=  1.000000  1.000000  1.000000  1.000000 ScalE2=  1.000000  1.000000
 IRadAn=      5 IRanWt=     -1 IRanGd=            0 ICorTp=0 IEmpDi=121
 HFx  wShort=  0.000000 wLong=  0.200000 cFull=  0.222036 cShort=  0.000000 cLong=  0.777964
 DFx  wShort=  0.000000 wLong=  0.200000 cFull=  0.000000 cShort=  0.000000 cLong=  1.000000
 NAtoms=   28 NActive=   28 NUniq=   28 SFac= 1.00D+00 NAtFMM=   60 NAOKFM=F Big=F
 Integral buffers will be    131072 words long.
 Raffenetti 2 integral format.
 Two-electron integral symmetry is turned off.
 R6Disp:  Grimme-D2 Dispersion energy=       -0.0228701961 Hartrees.
 Nuclear repulsion after empirical dispersion term =      692.7315438308 Hartrees.
 Using the following non-standard input for PCM:
 norep pcmdoc geomview  nodis nocav g03defaults tsare=0.075
 Warning! Using old PCM defaults because the g03defaults keyword was found.
 These settings can be overridden by following keywords.
 nsfe=28
 NVESolv=36  SolvMW=84.1595   Rsolv=2.815
 eps=2.0165 RhoS=0.7781
 --- end of non-standard input.
 Reading user-defined spheres from input:
 ISph  on   Nord    Re0     Alpha      Xe            Ye            Ze
 --- end of user-defined spheres data.
 ------------------------------------------------------------------------------
 Polarizable Continuum Model (PCM)
 =================================
 Model                : PCM.
 Atomic radii         : UA0 (Simple United Atom Topological Model).
 Polarization charges : Total charges.
 Charge compensation  : None.
 Solution method      : On-the-fly selection.
 Cavity type          : SES (Solvent Excluding Surface) (Alpha=1.000).
 Cavity algorithm     : GePol (RMin=0.200 OFac=0.890).
                        User-defined sphere list used, NSphG=   28.
                        Tesserae with average area of 0.075 Ang**2.
                        Smoothing algorithm: None.
                        Polarization charges: point-like.
                        Self-potential: constant (ISelfS= 1).
                        Self-field    : global E.n sum rule (ISelfD= 3).
 Solvent              : CycloHexane, Eps=   2.016500 Eps(inf)=   2.035188
                        RSolv=   2.815000 Ang.
 ------------------------------------------------------------------------------
 GePol: Number of generator spheres                  =      28
 GePol: Total number of spheres                      =     178
 GePol: Number of exposed spheres                    =     130 ( 73.03%)
 GePol: Number of tesserae                           =    4689
 GePol: Average area of tesserae                     =       0.05 Ang**2
 GePol: Minimum area of tessera                      =   0.10D-02 Ang**2
 GePol: Maximum area of tessera                      =    0.12570 Ang**2
 GePol: Number of small tesserae                     =       0
 GePol: Fraction of small tesserae (<1% of avg)      =       0.00%
 GePol: Total count of vertices                      =   16605
 GePol: Maximum number of vertices in a tessera      =       7
 GePol: Cavity surface area                          =    218.816 Ang**2
 GePol: Cavity volume                                =    246.174 Ang**3
 Leave Link  301 at Mon Aug  3 16:40:11 2020, MaxMem=  6442450944 cpu:               9.0 elap:               0.4
 (Enter /scratch/scicomp/CentOS/7.3.1611/Haswell/software/Gaussian/g16/l302.exe)
 NPDir=0 NMtPBC=     1 NCelOv=     1 NCel=       1 NClECP=     1 NCelD=      1
         NCelK=      1 NCelE2=     1 NClLst=     1 CellRange=     0.0.
 One-electron integrals computed using PRISM.
   1 Symmetry operations used in ECPInt.
 ECPInt:  NShTT=   19306 NPrTT=   56928 LenC2=   18534 LenP2D=   42286.
 LDataN:  DoStor=T MaxTD1= 6 Len=  172
 NBasis=   528 RedAO= T EigKep=  2.66D-05  NBF=   528
 NBsUse=   528 1.00D-06 EigRej= -1.00D+00 NBFU=   528
 Precomputing XC quadrature grid using
 IXCGrd= 4 IRadAn=           5 IRanWt=          -1 IRanGd=           0 AccXCQ= 0.00D+00.
 Generated NRdTot=       0 NPtTot=           0 NUsed=           0 NTot=          32
 NSgBfM=   526   526   526   526   526 MxSgAt=    28 MxSgA2=    28.
 Leave Link  302 at Mon Aug  3 16:40:12 2020, MaxMem=  6442450944 cpu:              13.4 elap:               0.6
 (Enter /scratch/scicomp/CentOS/7.3.1611/Haswell/software/Gaussian/g16/l303.exe)
 DipDrv:  MaxL=1.
 Leave Link  303 at Mon Aug  3 16:40:12 2020, MaxMem=  6442450944 cpu:               1.5 elap:               0.1
 (Enter /scratch/scicomp/CentOS/7.3.1611/Haswell/software/Gaussian/g16/l401.exe)
 ExpMin= 9.52D-02 ExpMax= 1.36D+04 ExpMxC= 4.63D+02 IAcc=3 IRadAn=         5 AccDes= 0.00D+00
 Harris functional with IExCor= 4639 and IRadAn=       5 diagonalized for initial guess.
 HarFok:  IExCor= 4639 AccDes= 0.00D+00 IRadAn=         5 IDoV= 1 UseB2=F ITyADJ=14
 ICtDFT=  3500011 ScaDFX=  1.000000  1.000000  1.000000  1.000000
 FoFCou: FMM=F IPFlag=           0 FMFlag=      100000 FMFlg1=           0
         NFxFlg=           0 DoJE=T BraDBF=F KetDBF=T FulRan=T
         wScrn=  0.000000 ICntrl=       500 IOpCl=  0 I1Cent=   200000004 NGrid=           0
         NMat0=    1 NMatS0=      1 NMatT0=    0 NMatD0=    1 NMtDS0=    0 NMtDT0=    0
 Symmetry not used in FoFCou.
 Harris En= -444.612840181976    
 JPrj=0 DoOrth=F DoCkMO=T.
 Mixing orbitals, IMix= 1 IMixAn=  0 NRI=1 NE=   44 Coef=  7.07106781D-01  7.07106781D-01
 Mixing orbitals, IMix= 1 IMixAn=  0 NRI=1 NE=   44 Coef= -7.07106781D-01  7.07106781D-01
 Initial guess <Sx>= 0.0000 <Sy>= 0.0000 <Sz>= 0.0000 <S**2>= 1.0000 S= 0.6180
 Leave Link  401 at Mon Aug  3 16:40:14 2020, MaxMem=  6442450944 cpu:              49.3 elap:               2.1
 (Enter /scratch/scicomp/CentOS/7.3.1611/Haswell/software/Gaussian/g16/l502.exe)
 Two-electron integral symmetry not used.
 UHF open shell SCF:
 Using DIIS extrapolation, IDIIS=  1040.
 NGot=  6442450944 LenX=  6441877030 LenY=  6441597718
 Requested convergence on RMS density matrix=1.00D-08 within 128 cycles.
 Requested convergence on MAX density matrix=1.00D-06.
 Requested convergence on             energy=1.00D-06.
 No special actions if energy rises.
 Fock matrices will be formed incrementally for  20 cycles.

 Cycle   1  Pass 1  IDiag  1:
 FoFJK:  IHMeth= 1 ICntrl=       0 DoSepK=T KAlg= 0 I1Cent=           0 FoldK=F
 IRaf=         1 NMat=       1 IRICut=       1 DoRegI=T DoRafI=F ISym2E= 0 IDoP0=0 IntGTp=1.
 FoFCou: FMM=F IPFlag=           0 FMFlag=      100000 FMFlg1=           0
         NFxFlg=           0 DoJE=T BraDBF=F KetDBF=F FulRan=T
         wScrn=  0.000000 ICntrl=       500 IOpCl=  0 I1Cent=           0 NGrid=           0
         NMat0=    1 NMatS0=      1 NMatT0=    0 NMatD0=    1 NMtDS0=    0 NMtDT0=    0
 Symmetry not used in FoFCou.
 Inv3:  Mode=1 IEnd=    65960163.
 Iteration    1 A*A^-1 deviation from unit magnitude is 3.11D-15 for   1130.
 Iteration    1 A*A^-1 deviation from orthogonality  is 1.89D-15 for    127    114.
 Iteration    1 A^-1*A deviation from unit magnitude is 3.33D-15 for   1130.
 Iteration    1 A^-1*A deviation from orthogonality  is 1.62D-15 for    736    709.
 E= -466.677203386391    
 DIIS: error= 4.76D-02 at cycle   1 NSaved=   1.
 NSaved= 1 IEnMin= 1 EnMin= -466.677203386391     IErMin= 1 ErrMin= 4.76D-02
 ErrMax= 4.76D-02  0.00D+00 EMaxC= 1.00D-01 BMatC= 4.11D+00 BMatP= 4.11D+00
 IDIUse=3 WtCom= 5.24D-01 WtEn= 4.76D-01
 Coeff-Com:  0.100D+01
 Coeff-En:   0.100D+01
 Coeff:      0.100D+01
 Gap=     0.226 Goal=   None    Shift=    0.000
 Gap=     0.226 Goal=   None    Shift=    0.000
 GapD=    0.226 DampG=1.000 DampE=0.500 DampFc=0.5000 IDamp=-1.
 Damping current iteration by 5.00D-01
 RMSDP=1.37D-03 MaxDP=9.24D-02              OVMax= 8.59D-02

 Cycle   2  Pass 1  IDiag  1:
 RMSU=  6.68D-04    CP:  9.75D-01
 E= -466.749040753098     Delta-E=       -0.071837366707 Rises=F Damp=T
 DIIS: error= 2.25D-02 at cycle   2 NSaved=   2.
 NSaved= 2 IEnMin= 2 EnMin= -466.749040753098     IErMin= 2 ErrMin= 2.25D-02
 ErrMax= 2.25D-02  0.00D+00 EMaxC= 1.00D-01 BMatC= 9.20D-01 BMatP= 4.11D+00
 IDIUse=3 WtCom= 7.75D-01 WtEn= 2.25D-01
 Coeff-Com: -0.861D+00 0.186D+01
 Coeff-En:   0.000D+00 0.100D+01
 Coeff:     -0.668D+00 0.167D+01
 Gap=     0.237 Goal=   None    Shift=    0.000
 Gap=     0.237 Goal=   None    Shift=    0.000
 RMSDP=8.31D-04 MaxDP=4.83D-02 DE=-7.18D-02 OVMax= 3.71D-02

 Cycle   3  Pass 1  IDiag  1:
 RMSU=  4.31D-04    CP:  9.46D-01  2.03D+00
 E= -466.819374472645     Delta-E=       -0.070333719547 Rises=F Damp=F
 DIIS: error= 2.68D-03 at cycle   3 NSaved=   3.
 NSaved= 3 IEnMin= 3 EnMin= -466.819374472645     IErMin= 3 ErrMin= 2.68D-03
 ErrMax= 2.68D-03  0.00D+00 EMaxC= 1.00D-01 BMatC= 2.01D-02 BMatP= 9.20D-01
 IDIUse=3 WtCom= 9.73D-01 WtEn= 2.68D-02
 Coeff-Com: -0.326D+00 0.701D+00 0.625D+00
 Coeff-En:   0.000D+00 0.000D+00 0.100D+01
 Coeff:     -0.317D+00 0.682D+00 0.635D+00
 Gap=     0.240 Goal=   None    Shift=    0.000
 Gap=     0.240 Goal=   None    Shift=    0.000
 RMSDP=1.16D-04 MaxDP=5.16D-03 DE=-7.03D-02 OVMax= 1.30D-02

 Cycle   4  Pass 1  IDiag  1:
 RMSU=  9.33D-05    CP:  9.43D-01  2.10D+00  8.87D-01
 E= -466.824558143732     Delta-E=       -0.005183671087 Rises=F Damp=F
 DIIS: error= 9.43D-04 at cycle   4 NSaved=   4.
 NSaved= 4 IEnMin= 4 EnMin= -466.824558143732     IErMin= 4 ErrMin= 9.43D-04
 ErrMax= 9.43D-04  0.00D+00 EMaxC= 1.00D-01 BMatC= 5.44D-04 BMatP= 2.01D-02
 IDIUse=3 WtCom= 9.91D-01 WtEn= 9.43D-03
 Coeff-Com:  0.119D+00-0.257D+00-0.133D+00 0.127D+01
 Coeff-En:   0.000D+00 0.000D+00 0.000D+00 0.100D+01
 Coeff:      0.118D+00-0.254D+00-0.131D+00 0.127D+01
 Gap=     0.245 Goal=   None    Shift=    0.000
 Gap=     0.245 Goal=   None    Shift=    0.000
 RMSDP=8.30D-05 MaxDP=4.53D-03 DE=-5.18D-03 OVMax= 1.44D-02

 Cycle   5  Pass 1  IDiag  1:
 RMSU=  3.50D-05    CP:  9.42D-01  2.13D+00  1.01D+00  1.49D+00
 E= -466.825230796350     Delta-E=       -0.000672652617 Rises=F Damp=F
 DIIS: error= 4.33D-04 at cycle   5 NSaved=   5.
 NSaved= 5 IEnMin= 5 EnMin= -466.825230796350     IErMin= 5 ErrMin= 4.33D-04
 ErrMax= 4.33D-04  0.00D+00 EMaxC= 1.00D-01 BMatC= 1.10D-04 BMatP= 5.44D-04
 IDIUse=3 WtCom= 9.96D-01 WtEn= 4.33D-03
 Coeff-Com:  0.330D-01-0.715D-01-0.647D-01-0.284D-01 0.113D+01
 Coeff-En:   0.000D+00 0.000D+00 0.000D+00 0.000D+00 0.100D+01
 Coeff:      0.328D-01-0.712D-01-0.644D-01-0.283D-01 0.113D+01
 Gap=     0.247 Goal=   None    Shift=    0.000
 Gap=     0.247 Goal=   None    Shift=    0.000
 RMSDP=3.28D-05 MaxDP=1.95D-03 DE=-6.73D-04 OVMax= 6.12D-03

 Cycle   6  Pass 1  IDiag  1:
 RMSU=  1.27D-05    CP:  9.41D-01  2.14D+00  1.04D+00  1.68D+00  1.56D+00
 E= -466.825367357304     Delta-E=       -0.000136560954 Rises=F Damp=F
 DIIS: error= 1.82D-04 at cycle   6 NSaved=   6.
 NSaved= 6 IEnMin= 6 EnMin= -466.825367357304     IErMin= 6 ErrMin= 1.82D-04
 ErrMax= 1.82D-04  0.00D+00 EMaxC= 1.00D-01 BMatC= 3.69D-05 BMatP= 1.10D-04
 IDIUse=3 WtCom= 9.98D-01 WtEn= 1.82D-03
 Coeff-Com: -0.230D-01 0.495D-01 0.151D-01-0.383D+00 0.407D+00 0.934D+00
 Coeff-En:   0.000D+00 0.000D+00 0.000D+00 0.000D+00 0.000D+00 0.100D+01
 Coeff:     -0.230D-01 0.494D-01 0.151D-01-0.383D+00 0.407D+00 0.934D+00
 Gap=     0.248 Goal=   None    Shift=    0.000
 Gap=     0.248 Goal=   None    Shift=    0.000
 RMSDP=1.60D-05 MaxDP=1.03D-03 DE=-1.37D-04 OVMax= 3.82D-03

 Cycle   7  Pass 1  IDiag  1:
 RMSU=  6.71D-06    CP:  9.41D-01  2.14D+00  1.05D+00  1.76D+00  1.89D+00
                    CP:  1.39D+00
 E= -466.825400872042     Delta-E=       -0.000033514738 Rises=F Damp=F
 DIIS: error= 6.13D-05 at cycle   7 NSaved=   7.
 NSaved= 7 IEnMin= 7 EnMin= -466.825400872042     IErMin= 7 ErrMin= 6.13D-05
 ErrMax= 6.13D-05  0.00D+00 EMaxC= 1.00D-01 BMatC= 3.11D-06 BMatP= 3.69D-05
 IDIUse=1 WtCom= 1.00D+00 WtEn= 0.00D+00
 Coeff-Com: -0.836D-02 0.181D-01 0.108D-01-0.597D-01-0.788D-01 0.146D+00
 Coeff-Com:  0.972D+00
 Coeff:     -0.836D-02 0.181D-01 0.108D-01-0.597D-01-0.788D-01 0.146D+00
 Coeff:      0.972D+00
 Gap=     0.248 Goal=   None    Shift=    0.000
 Gap=     0.248 Goal=   None    Shift=    0.000
 RMSDP=5.53D-06 MaxDP=3.83D-04 DE=-3.35D-05 OVMax= 1.31D-03

 Cycle   8  Pass 1  IDiag  1:
 RMSU=  2.49D-06    CP:  9.41D-01  2.14D+00  1.04D+00  1.75D+00  1.97D+00
                    CP:  1.63D+00  1.30D+00
 E= -466.825404137174     Delta-E=       -0.000003265132 Rises=F Damp=F
 DIIS: error= 3.53D-05 at cycle   8 NSaved=   8.
 NSaved= 8 IEnMin= 8 EnMin= -466.825404137174     IErMin= 8 ErrMin= 3.53D-05
 ErrMax= 3.53D-05  0.00D+00 EMaxC= 1.00D-01 BMatC= 5.97D-07 BMatP= 3.11D-06
 IDIUse=1 WtCom= 1.00D+00 WtEn= 0.00D+00
 Coeff-Com:  0.138D-02-0.297D-02 0.387D-03 0.428D-01-0.823D-01-0.109D+00
 Coeff-Com:  0.246D+00 0.903D+00
 Coeff:      0.138D-02-0.297D-02 0.387D-03 0.428D-01-0.823D-01-0.109D+00
 Coeff:      0.246D+00 0.903D+00
 Gap=     0.248 Goal=   None    Shift=    0.000
 Gap=     0.248 Goal=   None    Shift=    0.000
 RMSDP=2.40D-06 MaxDP=1.41D-04 DE=-3.27D-06 OVMax= 5.55D-04

 Cycle   9  Pass 1  IDiag  1:
 RMSU=  1.13D-06    CP:  9.41D-01  2.14D+00  1.04D+00  1.75D+00  1.97D+00
                    CP:  1.71D+00  1.51D+00  1.34D+00
 E= -466.825404684011     Delta-E=       -0.000000546837 Rises=F Damp=F
 DIIS: error= 1.57D-05 at cycle   9 NSaved=   9.
 NSaved= 9 IEnMin= 9 EnMin= -466.825404684011     IErMin= 9 ErrMin= 1.57D-05
 ErrMax= 1.57D-05  0.00D+00 EMaxC= 1.00D-01 BMatC= 1.11D-07 BMatP= 5.97D-07
 IDIUse=1 WtCom= 1.00D+00 WtEn= 0.00D+00
 Coeff-Com:  0.182D-02-0.392D-02-0.171D-02 0.222D-01-0.116D-01-0.562D-01
 Coeff-Com: -0.797D-01 0.275D+00 0.854D+00
 Coeff:      0.182D-02-0.392D-02-0.171D-02 0.222D-01-0.116D-01-0.562D-01
 Coeff:     -0.797D-01 0.275D+00 0.854D+00
 Gap=     0.248 Goal=   None    Shift=    0.000
 Gap=     0.248 Goal=   None    Shift=    0.000
 RMSDP=9.89D-07 MaxDP=5.11D-05 DE=-5.47D-07 OVMax= 2.18D-04

 Cycle  10  Pass 1  IDiag  1:
 RMSU=  3.53D-07    CP:  9.41D-01  2.14D+00  1.04D+00  1.74D+00  1.97D+00
                    CP:  1.72D+00  1.57D+00  1.58D+00  1.30D+00
 E= -466.825404777669     Delta-E=       -0.000000093658 Rises=F Damp=F
 DIIS: error= 5.04D-06 at cycle  10 NSaved=  10.
 NSaved=10 IEnMin=10 EnMin= -466.825404777669     IErMin=10 ErrMin= 5.04D-06
 ErrMax= 5.04D-06  0.00D+00 EMaxC= 1.00D-01 BMatC= 1.56D-08 BMatP= 1.11D-07
 IDIUse=1 WtCom= 1.00D+00 WtEn= 0.00D+00
 Coeff-Com: -0.417D-03 0.902D-03 0.880D-04-0.993D-02 0.157D-01 0.247D-01
 Coeff-Com: -0.338D-01-0.186D+00-0.534D-01 0.124D+01
 Coeff:     -0.417D-03 0.902D-03 0.880D-04-0.993D-02 0.157D-01 0.247D-01
 Coeff:     -0.338D-01-0.186D+00-0.534D-01 0.124D+01
 Gap=     0.248 Goal=   None    Shift=    0.000
 Gap=     0.248 Goal=   None    Shift=    0.000
 RMSDP=5.97D-07 MaxDP=4.04D-05 DE=-9.37D-08 OVMax= 1.26D-04

 Cycle  11  Pass 1  IDiag  1:
 RMSU=  1.94D-07    CP:  9.41D-01  2.14D+00  1.04D+00  1.74D+00  1.96D+00
                    CP:  1.72D+00  1.59D+00  1.68D+00  1.62D+00  1.53D+00
 E= -466.825404797622     Delta-E=       -0.000000019953 Rises=F Damp=F
 DIIS: error= 1.43D-06 at cycle  11 NSaved=  11.
 NSaved=11 IEnMin=11 EnMin= -466.825404797622     IErMin=11 ErrMin= 1.43D-06
 ErrMax= 1.43D-06  0.00D+00 EMaxC= 1.00D-01 BMatC= 3.82D-09 BMatP= 1.56D-08
 IDIUse=1 WtCom= 1.00D+00 WtEn= 0.00D+00
 Coeff-Com: -0.417D-03 0.902D-03 0.280D-03-0.686D-02 0.728D-02 0.173D-01
 Coeff-Com:  0.107D-02-0.107D+00-0.144D+00 0.436D+00 0.795D+00
 Coeff:     -0.417D-03 0.902D-03 0.280D-03-0.686D-02 0.728D-02 0.173D-01
 Coeff:      0.107D-02-0.107D+00-0.144D+00 0.436D+00 0.795D+00
 Gap=     0.248 Goal=   None    Shift=    0.000
 Gap=     0.248 Goal=   None    Shift=    0.000
 RMSDP=1.52D-07 MaxDP=8.16D-06 DE=-2.00D-08 OVMax= 2.54D-05

 Cycle  12  Pass 1  IDiag  1:
 RMSU=  6.87D-08    CP:  9.41D-01  2.14D+00  1.04D+00  1.74D+00  1.96D+00
                    CP:  1.72D+00  1.59D+00  1.70D+00  1.69D+00  1.73D+00
                    CP:  1.33D+00
 E= -466.825404800366     Delta-E=       -0.000000002744 Rises=F Damp=F
 DIIS: error= 8.05D-07 at cycle  12 NSaved=  12.
 NSaved=12 IEnMin=12 EnMin= -466.825404800366     IErMin=12 ErrMin= 8.05D-07
 ErrMax= 8.05D-07  0.00D+00 EMaxC= 1.00D-01 BMatC= 6.26D-10 BMatP= 3.82D-09
 IDIUse=1 WtCom= 1.00D+00 WtEn= 0.00D+00
 Coeff-Com:  0.520D-04-0.113D-03 0.689D-05 0.151D-02-0.262D-02-0.363D-02
 Coeff-Com:  0.689D-02 0.293D-01 0.180D-02-0.228D+00 0.847D-01 0.111D+01
 Coeff:      0.520D-04-0.113D-03 0.689D-05 0.151D-02-0.262D-02-0.363D-02
 Coeff:      0.689D-02 0.293D-01 0.180D-02-0.228D+00 0.847D-01 0.111D+01
 Gap=     0.248 Goal=   None    Shift=    0.000
 Gap=     0.248 Goal=   None    Shift=    0.000
 RMSDP=9.03D-08 MaxDP=3.86D-06 DE=-2.74D-09 OVMax= 1.68D-05

 Cycle  13  Pass 1  IDiag  1:
 RMSU=  3.94D-08    CP:  9.41D-01  2.14D+00  1.04D+00  1.74D+00  1.96D+00
                    CP:  1.72D+00  1.59D+00  1.69D+00  1.70D+00  1.80D+00
                    CP:  1.64D+00  1.38D+00
 E= -466.825404801168     Delta-E=       -0.000000000802 Rises=F Damp=F
 DIIS: error= 4.95D-07 at cycle  13 NSaved=  13.
 NSaved=13 IEnMin=13 EnMin= -466.825404801168     IErMin=13 ErrMin= 4.95D-07
 ErrMax= 4.95D-07  0.00D+00 EMaxC= 1.00D-01 BMatC= 1.39D-10 BMatP= 6.26D-10
 IDIUse=1 WtCom= 1.00D+00 WtEn= 0.00D+00
 Coeff-Com:  0.844D-04-0.182D-03-0.445D-04 0.155D-02-0.187D-02-0.382D-02
 Coeff-Com:  0.158D-02 0.249D-01 0.258D-01-0.133D+00-0.116D+00 0.253D+00
 Coeff-Com:  0.948D+00
 Coeff:      0.844D-04-0.182D-03-0.445D-04 0.155D-02-0.187D-02-0.382D-02
 Coeff:      0.158D-02 0.249D-01 0.258D-01-0.133D+00-0.116D+00 0.253D+00
 Coeff:      0.948D+00
 Gap=     0.248 Goal=   None    Shift=    0.000
 Gap=     0.248 Goal=   None    Shift=    0.000
 RMSDP=3.92D-08 MaxDP=1.65D-06 DE=-8.02D-10 OVMax= 9.52D-06

 Cycle  14  Pass 1  IDiag  1:
 RMSU=  1.84D-08    CP:  9.41D-01  2.14D+00  1.04D+00  1.74D+00  1.96D+00
                    CP:  1.72D+00  1.59D+00  1.69D+00  1.70D+00  1.81D+00
                    CP:  1.74D+00  1.62D+00  1.38D+00
 E= -466.825404801372     Delta-E=       -0.000000000205 Rises=F Damp=F
 DIIS: error= 3.20D-07 at cycle  14 NSaved=  14.
 NSaved=14 IEnMin=14 EnMin= -466.825404801372     IErMin=14 ErrMin= 3.20D-07
 ErrMax= 3.20D-07  0.00D+00 EMaxC= 1.00D-01 BMatC= 4.02D-11 BMatP= 1.39D-10
 IDIUse=1 WtCom= 1.00D+00 WtEn= 0.00D+00
 Coeff-Com: -0.295D-05 0.658D-05-0.324D-05-0.148D-03 0.404D-03 0.326D-03
 Coeff-Com: -0.165D-02-0.400D-02 0.391D-02 0.348D-01-0.347D-01-0.232D+00
 Coeff-Com:  0.161D+00 0.107D+01
 Coeff:     -0.295D-05 0.658D-05-0.324D-05-0.148D-03 0.404D-03 0.326D-03
 Coeff:     -0.165D-02-0.400D-02 0.391D-02 0.348D-01-0.347D-01-0.232D+00
 Coeff:      0.161D+00 0.107D+01
 Gap=     0.248 Goal=   None    Shift=    0.000
 Gap=     0.248 Goal=   None    Shift=    0.000
 RMSDP=2.45D-08 MaxDP=1.10D-06 DE=-2.05D-10 OVMax= 7.81D-06

 Cycle  15  Pass 1  IDiag  1:
 RMSU=  9.14D-09    CP:  9.41D-01  2.14D+00  1.04D+00  1.74D+00  1.96D+00
                    CP:  1.72D+00  1.59D+00  1.69D+00  1.70D+00  1.80D+00
                    CP:  1.77D+00  1.68D+00  1.78D+00  1.59D+00
 E= -466.825404801454     Delta-E=       -0.000000000082 Rises=F Damp=F
 DIIS: error= 1.77D-07 at cycle  15 NSaved=  15.
 NSaved=15 IEnMin=15 EnMin= -466.825404801454     IErMin=15 ErrMin= 1.77D-07
 ErrMax= 1.77D-07  0.00D+00 EMaxC= 1.00D-01 BMatC= 1.14D-11 BMatP= 4.02D-11
 IDIUse=1 WtCom= 1.00D+00 WtEn= 0.00D+00
 Coeff-Com: -0.257D-04 0.556D-04 0.110D-04-0.509D-03 0.701D-03 0.125D-02
 Coeff-Com: -0.103D-02-0.898D-02-0.729D-02 0.505D-01 0.299D-01-0.138D+00
 Coeff-Com: -0.278D+00 0.184D+00 0.117D+01
 Coeff:     -0.257D-04 0.556D-04 0.110D-04-0.509D-03 0.701D-03 0.125D-02
 Coeff:     -0.103D-02-0.898D-02-0.729D-02 0.505D-01 0.299D-01-0.138D+00
 Coeff:     -0.278D+00 0.184D+00 0.117D+01
 Gap=     0.248 Goal=   None    Shift=    0.000
 Gap=     0.248 Goal=   None    Shift=    0.000
 RMSDP=1.84D-08 MaxDP=8.88D-07 DE=-8.20D-11 OVMax= 6.20D-06

 Cycle  16  Pass 1  IDiag  1:
 RMSU=  4.47D-09    CP:  9.41D-01  2.14D+00  1.04D+00  1.74D+00  1.96D+00
                    CP:  1.72D+00  1.59D+00  1.69D+00  1.70D+00  1.80D+00
                    CP:  1.78D+00  1.73D+00  2.04D+00  2.16D+00  1.77D+00
 E= -466.825404801484     Delta-E=       -0.000000000030 Rises=F Damp=F
 DIIS: error= 7.11D-08 at cycle  16 NSaved=  16.
 NSaved=16 IEnMin=16 EnMin= -466.825404801484     IErMin=16 ErrMin= 7.11D-08
 ErrMax= 7.11D-08  0.00D+00 EMaxC= 1.00D-01 BMatC= 1.67D-12 BMatP= 1.14D-11
 IDIUse=1 WtCom= 1.00D+00 WtEn= 0.00D+00
 Coeff-Com:  0.270D-06-0.709D-06 0.134D-06 0.207D-04-0.468D-04-0.502D-04
 Coeff-Com:  0.249D-03 0.542D-03-0.115D-02-0.598D-02 0.888D-02 0.465D-01
 Coeff-Com: -0.424D-01-0.251D+00 0.589D-01 0.119D+01
 Coeff:      0.270D-06-0.709D-06 0.134D-06 0.207D-04-0.468D-04-0.502D-04
 Coeff:      0.249D-03 0.542D-03-0.115D-02-0.598D-02 0.888D-02 0.465D-01
 Coeff:     -0.424D-01-0.251D+00 0.589D-01 0.119D+01
 Gap=     0.248 Goal=   None    Shift=    0.000
 Gap=     0.248 Goal=   None    Shift=    0.000
 RMSDP=7.96D-09 MaxDP=3.60D-07 DE=-2.97D-11 OVMax= 2.77D-06

 Error on total polarization charges =  0.01163
 SCF Done:  E(UwB97XD) =  -466.825404801     A.U. after   16 cycles
            NFock= 16  Conv=0.80D-08     -V/T= 2.0062
 <Sx>= 0.0000 <Sy>= 0.0000 <Sz>= 0.0000 <S**2>= 0.9975 S= 0.6169
 <L.S>=  0.00000000000    
 KE= 4.639413444359D+02 PE=-2.466946026404D+03 EE= 8.434477333361D+02
 --------------------------------------------------------------------
 Variational PCM results
 =======================
 <psi(f)|   H    |psi(f)>                     (a.u.) =    -466.824163
 <psi(f)|H+V(f)/2|psi(f)>                     (a.u.) =    -466.825405
 (Polarized solute)-Solvent               (kcal/mol) =      -0.78
 --------------------------------------------------------------------
 Partition over spheres:
 Sphere  on Atom  Surface  Charge   GEl     GCav    GDR
    1      C1       7.45   0.011   -0.04    0.00    0.00
    2      C2       0.53   0.000   -0.00    0.00    0.00
    3      H3       7.51  -0.010   -0.04    0.00    0.00
    4      H4       3.63  -0.004   -0.01    0.00    0.00
    5      C5       4.56   0.008   -0.04    0.00    0.00
    6      C6       0.50   0.000   -0.00    0.00    0.00
    7      H7       4.84  -0.007   -0.03    0.00    0.00
    8      H8       3.39  -0.004   -0.01    0.00    0.00
    9      C9       3.13   0.002   -0.00    0.00    0.00
   10      H10      6.18  -0.006   -0.01    0.00    0.00
   11      H11      4.24  -0.003   -0.01    0.00    0.00
   12      C12      6.47   0.011   -0.06    0.00    0.00
   13      H13      7.51  -0.010   -0.03    0.00    0.00
   14      C14      7.30   0.010   -0.04    0.00    0.00
   15      H15      7.51  -0.010   -0.04    0.00    0.00
   16      C16      3.39   0.002    0.00    0.00    0.00
   17      H17      4.14  -0.004   -0.02    0.00    0.00
   18      H18      7.51  -0.008   -0.03    0.00    0.00
   19      C19      4.74   0.008   -0.04    0.00    0.00
   20      H20      5.09  -0.007   -0.03    0.00    0.00
   21      C21      6.66   0.011   -0.06    0.00    0.00
   22      H22      7.50  -0.010   -0.03    0.00    0.00
   23      C23      3.01   0.002   -0.00    0.00    0.00
   24      H24      3.34  -0.002   -0.01    0.00    0.00
   25      H25      6.37  -0.006   -0.01    0.00    0.00
   26      C26      3.21   0.001    0.00    0.00    0.00
   27      H27      7.44  -0.008   -0.03    0.00    0.00
   28      H28      4.14  -0.004   -0.02    0.00    0.00
 Added spheres:    77.53   0.023   -0.19    0.00    0.00
 --------------------------------------------------------------------
 After PCM corrections, the energy is  -466.825404801     a.u.
 --------------------------------------------------------------------
 Annihilation of the first spin contaminant:
 S**2 before annihilation     0.9975,   after     0.4816
 Leave Link  502 at Mon Aug  3 16:45:03 2020, MaxMem=  6442450944 cpu:            6852.8 elap:             288.2
 (Enter /scratch/scicomp/CentOS/7.3.1611/Haswell/software/Gaussian/g16/l601.exe)
 Copying SCF densities to generalized density rwf, IOpCl= 1 IROHF=0.

 **********************************************************************

            Population analysis using the SCF Density.

 **********************************************************************

 Alpha  occ. eigenvalues --  -10.29927 -10.29708 -10.28784 -10.28522 -10.28462
 Alpha  occ. eigenvalues --  -10.28418 -10.28202 -10.28127 -10.27998 -10.27975
 Alpha  occ. eigenvalues --  -10.27887 -10.27806  -0.94974  -0.92879  -0.85214
 Alpha  occ. eigenvalues --   -0.84522  -0.83618  -0.81648  -0.71076  -0.70272
 Alpha  occ. eigenvalues --   -0.69529  -0.67751  -0.59965  -0.59216  -0.58491
 Alpha  occ. eigenvalues --   -0.56341  -0.53473  -0.52849  -0.50734  -0.49473
 Alpha  occ. eigenvalues --   -0.48947  -0.48197  -0.47897  -0.47351  -0.46518
 Alpha  occ. eigenvalues --   -0.44746  -0.41531  -0.40881  -0.39925  -0.39545
 Alpha  occ. eigenvalues --   -0.38489  -0.37149  -0.33573  -0.24871
 Alpha virt. eigenvalues --   -0.00073   0.09867   0.10495   0.12518   0.13110
 Alpha virt. eigenvalues --    0.14085   0.14598   0.15443   0.16026   0.16298
 Alpha virt. eigenvalues --    0.16828   0.17073   0.18342   0.19926   0.20452
 Alpha virt. eigenvalues --    0.21320   0.21749   0.22469   0.23437   0.23561
 Alpha virt. eigenvalues --    0.24800   0.25114   0.26297   0.26508   0.27030
 Alpha virt. eigenvalues --    0.28507   0.28800   0.29569   0.30531   0.30902
 Alpha virt. eigenvalues --    0.31408   0.31751   0.31926   0.32584   0.33937
 Alpha virt. eigenvalues --    0.33994   0.35502   0.35969   0.36546   0.37093
 Alpha virt. eigenvalues --    0.37710   0.38518   0.40864   0.41193   0.41854
 Alpha virt. eigenvalues --    0.43184   0.43795   0.44879   0.45461   0.45696
 Alpha virt. eigenvalues --    0.46468   0.46613   0.48068   0.48381   0.48431
 Alpha virt. eigenvalues --    0.48473   0.49045   0.49234   0.49909   0.50381
 Alpha virt. eigenvalues --    0.50535   0.51002   0.51228   0.52115   0.52789
 Alpha virt. eigenvalues --    0.52879   0.54008   0.54134   0.54688   0.55726
 Alpha virt. eigenvalues --    0.56271   0.56294   0.57600   0.58223   0.58295
 Alpha virt. eigenvalues --    0.58519   0.60427   0.61262   0.63428   0.65381
 Alpha virt. eigenvalues --    0.66350   0.67498   0.67586   0.68950   0.69175
 Alpha virt. eigenvalues --    0.70440   0.71463   0.74006   0.75318   0.75478
 Alpha virt. eigenvalues --    0.78858   0.79045   0.79189   0.81577   0.81950
 Alpha virt. eigenvalues --    0.82821   0.84226   0.86210   0.87453   0.87849
 Alpha virt. eigenvalues --    0.89335   0.89522   0.92565   0.93971   0.94686
 Alpha virt. eigenvalues --    0.96297   0.96841   0.97765   0.98755   0.99643
 Alpha virt. eigenvalues --    1.01484   1.01616   1.03915   1.04648   1.05525
 Alpha virt. eigenvalues --    1.06943   1.08241   1.09218   1.09585   1.10228
 Alpha virt. eigenvalues --    1.11821   1.14023   1.15529   1.16723   1.17335
 Alpha virt. eigenvalues --    1.18293   1.19059   1.19473   1.19606   1.20297
 Alpha virt. eigenvalues --    1.21317   1.22929   1.24618   1.25592   1.26141
 Alpha virt. eigenvalues --    1.26880   1.27895   1.28607   1.28807   1.29276
 Alpha virt. eigenvalues --    1.30248   1.30667   1.33099   1.33875   1.34513
 Alpha virt. eigenvalues --    1.35229   1.36012   1.36197   1.38095   1.38828
 Alpha virt. eigenvalues --    1.39012   1.39214   1.40066   1.41203   1.42021
 Alpha virt. eigenvalues --    1.42922   1.42991   1.44237   1.44855   1.46025
 Alpha virt. eigenvalues --    1.46177   1.47205   1.47500   1.49512   1.50545
 Alpha virt. eigenvalues --    1.50664   1.53719   1.54274   1.57194   1.57514
 Alpha virt. eigenvalues --    1.59512   1.60012   1.60482   1.62577   1.63460
 Alpha virt. eigenvalues --    1.64929   1.66523   1.67642   1.68979   1.69481
 Alpha virt. eigenvalues --    1.73243   1.73988   1.77024   1.77629   1.78250
 Alpha virt. eigenvalues --    1.80092   1.81061   1.82093   1.85182   1.86652
 Alpha virt. eigenvalues --    1.88060   1.88942   1.91605   1.92032   1.94172
 Alpha virt. eigenvalues --    1.97381   1.98074   2.01274   2.04694   2.05424
 Alpha virt. eigenvalues --    2.07302   2.07517   2.08406   2.10859   2.11308
 Alpha virt. eigenvalues --    2.12849   2.13759   2.16423   2.17709   2.17945
 Alpha virt. eigenvalues --    2.18306   2.18959   2.20083   2.21639   2.23954
 Alpha virt. eigenvalues --    2.25238   2.26037   2.28619   2.30581   2.31870
 Alpha virt. eigenvalues --    2.34514   2.36818   2.37089   2.39684   2.43154
 Alpha virt. eigenvalues --    2.45674   2.46787   2.46846   2.48065   2.49825
 Alpha virt. eigenvalues --    2.50799   2.54784   2.55028   2.56611   2.57392
 Alpha virt. eigenvalues --    2.57707   2.59732   2.60433   2.62592   2.63376
 Alpha virt. eigenvalues --    2.63820   2.64281   2.67716   2.68011   2.68668
 Alpha virt. eigenvalues --    2.68909   2.70553   2.71805   2.72949   2.73501
 Alpha virt. eigenvalues --    2.73887   2.75086   2.76151   2.77758   2.79184
 Alpha virt. eigenvalues --    2.79778   2.81042   2.81956   2.82341   2.82380
 Alpha virt. eigenvalues --    2.82953   2.84881   2.85860   2.86038   2.86751
 Alpha virt. eigenvalues --    2.87655   2.88579   2.89124   2.89449   2.90609
 Alpha virt. eigenvalues --    2.92958   2.94111   2.94624   2.95137   2.95790
 Alpha virt. eigenvalues --    2.97729   2.99424   3.00538   3.02118   3.02952
 Alpha virt. eigenvalues --    3.05061   3.05808   3.06801   3.06841   3.07296
 Alpha virt. eigenvalues --    3.09517   3.10043   3.10786   3.11111   3.11323
 Alpha virt. eigenvalues --    3.12935   3.13342   3.14523   3.14923   3.15266
 Alpha virt. eigenvalues --    3.15636   3.16273   3.17143   3.19581   3.20122
 Alpha virt. eigenvalues --    3.20965   3.21186   3.21476   3.22640   3.22951
 Alpha virt. eigenvalues --    3.24247   3.24391   3.25611   3.26123   3.26410
 Alpha virt. eigenvalues --    3.26637   3.27261   3.28104   3.30343   3.30780
 Alpha virt. eigenvalues --    3.31742   3.31980   3.32551   3.33559   3.34947
 Alpha virt. eigenvalues --    3.35936   3.36038   3.37172   3.37840   3.38257
 Alpha virt. eigenvalues --    3.39273   3.40065   3.40944   3.41295   3.42385
 Alpha virt. eigenvalues --    3.42860   3.44563   3.45576   3.46718   3.48533
 Alpha virt. eigenvalues --    3.49001   3.49572   3.50220   3.51528   3.51634
 Alpha virt. eigenvalues --    3.51817   3.53029   3.54527   3.56406   3.56762
 Alpha virt. eigenvalues --    3.57234   3.58094   3.58851   3.60368   3.61213
 Alpha virt. eigenvalues --    3.61652   3.62750   3.63073   3.64353   3.65746
 Alpha virt. eigenvalues --    3.67856   3.68012   3.70592   3.71234   3.72875
 Alpha virt. eigenvalues --    3.73094   3.77616   3.79096   3.79330   3.79963
 Alpha virt. eigenvalues --    3.82139   3.82530   3.83097   3.83450   3.84801
 Alpha virt. eigenvalues --    3.86683   3.87783   3.90263   3.90783   3.93863
 Alpha virt. eigenvalues --    3.94356   3.95198   3.95715   3.98222   4.02095
 Alpha virt. eigenvalues --    4.03535   4.05304   4.06316   4.09454   4.10025
 Alpha virt. eigenvalues --    4.11260   4.12390   4.12509   4.14519   4.16734
 Alpha virt. eigenvalues --    4.18674   4.18805   4.21995   4.22179   4.23177
 Alpha virt. eigenvalues --    4.23344   4.25216   4.26893   4.27727   4.28600
 Alpha virt. eigenvalues --    4.30484   4.34723   4.35973   4.36483   4.37687
 Alpha virt. eigenvalues --    4.40193   4.43279   4.44864   4.46518   4.49245
 Alpha virt. eigenvalues --    4.51021   4.53229   4.53854   4.54987   4.56232
 Alpha virt. eigenvalues --    4.57303   4.60364   4.62689   4.63920   4.66973
 Alpha virt. eigenvalues --    4.67932   4.69168   4.73302   4.74244   4.76747
 Alpha virt. eigenvalues --    4.77507   4.80286   4.80531   4.88233   4.90504
 Alpha virt. eigenvalues --    4.91409   4.91635   4.93870   4.95112   4.96103
 Alpha virt. eigenvalues --    4.97609   5.04846   5.05279   5.10180   5.11682
 Alpha virt. eigenvalues --    5.19512   5.20708   5.24045   5.25798   5.26049
 Alpha virt. eigenvalues --    5.31523   5.36309   5.36733   5.37867   5.38412
 Alpha virt. eigenvalues --    5.40729   5.43049   5.51759   5.52170   5.54897
 Alpha virt. eigenvalues --    5.61926   5.72325   5.72781   5.80368   5.83628
 Alpha virt. eigenvalues --    7.94105   7.94940   8.02383   8.04480   8.07574
 Alpha virt. eigenvalues --    8.09922   8.11285   8.15365   8.16521   8.22607
 Alpha virt. eigenvalues --    8.34044   8.37272  34.75328  34.75870  34.81244
 Alpha virt. eigenvalues --   34.82137  34.85537  34.87672  34.98153  34.99351
 Alpha virt. eigenvalues --   35.01411  35.04418  35.18315  35.22341
  Beta  occ. eigenvalues --  -10.29928 -10.29708 -10.28785 -10.28521 -10.28461
  Beta  occ. eigenvalues --  -10.28418 -10.28202 -10.28127 -10.27998 -10.27975
  Beta  occ. eigenvalues --  -10.27888 -10.27806  -0.94974  -0.92879  -0.85214
  Beta  occ. eigenvalues --   -0.84522  -0.83618  -0.81648  -0.71076  -0.70272
  Beta  occ. eigenvalues --   -0.69529  -0.67751  -0.59965  -0.59216  -0.58491
  Beta  occ. eigenvalues --   -0.56341  -0.53473  -0.52849  -0.50734  -0.49473
  Beta  occ. eigenvalues --   -0.48947  -0.48197  -0.47897  -0.47351  -0.46518
  Beta  occ. eigenvalues --   -0.44746  -0.41531  -0.40881  -0.39926  -0.39545
  Beta  occ. eigenvalues --   -0.38489  -0.37149  -0.33573  -0.24871
  Beta virt. eigenvalues --   -0.00073   0.09866   0.10495   0.12518   0.13110
  Beta virt. eigenvalues --    0.14085   0.14598   0.15443   0.16026   0.16298
  Beta virt. eigenvalues --    0.16828   0.17072   0.18342   0.19926   0.20452
  Beta virt. eigenvalues --    0.21319   0.21750   0.22469   0.23438   0.23561
  Beta virt. eigenvalues --    0.24800   0.25114   0.26297   0.26508   0.27030
  Beta virt. eigenvalues --    0.28507   0.28800   0.29569   0.30531   0.30902
  Beta virt. eigenvalues --    0.31408   0.31751   0.31926   0.32584   0.33937
  Beta virt. eigenvalues --    0.33994   0.35503   0.35969   0.36545   0.37093
  Beta virt. eigenvalues --    0.37710   0.38518   0.40864   0.41193   0.41854
  Beta virt. eigenvalues --    0.43184   0.43795   0.44879   0.45462   0.45696
  Beta virt. eigenvalues --    0.46468   0.46613   0.48068   0.48380   0.48431
  Beta virt. eigenvalues --    0.48473   0.49045   0.49234   0.49910   0.50380
  Beta virt. eigenvalues --    0.50536   0.51002   0.51228   0.52115   0.52788
  Beta virt. eigenvalues --    0.52879   0.54008   0.54134   0.54688   0.55726
  Beta virt. eigenvalues --    0.56271   0.56294   0.57600   0.58223   0.58295
  Beta virt. eigenvalues --    0.58519   0.60427   0.61262   0.63428   0.65381
  Beta virt. eigenvalues --    0.66350   0.67498   0.67586   0.68950   0.69175
  Beta virt. eigenvalues --    0.70440   0.71463   0.74006   0.75318   0.75478
  Beta virt. eigenvalues --    0.78858   0.79045   0.79189   0.81577   0.81950
  Beta virt. eigenvalues --    0.82821   0.84226   0.86210   0.87453   0.87849
  Beta virt. eigenvalues --    0.89335   0.89522   0.92565   0.93971   0.94686
  Beta virt. eigenvalues --    0.96297   0.96841   0.97765   0.98755   0.99643
  Beta virt. eigenvalues --    1.01484   1.01616   1.03915   1.04648   1.05525
  Beta virt. eigenvalues --    1.06943   1.08241   1.09218   1.09585   1.10228
  Beta virt. eigenvalues --    1.11821   1.14023   1.15529   1.16723   1.17335
  Beta virt. eigenvalues --    1.18293   1.19060   1.19473   1.19606   1.20297
  Beta virt. eigenvalues --    1.21317   1.22929   1.24618   1.25592   1.26141
  Beta virt. eigenvalues --    1.26880   1.27895   1.28607   1.28807   1.29276
  Beta virt. eigenvalues --    1.30248   1.30667   1.33099   1.33875   1.34512
  Beta virt. eigenvalues --    1.35229   1.36012   1.36197   1.38095   1.38828
  Beta virt. eigenvalues --    1.39012   1.39214   1.40066   1.41203   1.42021
  Beta virt. eigenvalues --    1.42922   1.42991   1.44237   1.44855   1.46025
  Beta virt. eigenvalues --    1.46177   1.47205   1.47500   1.49512   1.50545
  Beta virt. eigenvalues --    1.50664   1.53719   1.54274   1.57194   1.57514
  Beta virt. eigenvalues --    1.59512   1.60012   1.60482   1.62576   1.63460
  Beta virt. eigenvalues --    1.64929   1.66523   1.67642   1.68979   1.69481
  Beta virt. eigenvalues --    1.73242   1.73988   1.77024   1.77629   1.78250
  Beta virt. eigenvalues --    1.80092   1.81061   1.82093   1.85182   1.86652
  Beta virt. eigenvalues --    1.88060   1.88942   1.91605   1.92032   1.94172
  Beta virt. eigenvalues --    1.97381   1.98074   2.01274   2.04694   2.05424
  Beta virt. eigenvalues --    2.07303   2.07517   2.08406   2.10859   2.11308
  Beta virt. eigenvalues --    2.12849   2.13759   2.16423   2.17709   2.17945
  Beta virt. eigenvalues --    2.18306   2.18959   2.20083   2.21639   2.23954
  Beta virt. eigenvalues --    2.25238   2.26037   2.28619   2.30581   2.31870
  Beta virt. eigenvalues --    2.34514   2.36818   2.37089   2.39684   2.43154
  Beta virt. eigenvalues --    2.45674   2.46787   2.46846   2.48065   2.49825
  Beta virt. eigenvalues --    2.50799   2.54784   2.55028   2.56611   2.57392
  Beta virt. eigenvalues --    2.57707   2.59732   2.60433   2.62592   2.63376
  Beta virt. eigenvalues --    2.63820   2.64281   2.67716   2.68011   2.68668
  Beta virt. eigenvalues --    2.68909   2.70553   2.71805   2.72949   2.73501
  Beta virt. eigenvalues --    2.73887   2.75086   2.76151   2.77758   2.79184
  Beta virt. eigenvalues --    2.79778   2.81042   2.81955   2.82340   2.82380
  Beta virt. eigenvalues --    2.82953   2.84881   2.85860   2.86038   2.86751
  Beta virt. eigenvalues --    2.87655   2.88579   2.89124   2.89449   2.90609
  Beta virt. eigenvalues --    2.92958   2.94111   2.94624   2.95137   2.95790
  Beta virt. eigenvalues --    2.97729   2.99424   3.00538   3.02118   3.02952
  Beta virt. eigenvalues --    3.05061   3.05808   3.06801   3.06841   3.07296
  Beta virt. eigenvalues --    3.09517   3.10043   3.10786   3.11111   3.11323
  Beta virt. eigenvalues --    3.12935   3.13342   3.14523   3.14923   3.15265
  Beta virt. eigenvalues --    3.15636   3.16273   3.17143   3.19581   3.20122
  Beta virt. eigenvalues --    3.20965   3.21186   3.21476   3.22640   3.22951
  Beta virt. eigenvalues --    3.24247   3.24391   3.25611   3.26123   3.26410
  Beta virt. eigenvalues --    3.26637   3.27261   3.28104   3.30343   3.30779
  Beta virt. eigenvalues --    3.31742   3.31980   3.32551   3.33559   3.34947
  Beta virt. eigenvalues --    3.35936   3.36038   3.37172   3.37840   3.38257
  Beta virt. eigenvalues --    3.39273   3.40065   3.40944   3.41295   3.42385
  Beta virt. eigenvalues --    3.42860   3.44563   3.45576   3.46718   3.48533
  Beta virt. eigenvalues --    3.49001   3.49571   3.50220   3.51528   3.51634
  Beta virt. eigenvalues --    3.51817   3.53029   3.54527   3.56406   3.56762
  Beta virt. eigenvalues --    3.57234   3.58094   3.58851   3.60368   3.61213
  Beta virt. eigenvalues --    3.61652   3.62750   3.63073   3.64353   3.65746
  Beta virt. eigenvalues --    3.67856   3.68012   3.70592   3.71234   3.72875
  Beta virt. eigenvalues --    3.73094   3.77616   3.79096   3.79330   3.79963
  Beta virt. eigenvalues --    3.82139   3.82530   3.83097   3.83450   3.84801
  Beta virt. eigenvalues --    3.86683   3.87783   3.90263   3.90783   3.93863
  Beta virt. eigenvalues --    3.94357   3.95198   3.95715   3.98222   4.02095
  Beta virt. eigenvalues --    4.03535   4.05304   4.06316   4.09454   4.10025
  Beta virt. eigenvalues --    4.11259   4.12390   4.12509   4.14519   4.16734
  Beta virt. eigenvalues --    4.18674   4.18805   4.21995   4.22179   4.23177
  Beta virt. eigenvalues --    4.23344   4.25216   4.26893   4.27727   4.28601
  Beta virt. eigenvalues --    4.30484   4.34723   4.35973   4.36483   4.37687
  Beta virt. eigenvalues --    4.40193   4.43279   4.44864   4.46518   4.49245
  Beta virt. eigenvalues --    4.51021   4.53229   4.53854   4.54987   4.56232
  Beta virt. eigenvalues --    4.57303   4.60364   4.62689   4.63920   4.66973
  Beta virt. eigenvalues --    4.67932   4.69168   4.73302   4.74244   4.76747
  Beta virt. eigenvalues --    4.77507   4.80286   4.80531   4.88233   4.90504
  Beta virt. eigenvalues --    4.91409   4.91635   4.93870   4.95112   4.96103
  Beta virt. eigenvalues --    4.97609   5.04846   5.05279   5.10180   5.11682
  Beta virt. eigenvalues --    5.19512   5.20708   5.24045   5.25798   5.26049
  Beta virt. eigenvalues --    5.31523   5.36309   5.36733   5.37867   5.38412
  Beta virt. eigenvalues --    5.40729   5.43049   5.51759   5.52170   5.54897
  Beta virt. eigenvalues --    5.61926   5.72325   5.72781   5.80368   5.83628
  Beta virt. eigenvalues --    7.94105   7.94940   8.02383   8.04480   8.07574
  Beta virt. eigenvalues --    8.09922   8.11285   8.15366   8.16521   8.22607
  Beta virt. eigenvalues --    8.34044   8.37272  34.75328  34.75870  34.81244
  Beta virt. eigenvalues --   34.82137  34.85537  34.87672  34.98153  34.99351
  Beta virt. eigenvalues --   35.01411  35.04418  35.18315  35.22341
          Condensed to atoms (all electrons):
               1          2          3          4          5          6
     1  C    5.244344   0.019233   0.429109  -0.003194   0.001279  -0.007703
     2  C    0.019233   5.310189  -0.001702   0.426652  -0.111261   0.291895
     3  H    0.429109  -0.001702   0.491830   0.000044  -0.000008   0.000151
     4  H   -0.003194   0.426652   0.000044   0.525594  -0.001788  -0.015790
     5  C    0.001279  -0.111261  -0.000008  -0.001788   5.313711   0.283317
     6  C   -0.007703   0.291895   0.000151  -0.015790   0.283317   5.310226
     7  H    0.000073  -0.000471   0.000004   0.000168   0.435204  -0.034999
     8  H   -0.001295  -0.015805  -0.000107   0.001470  -0.048324   0.426666
     9  C    0.002252  -0.064980  -0.000001  -0.006273  -0.048381   0.255306
    10  H   -0.000024   0.007640  -0.000001  -0.000374  -0.001597  -0.044809
    11  H   -0.000296  -0.007113   0.000003   0.000986   0.011842  -0.055276
    12  C   -0.000212   0.008945  -0.000001   0.004651   0.412261  -0.066060
    13  H   -0.000000  -0.000130  -0.000000  -0.000003  -0.030573   0.003698
    14  C    0.000076  -0.007712  -0.000000  -0.001297  -0.056930   0.019241
    15  H   -0.000000   0.000151  -0.000000  -0.000107   0.004489  -0.001704
    16  C   -0.000338   0.015997   0.000000   0.000570  -0.001566  -0.079510
    17  H    0.000038   0.002216  -0.000000  -0.003639   0.007139  -0.009872
    18  H    0.000002  -0.000184   0.000000   0.000379  -0.002233   0.012527
    19  C   -0.056972   0.283337   0.004486  -0.048334   0.002706  -0.111273
    20  H    0.004887  -0.034988  -0.000152  -0.006013  -0.000467  -0.000472
    21  C    0.474419  -0.066073  -0.034131   0.007300   0.000624   0.008942
    22  H   -0.030358   0.003694  -0.005661  -0.000123   0.000053  -0.000130
    23  C   -0.095462   0.255352   0.005489  -0.020393   0.013641  -0.064979
    24  H    0.013254  -0.055295  -0.000078  -0.003337   0.006541  -0.007116
    25  H    0.000288  -0.044801  -0.000121  -0.005207  -0.000478   0.007641
    26  C    0.276326  -0.079521  -0.030425   0.008979  -0.009647   0.015983
    27  H   -0.031001   0.012527  -0.004242  -0.000167   0.000159  -0.000185
    28  H   -0.037080  -0.009871   0.000732  -0.000154  -0.002014   0.002218
               7          8          9         10         11         12
     1  C    0.000073  -0.001295   0.002252  -0.000024  -0.000296  -0.000212
     2  C   -0.000471  -0.015805  -0.064980   0.007640  -0.007113   0.008945
     3  H    0.000004  -0.000107  -0.000001  -0.000001   0.000003  -0.000001
     4  H    0.000168   0.001470  -0.006273  -0.000374   0.000986   0.004651
     5  C    0.435204  -0.048324  -0.048381  -0.001597   0.011842   0.412261
     6  C   -0.034999   0.426666   0.255306  -0.044809  -0.055276  -0.066060
     7  H    0.482497  -0.006014   0.003794   0.000164  -0.000063  -0.036629
     8  H   -0.006014   0.525631  -0.020417  -0.005207  -0.003337   0.007303
     9  C    0.003794  -0.020417   5.005251   0.408875   0.451967   0.027432
    10  H    0.000164  -0.005207   0.408875   0.561505  -0.017305   0.001519
    11  H   -0.000063  -0.003337   0.451967  -0.017305   0.532911  -0.005183
    12  C   -0.036629   0.007303   0.027432   0.001519  -0.005183   5.005682
    13  H   -0.004706  -0.000123   0.000342  -0.000138   0.000038   0.421661
    14  C    0.004887  -0.003195  -0.095471   0.000278   0.013254   0.474337
    15  H   -0.000152   0.000044   0.005488  -0.000121  -0.000078  -0.034175
    16  C   -0.001397   0.008981   0.339892  -0.027241  -0.054246  -0.047714
    17  H   -0.000004  -0.000154  -0.029263   0.005448  -0.005117  -0.008190
    18  H    0.000056  -0.000168  -0.039656  -0.006940  -0.002404   0.004624
    19  C   -0.000467  -0.001793   0.013648  -0.000478   0.006529   0.000623
    20  H    0.000002   0.000168   0.002642   0.000322  -0.002848  -0.000074
    21  C   -0.000074   0.004653  -0.003330  -0.000125   0.000316   0.000030
    22  H   -0.000002  -0.000004  -0.000062  -0.000003  -0.000016   0.000000
    23  C    0.002640  -0.006263   0.008416  -0.000288   0.000173  -0.003332
    24  H   -0.002848   0.000986   0.000173  -0.000026  -0.000011   0.000315
    25  H    0.000322  -0.000374  -0.000288   0.000017  -0.000026  -0.000125
    26  C   -0.001279   0.000562  -0.001879   0.000064   0.000023   0.001328
    27  H   -0.000030   0.000379   0.000024  -0.000001  -0.000003  -0.000017
    28  H    0.002194  -0.003640   0.000789   0.000006   0.000014   0.000048
              13         14         15         16         17         18
     1  C   -0.000000   0.000076  -0.000000  -0.000338   0.000038   0.000002
     2  C   -0.000130  -0.007712   0.000151   0.015997   0.002216  -0.000184
     3  H   -0.000000  -0.000000  -0.000000   0.000000  -0.000000   0.000000
     4  H   -0.000003  -0.001297  -0.000107   0.000570  -0.003639   0.000379
     5  C   -0.030573  -0.056930   0.004489  -0.001566   0.007139  -0.002233
     6  C    0.003698   0.019241  -0.001704  -0.079510  -0.009872   0.012527
     7  H   -0.004706   0.004887  -0.000152  -0.001397  -0.000004   0.000056
     8  H   -0.000123  -0.003195   0.000044   0.008981  -0.000154  -0.000168
     9  C    0.000342  -0.095471   0.005488   0.339892  -0.029263  -0.039656
    10  H   -0.000138   0.000278  -0.000121  -0.027241   0.005448  -0.006940
    11  H    0.000038   0.013254  -0.000078  -0.054246  -0.005117  -0.002404
    12  C    0.421661   0.474337  -0.034175  -0.047714  -0.008190   0.004624
    13  H    0.499099  -0.030362  -0.005662   0.004709  -0.000411  -0.000147
    14  C   -0.030362   5.244436   0.429135   0.276289  -0.037091  -0.030993
    15  H   -0.005662   0.429135   0.491825  -0.030408   0.000732  -0.004241
    16  C    0.004709   0.276289  -0.030408   4.969045   0.400684   0.417058
    17  H   -0.000411  -0.037091   0.000732   0.400684   0.582958  -0.023367
    18  H   -0.000147  -0.030993  -0.004241   0.417058  -0.023367   0.548242
    19  C    0.000054   0.001280  -0.000008  -0.009651  -0.002014   0.000159
    20  H   -0.000002   0.000073   0.000004  -0.001278   0.002194  -0.000030
    21  C    0.000000  -0.000212  -0.000001   0.001327   0.000048  -0.000017
    22  H    0.000000  -0.000000  -0.000000   0.000004  -0.000005  -0.000001
    23  C   -0.000062   0.002253  -0.000001  -0.001879   0.000789   0.000024
    24  H   -0.000016  -0.000296   0.000003   0.000022   0.000014  -0.000003
    25  H   -0.000003  -0.000024  -0.000001   0.000064   0.000006  -0.000001
    26  C    0.000004  -0.000338   0.000000   0.000379  -0.000046  -0.000001
    27  H   -0.000001   0.000002   0.000000  -0.000001   0.000001  -0.000000
    28  H   -0.000005   0.000038  -0.000000  -0.000046  -0.000005   0.000001
              19         20         21         22         23         24
     1  C   -0.056972   0.004887   0.474419  -0.030358  -0.095462   0.013254
     2  C    0.283337  -0.034988  -0.066073   0.003694   0.255352  -0.055295
     3  H    0.004486  -0.000152  -0.034131  -0.005661   0.005489  -0.000078
     4  H   -0.048334  -0.006013   0.007300  -0.000123  -0.020393  -0.003337
     5  C    0.002706  -0.000467   0.000624   0.000053   0.013641   0.006541
     6  C   -0.111273  -0.000472   0.008942  -0.000130  -0.064979  -0.007116
     7  H   -0.000467   0.000002  -0.000074  -0.000002   0.002640  -0.002848
     8  H   -0.001793   0.000168   0.004653  -0.000004  -0.006263   0.000986
     9  C    0.013648   0.002642  -0.003330  -0.000062   0.008416   0.000173
    10  H   -0.000478   0.000322  -0.000125  -0.000003  -0.000288  -0.000026
    11  H    0.006529  -0.002848   0.000316  -0.000016   0.000173  -0.000011
    12  C    0.000623  -0.000074   0.000030   0.000000  -0.003332   0.000315
    13  H    0.000054  -0.000002   0.000000   0.000000  -0.000062  -0.000016
    14  C    0.001280   0.000073  -0.000212  -0.000000   0.002253  -0.000296
    15  H   -0.000008   0.000004  -0.000001  -0.000000  -0.000001   0.000003
    16  C   -0.009651  -0.001278   0.001327   0.000004  -0.001879   0.000022
    17  H   -0.002014   0.002194   0.000048  -0.000005   0.000789   0.000014
    18  H    0.000159  -0.000030  -0.000017  -0.000001   0.000024  -0.000003
    19  C    5.313684   0.435196   0.412318  -0.030570  -0.048393   0.011841
    20  H    0.435196   0.482438  -0.036629  -0.004706   0.003794  -0.000063
    21  C    0.412318  -0.036629   5.005656   0.421658   0.027428  -0.005183
    22  H   -0.030570  -0.004706   0.421658   0.499076   0.000341   0.000038
    23  C   -0.048393   0.003794   0.027428   0.000341   5.005090   0.451956
    24  H    0.011841  -0.000063  -0.005183   0.000038   0.451956   0.533070
    25  H   -0.001590   0.000164   0.001515  -0.000137   0.408869  -0.017312
    26  C   -0.001540  -0.001397  -0.047742   0.004709   0.339911  -0.054255
    27  H   -0.002233   0.000056   0.004628  -0.000147  -0.039643  -0.002405
    28  H    0.007136  -0.000004  -0.008191  -0.000411  -0.029261  -0.005119
              25         26         27         28
     1  C    0.000288   0.276326  -0.031001  -0.037080
     2  C   -0.044801  -0.079521   0.012527  -0.009871
     3  H   -0.000121  -0.030425  -0.004242   0.000732
     4  H   -0.005207   0.008979  -0.000167  -0.000154
     5  C   -0.000478  -0.009647   0.000159  -0.002014
     6  C    0.007641   0.015983  -0.000185   0.002218
     7  H    0.000322  -0.001279  -0.000030   0.002194
     8  H   -0.000374   0.000562   0.000379  -0.003640
     9  C   -0.000288  -0.001879   0.000024   0.000789
    10  H    0.000017   0.000064  -0.000001   0.000006
    11  H   -0.000026   0.000023  -0.000003   0.000014
    12  C   -0.000125   0.001328  -0.000017   0.000048
    13  H   -0.000003   0.000004  -0.000001  -0.000005
    14  C   -0.000024  -0.000338   0.000002   0.000038
    15  H   -0.000001   0.000000   0.000000  -0.000000
    16  C    0.000064   0.000379  -0.000001  -0.000046
    17  H    0.000006  -0.000046   0.000001  -0.000005
    18  H   -0.000001  -0.000001  -0.000000   0.000001
    19  C   -0.001590  -0.001540  -0.002233   0.007136
    20  H    0.000164  -0.001397   0.000056  -0.000004
    21  C    0.001515  -0.047742   0.004628  -0.008191
    22  H   -0.000137   0.004709  -0.000147  -0.000411
    23  C    0.408869   0.339911  -0.039643  -0.029261
    24  H   -0.017312  -0.054255  -0.002405  -0.005119
    25  H    0.561480  -0.027242  -0.006938   0.005448
    26  C   -0.027242   4.969053   0.417054   0.400675
    27  H   -0.006938   0.417054   0.548233  -0.023371
    28  H    0.005448   0.400675  -0.023371   0.582958
          Atomic-Atomic Spin Densities.
               1          2          3          4          5          6
     1  C   -0.639695  -0.004098   0.000843  -0.000126   0.000061  -0.006334
     2  C   -0.004098   0.191267  -0.000144  -0.004388  -0.069520  -0.000007
     3  H    0.000843  -0.000144   0.023179   0.000001   0.000002   0.000034
     4  H   -0.000126  -0.004388   0.000001  -0.012948   0.004465   0.010153
     5  C    0.000061  -0.069520   0.000002   0.004465   0.768298  -0.037218
     6  C   -0.006334  -0.000007   0.000034   0.010153  -0.037218  -0.191273
     7  H    0.000001   0.000397   0.000000   0.000009  -0.002316   0.000254
     8  H    0.002044  -0.010155   0.000004   0.000000   0.000581   0.004387
     9  C   -0.000006  -0.013773   0.000000  -0.001196  -0.001569   0.013283
    10  H   -0.000049   0.000618  -0.000000   0.000028  -0.001411   0.000931
    11  H    0.000300   0.001164  -0.000001  -0.000123   0.000036   0.002538
    12  C    0.000097   0.010931  -0.000000  -0.002323  -0.013515   0.013814
    13  H    0.000000   0.000202  -0.000000  -0.000036  -0.001419   0.000420
    14  C    0.000000   0.006333  -0.000000  -0.002044  -0.055898   0.004096
    15  H    0.000000  -0.000034   0.000000  -0.000004  -0.000300   0.000144
    16  C    0.000028  -0.001802   0.000000   0.001130   0.006366  -0.002548
    17  H   -0.000017  -0.003958   0.000000   0.000922   0.004915  -0.003554
    18  H    0.000001   0.000342   0.000000  -0.000060  -0.000426   0.000895
    19  C    0.055900   0.037237   0.000301  -0.000581  -0.000002   0.069515
    20  H    0.000293  -0.000254  -0.000006  -0.000362  -0.000090  -0.000398
    21  C   -0.006886  -0.013818  -0.000382   0.001398   0.001232  -0.010926
    22  H    0.000795  -0.000420  -0.000248   0.000027   0.000013  -0.000202
    23  C   -0.002886  -0.013276   0.000277  -0.004244   0.001252   0.013779
    24  H   -0.000170  -0.002542  -0.000004   0.000339   0.003475  -0.001165
    25  H    0.000736  -0.000932   0.000001   0.000079  -0.000680  -0.000619
    26  C    0.031030   0.002550  -0.001045  -0.000098   0.000590   0.001801
    27  H    0.007232  -0.000896  -0.000173   0.000052   0.000002  -0.000342
    28  H    0.019557   0.003556   0.000051  -0.000223  -0.000171   0.003958
               7          8          9         10         11         12
     1  C    0.000001   0.002044  -0.000006  -0.000049   0.000300   0.000097
     2  C    0.000397  -0.010155  -0.013773   0.000618   0.001164   0.010931
     3  H    0.000000   0.000004   0.000000  -0.000000  -0.000001  -0.000000
     4  H    0.000009   0.000000  -0.001196   0.000028  -0.000123  -0.002323
     5  C   -0.002316   0.000581  -0.001569  -0.001411   0.000036  -0.013515
     6  C    0.000254   0.004387   0.013283   0.000931   0.002538   0.013814
     7  H   -0.025676   0.000362  -0.000261  -0.000021   0.000007   0.001959
     8  H    0.000362   0.012950   0.004243  -0.000079  -0.000339  -0.001398
     9  C   -0.000261   0.004243   0.009696  -0.002313  -0.001021  -0.003914
    10  H   -0.000021  -0.000079  -0.002313  -0.002024   0.001024   0.000956
    11  H    0.000007  -0.000339  -0.001021   0.001024  -0.001495  -0.000111
    12  C    0.001959  -0.001398  -0.003914   0.000956  -0.000111  -0.239726
    13  H    0.000265  -0.000027  -0.000149   0.000023  -0.000002   0.001691
    14  C   -0.000293   0.000126   0.002889  -0.000736   0.000170   0.006892
    15  H    0.000006  -0.000001  -0.000277  -0.000001   0.000004   0.000384
    16  C    0.000056   0.000098   0.005928   0.000805  -0.000192   0.003619
    17  H   -0.000017   0.000223  -0.001865   0.000087  -0.000264  -0.001276
    18  H    0.000001  -0.000052   0.002493  -0.000373   0.000184   0.000966
    19  C    0.000090  -0.004465  -0.001257   0.000681  -0.003469  -0.001231
    20  H    0.000000  -0.000009   0.000156   0.000014  -0.000173   0.000031
    21  C   -0.000031   0.002323   0.000067  -0.000079   0.000306  -0.000000
    22  H   -0.000000   0.000036  -0.000004  -0.000001   0.000016  -0.000000
    23  C   -0.000156   0.001197  -0.000000  -0.000002  -0.000198  -0.000067
    24  H    0.000174   0.000124   0.000198  -0.000004   0.000000  -0.000306
    25  H   -0.000014  -0.000028   0.000002  -0.000000   0.000004   0.000078
    26  C    0.000138  -0.001130  -0.000054   0.000019  -0.000046  -0.000255
    27  H    0.000005   0.000060   0.000008  -0.000000   0.000002   0.000011
    28  H   -0.000069  -0.000922  -0.000145   0.000014  -0.000045  -0.000152
              13         14         15         16         17         18
     1  C    0.000000   0.000000   0.000000   0.000028  -0.000017   0.000001
     2  C    0.000202   0.006333  -0.000034  -0.001802  -0.003958   0.000342
     3  H   -0.000000  -0.000000   0.000000   0.000000   0.000000   0.000000
     4  H   -0.000036  -0.002044  -0.000004   0.001130   0.000922  -0.000060
     5  C   -0.001419  -0.055898  -0.000300   0.006366   0.004915  -0.000426
     6  C    0.000420   0.004096   0.000144  -0.002548  -0.003554   0.000895
     7  H    0.000265  -0.000293   0.000006   0.000056  -0.000017   0.000001
     8  H   -0.000027   0.000126  -0.000001   0.000098   0.000223  -0.000052
     9  C   -0.000149   0.002889  -0.000277   0.005928  -0.001865   0.002493
    10  H    0.000023  -0.000736  -0.000001   0.000805   0.000087  -0.000373
    11  H   -0.000002   0.000170   0.000004  -0.000192  -0.000264   0.000184
    12  C    0.001691   0.006892   0.000384   0.003619  -0.001276   0.000966
    13  H    0.008489  -0.000795   0.000248   0.000064  -0.000048   0.000020
    14  C   -0.000795   0.639684  -0.000845  -0.031034  -0.019556  -0.007231
    15  H    0.000248  -0.000845  -0.023178   0.001043  -0.000051   0.000173
    16  C    0.000064  -0.031034   0.001043  -0.033090   0.011402   0.004404
    17  H   -0.000048  -0.019556  -0.000051   0.011402   0.050606  -0.008089
    18  H    0.000020  -0.007231   0.000173   0.004404  -0.008089   0.019676
    19  C   -0.000013  -0.000061  -0.000002  -0.000590   0.000171  -0.000002
    20  H    0.000000  -0.000001  -0.000000  -0.000138   0.000069  -0.000005
    21  C    0.000000  -0.000097   0.000000   0.000255   0.000152  -0.000011
    22  H   -0.000000  -0.000000   0.000000   0.000004   0.000002  -0.000000
    23  C    0.000004   0.000006  -0.000000   0.000054   0.000145  -0.000008
    24  H   -0.000016  -0.000301   0.000001   0.000046   0.000045  -0.000002
    25  H    0.000001   0.000049   0.000000  -0.000019  -0.000014   0.000000
    26  C   -0.000004  -0.000028  -0.000000   0.000000   0.000017  -0.000001
    27  H    0.000000  -0.000001  -0.000000   0.000001  -0.000000  -0.000000
    28  H   -0.000002   0.000017  -0.000000  -0.000017   0.000000   0.000000
              19         20         21         22         23         24
     1  C    0.055900   0.000293  -0.006886   0.000795  -0.002886  -0.000170
     2  C    0.037237  -0.000254  -0.013818  -0.000420  -0.013276  -0.002542
     3  H    0.000301  -0.000006  -0.000382  -0.000248   0.000277  -0.000004
     4  H   -0.000581  -0.000362   0.001398   0.000027  -0.004244   0.000339
     5  C   -0.000002  -0.000090   0.001232   0.000013   0.001252   0.003475
     6  C    0.069515  -0.000398  -0.010926  -0.000202   0.013779  -0.001165
     7  H    0.000090   0.000000  -0.000031  -0.000000  -0.000156   0.000174
     8  H   -0.004465  -0.000009   0.002323   0.000036   0.001197   0.000124
     9  C   -0.001257   0.000156   0.000067  -0.000004  -0.000000   0.000198
    10  H    0.000681   0.000014  -0.000079  -0.000001  -0.000002  -0.000004
    11  H   -0.003469  -0.000173   0.000306   0.000016  -0.000198   0.000000
    12  C   -0.001231   0.000031  -0.000000  -0.000000  -0.000067  -0.000306
    13  H   -0.000013   0.000000   0.000000  -0.000000   0.000004  -0.000016
    14  C   -0.000061  -0.000001  -0.000097  -0.000000   0.000006  -0.000301
    15  H   -0.000002  -0.000000   0.000000   0.000000  -0.000000   0.000001
    16  C   -0.000590  -0.000138   0.000255   0.000004   0.000054   0.000046
    17  H    0.000171   0.000069   0.000152   0.000002   0.000145   0.000045
    18  H   -0.000002  -0.000005  -0.000011  -0.000000  -0.000008  -0.000002
    19  C   -0.768288   0.002318   0.013501   0.001420   0.001562  -0.000036
    20  H    0.002318   0.025673  -0.001960  -0.000265   0.000261  -0.000007
    21  C    0.013501  -0.001960   0.239734  -0.001691   0.003915   0.000111
    22  H    0.001420  -0.000265  -0.001691  -0.008489   0.000149   0.000002
    23  C    0.001562   0.000261   0.003915   0.000149  -0.009698   0.001021
    24  H   -0.000036  -0.000007   0.000111   0.000002   0.001021   0.001496
    25  H    0.001411   0.000021  -0.000956  -0.000023   0.002314  -0.001025
    26  C   -0.006367  -0.000056  -0.003618  -0.000064  -0.005931   0.000192
    27  H    0.000426  -0.000001  -0.000965  -0.000020  -0.002494  -0.000184
    28  H   -0.004915   0.000017   0.001274   0.000048   0.001864   0.000265
              25         26         27         28
     1  C    0.000736   0.031030   0.007232   0.019557
     2  C   -0.000932   0.002550  -0.000896   0.003556
     3  H    0.000001  -0.001045  -0.000173   0.000051
     4  H    0.000079  -0.000098   0.000052  -0.000223
     5  C   -0.000680   0.000590   0.000002  -0.000171
     6  C   -0.000619   0.001801  -0.000342   0.003958
     7  H   -0.000014   0.000138   0.000005  -0.000069
     8  H   -0.000028  -0.001130   0.000060  -0.000922
     9  C    0.000002  -0.000054   0.000008  -0.000145
    10  H   -0.000000   0.000019  -0.000000   0.000014
    11  H    0.000004  -0.000046   0.000002  -0.000045
    12  C    0.000078  -0.000255   0.000011  -0.000152
    13  H    0.000001  -0.000004   0.000000  -0.000002
    14  C    0.000049  -0.000028  -0.000001   0.000017
    15  H    0.000000  -0.000000  -0.000000  -0.000000
    16  C   -0.000019   0.000000   0.000001  -0.000017
    17  H   -0.000014   0.000017  -0.000000   0.000000
    18  H    0.000000  -0.000001  -0.000000   0.000000
    19  C    0.001411  -0.006367   0.000426  -0.004915
    20  H    0.000021  -0.000056  -0.000001   0.000017
    21  C   -0.000956  -0.003618  -0.000965   0.001274
    22  H   -0.000023  -0.000064  -0.000020   0.000048
    23  C    0.002314  -0.005931  -0.002494   0.001864
    24  H   -0.001025   0.000192  -0.000184   0.000265
    25  H    0.002023  -0.000804   0.000373  -0.000087
    26  C   -0.000804   0.033097  -0.004405  -0.011402
    27  H    0.000373  -0.004405  -0.019676   0.008090
    28  H   -0.000087  -0.011402   0.008090  -0.050609
 Mulliken charges and spin densities:
               1          2
     1  C   -0.201645  -0.541350
     2  C   -0.137922   0.114583
     3  H    0.144782   0.022691
     4  H    0.139400  -0.010154
     5  C   -0.177699   0.606753
     6  C   -0.137934  -0.114583
     7  H    0.157130  -0.025131
     8  H    0.139375   0.010155
     9  C   -0.216290   0.011161
    10  H    0.118839  -0.001894
    11  H    0.135265  -0.001722
    12  C   -0.169047  -0.222847
    13  H    0.142741   0.008916
    14  C   -0.201657   0.541341
    15  H    0.144788  -0.022691
    16  C   -0.179748  -0.034126
    17  H    0.116911   0.030047
    18  H    0.127313   0.012897
    19  C   -0.177681  -0.606746
    20  H    0.157182   0.025130
    21  C   -0.169154   0.222850
    22  H    0.142761  -0.008916
    23  C   -0.216213  -0.011161
    24  H    0.135149   0.001724
    25  H    0.118855   0.001894
    26  C   -0.179737   0.034126
    27  H    0.127323  -0.012897
    28  H    0.116915  -0.030048
 Sum of Mulliken charges =  -0.00000   0.00000
 Mulliken charges and spin densities with hydrogens summed into heavy atoms:
               1          2
     1  C   -0.056863  -0.518659
     2  C    0.001478   0.104428
     5  C   -0.020570   0.581622
     6  C    0.001440  -0.104428
     9  C    0.037814   0.007546
    12  C   -0.026307  -0.213932
    14  C   -0.056868   0.518650
    16  C    0.064476   0.008818
    19  C   -0.020499  -0.581616
    21  C   -0.026393   0.213934
    23  C    0.037791  -0.007544
    26  C    0.064501  -0.008819
 Electronic spatial extent (au):  <R**2>=           2185.4216
 Charge=             -0.0000 electrons
 Dipole moment (field-independent basis, Debye):
    X=              0.0004    Y=             -0.0005    Z=             -0.0004  Tot=              0.0008
 Quadrupole moment (field-independent basis, Debye-Ang):
   XX=            -72.2330   YY=            -71.1186   ZZ=            -76.3499
   XY=             -2.7035   XZ=             -3.0502   YZ=             -0.4269
 Traceless Quadrupole moment (field-independent basis, Debye-Ang):
   XX=              1.0008   YY=              2.1152   ZZ=             -3.1160
   XY=             -2.7035   XZ=             -3.0502   YZ=             -0.4269
 Octapole moment (field-independent basis, Debye-Ang**2):
  XXX=              0.0086  YYY=             -0.0042  ZZZ=             -0.0017  XYY=              0.0006
  XXY=             -0.0017  XXZ=             -0.0013  XZZ=             -0.0009  YZZ=             -0.0005
  YYZ=             -0.0004  XYZ=              0.0001
 Hexadecapole moment (field-independent basis, Debye-Ang**3):
 XXXX=          -2019.4916 YYYY=           -640.0382 ZZZZ=           -304.7915 XXXY=            -91.2372
 XXXZ=           -113.5847 YYYX=            -60.3903 YYYZ=              0.4415 ZZZX=            -63.4520
 ZZZY=             -6.8686 XXYY=           -442.6706 XXZZ=           -415.4765 YYZZ=           -172.3994
 XXYZ=            -20.2669 YYXZ=            -25.2261 ZZXY=            -40.8899
 N-N= 6.927315438308D+02 E-N=-2.466946029067D+03  KE= 4.639413444359D+02
                          Isotropic Fermi Contact Couplings
        Atom                 a.u.       MegaHertz       Gauss      10(-4) cm-1
     1  C(13)             -0.04121     -23.16376      -8.26541      -7.72660
     2  C(13)              0.07110      39.96290      14.25976      13.33019
     3  H(1)               0.00814      18.18186       6.48774       6.06481
     4  H(1)              -0.00541     -12.09765      -4.31674      -4.03534
     5  C(13)              0.04692      26.37544       9.41141       8.79790
     6  C(13)             -0.07110     -39.96360     -14.26001     -13.33042
     7  H(1)              -0.00918     -20.51373      -7.31981      -6.84264
     8  H(1)               0.00541      12.09768       4.31675       4.03535
     9  C(13)              0.00588       3.30719       1.18009       1.10316
    10  H(1)              -0.00121      -2.69819      -0.96278      -0.90002
    11  H(1)              -0.00044      -0.97560      -0.34812      -0.32542
    12  C(13)             -0.04164     -23.40316      -8.35083      -7.80646
    13  H(1)               0.00288       6.44754       2.30064       2.15067
    14  C(13)              0.04121      23.16326       8.26523       7.72643
    15  H(1)              -0.00814     -18.18168      -6.48768      -6.06476
    16  C(13)             -0.01739      -9.77506      -3.48799      -3.26061
    17  H(1)               0.01462      32.66455      11.65552      10.89572
    18  H(1)               0.00615      13.74293       4.90382       4.58415
    19  C(13)             -0.04692     -26.37519      -9.41132      -8.79782
    20  H(1)               0.00918      20.51389       7.31987       6.84270
    21  C(13)              0.04164      23.40333       8.35089       7.80651
    22  H(1)              -0.00288      -6.44766      -2.30068      -2.15071
    23  C(13)             -0.00588      -3.30708      -1.18005      -1.10312
    24  H(1)               0.00044       0.97558       0.34811       0.32542
    25  H(1)               0.00121       2.69814       0.96276       0.90000
    26  C(13)              0.01739       9.77523       3.48805       3.26067
    27  H(1)              -0.00615     -13.74316      -4.90390      -4.58423
    28  H(1)              -0.01462     -32.66494     -11.65566     -10.89585
 --------------------------------------------------------
       Center         ----  Spin Dipole Couplings  ----
                      3XX-RR        3YY-RR        3ZZ-RR
 --------------------------------------------------------
     1   Atom        0.119296      0.319758     -0.439054
     2   Atom       -0.016494     -0.059960      0.076454
     3   Atom       -0.031252      0.040596     -0.009343
     4   Atom       -0.000294     -0.008201      0.008496
     5   Atom       -0.224866     -0.356827      0.581694
     6   Atom        0.016493      0.059960     -0.076453
     7   Atom       -0.016680      0.015598      0.001082
     8   Atom        0.000295      0.008201     -0.008496
     9   Atom       -0.000601      0.007073     -0.006472
    10   Atom       -0.004034      0.003374      0.000661
    11   Atom       -0.005438      0.006377     -0.000939
    12   Atom        0.068307      0.099445     -0.167752
    13   Atom        0.007235     -0.002538     -0.004697
    14   Atom       -0.119292     -0.319752      0.439044
    15   Atom        0.031252     -0.040595      0.009343
    16   Atom       -0.004788      0.002672      0.002116
    17   Atom       -0.007654      0.008375     -0.000721
    18   Atom       -0.005898      0.009764     -0.003865
    19   Atom        0.224861      0.356824     -0.581685
    20   Atom        0.016680     -0.015598     -0.001082
    21   Atom       -0.068308     -0.099445      0.167753
    22   Atom       -0.007236      0.002539      0.004697
    23   Atom        0.000600     -0.007072      0.006472
    24   Atom        0.005438     -0.006377      0.000939
    25   Atom        0.004034     -0.003374     -0.000661
    26   Atom        0.004788     -0.002672     -0.002115
    27   Atom        0.005899     -0.009764      0.003865
    28   Atom        0.007654     -0.008375      0.000721
 --------------------------------------------------------
                        XY            XZ            YZ
 --------------------------------------------------------
     1   Atom        0.002921     -0.375642      0.009591
     2   Atom        0.014369      0.079336      0.035529
     3   Atom       -0.007594      0.016346      0.004569
     4   Atom       -0.004462      0.001859      0.008538
     5   Atom       -0.029697      0.353202     -0.044650
     6   Atom       -0.014369     -0.079336     -0.035529
     7   Atom       -0.042622      0.005412      0.014039
     8   Atom        0.004462     -0.001859     -0.008538
     9   Atom       -0.012104     -0.011392      0.003426
    10   Atom       -0.000712     -0.003577     -0.004987
    11   Atom        0.004463     -0.007815     -0.000130
    12   Atom       -0.009598     -0.127330      0.019535
    13   Atom       -0.007301     -0.007615      0.003073
    14   Atom       -0.002921      0.375637     -0.009591
    15   Atom        0.007593     -0.016346     -0.004569
    16   Atom        0.001865      0.006822     -0.000467
    17   Atom        0.004092      0.001795      0.004788
    18   Atom       -0.002249     -0.000682     -0.002444
    19   Atom        0.029698     -0.353202      0.044651
    20   Atom        0.042621     -0.005411     -0.014039
    21   Atom        0.009599      0.127329     -0.019534
    22   Atom        0.007301      0.007615     -0.003073
    23   Atom        0.012104      0.011392     -0.003426
    24   Atom       -0.004463      0.007815      0.000130
    25   Atom        0.000712      0.003577      0.004987
    26   Atom       -0.001865     -0.006822      0.000467
    27   Atom        0.002249      0.000682      0.002444
    28   Atom       -0.004092     -0.001795     -0.004788
 --------------------------------------------------------


 ---------------------------------------------------------------------------------
              Anisotropic Spin Dipole Couplings in Principal Axis System
 ---------------------------------------------------------------------------------

       Atom             a.u.   MegaHertz   Gauss  10(-4) cm-1        Axes

              Baa    -0.6280   -84.272   -30.070   -28.110  0.4491 -0.0104  0.8934
     1 C(13)  Bbb     0.3079    41.318    14.743    13.782  0.8852  0.1406 -0.4434
              Bcc     0.3201    42.955    15.327    14.328 -0.1210  0.9900  0.0724
 
              Baa    -0.0706    -9.472    -3.380    -3.160  0.3591  0.8443 -0.3978
     2 C(13)  Bbb    -0.0590    -7.911    -2.823    -2.639  0.7986 -0.4985 -0.3371
              Bcc     0.1295    17.383     6.203     5.798  0.4829  0.1966  0.8533
 
              Baa    -0.0409   -21.842    -7.794    -7.286  0.8765  0.1079 -0.4691
     3 H(1)   Bbb    -0.0006    -0.334    -0.119    -0.111  0.4729 -0.0106  0.8811
              Bcc     0.0416    22.175     7.913     7.397 -0.0901  0.9941  0.0603
 
              Baa    -0.0136    -7.233    -2.581    -2.413  0.3425  0.8661 -0.3642
     4 H(1)   Bbb     0.0015     0.783     0.279     0.261  0.9395 -0.3151  0.1342
              Bcc     0.0121     6.450     2.301     2.151 -0.0015  0.3881  0.9216
 
              Baa    -0.3706   -49.733   -17.746   -16.589  0.6506  0.7307 -0.2070
     5 C(13)  Bbb    -0.3464   -46.486   -16.588   -15.506 -0.6729  0.6810  0.2888
              Bcc     0.7170    96.220    34.334    32.096  0.3520 -0.0486  0.9347
 
              Baa    -0.1295   -17.383    -6.203    -5.798  0.4829  0.1966  0.8533
     6 C(13)  Bbb     0.0590     7.911     2.823     2.639  0.7986 -0.4985 -0.3371
              Bcc     0.0706     9.472     3.380     3.160  0.3591  0.8443 -0.3978
 
              Baa    -0.0492   -26.269    -9.373    -8.762  0.7855  0.5691 -0.2433
     7 H(1)   Bbb     0.0026     1.368     0.488     0.456  0.3078 -0.0182  0.9513
              Bcc     0.0467    24.901     8.885     8.306 -0.5369  0.8221  0.1894
 
              Baa    -0.0121    -6.450    -2.301    -2.151 -0.0015  0.3881  0.9216
     8 H(1)   Bbb    -0.0015    -0.783    -0.279    -0.261  0.9395 -0.3151  0.1342
              Bcc     0.0136     7.233     2.581     2.413  0.3425  0.8661 -0.3642
 
              Baa    -0.0165    -2.217    -0.791    -0.740  0.6818  0.2499  0.6875
     9 C(13)  Bbb    -0.0031    -0.418    -0.149    -0.139  0.3881  0.6730 -0.6296
              Bcc     0.0196     2.635     0.940     0.879 -0.6201  0.6961  0.3619
 
              Baa    -0.0070    -3.735    -1.333    -1.246  0.7590  0.3237  0.5650
    10 H(1)   Bbb    -0.0004    -0.230    -0.082    -0.077  0.6332 -0.5691 -0.5246
              Bcc     0.0074     3.965     1.415     1.323  0.1517  0.7559 -0.6368
 
              Baa    -0.0120    -6.402    -2.285    -2.136  0.8027 -0.1910  0.5650
    11 H(1)   Bbb     0.0031     1.639     0.585     0.547 -0.3878  0.5526  0.7378
              Bcc     0.0089     4.764     1.700     1.589  0.4530  0.8113 -0.3695
 
              Baa    -0.2240   -30.053   -10.724   -10.024  0.3978 -0.0436  0.9164
    12 C(13)  Bbb     0.0915    12.284     4.383     4.098  0.4342  0.8889 -0.1462
              Bcc     0.1324    17.768     6.340     5.927  0.8082 -0.4561 -0.3725
 
              Baa    -0.0085    -4.521    -1.613    -1.508  0.4890  0.1573  0.8580
    13 H(1)   Bbb    -0.0061    -3.267    -1.166    -1.090  0.2983  0.8941 -0.3340
              Bcc     0.0146     7.788     2.779     2.598  0.8197 -0.4193 -0.3903
 
              Baa    -0.3201   -42.954   -15.327   -14.328 -0.1210  0.9900  0.0724
    14 C(13)  Bbb    -0.3079   -41.317   -14.743   -13.782  0.8852  0.1406 -0.4434
              Bcc     0.6280    84.271    30.070    28.110  0.4491 -0.0104  0.8934
 
              Baa    -0.0416   -22.175    -7.913    -7.397 -0.0901  0.9941  0.0603
    15 H(1)   Bbb     0.0006     0.333     0.119     0.111  0.4729 -0.0105  0.8811
              Bcc     0.0409    21.841     7.794     7.285  0.8765  0.1079 -0.4691
 
              Baa    -0.0093    -1.243    -0.444    -0.415  0.8449 -0.1521 -0.5128
    16 C(13)  Bbb     0.0029     0.384     0.137     0.128  0.0430  0.9749 -0.2183
              Bcc     0.0064     0.860     0.307     0.287  0.5331  0.1624  0.8303
 
              Baa    -0.0087    -4.641    -1.656    -1.548  0.9738 -0.2068 -0.0950
    17 H(1)   Bbb    -0.0028    -1.481    -0.529    -0.494  0.0054 -0.3962  0.9181
              Bcc     0.0115     6.122     2.185     2.042  0.2275  0.8946  0.3847
 
              Baa    -0.0066    -3.541    -1.264    -1.181  0.9059  0.1813  0.3828
    18 H(1)   Bbb    -0.0038    -2.040    -0.728    -0.680 -0.4038  0.0968  0.9097
              Bcc     0.0105     5.581     1.991     1.861 -0.1279  0.9787 -0.1609
 
              Baa    -0.7170   -96.219   -34.333   -32.095  0.3520 -0.0486  0.9347
    19 C(13)  Bbb     0.3464    46.486    16.587    15.506 -0.6729  0.6810  0.2888
              Bcc     0.3706    49.733    17.746    16.589  0.6506  0.7307 -0.2070
 
              Baa    -0.0467   -24.901    -8.885    -8.306 -0.5369  0.8221  0.1894
    20 H(1)   Bbb    -0.0026    -1.368    -0.488    -0.456  0.3078 -0.0182  0.9513
              Bcc     0.0492    26.269     9.373     8.762  0.7855  0.5691 -0.2433
 
              Baa    -0.1324   -17.769    -6.340    -5.927  0.8082 -0.4561 -0.3725
    21 C(13)  Bbb    -0.0915   -12.284    -4.383    -4.098  0.4342  0.8889 -0.1462
              Bcc     0.2240    30.053    10.724    10.025  0.3978 -0.0435  0.9164
 
              Baa    -0.0146    -7.788    -2.779    -2.598  0.8197 -0.4193 -0.3903
    22 H(1)   Bbb     0.0061     3.267     1.166     1.090  0.2983  0.8941 -0.3339
              Bcc     0.0085     4.521     1.613     1.508  0.4890  0.1572  0.8580
 
              Baa    -0.0196    -2.635    -0.940    -0.879 -0.6201  0.6961  0.3619
    23 C(13)  Bbb     0.0031     0.418     0.149     0.139  0.3881  0.6731 -0.6296
              Bcc     0.0165     2.217     0.791     0.740  0.6818  0.2499  0.6875
 
              Baa    -0.0089    -4.764    -1.700    -1.589  0.4531  0.8113 -0.3695
    24 H(1)   Bbb    -0.0031    -1.639    -0.585    -0.547 -0.3878  0.5526  0.7378
              Bcc     0.0120     6.402     2.285     2.136  0.8027 -0.1909  0.5650
 
              Baa    -0.0074    -3.965    -1.415    -1.323  0.1517  0.7559 -0.6368
    25 H(1)   Bbb     0.0004     0.230     0.082     0.077  0.6332 -0.5691 -0.5246
              Bcc     0.0070     3.735     1.333     1.246  0.7589  0.3237  0.5650
 
              Baa    -0.0064    -0.859    -0.307    -0.287  0.5332  0.1625  0.8303
    26 C(13)  Bbb    -0.0029    -0.384    -0.137    -0.128  0.0429  0.9749 -0.2184
              Bcc     0.0093     1.243     0.444     0.415  0.8449 -0.1521 -0.5128
 
              Baa    -0.0105    -5.581    -1.991    -1.862 -0.1279  0.9787 -0.1609
    27 H(1)   Bbb     0.0038     2.040     0.728     0.680 -0.4038  0.0968  0.9097
              Bcc     0.0066     3.541     1.264     1.181  0.9059  0.1813  0.3828
 
              Baa    -0.0115    -6.122    -2.185    -2.042  0.2275  0.8946  0.3847
    28 H(1)   Bbb     0.0028     1.481     0.529     0.494  0.0054 -0.3962  0.9181
              Bcc     0.0087     4.641     1.656     1.548  0.9738 -0.2068 -0.0950
 

 ---------------------------------------------------------------------------------

 No NMR shielding tensors so no spin-rotation constants.
 Leave Link  601 at Mon Aug  3 16:45:03 2020, MaxMem=  6442450944 cpu:               8.1 elap:               0.4
 (Enter /scratch/scicomp/CentOS/7.3.1611/Haswell/software/Gaussian/g16/l9999.exe)
 1\1\GINC-ATLAS-205\SP\UwB97XD\def2TZVP\C12H16\BOCHEN\03-Aug-2020\0\\#p
  uwb97xd guess=mix def2tzvp # scrf=(iefpcm,solvent=Cyclohexane,read) n
 osym 6d 10f\\endo-2 xp-pcm for eta=3\\0,1\C,0,-3.119734,-0.42693,0.248
 214\C,0,-0.45263,-0.134377,-0.766522\H,0,-4.086028,-0.547352,0.722629\
 H,0,0.332703,-0.111776,-1.521768\C,0,1.115166,1.430657,0.672626\C,0,0.
 45263,0.134377,0.766522\H,0,0.561998,2.331699,0.905522\H,0,-0.332703,0
 .111776,1.521768\C,0,1.457223,-0.998723,0.982555\H,0,1.882127,-0.90424
 1,1.986471\H,0,0.944658,-1.961243,0.946268\C,0,2.397689,1.528359,0.123
 394\H,0,2.825979,2.512496,-0.031045\C,0,3.119734,0.42693,-0.248214\H,0
 ,4.086028,0.547352,-0.722629\C,0,2.592798,-0.959299,-0.042549\H,0,2.24
 6207,-1.358828,-1.004791\H,0,3.401603,-1.624548,0.271052\C,0,-1.115166
 ,-1.430657,-0.672626\H,0,-0.561998,-2.331699,-0.905522\C,0,-2.397689,-
 1.528359,-0.123394\H,0,-2.825979,-2.512496,0.031045\C,0,-1.457223,0.99
 8723,-0.982556\H,0,-0.944658,1.961243,-0.946268\H,0,-1.882127,0.904241
 ,-1.986471\C,0,-2.592798,0.959299,0.042549\H,0,-3.401603,1.624548,-0.2
 71052\H,0,-2.246207,1.358828,1.004791\\Version=ES64L-G16RevB.01\HF=-46
 6.8254048\S2=0.997523\S2-1=0.\S2A=0.481585\RMSD=7.964e-09\Dipole=0.000
 1669,-0.0002077,-0.0001462\Quadrupole=0.74409,1.5726099,-2.3167,-2.009
 9529,-2.2677774,-0.3173957\PG=CI [X(C12H16)]\\@



 WE LOSE BECAUSE WE WIN

 GAMBLERS,

 RECOLLECTING WHICH,

 TOSS THEIR DICE AGAIN....


                          EMILY DICKINSON  BOLTS OF MELODY NO. 533
 Job cpu time:       0 days  1 hours 55 minutes 41.5 seconds.
 Elapsed time:       0 days  0 hours  4 minutes 52.4 seconds.
 File lengths (MBytes):  RWF=    639 Int=      0 D2E=      0 Chk=     23 Scr=      1
 Normal termination of Gaussian 16 at Mon Aug  3 16:45:04 2020.
