 Entering Gaussian System, Link 0=g16
 Input=meso-TS_40_2_pcm.com
 Output=meso-TS_40_2_pcm.log
 Initial command:
 /scratch/scicomp/CentOS/7.3.1611/Haswell/software/Gaussian/g16/l1.exe "/scratch/bochen/cyclohexadiene-dimerization/wb97xd-def2tzvp/xp-pcm/meso/Gau-30258.inp" -scrdir="/scratch/bochen/cyclohexadiene-dimerization/wb97xd-def2tzvp/xp-pcm/meso/"
 Entering Link 1 = /scratch/scicomp/CentOS/7.3.1611/Haswell/software/Gaussian/g16/l1.exe PID=     30259.
  
 Copyright (c) 1988-2017, Gaussian, Inc.  All Rights Reserved.
  
 This is part of the Gaussian(R) 16 program.  It is based on
 the Gaussian(R) 09 system (copyright 2009, Gaussian, Inc.),
 the Gaussian(R) 03 system (copyright 2003, Gaussian, Inc.),
 the Gaussian(R) 98 system (copyright 1998, Gaussian, Inc.),
 the Gaussian(R) 94 system (copyright 1995, Gaussian, Inc.),
 the Gaussian 92(TM) system (copyright 1992, Gaussian, Inc.),
 the Gaussian 90(TM) system (copyright 1990, Gaussian, Inc.),
 the Gaussian 88(TM) system (copyright 1988, Gaussian, Inc.),
 the Gaussian 86(TM) system (copyright 1986, Carnegie Mellon
 University), and the Gaussian 82(TM) system (copyright 1983,
 Carnegie Mellon University). Gaussian is a federally registered
 trademark of Gaussian, Inc.
  
 This software contains proprietary and confidential information,
 including trade secrets, belonging to Gaussian, Inc.
  
 This software is provided under written license and may be
 used, copied, transmitted, or stored only in accord with that
 written license.
  
 The following legend is applicable only to US Government
 contracts under FAR:
  
                    RESTRICTED RIGHTS LEGEND
  
 Use, reproduction and disclosure by the US Government is
 subject to restrictions as set forth in subparagraphs (a)
 and (c) of the Commercial Computer Software - Restricted
 Rights clause in FAR 52.227-19.
  
 Gaussian, Inc.
 340 Quinnipiac St., Bldg. 40, Wallingford CT 06492
  
  
 ---------------------------------------------------------------
 Warning -- This program may not be used in any manner that
 competes with the business of Gaussian, Inc. or will provide
 assistance to any competitor of Gaussian, Inc.  The licensee
 of this program is prohibited from giving any competitor of
 Gaussian, Inc. access to this program.  By using this program,
 the user acknowledges that Gaussian, Inc. is engaged in the
 business of creating and licensing software in the field of
 computational chemistry and represents and warrants to the
 licensee that it is not a competitor of Gaussian, Inc. and that
 it will not use this program in any manner prohibited above.
 ---------------------------------------------------------------
  

 Cite this work as:
 Gaussian 16, Revision B.01,
 M. J. Frisch, G. W. Trucks, H. B. Schlegel, G. E. Scuseria, 
 M. A. Robb, J. R. Cheeseman, G. Scalmani, V. Barone, 
 G. A. Petersson, H. Nakatsuji, X. Li, M. Caricato, A. V. Marenich, 
 J. Bloino, B. G. Janesko, R. Gomperts, B. Mennucci, H. P. Hratchian, 
 J. V. Ortiz, A. F. Izmaylov, J. L. Sonnenberg, D. Williams-Young, 
 F. Ding, F. Lipparini, F. Egidi, J. Goings, B. Peng, A. Petrone, 
 T. Henderson, D. Ranasinghe, V. G. Zakrzewski, J. Gao, N. Rega, 
 G. Zheng, W. Liang, M. Hada, M. Ehara, K. Toyota, R. Fukuda, 
 J. Hasegawa, M. Ishida, T. Nakajima, Y. Honda, O. Kitao, H. Nakai, 
 T. Vreven, K. Throssell, J. A. Montgomery, Jr., J. E. Peralta, 
 F. Ogliaro, M. J. Bearpark, J. J. Heyd, E. N. Brothers, K. N. Kudin, 
 V. N. Staroverov, T. A. Keith, R. Kobayashi, J. Normand, 
 K. Raghavachari, A. P. Rendell, J. C. Burant, S. S. Iyengar, 
 J. Tomasi, M. Cossi, J. M. Millam, M. Klene, C. Adamo, R. Cammi, 
 J. W. Ochterski, R. L. Martin, K. Morokuma, O. Farkas, 
 J. B. Foresman, and D. J. Fox, Gaussian, Inc., Wallingford CT, 2016.
 
 ******************************************
 Gaussian 16:  ES64L-G16RevB.01 20-Dec-2017
                 3-Aug-2020 
 ******************************************
 %nproc=24
 Will use up to   24 processors via shared memory.
 %mem=48GB
 ----------------------------------------------------------------------
 #p uwb97xd guess=mix def2tzvp # scrf=(iefpcm,solvent=Cyclohexane,read)
  nosym 6d 10f
 ----------------------------------------------------------------------
 1/38=1,40=2,172=1/1;
 2/12=2,15=1,17=6,18=5,40=1/2;
 3/5=44,7=101,8=22,11=2,25=1,30=1,70=2203,72=17,74=-58,116=2/1,2,3;
 4/13=-1/1;
 5/5=2,38=5,53=17/2;
 6/7=2,8=2,9=2,10=2,28=1/1;
 99/5=1,9=1/99;
 Leave Link    1 at Mon Aug  3 14:59:43 2020, MaxMem=  6442450944 cpu:               2.9 elap:               0.1
 (Enter /scratch/scicomp/CentOS/7.3.1611/Haswell/software/Gaussian/g16/l101.exe)
 -----------------------
 endo-2 xp-pcm for eta=3
 -----------------------
 Symbolic Z-matrix:
 Charge =  0 Multiplicity = 1
 6                    -3.12689  -0.44089   0.25512 
 6                    -0.68442  -0.23978  -1.16564 
 1                    -4.08122  -0.54015   0.75934 
 1                     0.27956  -0.15138  -1.65003 
 6                     1.13715   1.41976   0.75289 
 6                     0.68442   0.23978   1.16564 
 1                     0.5438    2.31661   0.88265 
 1                    -0.27956   0.15138   1.65003 
 6                     1.52714  -0.99901   1.07056 
 1                     2.02746  -1.11996   2.03974 
 1                     0.89477  -1.87785   0.94887 
 6                     2.44322   1.52599   0.10499 
 1                     2.84602   2.51251  -0.09124 
 6                     3.12689   0.44089  -0.25512 
 1                     4.08122   0.54015  -0.75934 
 6                     2.58283  -0.94511  -0.03962 
 1                     2.1641   -1.30486  -0.98762 
 1                     3.39638  -1.63318   0.19866 
 6                    -1.13715  -1.41976  -0.75289 
 1                    -0.5438   -2.31661  -0.88265 
 6                    -2.44322  -1.52599  -0.10499 
 1                    -2.84602  -2.51251   0.09124 
 6                    -1.52714   0.99901  -1.07056 
 1                    -0.89477   1.87785  -0.94887 
 1                    -2.02746   1.11996  -2.03974 
 6                    -2.58283   0.94511   0.03962 
 1                    -3.39638   1.63318  -0.19866 
 1                    -2.1641    1.30486   0.98762 
 
 ITRead=  0  0  0  0  0  0  0  0  0  0  0  0  0  0  0  0  0  0  0  0
 ITRead=  0  0  0  0  0  0  0  0
 MicOpt= -1 -1 -1 -1 -1 -1 -1 -1 -1 -1 -1 -1 -1 -1 -1 -1 -1 -1 -1 -1
 MicOpt= -1 -1 -1 -1 -1 -1 -1 -1
 NAtoms=     28 NQM=       28 NQMF=       0 NMMI=      0 NMMIF=      0
                NMic=       0 NMicF=      0.
                    Isotopes and Nuclear Properties:
 (Nuclear quadrupole moments (NQMom) in fm**2, nuclear magnetic moments (NMagM)
  in nuclear magnetons)

  Atom         1           2           3           4           5           6           7           8           9          10
 IAtWgt=          12          12           1           1          12          12           1           1          12           1
 AtmWgt=  12.0000000  12.0000000   1.0078250   1.0078250  12.0000000  12.0000000   1.0078250   1.0078250  12.0000000   1.0078250
 NucSpn=           0           0           1           1           0           0           1           1           0           1
 AtZEff=  -0.0000000  -0.0000000  -0.0000000  -0.0000000  -0.0000000  -0.0000000  -0.0000000  -0.0000000  -0.0000000  -0.0000000
 NQMom=    0.0000000   0.0000000   0.0000000   0.0000000   0.0000000   0.0000000   0.0000000   0.0000000   0.0000000   0.0000000
 NMagM=    0.0000000   0.0000000   2.7928460   2.7928460   0.0000000   0.0000000   2.7928460   2.7928460   0.0000000   2.7928460
 AtZNuc=   6.0000000   6.0000000   1.0000000   1.0000000   6.0000000   6.0000000   1.0000000   1.0000000   6.0000000   1.0000000

  Atom        11          12          13          14          15          16          17          18          19          20
 IAtWgt=           1          12           1          12           1          12           1           1          12           1
 AtmWgt=   1.0078250  12.0000000   1.0078250  12.0000000   1.0078250  12.0000000   1.0078250   1.0078250  12.0000000   1.0078250
 NucSpn=           1           0           1           0           1           0           1           1           0           1
 AtZEff=  -0.0000000  -0.0000000  -0.0000000  -0.0000000  -0.0000000  -0.0000000  -0.0000000  -0.0000000  -0.0000000  -0.0000000
 NQMom=    0.0000000   0.0000000   0.0000000   0.0000000   0.0000000   0.0000000   0.0000000   0.0000000   0.0000000   0.0000000
 NMagM=    2.7928460   0.0000000   2.7928460   0.0000000   2.7928460   0.0000000   2.7928460   2.7928460   0.0000000   2.7928460
 AtZNuc=   1.0000000   6.0000000   1.0000000   6.0000000   1.0000000   6.0000000   1.0000000   1.0000000   6.0000000   1.0000000

  Atom        21          22          23          24          25          26          27          28
 IAtWgt=          12           1          12           1           1          12           1           1
 AtmWgt=  12.0000000   1.0078250  12.0000000   1.0078250   1.0078250  12.0000000   1.0078250   1.0078250
 NucSpn=           0           1           0           1           1           0           1           1
 AtZEff=  -0.0000000  -0.0000000  -0.0000000  -0.0000000  -0.0000000  -0.0000000  -0.0000000  -0.0000000
 NQMom=    0.0000000   0.0000000   0.0000000   0.0000000   0.0000000   0.0000000   0.0000000   0.0000000
 NMagM=    0.0000000   2.7928460   0.0000000   2.7928460   2.7928460   0.0000000   2.7928460   2.7928460
 AtZNuc=   6.0000000   1.0000000   6.0000000   1.0000000   1.0000000   6.0000000   1.0000000   1.0000000
 Leave Link  101 at Mon Aug  3 14:59:43 2020, MaxMem=  6442450944 cpu:               2.4 elap:               0.1
 (Enter /scratch/scicomp/CentOS/7.3.1611/Haswell/software/Gaussian/g16/l202.exe)
                          Input orientation:                          
 ---------------------------------------------------------------------
 Center     Atomic      Atomic             Coordinates (Angstroms)
 Number     Number       Type             X           Y           Z
 ---------------------------------------------------------------------
      1          6           0       -3.126891   -0.440888    0.255118
      2          6           0       -0.684423   -0.239784   -1.165641
      3          1           0       -4.081225   -0.540147    0.759340
      4          1           0        0.279559   -0.151378   -1.650033
      5          6           0        1.137152    1.419764    0.752892
      6          6           0        0.684423    0.239784    1.165641
      7          1           0        0.543796    2.316608    0.882649
      8          1           0       -0.279559    0.151379    1.650033
      9          6           0        1.527143   -0.999005    1.070559
     10          1           0        2.027460   -1.119961    2.039740
     11          1           0        0.894773   -1.877853    0.948868
     12          6           0        2.443219    1.525992    0.104990
     13          1           0        2.846024    2.512508   -0.091240
     14          6           0        3.126891    0.440888   -0.255118
     15          1           0        4.081225    0.540147   -0.759340
     16          6           0        2.582831   -0.945113   -0.039623
     17          1           0        2.164096   -1.304863   -0.987620
     18          1           0        3.396382   -1.633179    0.198658
     19          6           0       -1.137152   -1.419764   -0.752892
     20          1           0       -0.543796   -2.316608   -0.882649
     21          6           0       -2.443219   -1.525992   -0.104990
     22          1           0       -2.846024   -2.512508    0.091240
     23          6           0       -1.527143    0.999005   -1.070559
     24          1           0       -0.894773    1.877853   -0.948868
     25          1           0       -2.027460    1.119961   -2.039740
     26          6           0       -2.582831    0.945113    0.039623
     27          1           0       -3.396382    1.633179   -0.198658
     28          1           0       -2.164097    1.304863    0.987620
 ---------------------------------------------------------------------
                    Distance matrix (angstroms):
                    1          2          3          4          5
     1  C    0.000000
     2  C    2.832781   0.000000
     3  H    1.083903   3.915869   0.000000
     4  H    3.913735   1.082457   4.997265   0.000000
     5  C    4.678875   3.122980   5.574294   2.996331   0.000000
     6  C    3.977245   2.745651   4.846109   2.871401   1.329541
     7  H    4.633737   3.498450   5.437561   3.546160   1.083161
     8  H    3.225503   2.871401   3.965376   3.360760   2.102554
     9  C    4.757780   3.235434   5.635708   3.110717   2.470516
    10  H    5.496667   4.289929   6.268304   4.196157   2.983091
    11  H    4.326654   3.106168   5.156155   3.180171   3.312315
    12  C    5.909085   3.809805   6.874989   3.251938   1.461805
    13  H    6.672198   4.603640   7.617675   4.014084   2.197019
    14  C    6.336218   3.977245   7.344964   3.225503   2.435846
    15  H    7.344964   4.846109   8.372515   3.965376   3.424637
    16  C    5.739516   3.527089   6.723986   2.920359   2.882830
    17  H    5.503217   3.046333   6.529984   2.306686   3.392284
    18  H    6.631579   4.522812   7.577842   3.915096   3.838197
    19  C    2.435846   1.329541   3.424637   2.102554   3.937355
    20  H    3.388985   2.100728   4.285481   2.440289   4.411469
    21  C    1.332117   2.423360   2.098099   3.419100   4.715135
    22  H    2.096986   3.378986   2.421216   4.286751   5.636154
    23  C    2.527826   1.501271   3.498693   2.218861   3.255838
    24  H    3.436349   2.139071   4.349503   2.447134   2.689712
    25  H    2.985192   2.101596   3.848215   2.662801   4.231246
    26  C    1.504473   2.541770   2.229165   3.500072   3.817371
    27  H    2.140162   3.434788   2.471865   4.336320   4.637232
    28  H    2.123953   3.035112   2.670497   3.879343   3.311577
                    6          7          8          9         10
     6  C    0.000000
     7  H    2.100728   0.000000
     8  H    1.082457   2.440289   0.000000
     9  C    1.501271   3.463462   2.218861   0.000000
    10  H    2.101596   3.917924   2.662802   1.097387   0.000000
    11  H    2.139071   4.209640   2.447135   1.089529   1.745675
    12  C    2.423360   2.199462   3.419099   2.854318   3.304116
    13  H    3.378986   2.507407   4.286751   3.926824   4.290216
    14  C    2.832781   3.388985   3.913734   2.527826   2.985192
    15  H    3.915869   4.285481   4.997265   3.498693   3.848215
    16  C    2.541770   3.955638   3.500073   1.532934   2.159342
    17  H    3.035111   4.386152   3.879343   2.176088   3.036078
    18  H    3.434788   4.919950   4.336321   2.157879   2.350941
    19  C    3.122980   4.411469   2.996332   3.255838   4.231246
    20  H    3.498450   5.076005   3.546161   3.136859   4.072306
    21  C    3.809805   4.966212   3.251938   4.174135   4.975108
    22  H    4.603640   5.952946   4.014084   4.730153   5.430164
    23  C    3.235434   3.136859   3.110716   4.231441   5.176792
    24  H    3.106168   2.369903   3.180171   4.268498   5.143745
    25  H    4.289929   4.072306   4.196157   5.176792   6.172664
    26  C    3.527089   3.516744   2.920359   4.662007   5.433211
    27  H    4.522812   4.142620   3.915096   5.725417   6.481379
    28  H    3.046334   2.892634   2.306686   4.352004   4.955389
                   11         12         13         14         15
    11  H    0.000000
    12  C    3.833533   0.000000
    13  H    4.915737   1.083500   0.000000
    14  C    3.436349   1.332117   2.096986   0.000000
    15  H    4.349503   2.098099   2.421216   1.083903   0.000000
    16  C    2.167177   2.479267   3.468008   1.504473   2.229165
    17  H    2.385264   3.047203   3.980056   2.123954   2.670498
    18  H    2.623114   3.301160   4.192094   2.140162   2.471865
    19  C    2.689712   4.715135   5.636154   4.678875   5.574294
    20  H    2.369903   4.966212   5.952946   4.633737   5.437561
    21  C    3.518041   5.765065   6.654755   5.909085   6.874989
    22  H    3.889971   6.654755   7.594965   6.672198   7.617675
    23  C    4.268498   4.174135   4.730153   4.757780   5.635708
    24  H    4.572658   3.518041   3.889971   4.326654   5.156155
    25  H    5.143745   4.975108   5.430164   5.496667   6.268304
    26  C    4.570513   5.059928   5.652107   5.739516   6.723986
    27  H    5.661994   5.848473   6.304950   6.631579   7.577842
    28  H    4.414507   4.696306   5.265326   5.503218   6.529985
                   16         17         18         19         20
    16  C    0.000000
    17  H    1.097022   0.000000
    18  H    1.091823   1.741716   0.000000
    19  C    3.817371   3.311576   4.637232   0.000000
    20  H    3.516744   2.892633   4.142620   1.083161   0.000000
    21  C    5.059928   4.696305   5.848473   1.461805   2.199462
    22  H    5.652107   5.265325   6.304950   2.197019   2.507407
    23  C    4.662007   4.352003   5.725417   2.470516   3.463462
    24  H    4.570513   4.414506   5.661994   3.312315   4.209640
    25  H    5.433211   4.955388   6.481379   2.983091   3.917924
    26  C    5.501209   5.352657   6.513361   2.882830   3.955638
    27  H    6.513361   6.338254   7.547754   3.838197   4.919950
    28  H    5.352658   5.426371   6.338255   3.392284   4.386152
                   21         22         23         24         25
    21  C    0.000000
    22  H    1.083500   0.000000
    23  C    2.854318   3.926824   0.000000
    24  H    3.833533   4.915737   1.089529   0.000000
    25  H    3.304116   4.290216   1.097387   1.745675   0.000000
    26  C    2.479267   3.468008   1.532934   2.167177   2.159342
    27  H    3.301160   4.192094   2.157879   2.623114   2.350941
    28  H    3.047203   3.980056   2.176088   2.385264   3.036078
                   26         27         28
    26  C    0.000000
    27  H    1.091823   0.000000
    28  H    1.097022   1.741716   0.000000
 Symmetry turned off by external request.
 Stoichiometry    C12H16
 Framework group  CI[X(C12H16)]
 Deg. of freedom    39
 Full point group                 CI      NOp   2
 Rotational constants (GHZ):           1.8059238           0.6061502           0.5409639
 Leave Link  202 at Mon Aug  3 14:59:43 2020, MaxMem=  6442450944 cpu:               0.3 elap:               0.0
 (Enter /scratch/scicomp/CentOS/7.3.1611/Haswell/software/Gaussian/g16/l301.exe)
 Standard basis: def2TZVP (6D, 10F)
 Ernie: Thresh=  0.10000D-02 Tol=  0.10000D-05 Strict=F.
   528 basis functions,   740 primitive gaussians,   528 cartesian basis functions
    44 alpha electrons       44 beta electrons
       nuclear repulsion energy       680.3343633383 Hartrees.
 IExCor= 4639 DFT=T Ex+Corr=wB97XD ExCW=0 ScaHFX=  1.000000
 ScaDFX=  1.000000  1.000000  1.000000  1.000000 ScalE2=  1.000000  1.000000
 IRadAn=      5 IRanWt=     -1 IRanGd=            0 ICorTp=0 IEmpDi=121
 HFx  wShort=  0.000000 wLong=  0.200000 cFull=  0.222036 cShort=  0.000000 cLong=  0.777964
 DFx  wShort=  0.000000 wLong=  0.200000 cFull=  0.000000 cShort=  0.000000 cLong=  1.000000
 NAtoms=   28 NActive=   28 NUniq=   28 SFac= 1.00D+00 NAtFMM=   60 NAOKFM=F Big=F
 Integral buffers will be    131072 words long.
 Raffenetti 2 integral format.
 Two-electron integral symmetry is turned off.
 R6Disp:  Grimme-D2 Dispersion energy=       -0.0226369669 Hartrees.
 Nuclear repulsion after empirical dispersion term =      680.3117263713 Hartrees.
 Using the following non-standard input for PCM:
 norep pcmdoc geomview  nodis nocav g03defaults tsare=0.075
 Warning! Using old PCM defaults because the g03defaults keyword was found.
 These settings can be overridden by following keywords.
 nsfe=28
 NVESolv=36  SolvMW=84.1595   Rsolv=2.815
 eps=2.0165 RhoS=0.7781
 --- end of non-standard input.
 Reading user-defined spheres from input:
 ISph  on   Nord    Re0     Alpha      Xe            Ye            Ze
 --- end of user-defined spheres data.
 ------------------------------------------------------------------------------
 Polarizable Continuum Model (PCM)
 =================================
 Model                : PCM.
 Atomic radii         : UA0 (Simple United Atom Topological Model).
 Polarization charges : Total charges.
 Charge compensation  : None.
 Solution method      : On-the-fly selection.
 Cavity type          : SES (Solvent Excluding Surface) (Alpha=1.000).
 Cavity algorithm     : GePol (RMin=0.200 OFac=0.890).
                        User-defined sphere list used, NSphG=   28.
                        Tesserae with average area of 0.075 Ang**2.
                        Smoothing algorithm: None.
                        Polarization charges: point-like.
                        Self-potential: constant (ISelfS= 1).
                        Self-field    : global E.n sum rule (ISelfD= 3).
 Solvent              : CycloHexane, Eps=   2.016500 Eps(inf)=   2.035188
                        RSolv=   2.815000 Ang.
 ------------------------------------------------------------------------------
 GePol: Number of generator spheres                  =      28
 GePol: Total number of spheres                      =     189
 GePol: Number of exposed spheres                    =     133 ( 70.37%)
 GePol: Number of tesserae                           =    4668
 GePol: Average area of tesserae                     =       0.05 Ang**2
 GePol: Minimum area of tessera                      =   0.10D-02 Ang**2
 GePol: Maximum area of tessera                      =    0.12395 Ang**2
 GePol: Number of small tesserae                     =       0
 GePol: Fraction of small tesserae (<1% of avg)      =       0.00%
 GePol: Total count of vertices                      =   16545
 GePol: Maximum number of vertices in a tessera      =       7
 GePol: Cavity surface area                          =    220.782 Ang**2
 GePol: Cavity volume                                =    250.497 Ang**3
 Leave Link  301 at Mon Aug  3 14:59:44 2020, MaxMem=  6442450944 cpu:               8.0 elap:               0.4
 (Enter /scratch/scicomp/CentOS/7.3.1611/Haswell/software/Gaussian/g16/l302.exe)
 NPDir=0 NMtPBC=     1 NCelOv=     1 NCel=       1 NClECP=     1 NCelD=      1
         NCelK=      1 NCelE2=     1 NClLst=     1 CellRange=     0.0.
 One-electron integrals computed using PRISM.
   1 Symmetry operations used in ECPInt.
 ECPInt:  NShTT=   19306 NPrTT=   56928 LenC2=   18486 LenP2D=   42012.
 LDataN:  DoStor=T MaxTD1= 6 Len=  172
 NBasis=   528 RedAO= T EigKep=  1.79D-05  NBF=   528
 NBsUse=   528 1.00D-06 EigRej= -1.00D+00 NBFU=   528
 Precomputing XC quadrature grid using
 IXCGrd= 4 IRadAn=           5 IRanWt=          -1 IRanGd=           0 AccXCQ= 0.00D+00.
 Generated NRdTot=       0 NPtTot=           0 NUsed=           0 NTot=          32
 NSgBfM=   526   526   526   526   526 MxSgAt=    28 MxSgA2=    28.
 Leave Link  302 at Mon Aug  3 14:59:44 2020, MaxMem=  6442450944 cpu:              12.8 elap:               0.6
 (Enter /scratch/scicomp/CentOS/7.3.1611/Haswell/software/Gaussian/g16/l303.exe)
 DipDrv:  MaxL=1.
 Leave Link  303 at Mon Aug  3 14:59:44 2020, MaxMem=  6442450944 cpu:               1.5 elap:               0.1
 (Enter /scratch/scicomp/CentOS/7.3.1611/Haswell/software/Gaussian/g16/l401.exe)
 ExpMin= 9.52D-02 ExpMax= 1.36D+04 ExpMxC= 4.63D+02 IAcc=3 IRadAn=         5 AccDes= 0.00D+00
 Harris functional with IExCor= 4639 and IRadAn=       5 diagonalized for initial guess.
 HarFok:  IExCor= 4639 AccDes= 0.00D+00 IRadAn=         5 IDoV= 1 UseB2=F ITyADJ=14
 ICtDFT=  3500011 ScaDFX=  1.000000  1.000000  1.000000  1.000000
 FoFCou: FMM=F IPFlag=           0 FMFlag=      100000 FMFlg1=           0
         NFxFlg=           0 DoJE=T BraDBF=F KetDBF=T FulRan=T
         wScrn=  0.000000 ICntrl=       500 IOpCl=  0 I1Cent=   200000004 NGrid=           0
         NMat0=    1 NMatS0=      1 NMatT0=    0 NMatD0=    1 NMtDS0=    0 NMtDT0=    0
 Symmetry not used in FoFCou.
 Harris En= -444.651711864449    
 JPrj=0 DoOrth=F DoCkMO=T.
 Mixing orbitals, IMix= 1 IMixAn=  0 NRI=1 NE=   44 Coef=  7.07106781D-01  7.07106781D-01
 Mixing orbitals, IMix= 1 IMixAn=  0 NRI=1 NE=   44 Coef= -7.07106781D-01  7.07106781D-01
 Initial guess <Sx>= 0.0000 <Sy>= 0.0000 <Sz>= 0.0000 <S**2>= 1.0000 S= 0.6180
 Leave Link  401 at Mon Aug  3 14:59:47 2020, MaxMem=  6442450944 cpu:              48.7 elap:               2.1
 (Enter /scratch/scicomp/CentOS/7.3.1611/Haswell/software/Gaussian/g16/l502.exe)
 Two-electron integral symmetry not used.
 UHF open shell SCF:
 Using DIIS extrapolation, IDIIS=  1040.
 NGot=  6442450944 LenX=  6441877030 LenY=  6441597718
 Requested convergence on RMS density matrix=1.00D-08 within 128 cycles.
 Requested convergence on MAX density matrix=1.00D-06.
 Requested convergence on             energy=1.00D-06.
 No special actions if energy rises.
 Fock matrices will be formed incrementally for  20 cycles.

 Cycle   1  Pass 1  IDiag  1:
 FoFJK:  IHMeth= 1 ICntrl=       0 DoSepK=T KAlg= 0 I1Cent=           0 FoldK=F
 IRaf=         1 NMat=       1 IRICut=       1 DoRegI=T DoRafI=F ISym2E= 0 IDoP0=0 IntGTp=1.
 FoFCou: FMM=F IPFlag=           0 FMFlag=      100000 FMFlg1=           0
         NFxFlg=           0 DoJE=T BraDBF=F KetDBF=F FulRan=T
         wScrn=  0.000000 ICntrl=       500 IOpCl=  0 I1Cent=           0 NGrid=           0
         NMat0=    1 NMatS0=      1 NMatT0=    0 NMatD0=    1 NMtDS0=    0 NMtDT0=    0
 Symmetry not used in FoFCou.
 Inv3:  Mode=1 IEnd=    65370672.
 Iteration    1 A*A^-1 deviation from unit magnitude is 3.22D-15 for   2898.
 Iteration    1 A*A^-1 deviation from orthogonality  is 2.11D-15 for   2368    239.
 Iteration    1 A^-1*A deviation from unit magnitude is 3.22D-15 for   2898.
 Iteration    1 A^-1*A deviation from orthogonality  is 1.79D-15 for   3725   3702.
 E= -466.582721763324    
 DIIS: error= 5.09D-02 at cycle   1 NSaved=   1.
 NSaved= 1 IEnMin= 1 EnMin= -466.582721763324     IErMin= 1 ErrMin= 5.09D-02
 ErrMax= 5.09D-02  0.00D+00 EMaxC= 1.00D-01 BMatC= 4.11D+00 BMatP= 4.11D+00
 IDIUse=3 WtCom= 4.91D-01 WtEn= 5.09D-01
 Coeff-Com:  0.100D+01
 Coeff-En:   0.100D+01
 Coeff:      0.100D+01
 Gap=     0.183 Goal=   None    Shift=    0.000
 Gap=     0.183 Goal=   None    Shift=    0.000
 GapD=    0.183 DampG=1.000 DampE=0.500 DampFc=0.5000 IDamp=-1.
 Damping current iteration by 5.00D-01
 RMSDP=1.63D-03 MaxDP=9.24D-02              OVMax= 3.35D-01

 Cycle   2  Pass 1  IDiag  1:
 RMSU=  7.84D-04    CP:  9.65D-01
 E= -466.691228220630     Delta-E=       -0.108506457306 Rises=F Damp=T
 DIIS: error= 2.41D-02 at cycle   2 NSaved=   2.
 NSaved= 2 IEnMin= 2 EnMin= -466.691228220630     IErMin= 2 ErrMin= 2.41D-02
 ErrMax= 2.41D-02  0.00D+00 EMaxC= 1.00D-01 BMatC= 9.35D-01 BMatP= 4.11D+00
 IDIUse=3 WtCom= 7.59D-01 WtEn= 2.41D-01
 Coeff-Com: -0.867D+00 0.187D+01
 Coeff-En:   0.000D+00 0.100D+01
 Coeff:     -0.658D+00 0.166D+01
 Gap=     0.272 Goal=   None    Shift=    0.000
 Gap=     0.272 Goal=   None    Shift=    0.000
 RMSDP=1.16D-03 MaxDP=5.35D-02 DE=-1.09D-01 OVMax= 1.39D-01

 Cycle   3  Pass 1  IDiag  1:
 RMSU=  6.31D-04    CP:  9.13D-01  2.17D+00
 E= -466.831962976724     Delta-E=       -0.140734756094 Rises=F Damp=F
 DIIS: error= 7.71D-03 at cycle   3 NSaved=   3.
 NSaved= 3 IEnMin= 3 EnMin= -466.831962976724     IErMin= 3 ErrMin= 7.71D-03
 ErrMax= 7.71D-03  0.00D+00 EMaxC= 1.00D-01 BMatC= 2.49D-02 BMatP= 9.35D-01
 IDIUse=3 WtCom= 9.23D-01 WtEn= 7.71D-02
 Coeff-Com: -0.320D+00 0.685D+00 0.634D+00
 Coeff-En:   0.000D+00 0.000D+00 0.100D+01
 Coeff:     -0.295D+00 0.633D+00 0.662D+00
 Gap=     0.293 Goal=   None    Shift=    0.000
 Gap=     0.293 Goal=   None    Shift=    0.000
 RMSDP=2.32D-04 MaxDP=1.21D-02 DE=-1.41D-01 OVMax= 6.55D-02

 Cycle   4  Pass 1  IDiag  1:
 RMSU=  2.11D-04    CP:  9.06D-01  2.28D+00  9.85D-01
 E= -466.843112233517     Delta-E=       -0.011149256793 Rises=F Damp=F
 DIIS: error= 5.18D-03 at cycle   4 NSaved=   4.
 NSaved= 4 IEnMin= 4 EnMin= -466.843112233517     IErMin= 4 ErrMin= 5.18D-03
 ErrMax= 5.18D-03  0.00D+00 EMaxC= 1.00D-01 BMatC= 2.16D-03 BMatP= 2.49D-02
 IDIUse=3 WtCom= 9.48D-01 WtEn= 5.18D-02
 Coeff-Com:  0.136D+00-0.291D+00-0.630D-01 0.122D+01
 Coeff-En:   0.000D+00 0.000D+00 0.000D+00 0.100D+01
 Coeff:      0.129D+00-0.276D+00-0.597D-01 0.121D+01
 Gap=     0.304 Goal=   None    Shift=    0.000
 Gap=     0.304 Goal=   None    Shift=    0.000
 RMSDP=2.24D-04 MaxDP=1.25D-02 DE=-1.11D-02 OVMax= 7.96D-02

 Cycle   5  Pass 1  IDiag  1:
 RMSU=  9.23D-05    CP:  8.99D-01  2.34D+00  1.21D+00  1.63D+00
 E= -466.848023069779     Delta-E=       -0.004910836262 Rises=F Damp=F
 DIIS: error= 2.49D-03 at cycle   5 NSaved=   5.
 NSaved= 5 IEnMin= 5 EnMin= -466.848023069779     IErMin= 5 ErrMin= 2.49D-03
 ErrMax= 2.49D-03  0.00D+00 EMaxC= 1.00D-01 BMatC= 9.69D-04 BMatP= 2.16D-03
 IDIUse=3 WtCom= 9.75D-01 WtEn= 2.49D-02
 Coeff-Com:  0.776D-01-0.167D+00-0.850D-01 0.436D+00 0.738D+00
 Coeff-En:   0.000D+00 0.000D+00 0.000D+00 0.000D+00 0.100D+01
 Coeff:      0.757D-01-0.162D+00-0.829D-01 0.425D+00 0.744D+00
 Gap=     0.307 Goal=   None    Shift=    0.000
 Gap=     0.307 Goal=   None    Shift=    0.000
 RMSDP=8.39D-05 MaxDP=3.85D-03 DE=-4.91D-03 OVMax= 3.04D-02

 Cycle   6  Pass 1  IDiag  1:
 RMSU=  3.38D-05    CP:  8.96D-01  2.34D+00  1.25D+00  1.92D+00  1.38D+00
 E= -466.849492572004     Delta-E=       -0.001469502225 Rises=F Damp=F
 DIIS: error= 1.82D-03 at cycle   6 NSaved=   6.
 NSaved= 6 IEnMin= 6 EnMin= -466.849492572004     IErMin= 6 ErrMin= 1.82D-03
 ErrMax= 1.82D-03  0.00D+00 EMaxC= 1.00D-01 BMatC= 5.47D-04 BMatP= 9.69D-04
 IDIUse=3 WtCom= 9.82D-01 WtEn= 1.82D-02
 Coeff-Com: -0.749D-01 0.161D+00 0.569D-01-0.543D+00 0.110D-01 0.139D+01
 Coeff-En:   0.000D+00 0.000D+00 0.000D+00 0.000D+00 0.000D+00 0.100D+01
 Coeff:     -0.735D-01 0.158D+00 0.559D-01-0.533D+00 0.108D-01 0.138D+01
 Gap=     0.303 Goal=   None    Shift=    0.000
 Gap=     0.303 Goal=   None    Shift=    0.000
 RMSDP=1.06D-04 MaxDP=4.14D-03 DE=-1.47D-03 OVMax= 3.94D-02

 Cycle   7  Pass 1  IDiag  1:
 RMSU=  3.27D-05    CP:  8.94D-01  2.35D+00  1.29D+00  2.21D+00  2.06D+00
                    CP:  2.15D+00
 E= -466.851170079500     Delta-E=       -0.001677507496 Rises=F Damp=F
 DIIS: error= 1.19D-03 at cycle   7 NSaved=   7.
 NSaved= 7 IEnMin= 7 EnMin= -466.851170079500     IErMin= 7 ErrMin= 1.19D-03
 ErrMax= 1.19D-03  0.00D+00 EMaxC= 1.00D-01 BMatC= 2.92D-04 BMatP= 5.47D-04
 IDIUse=3 WtCom= 9.88D-01 WtEn= 1.19D-02
 Coeff-Com: -0.261D-01 0.565D-01 0.457D-01 0.869D-02-0.616D+00-0.702D+00
 Coeff-Com:  0.223D+01
 Coeff-En:   0.000D+00 0.000D+00 0.000D+00 0.000D+00 0.000D+00 0.000D+00
 Coeff-En:   0.100D+01
 Coeff:     -0.258D-01 0.558D-01 0.452D-01 0.859D-02-0.609D+00-0.694D+00
 Coeff:      0.222D+01
 Gap=     0.303 Goal=   None    Shift=    0.000
 Gap=     0.303 Goal=   None    Shift=    0.000
 RMSDP=1.47D-04 MaxDP=7.02D-03 DE=-1.68D-03 OVMax= 5.55D-02

 Cycle   8  Pass 1  IDiag  1:
 RMSU=  5.01D-05    CP:  8.92D-01  2.34D+00  1.33D+00  2.54D+00  2.94D+00
                    CP:  3.00D+00  2.78D+00
 E= -466.852740672920     Delta-E=       -0.001570593420 Rises=F Damp=F
 DIIS: error= 4.64D-04 at cycle   8 NSaved=   8.
 NSaved= 8 IEnMin= 8 EnMin= -466.852740672920     IErMin= 8 ErrMin= 4.64D-04
 ErrMax= 4.64D-04  0.00D+00 EMaxC= 1.00D-01 BMatC= 8.31D-05 BMatP= 2.92D-04
 IDIUse=3 WtCom= 9.95D-01 WtEn= 4.64D-03
 Coeff-Com:  0.271D-01-0.583D-01-0.922D-02 0.288D+00-0.193D+00-0.903D+00
 Coeff-Com:  0.693D+00 0.116D+01
 Coeff-En:   0.000D+00 0.000D+00 0.000D+00 0.000D+00 0.000D+00 0.000D+00
 Coeff-En:   0.000D+00 0.100D+01
 Coeff:      0.270D-01-0.580D-01-0.917D-02 0.287D+00-0.192D+00-0.899D+00
 Coeff:      0.690D+00 0.115D+01
 Gap=     0.305 Goal=   None    Shift=    0.000
 Gap=     0.305 Goal=   None    Shift=    0.000
 RMSDP=7.83D-05 MaxDP=3.92D-03 DE=-1.57D-03 OVMax= 2.99D-02

 Cycle   9  Pass 1  IDiag  1:
 RMSU=  4.61D-05    CP:  8.90D-01  2.34D+00  1.35D+00  2.68D+00  3.00D+00
                    CP:  3.00D+00  3.00D+00  1.90D+00
 E= -466.853098507075     Delta-E=       -0.000357834155 Rises=F Damp=F
 DIIS: error= 1.59D-04 at cycle   9 NSaved=   9.
 NSaved= 9 IEnMin= 9 EnMin= -466.853098507075     IErMin= 9 ErrMin= 1.59D-04
 ErrMax= 1.59D-04  0.00D+00 EMaxC= 1.00D-01 BMatC= 1.63D-05 BMatP= 8.31D-05
 IDIUse=3 WtCom= 9.98D-01 WtEn= 1.59D-03
 Coeff-Com:  0.170D-01-0.366D-01-0.121D-01 0.124D+00 0.323D-01-0.254D+00
 Coeff-Com: -0.118D+00 0.425D+00 0.822D+00
 Coeff-En:   0.000D+00 0.000D+00 0.000D+00 0.000D+00 0.000D+00 0.000D+00
 Coeff-En:   0.000D+00 0.000D+00 0.100D+01
 Coeff:      0.170D-01-0.366D-01-0.121D-01 0.124D+00 0.322D-01-0.253D+00
 Coeff:     -0.118D+00 0.424D+00 0.823D+00
 Gap=     0.305 Goal=   None    Shift=    0.000
 Gap=     0.305 Goal=   None    Shift=    0.000
 RMSDP=2.16D-05 MaxDP=1.10D-03 DE=-3.58D-04 OVMax= 8.28D-03

 Cycle  10  Pass 1  IDiag  1:
 RMSU=  6.18D-06    CP:  8.90D-01  2.34D+00  1.35D+00  2.71D+00  3.00D+00
                    CP:  3.00D+00  3.00D+00  2.15D+00  1.32D+00
 E= -466.853132250487     Delta-E=       -0.000033743412 Rises=F Damp=F
 DIIS: error= 7.30D-05 at cycle  10 NSaved=  10.
 NSaved=10 IEnMin=10 EnMin= -466.853132250487     IErMin=10 ErrMin= 7.30D-05
 ErrMax= 7.30D-05  0.00D+00 EMaxC= 1.00D-01 BMatC= 2.46D-06 BMatP= 1.63D-05
 IDIUse=1 WtCom= 1.00D+00 WtEn= 0.00D+00
 Coeff-Com: -0.115D-02 0.250D-02-0.853D-03-0.282D-01 0.385D-01 0.110D+00
 Coeff-Com: -0.133D+00-0.182D+00 0.141D+00 0.105D+01
 Coeff:     -0.115D-02 0.250D-02-0.853D-03-0.282D-01 0.385D-01 0.110D+00
 Coeff:     -0.133D+00-0.182D+00 0.141D+00 0.105D+01
 Gap=     0.304 Goal=   None    Shift=    0.000
 Gap=     0.304 Goal=   None    Shift=    0.000
 RMSDP=1.07D-05 MaxDP=4.91D-04 DE=-3.37D-05 OVMax= 4.12D-03

 Cycle  11  Pass 1  IDiag  1:
 RMSU=  3.12D-06    CP:  8.90D-01  2.34D+00  1.36D+00  2.72D+00  3.00D+00
                    CP:  3.00D+00  3.00D+00  2.26D+00  1.47D+00  1.54D+00
 E= -466.853137594340     Delta-E=       -0.000005343853 Rises=F Damp=F
 DIIS: error= 2.62D-05 at cycle  11 NSaved=  11.
 NSaved=11 IEnMin=11 EnMin= -466.853137594340     IErMin=11 ErrMin= 2.62D-05
 ErrMax= 2.62D-05  0.00D+00 EMaxC= 1.00D-01 BMatC= 5.60D-07 BMatP= 2.46D-06
 IDIUse=1 WtCom= 1.00D+00 WtEn= 0.00D+00
 Coeff-Com: -0.193D-02 0.417D-02 0.781D-03-0.216D-01 0.102D-01 0.601D-01
 Coeff-Com: -0.291D-01-0.114D+00-0.404D-01 0.415D+00 0.716D+00
 Coeff:     -0.193D-02 0.417D-02 0.781D-03-0.216D-01 0.102D-01 0.601D-01
 Coeff:     -0.291D-01-0.114D+00-0.404D-01 0.415D+00 0.716D+00
 Gap=     0.304 Goal=   None    Shift=    0.000
 Gap=     0.304 Goal=   None    Shift=    0.000
 RMSDP=1.94D-06 MaxDP=9.69D-05 DE=-5.34D-06 OVMax= 6.57D-04

 Cycle  12  Pass 1  IDiag  1:
 RMSU=  9.83D-07    CP:  8.90D-01  2.34D+00  1.36D+00  2.72D+00  3.00D+00
                    CP:  3.00D+00  3.00D+00  2.27D+00  1.50D+00  1.63D+00
                    CP:  1.18D+00
 E= -466.853137967065     Delta-E=       -0.000000372724 Rises=F Damp=F
 DIIS: error= 1.51D-05 at cycle  12 NSaved=  12.
 NSaved=12 IEnMin=12 EnMin= -466.853137967065     IErMin=12 ErrMin= 1.51D-05
 ErrMax= 1.51D-05  0.00D+00 EMaxC= 1.00D-01 BMatC= 8.17D-08 BMatP= 5.60D-07
 IDIUse=1 WtCom= 1.00D+00 WtEn= 0.00D+00
 Coeff-Com:  0.592D-03-0.129D-02-0.174D-03 0.797D-02-0.527D-02-0.264D-01
 Coeff-Com:  0.236D-01 0.419D-01-0.152D-01-0.221D+00-0.137D-01 0.121D+01
 Coeff:      0.592D-03-0.129D-02-0.174D-03 0.797D-02-0.527D-02-0.264D-01
 Coeff:      0.236D-01 0.419D-01-0.152D-01-0.221D+00-0.137D-01 0.121D+01
 Gap=     0.304 Goal=   None    Shift=    0.000
 Gap=     0.304 Goal=   None    Shift=    0.000
 RMSDP=9.71D-07 MaxDP=3.48D-05 DE=-3.73D-07 OVMax= 1.71D-04

 Cycle  13  Pass 1  IDiag  1:
 RMSU=  5.93D-07    CP:  8.90D-01  2.34D+00  1.36D+00  2.73D+00  3.00D+00
                    CP:  3.00D+00  3.00D+00  2.27D+00  1.50D+00  1.64D+00
                    CP:  1.31D+00  1.64D+00
 E= -466.853138089925     Delta-E=       -0.000000122860 Rises=F Damp=F
 DIIS: error= 8.00D-06 at cycle  13 NSaved=  13.
 NSaved=13 IEnMin=13 EnMin= -466.853138089925     IErMin=13 ErrMin= 8.00D-06
 ErrMax= 8.00D-06  0.00D+00 EMaxC= 1.00D-01 BMatC= 2.10D-08 BMatP= 8.17D-08
 IDIUse=1 WtCom= 1.00D+00 WtEn= 0.00D+00
 Coeff-Com: -0.516D-04 0.115D-03 0.840D-04-0.212D-04-0.527D-03-0.349D-03
 Coeff-Com: -0.255D-03 0.460D-02 0.237D-02-0.209D-01-0.102D+00-0.198D+00
 Coeff-Com:  0.132D+01
 Coeff:     -0.516D-04 0.115D-03 0.840D-04-0.212D-04-0.527D-03-0.349D-03
 Coeff:     -0.255D-03 0.460D-02 0.237D-02-0.209D-01-0.102D+00-0.198D+00
 Coeff:      0.132D+01
 Gap=     0.304 Goal=   None    Shift=    0.000
 Gap=     0.304 Goal=   None    Shift=    0.000
 RMSDP=4.76D-07 MaxDP=2.81D-05 DE=-1.23D-07 OVMax= 1.17D-04

 Cycle  14  Pass 1  IDiag  1:
 RMSU=  3.11D-07    CP:  8.90D-01  2.34D+00  1.36D+00  2.73D+00  3.00D+00
                    CP:  3.00D+00  3.00D+00  2.27D+00  1.50D+00  1.66D+00
                    CP:  1.35D+00  1.83D+00  1.42D+00
 E= -466.853138133907     Delta-E=       -0.000000043982 Rises=F Damp=F
 DIIS: error= 4.44D-06 at cycle  14 NSaved=  14.
 NSaved=14 IEnMin=14 EnMin= -466.853138133907     IErMin=14 ErrMin= 4.44D-06
 ErrMax= 4.44D-06  0.00D+00 EMaxC= 1.00D-01 BMatC= 6.65D-09 BMatP= 2.10D-08
 IDIUse=1 WtCom= 1.00D+00 WtEn= 0.00D+00
 Coeff-Com: -0.259D-03 0.560D-03 0.149D-03-0.274D-02 0.123D-02 0.847D-02
 Coeff-Com: -0.710D-02-0.124D-01 0.449D-02 0.682D-01-0.755D-02-0.408D+00
 Coeff-Com:  0.733D-01 0.128D+01
 Coeff:     -0.259D-03 0.560D-03 0.149D-03-0.274D-02 0.123D-02 0.847D-02
 Coeff:     -0.710D-02-0.124D-01 0.449D-02 0.682D-01-0.755D-02-0.408D+00
 Coeff:      0.733D-01 0.128D+01
 Gap=     0.304 Goal=   None    Shift=    0.000
 Gap=     0.304 Goal=   None    Shift=    0.000
 RMSDP=3.54D-07 MaxDP=1.68D-05 DE=-4.40D-08 OVMax= 8.35D-05

 Cycle  15  Pass 1  IDiag  1:
 RMSU=  1.33D-07    CP:  8.90D-01  2.34D+00  1.36D+00  2.73D+00  3.00D+00
                    CP:  3.00D+00  3.00D+00  2.27D+00  1.50D+00  1.66D+00
                    CP:  1.36D+00  1.89D+00  1.70D+00  1.87D+00
 E= -466.853138149016     Delta-E=       -0.000000015109 Rises=F Damp=F
 DIIS: error= 1.63D-06 at cycle  15 NSaved=  15.
 NSaved=15 IEnMin=15 EnMin= -466.853138149016     IErMin=15 ErrMin= 1.63D-06
 ErrMax= 1.63D-06  0.00D+00 EMaxC= 1.00D-01 BMatC= 1.08D-09 BMatP= 6.65D-09
 IDIUse=1 WtCom= 1.00D+00 WtEn= 0.00D+00
 Coeff-Com:  0.702D-05-0.158D-04-0.276D-04-0.124D-03 0.333D-03 0.772D-03
 Coeff-Com: -0.125D-02-0.168D-02 0.189D-02 0.139D-01 0.195D-01-0.163D-01
 Coeff-Com: -0.305D+00 0.183D+00 0.110D+01
 Coeff:      0.702D-05-0.158D-04-0.276D-04-0.124D-03 0.333D-03 0.772D-03
 Coeff:     -0.125D-02-0.168D-02 0.189D-02 0.139D-01 0.195D-01-0.163D-01
 Coeff:     -0.305D+00 0.183D+00 0.110D+01
 Gap=     0.304 Goal=   None    Shift=    0.000
 Gap=     0.304 Goal=   None    Shift=    0.000
 RMSDP=1.74D-07 MaxDP=7.18D-06 DE=-1.51D-08 OVMax= 3.91D-05

 Cycle  16  Pass 1  IDiag  1:
 RMSU=  5.85D-08    CP:  8.90D-01  2.34D+00  1.36D+00  2.73D+00  3.00D+00
                    CP:  3.00D+00  3.00D+00  2.27D+00  1.50D+00  1.66D+00
                    CP:  1.35D+00  1.89D+00  1.81D+00  2.25D+00  1.48D+00
 E= -466.853138150999     Delta-E=       -0.000000001983 Rises=F Damp=F
 DIIS: error= 3.40D-07 at cycle  16 NSaved=  16.
 NSaved=16 IEnMin=16 EnMin= -466.853138150999     IErMin=16 ErrMin= 3.40D-07
 ErrMax= 3.40D-07  0.00D+00 EMaxC= 1.00D-01 BMatC= 1.03D-10 BMatP= 1.08D-09
 IDIUse=1 WtCom= 1.00D+00 WtEn= 0.00D+00
 Coeff-Com:  0.852D-05-0.185D-04-0.106D-04 0.829D-04 0.195D-04-0.180D-03
 Coeff-Com:  0.734D-04 0.240D-03 0.135D-04-0.165D-02 0.629D-02 0.298D-01
 Coeff-Com: -0.812D-01-0.780D-01 0.281D+00 0.844D+00
 Coeff:      0.852D-05-0.185D-04-0.106D-04 0.829D-04 0.195D-04-0.180D-03
 Coeff:      0.734D-04 0.240D-03 0.135D-04-0.165D-02 0.629D-02 0.298D-01
 Coeff:     -0.812D-01-0.780D-01 0.281D+00 0.844D+00
 Gap=     0.304 Goal=   None    Shift=    0.000
 Gap=     0.304 Goal=   None    Shift=    0.000
 RMSDP=3.60D-08 MaxDP=1.79D-06 DE=-1.98D-09 OVMax= 6.31D-06

 Cycle  17  Pass 1  IDiag  1:
 RMSU=  1.60D-08    CP:  8.90D-01  2.34D+00  1.36D+00  2.73D+00  3.00D+00
                    CP:  3.00D+00  3.00D+00  2.27D+00  1.50D+00  1.66D+00
                    CP:  1.35D+00  1.89D+00  1.82D+00  2.31D+00  1.58D+00
                    CP:  1.32D+00
 E= -466.853138151069     Delta-E=       -0.000000000070 Rises=F Damp=F
 DIIS: error= 8.16D-08 at cycle  17 NSaved=  17.
 NSaved=17 IEnMin=17 EnMin= -466.853138151069     IErMin=17 ErrMin= 8.16D-08
 ErrMax= 8.16D-08  0.00D+00 EMaxC= 1.00D-01 BMatC= 1.02D-11 BMatP= 1.03D-10
 IDIUse=1 WtCom= 1.00D+00 WtEn= 0.00D+00
 Coeff-Com: -0.114D-05 0.256D-05 0.594D-06-0.471D-05-0.114D-04 0.189D-04
 Coeff-Com:  0.198D-04 0.695D-04-0.164D-03-0.118D-02-0.702D-03 0.454D-02
 Coeff-Com:  0.195D-01-0.304D-01-0.735D-01 0.147D+00 0.935D+00
 Coeff:     -0.114D-05 0.256D-05 0.594D-06-0.471D-05-0.114D-04 0.189D-04
 Coeff:      0.198D-04 0.695D-04-0.164D-03-0.118D-02-0.702D-03 0.454D-02
 Coeff:      0.195D-01-0.304D-01-0.735D-01 0.147D+00 0.935D+00
 Gap=     0.304 Goal=   None    Shift=    0.000
 Gap=     0.304 Goal=   None    Shift=    0.000
 RMSDP=1.15D-08 MaxDP=4.09D-07 DE=-6.99D-11 OVMax= 1.54D-06

 Cycle  18  Pass 1  IDiag  1:
 RMSU=  6.11D-09    CP:  8.90D-01  2.34D+00  1.36D+00  2.73D+00  3.00D+00
                    CP:  3.00D+00  3.00D+00  2.27D+00  1.50D+00  1.66D+00
                    CP:  1.35D+00  1.88D+00  1.82D+00  2.31D+00  1.62D+00
                    CP:  1.43D+00  1.23D+00
 E= -466.853138151088     Delta-E=       -0.000000000020 Rises=F Damp=F
 DIIS: error= 2.88D-08 at cycle  18 NSaved=  18.
 NSaved=18 IEnMin=18 EnMin= -466.853138151088     IErMin=18 ErrMin= 2.88D-08
 ErrMax= 2.88D-08  0.00D+00 EMaxC= 1.00D-01 BMatC= 9.45D-13 BMatP= 1.02D-11
 IDIUse=1 WtCom= 1.00D+00 WtEn= 0.00D+00
 Coeff-Com:  0.499D-06-0.109D-05 0.392D-06 0.368D-05-0.133D-04-0.643D-05
 Coeff-Com:  0.745D-05 0.327D-04 0.980D-06-0.720D-04-0.784D-03-0.252D-02
 Coeff-Com:  0.109D-01 0.519D-02-0.378D-01-0.854D-01 0.795D-01 0.103D+01
 Coeff:      0.499D-06-0.109D-05 0.392D-06 0.368D-05-0.133D-04-0.643D-05
 Coeff:      0.745D-05 0.327D-04 0.980D-06-0.720D-04-0.784D-03-0.252D-02
 Coeff:      0.109D-01 0.519D-02-0.378D-01-0.854D-01 0.795D-01 0.103D+01
 Gap=     0.304 Goal=   None    Shift=    0.000
 Gap=     0.304 Goal=   None    Shift=    0.000
 RMSDP=4.50D-09 MaxDP=1.93D-07 DE=-1.98D-11 OVMax= 4.52D-07

 Error on total polarization charges =  0.01181
 SCF Done:  E(UwB97XD) =  -466.853138151     A.U. after   18 cycles
            NFock= 18  Conv=0.45D-08     -V/T= 2.0057
 <Sx>= 0.0000 <Sy>= 0.0000 <Sz>= 0.0000 <S**2>= 0.0000 S= 0.0000
 <L.S>=  0.00000000000    
 KE= 4.642110913512D+02 PE=-2.442397935947D+03 EE= 8.310219800731D+02
 --------------------------------------------------------------------
 Variational PCM results
 =======================
 <psi(f)|   H    |psi(f)>                     (a.u.) =    -466.851594
 <psi(f)|H+V(f)/2|psi(f)>                     (a.u.) =    -466.853138
 (Polarized solute)-Solvent               (kcal/mol) =      -0.97
 --------------------------------------------------------------------
 Partition over spheres:
 Sphere  on Atom  Surface  Charge   GEl     GCav    GDR
    1      C1       7.20   0.011   -0.05    0.00    0.00
    2      C2       4.74   0.007   -0.04    0.00    0.00
    3      H3       7.52  -0.010   -0.04    0.00    0.00
    4      H4       2.96  -0.003   -0.01    0.00    0.00
    5      C5       5.31   0.010   -0.07    0.00    0.00
    6      C6       4.68   0.007   -0.04    0.00    0.00
    7      H7       4.62  -0.006   -0.03    0.00    0.00
    8      H8       3.28  -0.004   -0.01    0.00    0.00
    9      C9       3.12   0.002    0.00    0.00    0.00
   10      H10      6.88  -0.007   -0.01    0.00    0.00
   11      H11      2.56  -0.002   -0.01    0.00    0.00
   12      C12      6.80   0.010   -0.06    0.00    0.00
   13      H13      7.52  -0.010   -0.03    0.00    0.00
   14      C14      7.35   0.011   -0.05    0.00    0.00
   15      H15      7.52  -0.010   -0.04    0.00    0.00
   16      C16      3.66   0.001    0.00    0.00    0.00
   17      H17      3.52  -0.003   -0.01    0.00    0.00
   18      H18      6.94  -0.008   -0.03    0.00    0.00
   19      C19      5.10   0.010   -0.07    0.00    0.00
   20      H20      5.35  -0.008   -0.03    0.00    0.00
   21      C21      6.34   0.010   -0.06    0.00    0.00
   22      H22      7.51  -0.010   -0.03    0.00    0.00
   23      C23      3.63   0.002    0.00    0.00    0.00
   24      H24      3.90  -0.003   -0.01    0.00    0.00
   25      H25      6.83  -0.007   -0.01    0.00    0.00
   26      C26      3.27   0.001    0.00    0.00    0.00
   27      H27      6.95  -0.008   -0.03    0.00    0.00
   28      H28      3.57  -0.004   -0.01    0.00    0.00
 Added spheres:    72.16   0.010   -0.21    0.00    0.00
 --------------------------------------------------------------------
 After PCM corrections, the energy is  -466.853138151     a.u.
 --------------------------------------------------------------------
 Annihilation of the first spin contaminant:
 S**2 before annihilation     0.0000,   after    -0.0000
 Leave Link  502 at Mon Aug  3 15:05:04 2020, MaxMem=  6442450944 cpu:            7543.9 elap:             317.1
 (Enter /scratch/scicomp/CentOS/7.3.1611/Haswell/software/Gaussian/g16/l601.exe)
 Copying SCF densities to generalized density rwf, IOpCl= 1 IROHF=0.

 **********************************************************************

            Population analysis using the SCF Density.

 **********************************************************************

 Alpha  occ. eigenvalues --  -10.28590 -10.28590 -10.28295 -10.28294 -10.28275
 Alpha  occ. eigenvalues --  -10.28274 -10.28216 -10.28215 -10.28020 -10.28019
 Alpha  occ. eigenvalues --  -10.27482 -10.27481  -0.94363  -0.93582  -0.84490
 Alpha  occ. eigenvalues --   -0.84307  -0.83756  -0.83729  -0.71624  -0.71184
 Alpha  occ. eigenvalues --   -0.68158  -0.67955  -0.59865  -0.59729  -0.57500
 Alpha  occ. eigenvalues --   -0.56611  -0.53772  -0.52895  -0.51031  -0.51029
 Alpha  occ. eigenvalues --   -0.49918  -0.49322  -0.47534  -0.46928  -0.45498
 Alpha  occ. eigenvalues --   -0.45035  -0.41432  -0.41039  -0.39869  -0.39318
 Alpha  occ. eigenvalues --   -0.39251  -0.38913  -0.29980  -0.27291
 Alpha virt. eigenvalues --    0.03110   0.05347   0.10519   0.12315   0.13393
 Alpha virt. eigenvalues --    0.14537   0.14890   0.15694   0.15769   0.15843
 Alpha virt. eigenvalues --    0.16690   0.16946   0.17277   0.18221   0.19971
 Alpha virt. eigenvalues --    0.21195   0.21416   0.22874   0.23530   0.24014
 Alpha virt. eigenvalues --    0.24626   0.25378   0.25793   0.26654   0.27881
 Alpha virt. eigenvalues --    0.28327   0.29134   0.29370   0.30199   0.30589
 Alpha virt. eigenvalues --    0.31259   0.31555   0.32393   0.32719   0.33653
 Alpha virt. eigenvalues --    0.33917   0.34439   0.35695   0.36177   0.37321
 Alpha virt. eigenvalues --    0.38106   0.38650   0.41074   0.41252   0.41687
 Alpha virt. eigenvalues --    0.41746   0.43907   0.44046   0.45050   0.45690
 Alpha virt. eigenvalues --    0.46539   0.47082   0.47851   0.47898   0.48483
 Alpha virt. eigenvalues --    0.48792   0.48859   0.49152   0.49622   0.50005
 Alpha virt. eigenvalues --    0.50410   0.50414   0.52046   0.52076   0.52699
 Alpha virt. eigenvalues --    0.53167   0.54080   0.54260   0.55018   0.55089
 Alpha virt. eigenvalues --    0.56894   0.57419   0.57458   0.59072   0.60191
 Alpha virt. eigenvalues --    0.60465   0.60837   0.61749   0.62908   0.65145
 Alpha virt. eigenvalues --    0.65794   0.66614   0.68029   0.68076   0.68472
 Alpha virt. eigenvalues --    0.69115   0.72165   0.73259   0.74087   0.74963
 Alpha virt. eigenvalues --    0.77890   0.78050   0.78494   0.79879   0.79985
 Alpha virt. eigenvalues --    0.81448   0.82641   0.83599   0.86422   0.87423
 Alpha virt. eigenvalues --    0.89676   0.90376   0.90412   0.92190   0.93104
 Alpha virt. eigenvalues --    0.94349   0.95824   0.96487   0.98212   0.98830
 Alpha virt. eigenvalues --    1.00912   1.03454   1.04552   1.04995   1.05083
 Alpha virt. eigenvalues --    1.06726   1.07564   1.07812   1.09937   1.10900
 Alpha virt. eigenvalues --    1.12520   1.13354   1.14013   1.14909   1.15951
 Alpha virt. eigenvalues --    1.16593   1.17399   1.18195   1.18818   1.19792
 Alpha virt. eigenvalues --    1.20236   1.20885   1.23524   1.24835   1.25001
 Alpha virt. eigenvalues --    1.25779   1.26272   1.27839   1.28547   1.28747
 Alpha virt. eigenvalues --    1.29630   1.31392   1.31472   1.32312   1.32563
 Alpha virt. eigenvalues --    1.34055   1.34666   1.37055   1.37581   1.37611
 Alpha virt. eigenvalues --    1.38419   1.39121   1.40841   1.40937   1.42031
 Alpha virt. eigenvalues --    1.42772   1.43111   1.43376   1.43979   1.44737
 Alpha virt. eigenvalues --    1.45436   1.45963   1.47255   1.48272   1.48975
 Alpha virt. eigenvalues --    1.49494   1.51116   1.52993   1.54025   1.56190
 Alpha virt. eigenvalues --    1.58036   1.58168   1.59124   1.60502   1.61435
 Alpha virt. eigenvalues --    1.62487   1.63532   1.63878   1.66110   1.66933
 Alpha virt. eigenvalues --    1.68157   1.70776   1.74398   1.74452   1.78446
 Alpha virt. eigenvalues --    1.80464   1.80704   1.81793   1.83316   1.85322
 Alpha virt. eigenvalues --    1.87123   1.87874   1.90504   1.91356   1.92760
 Alpha virt. eigenvalues --    1.92835   1.97186   1.98123   1.99785   2.00674
 Alpha virt. eigenvalues --    2.02917   2.03469   2.08998   2.09070   2.09726
 Alpha virt. eigenvalues --    2.12050   2.12225   2.12567   2.15235   2.15515
 Alpha virt. eigenvalues --    2.17553   2.20331   2.20636   2.21313   2.22833
 Alpha virt. eigenvalues --    2.23566   2.24804   2.25360   2.27703   2.28619
 Alpha virt. eigenvalues --    2.33708   2.36036   2.37996   2.39953   2.41890
 Alpha virt. eigenvalues --    2.43870   2.45226   2.45326   2.49071   2.49393
 Alpha virt. eigenvalues --    2.50326   2.50344   2.52540   2.55159   2.55445
 Alpha virt. eigenvalues --    2.57258   2.57582   2.59257   2.61884   2.62445
 Alpha virt. eigenvalues --    2.62685   2.64558   2.65330   2.65379   2.65931
 Alpha virt. eigenvalues --    2.66770   2.67653   2.71018   2.72361   2.72844
 Alpha virt. eigenvalues --    2.72997   2.74336   2.75138   2.75781   2.76889
 Alpha virt. eigenvalues --    2.77982   2.78705   2.80298   2.80614   2.81248
 Alpha virt. eigenvalues --    2.82000   2.82720   2.83157   2.84269   2.85545
 Alpha virt. eigenvalues --    2.86083   2.87231   2.87384   2.88124   2.89960
 Alpha virt. eigenvalues --    2.91318   2.92135   2.92559   2.93483   2.94780
 Alpha virt. eigenvalues --    2.95892   2.96085   2.96620   2.97695   3.01051
 Alpha virt. eigenvalues --    3.01196   3.02431   3.03492   3.05215   3.05741
 Alpha virt. eigenvalues --    3.07166   3.09045   3.09668   3.10754   3.11031
 Alpha virt. eigenvalues --    3.11686   3.13132   3.13610   3.14603   3.15552
 Alpha virt. eigenvalues --    3.15571   3.16687   3.16979   3.18720   3.18859
 Alpha virt. eigenvalues --    3.20012   3.20648   3.20765   3.21085   3.21362
 Alpha virt. eigenvalues --    3.22153   3.22865   3.23056   3.23913   3.24916
 Alpha virt. eigenvalues --    3.25639   3.26226   3.27146   3.27225   3.27925
 Alpha virt. eigenvalues --    3.28412   3.30204   3.30915   3.31629   3.32147
 Alpha virt. eigenvalues --    3.32227   3.33066   3.33692   3.35105   3.35881
 Alpha virt. eigenvalues --    3.36181   3.36641   3.37683   3.38637   3.38929
 Alpha virt. eigenvalues --    3.42245   3.42512   3.43153   3.44152   3.44548
 Alpha virt. eigenvalues --    3.45636   3.45811   3.46772   3.47341   3.47413
 Alpha virt. eigenvalues --    3.48316   3.49522   3.49811   3.51179   3.52702
 Alpha virt. eigenvalues --    3.53463   3.53553   3.54742   3.54959   3.55939
 Alpha virt. eigenvalues --    3.57647   3.58959   3.59191   3.61406   3.65469
 Alpha virt. eigenvalues --    3.65616   3.66576   3.67475   3.68399   3.69424
 Alpha virt. eigenvalues --    3.70752   3.70952   3.72721   3.73227   3.74040
 Alpha virt. eigenvalues --    3.78255   3.78280   3.79539   3.81484   3.83831
 Alpha virt. eigenvalues --    3.85235   3.85288   3.85586   3.87135   3.88276
 Alpha virt. eigenvalues --    3.90055   3.91438   3.93435   3.94401   3.96207
 Alpha virt. eigenvalues --    3.98831   4.01048   4.01481   4.02765   4.05287
 Alpha virt. eigenvalues --    4.06953   4.08496   4.09125   4.09277   4.11049
 Alpha virt. eigenvalues --    4.12492   4.13050   4.15072   4.15482   4.18544
 Alpha virt. eigenvalues --    4.18992   4.21613   4.22008   4.22758   4.25600
 Alpha virt. eigenvalues --    4.26463   4.26964   4.31241   4.31347   4.35669
 Alpha virt. eigenvalues --    4.35958   4.37966   4.39074   4.40696   4.42399
 Alpha virt. eigenvalues --    4.45212   4.46634   4.48704   4.49628   4.52984
 Alpha virt. eigenvalues --    4.54794   4.59531   4.61591   4.65490   4.67662
 Alpha virt. eigenvalues --    4.68847   4.69473   4.73041   4.74412   4.76182
 Alpha virt. eigenvalues --    4.77921   4.80383   4.81968   4.84643   4.85007
 Alpha virt. eigenvalues --    4.85486   4.87600   4.92743   4.95302   4.95455
 Alpha virt. eigenvalues --    4.98159   5.01553   5.01656   5.07159   5.07940
 Alpha virt. eigenvalues --    5.14081   5.16270   5.19062   5.22165   5.22892
 Alpha virt. eigenvalues --    5.23645   5.33563   5.34046   5.41371   5.42598
 Alpha virt. eigenvalues --    5.44773   5.45239   5.50655   5.53264   5.70664
 Alpha virt. eigenvalues --    5.71359   5.77173   5.79245   5.96007   6.02465
 Alpha virt. eigenvalues --    7.94406   7.95289   8.00997   8.04264   8.05105
 Alpha virt. eigenvalues --    8.09418   8.09591   8.13018   8.16936   8.19337
 Alpha virt. eigenvalues --    8.35538   8.36180  34.76353  34.77665  34.81191
 Alpha virt. eigenvalues --   34.81617  34.84769  34.90119  34.95895  34.99761
 Alpha virt. eigenvalues --   35.01416  35.01901  35.17272  35.18116
  Beta  occ. eigenvalues --  -10.28590 -10.28590 -10.28295 -10.28294 -10.28275
  Beta  occ. eigenvalues --  -10.28274 -10.28216 -10.28215 -10.28020 -10.28019
  Beta  occ. eigenvalues --  -10.27482 -10.27481  -0.94363  -0.93582  -0.84490
  Beta  occ. eigenvalues --   -0.84307  -0.83756  -0.83729  -0.71624  -0.71184
  Beta  occ. eigenvalues --   -0.68158  -0.67955  -0.59865  -0.59729  -0.57500
  Beta  occ. eigenvalues --   -0.56611  -0.53772  -0.52895  -0.51031  -0.51029
  Beta  occ. eigenvalues --   -0.49918  -0.49322  -0.47534  -0.46928  -0.45498
  Beta  occ. eigenvalues --   -0.45035  -0.41432  -0.41039  -0.39869  -0.39318
  Beta  occ. eigenvalues --   -0.39251  -0.38913  -0.29980  -0.27291
  Beta virt. eigenvalues --    0.03110   0.05347   0.10519   0.12315   0.13393
  Beta virt. eigenvalues --    0.14537   0.14890   0.15694   0.15769   0.15843
  Beta virt. eigenvalues --    0.16690   0.16946   0.17277   0.18221   0.19971
  Beta virt. eigenvalues --    0.21195   0.21416   0.22874   0.23530   0.24014
  Beta virt. eigenvalues --    0.24626   0.25378   0.25793   0.26654   0.27881
  Beta virt. eigenvalues --    0.28327   0.29134   0.29370   0.30199   0.30589
  Beta virt. eigenvalues --    0.31259   0.31555   0.32393   0.32719   0.33653
  Beta virt. eigenvalues --    0.33917   0.34439   0.35695   0.36177   0.37321
  Beta virt. eigenvalues --    0.38106   0.38650   0.41074   0.41252   0.41687
  Beta virt. eigenvalues --    0.41746   0.43907   0.44046   0.45050   0.45690
  Beta virt. eigenvalues --    0.46539   0.47082   0.47851   0.47898   0.48483
  Beta virt. eigenvalues --    0.48792   0.48859   0.49152   0.49622   0.50005
  Beta virt. eigenvalues --    0.50410   0.50414   0.52046   0.52076   0.52699
  Beta virt. eigenvalues --    0.53167   0.54080   0.54260   0.55018   0.55089
  Beta virt. eigenvalues --    0.56894   0.57419   0.57458   0.59072   0.60191
  Beta virt. eigenvalues --    0.60465   0.60837   0.61749   0.62908   0.65145
  Beta virt. eigenvalues --    0.65794   0.66614   0.68029   0.68076   0.68472
  Beta virt. eigenvalues --    0.69115   0.72165   0.73259   0.74087   0.74963
  Beta virt. eigenvalues --    0.77890   0.78050   0.78494   0.79879   0.79985
  Beta virt. eigenvalues --    0.81448   0.82641   0.83599   0.86422   0.87423
  Beta virt. eigenvalues --    0.89676   0.90376   0.90412   0.92190   0.93104
  Beta virt. eigenvalues --    0.94349   0.95824   0.96487   0.98212   0.98830
  Beta virt. eigenvalues --    1.00912   1.03454   1.04552   1.04995   1.05083
  Beta virt. eigenvalues --    1.06726   1.07564   1.07812   1.09937   1.10900
  Beta virt. eigenvalues --    1.12520   1.13354   1.14013   1.14909   1.15951
  Beta virt. eigenvalues --    1.16593   1.17399   1.18195   1.18818   1.19792
  Beta virt. eigenvalues --    1.20236   1.20885   1.23524   1.24835   1.25001
  Beta virt. eigenvalues --    1.25779   1.26272   1.27839   1.28547   1.28747
  Beta virt. eigenvalues --    1.29630   1.31392   1.31472   1.32312   1.32563
  Beta virt. eigenvalues --    1.34055   1.34666   1.37055   1.37581   1.37611
  Beta virt. eigenvalues --    1.38419   1.39121   1.40841   1.40937   1.42031
  Beta virt. eigenvalues --    1.42772   1.43111   1.43376   1.43979   1.44737
  Beta virt. eigenvalues --    1.45436   1.45963   1.47255   1.48272   1.48975
  Beta virt. eigenvalues --    1.49494   1.51116   1.52993   1.54025   1.56190
  Beta virt. eigenvalues --    1.58036   1.58168   1.59124   1.60502   1.61435
  Beta virt. eigenvalues --    1.62487   1.63532   1.63878   1.66110   1.66933
  Beta virt. eigenvalues --    1.68157   1.70776   1.74398   1.74452   1.78446
  Beta virt. eigenvalues --    1.80464   1.80704   1.81793   1.83316   1.85322
  Beta virt. eigenvalues --    1.87123   1.87874   1.90504   1.91356   1.92760
  Beta virt. eigenvalues --    1.92835   1.97186   1.98123   1.99785   2.00674
  Beta virt. eigenvalues --    2.02917   2.03469   2.08998   2.09070   2.09726
  Beta virt. eigenvalues --    2.12050   2.12225   2.12567   2.15235   2.15515
  Beta virt. eigenvalues --    2.17553   2.20331   2.20636   2.21313   2.22833
  Beta virt. eigenvalues --    2.23566   2.24804   2.25360   2.27703   2.28619
  Beta virt. eigenvalues --    2.33708   2.36036   2.37996   2.39953   2.41890
  Beta virt. eigenvalues --    2.43870   2.45226   2.45326   2.49071   2.49393
  Beta virt. eigenvalues --    2.50326   2.50344   2.52540   2.55159   2.55445
  Beta virt. eigenvalues --    2.57258   2.57582   2.59257   2.61884   2.62445
  Beta virt. eigenvalues --    2.62685   2.64558   2.65330   2.65379   2.65931
  Beta virt. eigenvalues --    2.66770   2.67653   2.71018   2.72361   2.72844
  Beta virt. eigenvalues --    2.72997   2.74336   2.75138   2.75781   2.76889
  Beta virt. eigenvalues --    2.77982   2.78705   2.80298   2.80614   2.81248
  Beta virt. eigenvalues --    2.82000   2.82720   2.83157   2.84269   2.85545
  Beta virt. eigenvalues --    2.86083   2.87231   2.87384   2.88124   2.89960
  Beta virt. eigenvalues --    2.91318   2.92135   2.92559   2.93483   2.94780
  Beta virt. eigenvalues --    2.95892   2.96085   2.96620   2.97695   3.01051
  Beta virt. eigenvalues --    3.01196   3.02431   3.03492   3.05215   3.05741
  Beta virt. eigenvalues --    3.07166   3.09045   3.09668   3.10754   3.11031
  Beta virt. eigenvalues --    3.11686   3.13132   3.13610   3.14603   3.15552
  Beta virt. eigenvalues --    3.15571   3.16687   3.16979   3.18720   3.18859
  Beta virt. eigenvalues --    3.20012   3.20648   3.20765   3.21085   3.21362
  Beta virt. eigenvalues --    3.22153   3.22865   3.23056   3.23913   3.24916
  Beta virt. eigenvalues --    3.25639   3.26226   3.27146   3.27225   3.27925
  Beta virt. eigenvalues --    3.28412   3.30204   3.30915   3.31629   3.32147
  Beta virt. eigenvalues --    3.32227   3.33066   3.33692   3.35105   3.35881
  Beta virt. eigenvalues --    3.36181   3.36641   3.37683   3.38637   3.38929
  Beta virt. eigenvalues --    3.42245   3.42512   3.43153   3.44152   3.44548
  Beta virt. eigenvalues --    3.45636   3.45811   3.46772   3.47341   3.47413
  Beta virt. eigenvalues --    3.48316   3.49522   3.49811   3.51179   3.52702
  Beta virt. eigenvalues --    3.53463   3.53553   3.54742   3.54959   3.55939
  Beta virt. eigenvalues --    3.57647   3.58959   3.59191   3.61406   3.65469
  Beta virt. eigenvalues --    3.65616   3.66576   3.67475   3.68399   3.69424
  Beta virt. eigenvalues --    3.70752   3.70952   3.72721   3.73227   3.74040
  Beta virt. eigenvalues --    3.78255   3.78280   3.79539   3.81484   3.83831
  Beta virt. eigenvalues --    3.85235   3.85288   3.85586   3.87135   3.88276
  Beta virt. eigenvalues --    3.90055   3.91438   3.93435   3.94401   3.96207
  Beta virt. eigenvalues --    3.98831   4.01048   4.01481   4.02765   4.05287
  Beta virt. eigenvalues --    4.06953   4.08496   4.09125   4.09277   4.11049
  Beta virt. eigenvalues --    4.12492   4.13050   4.15072   4.15482   4.18544
  Beta virt. eigenvalues --    4.18992   4.21613   4.22008   4.22758   4.25600
  Beta virt. eigenvalues --    4.26463   4.26964   4.31241   4.31347   4.35669
  Beta virt. eigenvalues --    4.35958   4.37966   4.39074   4.40696   4.42399
  Beta virt. eigenvalues --    4.45212   4.46634   4.48704   4.49628   4.52984
  Beta virt. eigenvalues --    4.54794   4.59531   4.61591   4.65490   4.67662
  Beta virt. eigenvalues --    4.68847   4.69473   4.73041   4.74412   4.76182
  Beta virt. eigenvalues --    4.77921   4.80383   4.81968   4.84643   4.85007
  Beta virt. eigenvalues --    4.85486   4.87600   4.92743   4.95302   4.95455
  Beta virt. eigenvalues --    4.98159   5.01553   5.01656   5.07159   5.07940
  Beta virt. eigenvalues --    5.14081   5.16270   5.19062   5.22165   5.22892
  Beta virt. eigenvalues --    5.23645   5.33563   5.34046   5.41371   5.42598
  Beta virt. eigenvalues --    5.44773   5.45239   5.50655   5.53264   5.70664
  Beta virt. eigenvalues --    5.71359   5.77173   5.79245   5.96007   6.02465
  Beta virt. eigenvalues --    7.94406   7.95289   8.00997   8.04264   8.05105
  Beta virt. eigenvalues --    8.09418   8.09591   8.13018   8.16936   8.19337
  Beta virt. eigenvalues --    8.35538   8.36180  34.76353  34.77665  34.81191
  Beta virt. eigenvalues --   34.81617  34.84769  34.90119  34.95895  34.99761
  Beta virt. eigenvalues --   35.01416  35.01901  35.17272  35.18116
          Condensed to atoms (all electrons):
               1          2          3          4          5          6
     1  C    5.125780   0.002667   0.425632  -0.001784   0.001292  -0.006217
     2  C    0.002667   5.347127  -0.002481   0.425587  -0.042994  -0.040350
     3  H    0.425632  -0.002481   0.498421   0.000034  -0.000049   0.000018
     4  H   -0.001784   0.425587   0.000034   0.470474  -0.006484   0.003965
     5  C    0.001292  -0.042994  -0.000049  -0.006484   5.174438   0.512004
     6  C   -0.006217  -0.040350   0.000018   0.003965   0.512004   5.346962
     7  H    0.000348  -0.002236   0.000001  -0.000103   0.426577  -0.027931
     8  H   -0.001870   0.003967  -0.000040   0.000083  -0.040173   0.425573
     9  C    0.002363  -0.007724  -0.000006  -0.001666  -0.061414   0.225977
    10  H   -0.000047   0.000807  -0.000001  -0.000185  -0.005838  -0.035204
    11  H    0.000167  -0.006209   0.000002   0.000231   0.008772  -0.059676
    12  C   -0.000190   0.012114   0.000002   0.002823   0.294546  -0.076505
    13  H   -0.000001   0.000037   0.000000   0.000034  -0.040811   0.005899
    14  C    0.000163  -0.006215  -0.000000  -0.001874  -0.053139   0.002646
    15  H   -0.000000   0.000018  -0.000000  -0.000040   0.007912  -0.002479
    16  C   -0.000624   0.012862   0.000000   0.000252  -0.005006  -0.063779
    17  H   -0.000031  -0.000056  -0.000000  -0.002104   0.009891  -0.000643
    18  H    0.000003   0.000446   0.000000   0.000271  -0.002595   0.011129
    19  C   -0.053125   0.511952   0.007914  -0.040211  -0.016179  -0.042993
    20  H    0.004211  -0.027833  -0.000105  -0.004959   0.000398  -0.002240
    21  C    0.594876  -0.076509  -0.034314   0.005199   0.001872   0.012114
    22  H   -0.029416   0.005907  -0.006748  -0.000067   0.000031   0.000037
    23  C   -0.088826   0.226023   0.005932  -0.014076   0.008839  -0.007726
    24  H    0.013136  -0.059680  -0.000120  -0.003948   0.000647  -0.006212
    25  H    0.004904  -0.035198  -0.000043  -0.000458   0.000705   0.000807
    26  C    0.284101  -0.063796  -0.032773   0.004125  -0.006884   0.012859
    27  H   -0.035205   0.011130  -0.004392  -0.000118   0.000271   0.000446
    28  H   -0.033069  -0.000640   0.001418  -0.000162  -0.003847  -0.000059
               7          8          9         10         11         12
     1  C    0.000348  -0.001870   0.002363  -0.000047   0.000167  -0.000190
     2  C   -0.002236   0.003967  -0.007724   0.000807  -0.006209   0.012114
     3  H    0.000001  -0.000040  -0.000006  -0.000001   0.000002   0.000002
     4  H   -0.000103   0.000083  -0.001666  -0.000185   0.000231   0.002823
     5  C    0.426577  -0.040173  -0.061414  -0.005838   0.008772   0.294546
     6  C   -0.027931   0.425573   0.225977  -0.035204  -0.059676  -0.076505
     7  H    0.482366  -0.004962   0.003443  -0.000293  -0.000047  -0.032507
     8  H   -0.004962   0.470616  -0.014121  -0.000458  -0.003948   0.005202
     9  C    0.003443  -0.014121   4.972265   0.381283   0.461175   0.036782
    10  H   -0.000293  -0.000458   0.381283   0.580614  -0.022275   0.001746
    11  H   -0.000047  -0.003948   0.461175  -0.022275   0.538382  -0.004225
    12  C   -0.032507   0.005202   0.036782   0.001746  -0.004225   4.998083
    13  H   -0.003668  -0.000067  -0.000553  -0.000053   0.000035   0.428750
    14  C    0.004208  -0.001784  -0.088801   0.004899   0.013138   0.594876
    15  H   -0.000105   0.000034   0.005931  -0.000043  -0.000120  -0.034329
    16  C   -0.001045   0.004127   0.357919  -0.022608  -0.055296  -0.056374
    17  H    0.000011  -0.000162  -0.032567   0.007290  -0.008900  -0.015352
    18  H    0.000038  -0.000118  -0.041438  -0.009993  -0.000540   0.005317
    19  C    0.000398  -0.006494   0.008842   0.000705   0.000642   0.001874
    20  H    0.000010  -0.000103   0.002895   0.000283  -0.001460  -0.000193
    21  C   -0.000193   0.002826  -0.002506  -0.000037  -0.000029  -0.000270
    22  H   -0.000001   0.000034  -0.000081  -0.000001   0.000003   0.000000
    23  C    0.002886  -0.001661   0.001707  -0.000055   0.000337  -0.002503
    24  H   -0.001457   0.000231   0.000338  -0.000014  -0.000022  -0.000031
    25  H    0.000283  -0.000185  -0.000055   0.000005  -0.000014  -0.000037
    26  C   -0.002113   0.000248  -0.001160   0.000084  -0.000151   0.000999
    27  H   -0.000026   0.000271  -0.000024   0.000001  -0.000001  -0.000044
    28  H    0.001841  -0.002106   0.000491  -0.000005   0.000005   0.000419
              13         14         15         16         17         18
     1  C   -0.000001   0.000163  -0.000000  -0.000624  -0.000031   0.000003
     2  C    0.000037  -0.006215   0.000018   0.012862  -0.000056   0.000446
     3  H    0.000000  -0.000000  -0.000000   0.000000  -0.000000   0.000000
     4  H    0.000034  -0.001874  -0.000040   0.000252  -0.002104   0.000271
     5  C   -0.040811  -0.053139   0.007912  -0.005006   0.009891  -0.002595
     6  C    0.005899   0.002646  -0.002479  -0.063779  -0.000643   0.011129
     7  H   -0.003668   0.004208  -0.000105  -0.001045   0.000011   0.000038
     8  H   -0.000067  -0.001784   0.000034   0.004127  -0.000162  -0.000118
     9  C   -0.000553  -0.088801   0.005931   0.357919  -0.032567  -0.041438
    10  H   -0.000053   0.004899  -0.000043  -0.022608   0.007290  -0.009993
    11  H    0.000035   0.013138  -0.000120  -0.055296  -0.008900  -0.000540
    12  C    0.428750   0.594876  -0.034329  -0.056374  -0.015352   0.005317
    13  H    0.496501  -0.029444  -0.006747   0.005495  -0.000428  -0.000138
    14  C   -0.029444   5.125808   0.425642   0.284068  -0.033080  -0.035200
    15  H   -0.006747   0.425642   0.498413  -0.032766   0.001419  -0.004393
    16  C    0.005495   0.284068  -0.032766   4.929972   0.396198   0.428167
    17  H   -0.000428  -0.033080   0.001419   0.396198   0.590355  -0.023099
    18  H   -0.000138  -0.035200  -0.004393   0.428167  -0.023099   0.546048
    19  C    0.000031   0.001289  -0.000049  -0.006883  -0.003850   0.000271
    20  H   -0.000001   0.000348   0.000001  -0.002116   0.001841  -0.000026
    21  C    0.000000  -0.000189   0.000002   0.000999   0.000419  -0.000044
    22  H    0.000000  -0.000001   0.000000   0.000017  -0.000001  -0.000001
    23  C   -0.000081   0.002363  -0.000006  -0.001160   0.000492  -0.000024
    24  H    0.000003   0.000167   0.000002  -0.000151   0.000005  -0.000001
    25  H   -0.000001  -0.000047  -0.000001   0.000084  -0.000005   0.000001
    26  C    0.000017  -0.000624   0.000000   0.000829   0.000056  -0.000004
    27  H   -0.000001   0.000003   0.000000  -0.000004   0.000002  -0.000000
    28  H   -0.000001  -0.000031  -0.000000   0.000056  -0.000018   0.000002
              19         20         21         22         23         24
     1  C   -0.053125   0.004211   0.594876  -0.029416  -0.088826   0.013136
     2  C    0.511952  -0.027833  -0.076509   0.005907   0.226023  -0.059680
     3  H    0.007914  -0.000105  -0.034314  -0.006748   0.005932  -0.000120
     4  H   -0.040211  -0.004959   0.005199  -0.000067  -0.014076  -0.003948
     5  C   -0.016179   0.000398   0.001872   0.000031   0.008839   0.000647
     6  C   -0.042993  -0.002240   0.012114   0.000037  -0.007726  -0.006212
     7  H    0.000398   0.000010  -0.000193  -0.000001   0.002886  -0.001457
     8  H   -0.006494  -0.000103   0.002826   0.000034  -0.001661   0.000231
     9  C    0.008842   0.002895  -0.002506  -0.000081   0.001707   0.000338
    10  H    0.000705   0.000283  -0.000037  -0.000001  -0.000055  -0.000014
    11  H    0.000642  -0.001460  -0.000029   0.000003   0.000337  -0.000022
    12  C    0.001874  -0.000193  -0.000270   0.000000  -0.002503  -0.000031
    13  H    0.000031  -0.000001   0.000000   0.000000  -0.000081   0.000003
    14  C    0.001289   0.000348  -0.000189  -0.000001   0.002363   0.000167
    15  H   -0.000049   0.000001   0.000002   0.000000  -0.000006   0.000002
    16  C   -0.006883  -0.002116   0.000999   0.000017  -0.001160  -0.000151
    17  H   -0.003850   0.001841   0.000419  -0.000001   0.000492   0.000005
    18  H    0.000271  -0.000026  -0.000044  -0.000001  -0.000024  -0.000001
    19  C    5.174566   0.426521   0.294467  -0.040850  -0.061463   0.008775
    20  H    0.426521   0.482297  -0.032547  -0.003667   0.003441  -0.000047
    21  C    0.294467  -0.032547   4.998068   0.428748   0.036803  -0.004224
    22  H   -0.040850  -0.003667   0.428748   0.496532  -0.000554   0.000035
    23  C   -0.061463   0.003441   0.036803  -0.000554   4.972287   0.461178
    24  H    0.008775  -0.000047  -0.004224   0.000035   0.461178   0.538323
    25  H   -0.005838  -0.000293   0.001748  -0.000053   0.381258  -0.022266
    26  C   -0.005010  -0.001046  -0.056384   0.005498   0.357949  -0.055293
    27  H   -0.002593   0.000038   0.005316  -0.000138  -0.041442  -0.000541
    28  H    0.009887   0.000011  -0.015346  -0.000428  -0.032568  -0.008899
              25         26         27         28
     1  C    0.004904   0.284101  -0.035205  -0.033069
     2  C   -0.035198  -0.063796   0.011130  -0.000640
     3  H   -0.000043  -0.032773  -0.004392   0.001418
     4  H   -0.000458   0.004125  -0.000118  -0.000162
     5  C    0.000705  -0.006884   0.000271  -0.003847
     6  C    0.000807   0.012859   0.000446  -0.000059
     7  H    0.000283  -0.002113  -0.000026   0.001841
     8  H   -0.000185   0.000248   0.000271  -0.002106
     9  C   -0.000055  -0.001160  -0.000024   0.000491
    10  H    0.000005   0.000084   0.000001  -0.000005
    11  H   -0.000014  -0.000151  -0.000001   0.000005
    12  C   -0.000037   0.000999  -0.000044   0.000419
    13  H   -0.000001   0.000017  -0.000001  -0.000001
    14  C   -0.000047  -0.000624   0.000003  -0.000031
    15  H   -0.000001   0.000000   0.000000  -0.000000
    16  C    0.000084   0.000829  -0.000004   0.000056
    17  H   -0.000005   0.000056   0.000002  -0.000018
    18  H    0.000001  -0.000004  -0.000000   0.000002
    19  C   -0.005838  -0.005010  -0.002593   0.009887
    20  H   -0.000293  -0.001046   0.000038   0.000011
    21  C    0.001748  -0.056384   0.005316  -0.015346
    22  H   -0.000053   0.005498  -0.000138  -0.000428
    23  C    0.381258   0.357949  -0.041442  -0.032568
    24  H   -0.022266  -0.055293  -0.000541  -0.008899
    25  H    0.580657  -0.022618  -0.009993   0.007291
    26  C   -0.022618   4.930014   0.428174   0.396184
    27  H   -0.009993   0.428174   0.546042  -0.023099
    28  H    0.007291   0.396184  -0.023099   0.590325
          Atomic-Atomic Spin Densities.
               1          2          3          4          5          6
     1  C   -0.000001  -0.000000   0.000000   0.000000   0.000000   0.000000
     2  C   -0.000000   0.000001   0.000000   0.000000  -0.000000  -0.000000
     3  H    0.000000   0.000000   0.000000  -0.000000  -0.000000   0.000000
     4  H    0.000000   0.000000  -0.000000  -0.000000  -0.000000   0.000000
     5  C    0.000000  -0.000000  -0.000000  -0.000000   0.000000  -0.000000
     6  C    0.000000  -0.000000   0.000000   0.000000  -0.000000  -0.000000
     7  H   -0.000000   0.000000   0.000000  -0.000000  -0.000000  -0.000000
     8  H    0.000000  -0.000000  -0.000000   0.000000   0.000000  -0.000000
     9  C   -0.000000   0.000000  -0.000000  -0.000000  -0.000000   0.000000
    10  H    0.000000   0.000000  -0.000000   0.000000  -0.000000  -0.000000
    11  H    0.000000  -0.000000  -0.000000  -0.000000   0.000000  -0.000000
    12  C   -0.000000   0.000000   0.000000  -0.000000  -0.000000   0.000000
    13  H   -0.000000   0.000000   0.000000   0.000000   0.000000  -0.000000
    14  C   -0.000000  -0.000000  -0.000000  -0.000000  -0.000000   0.000000
    15  H    0.000000  -0.000000  -0.000000   0.000000  -0.000000  -0.000000
    16  C   -0.000000   0.000000   0.000000   0.000000  -0.000000  -0.000000
    17  H    0.000000  -0.000000  -0.000000   0.000000   0.000000  -0.000000
    18  H   -0.000000   0.000000   0.000000  -0.000000  -0.000000  -0.000000
    19  C    0.000000   0.000000   0.000000  -0.000000   0.000000   0.000000
    20  H    0.000000   0.000000   0.000000   0.000000  -0.000000  -0.000000
    21  C    0.000000  -0.000000   0.000000  -0.000000   0.000000  -0.000000
    22  H   -0.000000   0.000000  -0.000000  -0.000000  -0.000000  -0.000000
    23  C   -0.000000  -0.000000   0.000000  -0.000000  -0.000000  -0.000000
    24  H   -0.000000   0.000000  -0.000000  -0.000000   0.000000   0.000000
    25  H   -0.000000   0.000000   0.000000   0.000000  -0.000000  -0.000000
    26  C    0.000000   0.000000  -0.000000  -0.000000   0.000000  -0.000000
    27  H    0.000000   0.000000  -0.000000   0.000000   0.000000  -0.000000
    28  H    0.000000   0.000000   0.000000   0.000000  -0.000000   0.000000
               7          8          9         10         11         12
     1  C   -0.000000   0.000000  -0.000000   0.000000   0.000000  -0.000000
     2  C    0.000000  -0.000000   0.000000   0.000000  -0.000000   0.000000
     3  H    0.000000  -0.000000  -0.000000  -0.000000  -0.000000   0.000000
     4  H   -0.000000   0.000000  -0.000000   0.000000  -0.000000  -0.000000
     5  C   -0.000000   0.000000  -0.000000  -0.000000   0.000000  -0.000000
     6  C   -0.000000  -0.000000   0.000000  -0.000000  -0.000000   0.000000
     7  H    0.000000  -0.000000   0.000000  -0.000000  -0.000000  -0.000000
     8  H   -0.000000   0.000000   0.000000  -0.000000   0.000000   0.000000
     9  C    0.000000   0.000000  -0.000001  -0.000000   0.000000  -0.000000
    10  H   -0.000000  -0.000000  -0.000000   0.000000  -0.000000  -0.000000
    11  H   -0.000000   0.000000   0.000000  -0.000000   0.000000  -0.000000
    12  C   -0.000000   0.000000  -0.000000  -0.000000  -0.000000   0.000000
    13  H    0.000000   0.000000   0.000000  -0.000000   0.000000  -0.000000
    14  C   -0.000000  -0.000000   0.000000   0.000000   0.000000  -0.000000
    15  H   -0.000000   0.000000  -0.000000  -0.000000   0.000000  -0.000000
    16  C   -0.000000   0.000000   0.000000  -0.000000  -0.000000   0.000000
    17  H   -0.000000  -0.000000   0.000000   0.000000  -0.000000   0.000000
    18  H    0.000000  -0.000000   0.000000  -0.000000  -0.000000  -0.000000
    19  C    0.000000   0.000000   0.000000  -0.000000  -0.000000  -0.000000
    20  H    0.000000   0.000000   0.000000  -0.000000   0.000000   0.000000
    21  C   -0.000000  -0.000000  -0.000000  -0.000000   0.000000  -0.000000
    22  H   -0.000000  -0.000000  -0.000000   0.000000   0.000000   0.000000
    23  C   -0.000000   0.000000  -0.000000  -0.000000   0.000000   0.000000
    24  H   -0.000000   0.000000  -0.000000   0.000000   0.000000  -0.000000
    25  H    0.000000  -0.000000   0.000000  -0.000000  -0.000000   0.000000
    26  C    0.000000  -0.000000   0.000000   0.000000  -0.000000  -0.000000
    27  H   -0.000000  -0.000000  -0.000000   0.000000   0.000000  -0.000000
    28  H    0.000000  -0.000000   0.000000  -0.000000  -0.000000   0.000000
              13         14         15         16         17         18
     1  C   -0.000000  -0.000000   0.000000  -0.000000   0.000000  -0.000000
     2  C    0.000000  -0.000000  -0.000000   0.000000  -0.000000   0.000000
     3  H    0.000000  -0.000000  -0.000000   0.000000  -0.000000   0.000000
     4  H    0.000000  -0.000000   0.000000   0.000000   0.000000  -0.000000
     5  C    0.000000  -0.000000  -0.000000  -0.000000   0.000000  -0.000000
     6  C   -0.000000   0.000000  -0.000000  -0.000000  -0.000000  -0.000000
     7  H    0.000000  -0.000000  -0.000000  -0.000000  -0.000000   0.000000
     8  H    0.000000  -0.000000   0.000000   0.000000  -0.000000  -0.000000
     9  C    0.000000   0.000000  -0.000000   0.000000   0.000000   0.000000
    10  H   -0.000000   0.000000  -0.000000  -0.000000   0.000000  -0.000000
    11  H    0.000000   0.000000   0.000000  -0.000000  -0.000000  -0.000000
    12  C   -0.000000  -0.000000  -0.000000   0.000000   0.000000  -0.000000
    13  H   -0.000000   0.000000   0.000000  -0.000000  -0.000000   0.000000
    14  C    0.000000   0.000000   0.000000  -0.000000   0.000000  -0.000000
    15  H    0.000000   0.000000  -0.000000   0.000000  -0.000000   0.000000
    16  C   -0.000000  -0.000000   0.000000   0.000000  -0.000000  -0.000000
    17  H   -0.000000   0.000000  -0.000000  -0.000000  -0.000000   0.000000
    18  H    0.000000  -0.000000   0.000000  -0.000000   0.000000  -0.000000
    19  C    0.000000  -0.000000   0.000000  -0.000000   0.000000  -0.000000
    20  H    0.000000   0.000000  -0.000000  -0.000000  -0.000000   0.000000
    21  C   -0.000000   0.000000  -0.000000   0.000000  -0.000000   0.000000
    22  H   -0.000000   0.000000  -0.000000   0.000000  -0.000000   0.000000
    23  C    0.000000   0.000000   0.000000  -0.000000  -0.000000   0.000000
    24  H   -0.000000  -0.000000   0.000000  -0.000000   0.000000  -0.000000
    25  H   -0.000000   0.000000   0.000000  -0.000000   0.000000  -0.000000
    26  C   -0.000000   0.000000  -0.000000  -0.000000   0.000000   0.000000
    27  H   -0.000000   0.000000  -0.000000  -0.000000   0.000000   0.000000
    28  H    0.000000  -0.000000   0.000000  -0.000000  -0.000000  -0.000000
              19         20         21         22         23         24
     1  C    0.000000   0.000000   0.000000  -0.000000  -0.000000  -0.000000
     2  C    0.000000   0.000000  -0.000000   0.000000  -0.000000   0.000000
     3  H    0.000000   0.000000   0.000000  -0.000000   0.000000  -0.000000
     4  H   -0.000000   0.000000  -0.000000  -0.000000  -0.000000  -0.000000
[...]
     3  H    0.000000  -0.000000  -0.000000   0.000000
     4  H    0.000000  -0.000000   0.000000   0.000000
     5  C   -0.000000   0.000000   0.000000  -0.000000
     6  C   -0.000000  -0.000000  -0.000000   0.000000
     7  H    0.000000   0.000000  -0.000000   0.000000
     8  H   -0.000000  -0.000000  -0.000000  -0.000000
     9  C    0.000000   0.000000  -0.000000   0.000000
    10  H   -0.000000   0.000000   0.000000  -0.000000
    11  H   -0.000000  -0.000000   0.000000  -0.000000
    12  C    0.000000  -0.000000  -0.000000   0.000000
    13  H   -0.000000  -0.000000  -0.000000   0.000000
    14  C    0.000000   0.000000   0.000000  -0.000000
    15  H    0.000000  -0.000000  -0.000000   0.000000
    16  C   -0.000000  -0.000000  -0.000000  -0.000000
    17  H    0.000000   0.000000   0.000000  -0.000000
    18  H   -0.000000   0.000000   0.000000  -0.000000
    19  C    0.000000  -0.000000   0.000000  -0.000000
    20  H    0.000000   0.000000  -0.000000   0.000000
    21  C    0.000000  -0.000000   0.000000  -0.000000
    22  H    0.000000   0.000000  -0.000000   0.000000
    23  C    0.000000  -0.000000  -0.000000  -0.000000
    24  H    0.000000   0.000000   0.000000   0.000000
    25  H   -0.000000   0.000000   0.000000  -0.000000
    26  C    0.000000  -0.000000   0.000000   0.000000
    27  H    0.000000   0.000000   0.000000  -0.000000
    28  H   -0.000000   0.000000  -0.000000   0.000000
 Mulliken charges and spin densities:
               1          2
     1  C   -0.209237  -0.000000
     2  C   -0.188724   0.000000
     3  H    0.141699   0.000000
     4  H    0.165161  -0.000000
     5  C   -0.162783   0.000000
     6  C   -0.188420  -0.000000
     7  H    0.154277   0.000000
     8  H    0.165041   0.000000
     9  C   -0.209295  -0.000001
    10  H    0.119393   0.000000
    11  H    0.140025   0.000000
    12  C   -0.160973   0.000000
    13  H    0.145193  -0.000000
    14  C   -0.209191   0.000000
    15  H    0.141704  -0.000000
    16  C   -0.173232   0.000000
    17  H    0.112320  -0.000000
    18  H    0.125921  -0.000000
    19  C   -0.162593  -0.000000
    20  H    0.154340  -0.000000
    21  C   -0.160863   0.000000
    22  H    0.145166   0.000000
    23  C   -0.209352   0.000001
    24  H    0.140065  -0.000000
    25  H    0.119362  -0.000000
    26  C   -0.173280  -0.000000
    27  H    0.125928   0.000000
    28  H    0.112350   0.000000
 Sum of Mulliken charges =  -0.00000  -0.00000
 Mulliken charges and spin densities with hydrogens summed into heavy atoms:
               1          2
     1  C   -0.067538  -0.000000
     2  C   -0.023563   0.000000
     5  C   -0.008506   0.000000
     6  C   -0.023379  -0.000000
     9  C    0.050123  -0.000000
    12  C   -0.015781  -0.000000
    14  C   -0.067487   0.000000
    16  C    0.065009   0.000000
    19  C   -0.008253  -0.000000
    21  C   -0.015697   0.000000
    23  C    0.050075   0.000000
    26  C    0.064997  -0.000000
 Electronic spatial extent (au):  <R**2>=           2266.0353
 Charge=             -0.0000 electrons
 Dipole moment (field-independent basis, Debye):
    X=              0.0003    Y=              0.0003    Z=             -0.0001  Tot=              0.0004
 Quadrupole moment (field-independent basis, Debye-Ang):
   XX=            -72.2648   YY=            -69.8290   ZZ=            -77.1259
   XY=             -3.3264   XZ=             -3.5801   YZ=             -1.6966
 Traceless Quadrupole moment (field-independent basis, Debye-Ang):
   XX=              0.8084   YY=              3.2442   ZZ=             -4.0527
   XY=             -3.3264   XZ=             -3.5801   YZ=             -1.6966
 Octapole moment (field-independent basis, Debye-Ang**2):
  XXX=              0.0013  YYY=              0.0035  ZZZ=             -0.0009  XYY=              0.0027
  XXY=              0.0000  XXZ=              0.0017  XZZ=              0.0000  YZZ=             -0.0005
  YYZ=             -0.0002  XYZ=              0.0001
 Hexadecapole moment (field-independent basis, Debye-Ang**3):
 XXXX=          -2073.5364 YYYY=           -629.9033 ZZZZ=           -385.8363 XXXY=           -109.6916
 XXXZ=           -139.6010 YYYX=            -62.9537 YYYZ=             -4.6090 ZZZX=            -87.2053
 ZZZY=            -15.8825 XXYY=           -448.3639 XXZZ=           -432.9785 YYZZ=           -184.5143
 XXYZ=            -23.1629 YYXZ=            -31.9572 ZZXY=            -45.1261
 N-N= 6.803117263713D+02 E-N=-2.442397938013D+03  KE= 4.642110913512D+02
                          Isotropic Fermi Contact Couplings
        Atom                 a.u.       MegaHertz       Gauss      10(-4) cm-1
     1  C(13)             -0.00000      -0.00003      -0.00001      -0.00001
     2  C(13)              0.00000       0.00000       0.00000       0.00000
     3  H(1)               0.00000       0.00003       0.00001       0.00001
     4  H(1)              -0.00000      -0.00001      -0.00000      -0.00000
     5  C(13)             -0.00000      -0.00002      -0.00001      -0.00001
     6  C(13)              0.00000       0.00002       0.00001       0.00001
     7  H(1)               0.00000       0.00006       0.00002       0.00002
     8  H(1)               0.00000       0.00000       0.00000       0.00000
     9  C(13)             -0.00000      -0.00017      -0.00006      -0.00006
    10  H(1)               0.00000       0.00010       0.00004       0.00003
    11  H(1)               0.00000       0.00012       0.00004       0.00004
    12  C(13)              0.00000       0.00002       0.00001       0.00001
    13  H(1)              -0.00000      -0.00005      -0.00002      -0.00002
    14  C(13)              0.00000       0.00001       0.00000       0.00000
    15  H(1)              -0.00000      -0.00001      -0.00000      -0.00000
    16  C(13)              0.00000       0.00009       0.00003       0.00003
    17  H(1)              -0.00000      -0.00003      -0.00001      -0.00001
    18  H(1)              -0.00000      -0.00001      -0.00000      -0.00000
    19  C(13)              0.00000       0.00000       0.00000       0.00000
    20  H(1)              -0.00000      -0.00005      -0.00002      -0.00002
    21  C(13)             -0.00000      -0.00000      -0.00000      -0.00000
    22  H(1)               0.00000       0.00003       0.00001       0.00001
    23  C(13)              0.00000       0.00016       0.00006       0.00005
    24  H(1)              -0.00000      -0.00012      -0.00004      -0.00004
    25  H(1)              -0.00000      -0.00008      -0.00003      -0.00003
    26  C(13)             -0.00000      -0.00008      -0.00003      -0.00003
    27  H(1)               0.00000       0.00000       0.00000       0.00000
    28  H(1)               0.00000       0.00001       0.00000       0.00000
 --------------------------------------------------------
       Center         ----  Spin Dipole Couplings  ----
                      3XX-RR        3YY-RR        3ZZ-RR
 --------------------------------------------------------
     1   Atom       -0.000000      0.000000     -0.000000
     2   Atom        0.000000     -0.000000      0.000000
     3   Atom       -0.000000      0.000000     -0.000000
     4   Atom        0.000000     -0.000000      0.000000
     5   Atom       -0.000000     -0.000000      0.000000
     6   Atom       -0.000000      0.000000     -0.000000
     7   Atom        0.000000     -0.000000      0.000000
     8   Atom       -0.000000      0.000000     -0.000000
     9   Atom       -0.000000      0.000000     -0.000000
    10   Atom        0.000000      0.000000     -0.000000
    11   Atom        0.000000     -0.000000      0.000000
    12   Atom        0.000000      0.000000     -0.000000
    13   Atom       -0.000000      0.000000     -0.000000
    14   Atom        0.000000     -0.000000     -0.000000
    15   Atom       -0.000000     -0.000000      0.000000
    16   Atom        0.000000     -0.000000      0.000000
    17   Atom       -0.000000     -0.000000      0.000000
    18   Atom        0.000000      0.000000     -0.000000
    19   Atom        0.000000      0.000000     -0.000000
    20   Atom       -0.000000      0.000000     -0.000000
    21   Atom       -0.000000     -0.000000      0.000000
    22   Atom       -0.000000     -0.000000      0.000000
    23   Atom        0.000000     -0.000000      0.000000
    24   Atom       -0.000000      0.000000     -0.000000
    25   Atom       -0.000000     -0.000000      0.000000
    26   Atom       -0.000000      0.000000     -0.000000
    27   Atom       -0.000000     -0.000000      0.000000
    28   Atom        0.000000      0.000000     -0.000000
 --------------------------------------------------------
                        XY            XZ            YZ
 --------------------------------------------------------
     1   Atom        0.000000     -0.000000      0.000000
     2   Atom        0.000000      0.000000      0.000000
     3   Atom       -0.000000      0.000000      0.000000
     4   Atom        0.000000     -0.000000      0.000000
     5   Atom        0.000000      0.000000     -0.000000
     6   Atom       -0.000000     -0.000000     -0.000000
     7   Atom        0.000000      0.000000     -0.000000
     8   Atom        0.000000      0.000000     -0.000000
     9   Atom       -0.000000     -0.000000     -0.000000
    10   Atom        0.000000     -0.000000      0.000000
    11   Atom       -0.000000     -0.000000     -0.000000
    12   Atom       -0.000000      0.000000     -0.000000
    13   Atom        0.000000     -0.000000     -0.000000
    14   Atom       -0.000000      0.000000     -0.000000
    15   Atom        0.000000     -0.000000     -0.000000
    16   Atom       -0.000000     -0.000000     -0.000000
    17   Atom        0.000000      0.000000      0.000000
    18   Atom       -0.000000      0.000000     -0.000000
    19   Atom       -0.000000     -0.000000     -0.000000
    20   Atom        0.000000     -0.000000      0.000000
    21   Atom        0.000000      0.000000      0.000000
    22   Atom        0.000000      0.000000      0.000000
    23   Atom        0.000000      0.000000      0.000000
    24   Atom        0.000000      0.000000      0.000000
    25   Atom       -0.000000      0.000000     -0.000000
    26   Atom        0.000000      0.000000      0.000000
    27   Atom        0.000000     -0.000000      0.000000
    28   Atom       -0.000000     -0.000000     -0.000000
 --------------------------------------------------------


 ---------------------------------------------------------------------------------
              Anisotropic Spin Dipole Couplings in Principal Axis System
 ---------------------------------------------------------------------------------

       Atom             a.u.   MegaHertz   Gauss  10(-4) cm-1        Axes

              Baa    -0.0000    -0.000    -0.000    -0.000  0.6515 -0.1403  0.7455
     1 C(13)  Bbb     0.0000     0.000     0.000     0.000  0.6993  0.4919 -0.5186
              Bcc     0.0000     0.000     0.000     0.000 -0.2940  0.8593  0.4186
 
              Baa    -0.0000    -0.000    -0.000    -0.000 -0.4641  0.8738  0.1451
     2 C(13)  Bbb    -0.0000    -0.000    -0.000    -0.000  0.6746  0.4548 -0.5814
              Bcc     0.0000     0.000     0.000     0.000  0.5740  0.1719  0.8006
 
              Baa    -0.0000    -0.000    -0.000    -0.000 -0.5928 -0.1556  0.7901
     3 H(1)   Bbb     0.0000     0.000     0.000     0.000  0.8051 -0.0891  0.5865
              Bcc     0.0000     0.000     0.000     0.000 -0.0208  0.9838  0.1781
 
              Baa    -0.0000    -0.000    -0.000    -0.000 -0.0847  0.9828 -0.1643
     4 H(1)   Bbb    -0.0000    -0.000    -0.000    -0.000  0.6318  0.1805  0.7538
              Bcc     0.0000     0.000     0.000     0.000  0.7705 -0.0399 -0.6362
 
              Baa    -0.0000    -0.000    -0.000    -0.000 -0.4936  0.8692  0.0298
     5 C(13)  Bbb    -0.0000    -0.000    -0.000    -0.000  0.8696  0.4936  0.0079
              Bcc     0.0000     0.000     0.000     0.000  0.0078 -0.0298  0.9995
 
              Baa    -0.0000    -0.000    -0.000    -0.000  0.7411  0.1737  0.6486
     6 C(13)  Bbb     0.0000     0.000     0.000     0.000 -0.4267 -0.6239  0.6547
              Bcc     0.0000     0.000     0.000     0.000 -0.5184  0.7619  0.3883
 
              Baa    -0.0000    -0.000    -0.000    -0.000 -0.4602  0.8597  0.2215
     7 H(1)   Bbb     0.0000     0.000     0.000     0.000  0.7914  0.5104 -0.3365
              Bcc     0.0000     0.000     0.000     0.000  0.4023 -0.0204  0.9153
 
              Baa    -0.0000    -0.000    -0.000    -0.000  0.7252 -0.1400 -0.6741
     8 H(1)   Bbb     0.0000     0.000     0.000     0.000  0.6877  0.1958  0.6991
              Bcc     0.0000     0.000     0.000     0.000 -0.0341  0.9706 -0.2383
 
              Baa    -0.0000    -0.000    -0.000    -0.000  0.8475  0.4556  0.2724
     9 C(13)  Bbb    -0.0000    -0.000    -0.000    -0.000 -0.2500 -0.1102  0.9620
              Bcc     0.0000     0.000     0.000     0.000 -0.4683  0.8833 -0.0205
 
              Baa    -0.0000    -0.000    -0.000    -0.000  0.4311 -0.1131  0.8952
    10 H(1)   Bbb     0.0000     0.000     0.000     0.000 -0.4311  0.8457  0.3144
              Bcc     0.0000     0.000     0.000     0.000  0.7927  0.5215 -0.3158
 
              Baa    -0.0000    -0.000    -0.000    -0.000  0.5639  0.8136  0.1417
    11 H(1)   Bbb     0.0000     0.000     0.000     0.000 -0.2972  0.0398  0.9540
              Bcc     0.0000     0.000     0.000     0.000  0.7705 -0.5801  0.2643
 
              Baa    -0.0000    -0.000    -0.000    -0.000 -0.1184  0.1860  0.9754
    12 C(13)  Bbb     0.0000     0.000     0.000     0.000  0.5797  0.8105 -0.0842
              Bcc     0.0000     0.000     0.000     0.000  0.8062 -0.5554  0.2038
 
              Baa    -0.0000    -0.000    -0.000    -0.000  0.0064  0.2946  0.9556
    13 H(1)   Bbb    -0.0000    -0.000    -0.000    -0.000  0.9833 -0.1758  0.0477
              Bcc     0.0000     0.000     0.000     0.000  0.1820  0.9393 -0.2908
 
              Baa    -0.0000    -0.000    -0.000    -0.000 -0.3632  0.5497  0.7523
    14 C(13)  Bbb    -0.0000    -0.000    -0.000    -0.000  0.4849  0.8010 -0.3512
              Bcc     0.0000     0.000     0.000     0.000  0.7956 -0.2372  0.5574
 
              Baa    -0.0000    -0.000    -0.000    -0.000  0.5596  0.7171  0.4153
    15 H(1)   Bbb    -0.0000    -0.000    -0.000    -0.000  0.7051 -0.6754  0.2161
              Bcc     0.0000     0.000     0.000     0.000 -0.4355 -0.1719  0.8836
 
              Baa    -0.0000    -0.000    -0.000    -0.000  0.0550  0.9970  0.0551
    16 C(13)  Bbb    -0.0000    -0.000    -0.000    -0.000  0.6609 -0.0777  0.7464
              Bcc     0.0000     0.000     0.000     0.000  0.7485 -0.0046 -0.6632
 
              Baa    -0.0000    -0.000    -0.000    -0.000  0.0254  0.9209 -0.3891
    17 H(1)   Bbb    -0.0000    -0.000    -0.000    -0.000  0.9183 -0.1753 -0.3550
              Bcc     0.0000     0.000     0.000     0.000  0.3951  0.3482  0.8501
 
              Baa    -0.0000    -0.000    -0.000    -0.000  0.5183  0.7117  0.4742
    18 H(1)   Bbb    -0.0000    -0.000    -0.000    -0.000 -0.5573 -0.1395  0.8185
              Bcc     0.0000     0.000     0.000     0.000 -0.6487  0.6885 -0.3243
 
              Baa    -0.0000    -0.000    -0.000    -0.000  0.2260  0.0674  0.9718
    19 C(13)  Bbb     0.0000     0.000     0.000     0.000  0.9167  0.3228 -0.2356
              Bcc     0.0000     0.000     0.000     0.000 -0.3296  0.9440  0.0112
 
              Baa    -0.0000    -0.000    -0.000    -0.000  0.5007 -0.0378  0.8648
    20 H(1)   Bbb     0.0000     0.000     0.000     0.000  0.8410 -0.2151 -0.4964
              Bcc     0.0000     0.000     0.000     0.000  0.2048  0.9759 -0.0759
 
              Baa    -0.0000    -0.000    -0.000    -0.000 -0.3269  0.9447 -0.0249
    21 C(13)  Bbb    -0.0000    -0.000    -0.000    -0.000  0.9273  0.3155 -0.2014
              Bcc     0.0000     0.000     0.000     0.000  0.1824  0.0889  0.9792
 
              Baa    -0.0000    -0.000    -0.000    -0.000  0.7491 -0.6506 -0.1249
    22 H(1)   Bbb     0.0000     0.000     0.000     0.000  0.5274  0.6998 -0.4818
              Bcc     0.0000     0.000     0.000     0.000  0.4008  0.2951  0.8673
 
              Baa    -0.0000    -0.000    -0.000    -0.000 -0.4600  0.8879 -0.0061
    23 C(13)  Bbb     0.0000     0.000     0.000     0.000 -0.3627 -0.1816  0.9140
              Bcc     0.0000     0.000     0.000     0.000  0.8105  0.4227  0.4056
 
              Baa    -0.0000    -0.000    -0.000    -0.000  0.7007 -0.5251  0.4830
    24 H(1)   Bbb    -0.0000    -0.000    -0.000    -0.000 -0.4775  0.1578  0.8643
              Bcc     0.0000     0.000     0.000     0.000  0.5301  0.8363  0.1402
 
              Baa    -0.0000    -0.000    -0.000    -0.000  0.7794  0.5385 -0.3203
    25 H(1)   Bbb    -0.0000    -0.000    -0.000    -0.000 -0.4331  0.8325  0.3455
              Bcc     0.0000     0.000     0.000     0.000  0.4527 -0.1306  0.8820
 
              Baa    -0.0000    -0.000    -0.000    -0.000  0.7489  0.0030 -0.6627
    26 C(13)  Bbb     0.0000     0.000     0.000     0.000  0.6612 -0.0687  0.7470
              Bcc     0.0000     0.000     0.000     0.000  0.0433  0.9976  0.0535
 
              Baa    -0.0000    -0.000    -0.000    -0.000 -0.5827  0.7396 -0.3368
    27 H(1)   Bbb     0.0000     0.000     0.000     0.000  0.7658  0.3609 -0.5323
              Bcc     0.0000     0.000     0.000     0.000  0.2721  0.5681  0.7766
 
              Baa    -0.0000    -0.000    -0.000    -0.000  0.4301  0.4061  0.8063
    28 H(1)   Bbb     0.0000     0.000     0.000     0.000  0.5160  0.6222 -0.5887
              Bcc     0.0000     0.000     0.000     0.000  0.7408 -0.6692 -0.0580
 

 ---------------------------------------------------------------------------------

 No NMR shielding tensors so no spin-rotation constants.
 Leave Link  601 at Mon Aug  3 15:05:04 2020, MaxMem=  6442450944 cpu:               8.3 elap:               0.5
 (Enter /scratch/scicomp/CentOS/7.3.1611/Haswell/software/Gaussian/g16/l9999.exe)
 1\1\GINC-ATLAS-205\SP\UwB97XD\def2TZVP\C12H16\BOCHEN\03-Aug-2020\0\\#p
  uwb97xd guess=mix def2tzvp # scrf=(iefpcm,solvent=Cyclohexane,read) n
 osym 6d 10f\\endo-2 xp-pcm for eta=3\\0,1\C,0,-3.126891,-0.440888,0.25
 5118\C,0,-0.684423,-0.239784,-1.165641\H,0,-4.081225,-0.540147,0.75934
 \H,0,0.279559,-0.151378,-1.650033\C,0,1.137152,1.419764,0.752892\C,0,0
 .684423,0.239784,1.165641\H,0,0.543796,2.316608,0.882649\H,0,-0.279559
 ,0.151379,1.650033\C,0,1.527143,-0.999005,1.070559\H,0,2.02746,-1.1199
 61,2.03974\H,0,0.894773,-1.877853,0.948868\C,0,2.443219,1.525992,0.104
 99\H,0,2.846024,2.512508,-0.09124\C,0,3.126891,0.440888,-0.255118\H,0,
 4.081225,0.540147,-0.75934\C,0,2.582831,-0.945113,-0.039623\H,0,2.1640
 96,-1.304863,-0.98762\H,0,3.396382,-1.633179,0.198658\C,0,-1.137152,-1
 .419764,-0.752892\H,0,-0.543796,-2.316608,-0.882649\C,0,-2.443219,-1.5
 25992,-0.10499\H,0,-2.846024,-2.512508,0.09124\C,0,-1.527143,0.999005,
 -1.070559\H,0,-0.894773,1.877853,-0.948868\H,0,-2.02746,1.119961,-2.03
 974\C,0,-2.582831,0.945113,0.039623\H,0,-3.396382,1.633179,-0.198658\H
 ,0,-2.164097,1.304863,0.98762\\Version=ES64L-G16RevB.01\HF=-466.853138
 2\S2=0.\S2-1=0.\S2A=0.\RMSD=4.498e-09\Dipole=0.0000996,0.0001226,-0.00
 00584\Quadrupole=0.6010498,2.4120113,-3.013061,-2.4730664,-2.6617057,-
 1.2613542\PG=CI [X(C12H16)]\\@


 NOTHING WILL BE ATTEMPTED IF ALL POSSIBLE OBJECTIONS
 MUST FIRST BE OVERCOME.

                               -- THE GOLDEN PRINCIPLE,
                    PAUL DICKSON'S "THE OFFICIAL RULES"
 Job cpu time:       0 days  2 hours  7 minutes 10.8 seconds.
 Elapsed time:       0 days  0 hours  5 minutes 21.2 seconds.
 File lengths (MBytes):  RWF=    634 Int=      0 D2E=      0 Chk=     23 Scr=      1
 Normal termination of Gaussian 16 at Mon Aug  3 15:05:04 2020.
