 Entering Gaussian System, Link 0=g16
 Input=meso-TS_70_2_xp-Ger.com
 Output=meso-TS_70_2_xp-Ger.log
 Initial command:
 /scratch/scicomp/CentOS/7.3.1611/Haswell/software/Gaussian/g16/l1.exe "/scratch/bochen/cyclohexadiene-dimerization/wb97xd-def2tzvp/xp-pcm/meso/Gau-194553.inp" -scrdir="/scratch/bochen/cyclohexadiene-dimerization/wb97xd-def2tzvp/xp-pcm/meso/"
 Entering Link 1 = /scratch/scicomp/CentOS/7.3.1611/Haswell/software/Gaussian/g16/l1.exe PID=    194556.
  
 Copyright (c) 1988-2017, Gaussian, Inc.  All Rights Reserved.
  
 This is part of the Gaussian(R) 16 program.  It is based on
 the Gaussian(R) 09 system (copyright 2009, Gaussian, Inc.),
 the Gaussian(R) 03 system (copyright 2003, Gaussian, Inc.),
 the Gaussian(R) 98 system (copyright 1998, Gaussian, Inc.),
 the Gaussian(R) 94 system (copyright 1995, Gaussian, Inc.),
 the Gaussian 92(TM) system (copyright 1992, Gaussian, Inc.),
 the Gaussian 90(TM) system (copyright 1990, Gaussian, Inc.),
 the Gaussian 88(TM) system (copyright 1988, Gaussian, Inc.),
 the Gaussian 86(TM) system (copyright 1986, Carnegie Mellon
 University), and the Gaussian 82(TM) system (copyright 1983,
 Carnegie Mellon University). Gaussian is a federally registered
 trademark of Gaussian, Inc.
  
 This software contains proprietary and confidential information,
 including trade secrets, belonging to Gaussian, Inc.
  
 This software is provided under written license and may be
 used, copied, transmitted, or stored only in accord with that
 written license.
  
 The following legend is applicable only to US Government
 contracts under FAR:
  
                    RESTRICTED RIGHTS LEGEND
  
 Use, reproduction and disclosure by the US Government is
 subject to restrictions as set forth in subparagraphs (a)
 and (c) of the Commercial Computer Software - Restricted
 Rights clause in FAR 52.227-19.
  
 Gaussian, Inc.
 340 Quinnipiac St., Bldg. 40, Wallingford CT 06492
  
  
 ---------------------------------------------------------------
 Warning -- This program may not be used in any manner that
 competes with the business of Gaussian, Inc. or will provide
 assistance to any competitor of Gaussian, Inc.  The licensee
 of this program is prohibited from giving any competitor of
 Gaussian, Inc. access to this program.  By using this program,
 the user acknowledges that Gaussian, Inc. is engaged in the
 business of creating and licensing software in the field of
 computational chemistry and represents and warrants to the
 licensee that it is not a competitor of Gaussian, Inc. and that
 it will not use this program in any manner prohibited above.
 ---------------------------------------------------------------
  

 Cite this work as:
 Gaussian 16, Revision B.01,
 M. J. Frisch, G. W. Trucks, H. B. Schlegel, G. E. Scuseria, 
 M. A. Robb, J. R. Cheeseman, G. Scalmani, V. Barone, 
 G. A. Petersson, H. Nakatsuji, X. Li, M. Caricato, A. V. Marenich, 
 J. Bloino, B. G. Janesko, R. Gomperts, B. Mennucci, H. P. Hratchian, 
 J. V. Ortiz, A. F. Izmaylov, J. L. Sonnenberg, D. Williams-Young, 
 F. Ding, F. Lipparini, F. Egidi, J. Goings, B. Peng, A. Petrone, 
 T. Henderson, D. Ranasinghe, V. G. Zakrzewski, J. Gao, N. Rega, 
 G. Zheng, W. Liang, M. Hada, M. Ehara, K. Toyota, R. Fukuda, 
 J. Hasegawa, M. Ishida, T. Nakajima, Y. Honda, O. Kitao, H. Nakai, 
 T. Vreven, K. Throssell, J. A. Montgomery, Jr., J. E. Peralta, 
 F. Ogliaro, M. J. Bearpark, J. J. Heyd, E. N. Brothers, K. N. Kudin, 
 V. N. Staroverov, T. A. Keith, R. Kobayashi, J. Normand, 
 K. Raghavachari, A. P. Rendell, J. C. Burant, S. S. Iyengar, 
 J. Tomasi, M. Cossi, J. M. Millam, M. Klene, C. Adamo, R. Cammi, 
 J. W. Ochterski, R. L. Martin, K. Morokuma, O. Farkas, 
 J. B. Foresman, and D. J. Fox, Gaussian, Inc., Wallingford CT, 2016.
 
 ******************************************
 Gaussian 16:  ES64L-G16RevB.01 20-Dec-2017
                 3-Aug-2020 
 ******************************************
 %chk=meso-TS_70_2_xp-12.chk
 %nproc=24
 Will use up to   24 processors via shared memory.
 %mem=48GB
 ----------------------------------------------------------------------
 #p uwb97xd guess=mix def2tzvp # scrf=(iefpcm,solvent=Cyclohexane,read)
  nosym 6d 10f
 ----------------------------------------------------------------------
 1/38=1,40=2,172=1/1;
 2/12=2,15=1,17=6,18=5,40=1/2;
 3/5=44,7=101,8=22,11=2,25=1,30=1,70=2203,72=17,74=-58,116=2/1,2,3;
 4/13=-1/1;
 5/5=2,38=5,53=17/2;
 6/7=2,8=2,9=2,10=2,28=1/1;
 99/5=1,9=1/99;
 Leave Link    1 at Mon Aug  3 22:13:10 2020, MaxMem=  6442450944 cpu:               3.0 elap:               0.1
 (Enter /scratch/scicomp/CentOS/7.3.1611/Haswell/software/Gaussian/g16/l101.exe)
 -----------------------
 endo-2 xp-pcm for eta=3
 -----------------------
 Symbolic Z-matrix:
 Charge =  0 Multiplicity = 1
 6                    -3.12194  -0.43992   0.27777 
 6                    -0.79716  -0.26748  -1.3333 
 1                    -4.04452  -0.52162   0.84073 
 1                     0.13262  -0.19248  -1.88412 
 6                     1.21368   1.43672   0.85501 
 6                     0.79716   0.26748   1.3333 
 1                     0.62547   2.33469   1.00297 
 1                    -0.13262   0.19248   1.88412 
 6                     1.62597  -0.97588   1.18436 
 1                     2.21925  -1.09518   2.10035 
 1                     0.97777  -1.85161   1.12561 
 6                     2.47885   1.53438   0.12517 
 1                     2.87917   2.5172   -0.09322 
 6                     3.12194   0.43992  -0.27777 
 1                     4.04452   0.52162  -0.84073 
 6                     2.55568  -0.9319   -0.03155 
 1                     2.00912  -1.24349  -0.93009 
 1                     3.36134  -1.65779   0.09305 
 6                    -1.21368  -1.43672  -0.85501 
 1                    -0.62547  -2.33469  -1.00297 
 6                    -2.47885  -1.53438  -0.12517 
 1                    -2.87917  -2.5172    0.09322 
 6                    -1.62597   0.97588  -1.18436 
 1                    -0.97777   1.85161  -1.12561 
 1                    -2.21925   1.09518  -2.10035 
 6                    -2.55568   0.9319    0.03155 
 1                    -3.36134   1.65779  -0.09305 
 1                    -2.00912   1.24349   0.93009 
 
 ITRead=  0  0  0  0  0  0  0  0  0  0  0  0  0  0  0  0  0  0  0  0
 ITRead=  0  0  0  0  0  0  0  0
 MicOpt= -1 -1 -1 -1 -1 -1 -1 -1 -1 -1 -1 -1 -1 -1 -1 -1 -1 -1 -1 -1
 MicOpt= -1 -1 -1 -1 -1 -1 -1 -1
 NAtoms=     28 NQM=       28 NQMF=       0 NMMI=      0 NMMIF=      0
                NMic=       0 NMicF=      0.
                    Isotopes and Nuclear Properties:
 (Nuclear quadrupole moments (NQMom) in fm**2, nuclear magnetic moments (NMagM)
  in nuclear magnetons)

  Atom         1           2           3           4           5           6           7           8           9          10
 IAtWgt=          12          12           1           1          12          12           1           1          12           1
 AtmWgt=  12.0000000  12.0000000   1.0078250   1.0078250  12.0000000  12.0000000   1.0078250   1.0078250  12.0000000   1.0078250
 NucSpn=           0           0           1           1           0           0           1           1           0           1
 AtZEff=  -0.0000000  -0.0000000  -0.0000000  -0.0000000  -0.0000000  -0.0000000  -0.0000000  -0.0000000  -0.0000000  -0.0000000
 NQMom=    0.0000000   0.0000000   0.0000000   0.0000000   0.0000000   0.0000000   0.0000000   0.0000000   0.0000000   0.0000000
 NMagM=    0.0000000   0.0000000   2.7928460   2.7928460   0.0000000   0.0000000   2.7928460   2.7928460   0.0000000   2.7928460
 AtZNuc=   6.0000000   6.0000000   1.0000000   1.0000000   6.0000000   6.0000000   1.0000000   1.0000000   6.0000000   1.0000000

  Atom        11          12          13          14          15          16          17          18          19          20
 IAtWgt=           1          12           1          12           1          12           1           1          12           1
 AtmWgt=   1.0078250  12.0000000   1.0078250  12.0000000   1.0078250  12.0000000   1.0078250   1.0078250  12.0000000   1.0078250
 NucSpn=           1           0           1           0           1           0           1           1           0           1
 AtZEff=  -0.0000000  -0.0000000  -0.0000000  -0.0000000  -0.0000000  -0.0000000  -0.0000000  -0.0000000  -0.0000000  -0.0000000
 NQMom=    0.0000000   0.0000000   0.0000000   0.0000000   0.0000000   0.0000000   0.0000000   0.0000000   0.0000000   0.0000000
 NMagM=    2.7928460   0.0000000   2.7928460   0.0000000   2.7928460   0.0000000   2.7928460   2.7928460   0.0000000   2.7928460
 AtZNuc=   1.0000000   6.0000000   1.0000000   6.0000000   1.0000000   6.0000000   1.0000000   1.0000000   6.0000000   1.0000000

  Atom        21          22          23          24          25          26          27          28
 IAtWgt=          12           1          12           1           1          12           1           1
 AtmWgt=  12.0000000   1.0078250  12.0000000   1.0078250   1.0078250  12.0000000   1.0078250   1.0078250
 NucSpn=           0           1           0           1           1           0           1           1
 AtZEff=  -0.0000000  -0.0000000  -0.0000000  -0.0000000  -0.0000000  -0.0000000  -0.0000000  -0.0000000
 NQMom=    0.0000000   0.0000000   0.0000000   0.0000000   0.0000000   0.0000000   0.0000000   0.0000000
 NMagM=    0.0000000   2.7928460   0.0000000   2.7928460   2.7928460   0.0000000   2.7928460   2.7928460
 AtZNuc=   6.0000000   1.0000000   6.0000000   1.0000000   1.0000000   6.0000000   1.0000000   1.0000000
 Leave Link  101 at Mon Aug  3 22:13:11 2020, MaxMem=  6442450944 cpu:               2.4 elap:               0.1
 (Enter /scratch/scicomp/CentOS/7.3.1611/Haswell/software/Gaussian/g16/l202.exe)
                          Input orientation:                          
 ---------------------------------------------------------------------
 Center     Atomic      Atomic             Coordinates (Angstroms)
 Number     Number       Type             X           Y           Z
 ---------------------------------------------------------------------
      1          6           0       -3.121942   -0.439924    0.277771
      2          6           0       -0.797162   -0.267484   -1.333299
      3          1           0       -4.044520   -0.521623    0.840727
      4          1           0        0.132617   -0.192479   -1.884118
      5          6           0        1.213684    1.436717    0.855014
      6          6           0        0.797162    0.267484    1.333299
      7          1           0        0.625474    2.334691    1.002965
      8          1           0       -0.132617    0.192479    1.884118
      9          6           0        1.625967   -0.975882    1.184356
     10          1           0        2.219247   -1.095182    2.100353
     11          1           0        0.977773   -1.851608    1.125614
     12          6           0        2.478853    1.534377    0.125170
     13          1           0        2.879166    2.517204   -0.093218
     14          6           0        3.121942    0.439924   -0.277771
     15          1           0        4.044520    0.521623   -0.840727
     16          6           0        2.555680   -0.931899   -0.031548
     17          1           0        2.009120   -1.243493   -0.930088
     18          1           0        3.361336   -1.657785    0.093053
     19          6           0       -1.213684   -1.436717   -0.855014
     20          1           0       -0.625474   -2.334691   -1.002965
     21          6           0       -2.478853   -1.534377   -0.125170
     22          1           0       -2.879166   -2.517204    0.093218
     23          6           0       -1.625967    0.975882   -1.184356
     24          1           0       -0.977773    1.851608   -1.125614
     25          1           0       -2.219247    1.095182   -2.100353
     26          6           0       -2.555680    0.931899    0.031548
     27          1           0       -3.361336    1.657785   -0.093053
     28          1           0       -2.009120    1.243493    0.930088
 ---------------------------------------------------------------------
                    Distance matrix (angstroms):
                    1          2          3          4          5
     1  C    0.000000
     2  C    2.833705   0.000000
     3  H    1.083856   3.916160   0.000000
     4  H    3.914990   1.083290   4.998159   0.000000
     5  C    4.759479   3.425860   5.611061   3.365387   0.000000
     6  C    4.119944   3.152587   4.930233   3.317372   1.330170
     7  H    4.718847   3.775359   5.476650   3.868429   1.083623
     8  H    3.452006   3.317372   4.111155   3.797123   2.102311
     9  C    4.863310   3.565385   5.699022   3.501335   2.469631
    10  H    5.681502   4.644758   6.414858   4.587473   2.995420
    11  H    4.418071   3.421417   5.203215   3.539136   3.307863
    12  C    5.940543   4.013242   6.877031   3.538940   1.463852
    13  H    6.700413   4.775738   7.618671   4.253614   2.200097
    14  C    6.329996   4.119944   7.316679   3.452006   2.432745
    15  H    7.316679   4.930233   8.327558   4.111155   3.424408
    16  C    5.707286   3.657534   6.670220   3.138470   2.863090
    17  H    5.332208   2.998398   6.348499   2.352885   3.317052
    18  H    6.599258   4.610913   7.529713   4.059674   3.843037
    19  C    2.432745   1.330170   3.424408   2.102311   4.131941
    20  H    3.385673   2.100462   4.286758   2.437254   4.588911
    21  C    1.331823   2.427484   2.099986   3.422625   4.839730
    22  H    2.099546   3.380966   2.428819   4.287778   5.741537
    23  C    2.525918   1.501686   3.491831   2.224264   3.526332
    24  H    3.437742   2.136891   4.347834   2.446750   2.982869
    25  H    2.971007   2.113659   3.820423   2.689999   4.542671
    26  C    1.504386   2.528579   2.232519   3.487254   3.891149
    27  H    2.143642   3.438002   2.467490   4.340403   4.677447
    28  H    2.120798   2.979063   2.695640   3.816911   3.229464
                    6          7          8          9         10
     6  C    0.000000
     7  H    2.100462   0.000000
     8  H    1.083290   2.437254   0.000000
     9  C    1.501686   3.463204   2.224264   0.000000
    10  H    2.113659   3.938071   2.689999   1.097845   0.000000
    11  H    2.136891   4.202887   2.446750   1.091101   1.750301
    12  C    2.427484   2.201372   3.422625   2.854941   3.298988
    13  H    3.380966   2.512779   4.287778   3.924838   4.277450
    14  C    2.833705   3.385673   3.914990   2.525918   2.971007
    15  H    3.916160   4.286758   4.998159   3.491831   3.820423
    16  C    2.528579   3.932750   3.487254   1.531249   2.164452
    17  H    2.979063   4.295878   3.816911   2.165478   3.041336
    18  H    3.438002   4.924708   4.340403   2.160426   2.377003
    19  C    3.425860   4.588911   3.365387   3.526332   4.542671
    20  H    3.775359   5.233713   3.868429   3.420486   4.388554
    21  C    4.013242   5.087162   3.538940   4.344689   5.217086
    22  H    4.775738   6.054009   4.253614   4.884924   5.660791
    23  C    3.565385   3.420486   3.501335   4.471605   5.464823
    24  H    3.421417   2.708250   3.539136   4.484431   5.413998
    25  H    4.644758   4.388554   4.587473   5.464823   6.491830
    26  C    3.657534   3.609878   3.138470   4.738646   5.584706
    27  H    4.610913   4.189763   4.059674   5.782834   6.597936
    28  H    2.998398   2.852562   2.352885   4.266630   4.971721
                   11         12         13         14         15
    11  H    0.000000
    12  C    3.836538   0.000000
    13  H    4.918065   1.083463   0.000000
    14  C    3.437742   1.331823   2.099546   0.000000
    15  H    4.347834   2.099986   2.428819   1.083856   0.000000
    16  C    2.162101   2.472444   3.464788   1.504386   2.232519
    17  H    2.378947   3.008451   3.949705   2.120798   2.695640
    18  H    2.604827   3.312055   4.206866   2.143642   2.467490
    19  C    2.982869   4.839730   5.741537   4.759479   5.611061
    20  H    2.708250   5.087162   6.054009   4.718847   5.476650
    21  C    3.689629   5.835989   6.717492   5.940543   6.877031
    22  H    4.047819   6.717492   7.651040   6.700413   7.618671
    23  C    4.484431   4.344689   4.884924   4.863310   5.699022
    24  H    4.754576   3.689629   4.047819   4.418071   5.203215
    25  H    5.413998   5.217086   5.660791   5.681502   6.414858
    26  C    4.629274   5.071318   5.662712   5.707286   6.670220
    27  H    5.712167   5.845567   6.299402   6.599258   7.529713
    28  H    4.305742   4.568852   5.154109   5.332208   6.348499
                   16         17         18         19         20
    16  C    0.000000
    17  H    1.096901   0.000000
    18  H    1.091567   1.745550   0.000000
    19  C    3.891149   3.229464   4.677447   0.000000
    20  H    3.609878   2.852562   4.189763   1.083623   0.000000
    21  C    5.071318   4.568852   5.845567   1.463852   2.201372
    22  H    5.662712   5.154109   6.299402   2.200097   2.512779
    23  C    4.738646   4.266630   5.782834   2.469631   3.463204
    24  H    4.629274   4.305742   5.712167   3.307863   4.202887
    25  H    5.584706   4.971721   6.597936   2.995420   3.938071
    26  C    5.440931   5.147278   6.459205   2.863090   3.932750
    27  H    6.459205   6.161156   7.498130   3.843037   4.924708
    28  H    5.147278   5.078544   6.161156   3.317052   4.295878
                   21         22         23         24         25
    21  C    0.000000
    22  H    1.083463   0.000000
    23  C    2.854941   3.924838   0.000000
    24  H    3.836538   4.918065   1.091101   0.000000
    25  H    3.298988   4.277450   1.097845   1.750301   0.000000
    26  C    2.472444   3.464788   1.531249   2.162101   2.164452
    27  H    3.312055   4.206866   2.160426   2.604827   2.377003
    28  H    3.008451   3.949705   2.165478   2.378947   3.041336
                   26         27         28
    26  C    0.000000
    27  H    1.091567   0.000000
    28  H    1.096901   1.745550   0.000000
 Symmetry turned off by external request.
 Stoichiometry    C12H16
 Framework group  CI[X(C12H16)]
 Deg. of freedom    39
 Full point group                 CI      NOp   2
 Rotational constants (GHZ):           1.6958170           0.5775969           0.5292964
 Leave Link  202 at Mon Aug  3 22:13:11 2020, MaxMem=  6442450944 cpu:               0.3 elap:               0.0
 (Enter /scratch/scicomp/CentOS/7.3.1611/Haswell/software/Gaussian/g16/l301.exe)
 Standard basis: def2TZVP (6D, 10F)
 Ernie: Thresh=  0.10000D-02 Tol=  0.10000D-05 Strict=F.
   528 basis functions,   740 primitive gaussians,   528 cartesian basis functions
    44 alpha electrons       44 beta electrons
       nuclear repulsion energy       670.8483891011 Hartrees.
 IExCor= 4639 DFT=T Ex+Corr=wB97XD ExCW=0 ScaHFX=  1.000000
 ScaDFX=  1.000000  1.000000  1.000000  1.000000 ScalE2=  1.000000  1.000000
 IRadAn=      5 IRanWt=     -1 IRanGd=            0 ICorTp=0 IEmpDi=121
 HFx  wShort=  0.000000 wLong=  0.200000 cFull=  0.222036 cShort=  0.000000 cLong=  0.777964
 DFx  wShort=  0.000000 wLong=  0.200000 cFull=  0.000000 cShort=  0.000000 cLong=  1.000000
 NAtoms=   28 NActive=   28 NUniq=   28 SFac= 1.00D+00 NAtFMM=   60 NAOKFM=F Big=F
 Integral buffers will be    131072 words long.
 Raffenetti 2 integral format.
 Two-electron integral symmetry is turned off.
 R6Disp:  Grimme-D2 Dispersion energy=       -0.0213014488 Hartrees.
 Nuclear repulsion after empirical dispersion term =      670.8270876523 Hartrees.
 Using the following non-standard input for PCM:
 qrep pcmdoc geomview  nodis nocav g03defaults tsare=0.075
 Warning! Using old PCM defaults because the g03defaults keyword was found.
 These settings can be overridden by following keywords.
 nsfe=28
 NVESolv=36  SolvMW=84.1595   Rsolv=2.815
 eps=2.0165 RhoS=0.778099999999998
 --- end of non-standard input.
 Reading user-defined spheres from input:
 ISph  on   Nord    Re0     Alpha      Xe            Ye            Ze
 --- end of user-defined spheres data.
 ------------------------------------------------------------------------------
 Polarizable Continuum Model (PCM)
 =================================
 Model                : PCM.
 Atomic radii         : UA0 (Simple United Atom Topological Model).
 Polarization charges : Total charges.
 Charge compensation  : None.
 Solution method      : On-the-fly selection.
 Cavity type          : SES (Solvent Excluding Surface) (Alpha=1.000).
 Cavity algorithm     : GePol (RMin=0.200 OFac=0.890).
                        User-defined sphere list used, NSphG=   28.
                        Tesserae with average area of 0.075 Ang**2.
                        Smoothing algorithm: None.
                        Polarization charges: point-like.
                        Self-potential: constant (ISelfS= 1).
                        Self-field    : global E.n sum rule (ISelfD= 3).
 Solvent              : CycloHexane, Eps=   2.016500 Eps(inf)=   2.035188
                        RSolv=   2.815000 Ang.
 ------------------------------------------------------------------------------
 GePol: Number of generator spheres                  =      28
 GePol: Total number of spheres                      =     187
 GePol: Number of exposed spheres                    =     124 ( 66.31%)
 GePol: Number of tesserae                           =    4673
 GePol: Average area of tesserae                     =       0.05 Ang**2
 GePol: Minimum area of tessera                      =   0.10D-02 Ang**2
 GePol: Maximum area of tessera                      =    0.12643 Ang**2
 GePol: Number of small tesserae                     =       0
 GePol: Fraction of small tesserae (<1% of avg)      =       0.00%
 GePol: Total count of vertices                      =   16531
 GePol: Maximum number of vertices in a tessera      =       7
 GePol: Cavity surface area                          =    224.294 Ang**2
 GePol: Cavity volume                                =    256.576 Ang**3
 Leave Link  301 at Mon Aug  3 22:13:11 2020, MaxMem=  6442450944 cpu:               8.1 elap:               0.4
 (Enter /scratch/scicomp/CentOS/7.3.1611/Haswell/software/Gaussian/g16/l302.exe)
 NPDir=0 NMtPBC=     1 NCelOv=     1 NCel=       1 NClECP=     1 NCelD=      1
         NCelK=      1 NCelE2=     1 NClLst=     1 CellRange=     0.0.
 One-electron integrals computed using PRISM.
   1 Symmetry operations used in ECPInt.
 ECPInt:  NShTT=   19306 NPrTT=   56928 LenC2=   18456 LenP2D=   41748.
 LDataN:  DoStor=T MaxTD1= 6 Len=  172
 NBasis=   528 RedAO= T EigKep=  1.98D-05  NBF=   528
 NBsUse=   528 1.00D-06 EigRej= -1.00D+00 NBFU=   528
 Precomputing XC quadrature grid using
 IXCGrd= 4 IRadAn=           5 IRanWt=          -1 IRanGd=           0 AccXCQ= 0.00D+00.
 Generated NRdTot=       0 NPtTot=           0 NUsed=           0 NTot=          32
 NSgBfM=   526   526   526   526   526 MxSgAt=    28 MxSgA2=    28.
 Leave Link  302 at Mon Aug  3 22:13:12 2020, MaxMem=  6442450944 cpu:              12.8 elap:               0.6
 (Enter /scratch/scicomp/CentOS/7.3.1611/Haswell/software/Gaussian/g16/l303.exe)
 DipDrv:  MaxL=1.
 Leave Link  303 at Mon Aug  3 22:13:12 2020, MaxMem=  6442450944 cpu:               1.6 elap:               0.1
 (Enter /scratch/scicomp/CentOS/7.3.1611/Haswell/software/Gaussian/g16/l401.exe)
 ExpMin= 9.52D-02 ExpMax= 1.36D+04 ExpMxC= 4.63D+02 IAcc=3 IRadAn=         5 AccDes= 0.00D+00
 Harris functional with IExCor= 4639 and IRadAn=       5 diagonalized for initial guess.
 HarFok:  IExCor= 4639 AccDes= 0.00D+00 IRadAn=         5 IDoV= 1 UseB2=F ITyADJ=14
 ICtDFT=  3500011 ScaDFX=  1.000000  1.000000  1.000000  1.000000
 FoFCou: FMM=F IPFlag=           0 FMFlag=      100000 FMFlg1=           0
         NFxFlg=           0 DoJE=T BraDBF=F KetDBF=T FulRan=T
         wScrn=  0.000000 ICntrl=       500 IOpCl=  0 I1Cent=   200000004 NGrid=           0
         NMat0=    1 NMatS0=      1 NMatT0=    0 NMatD0=    1 NMtDS0=    0 NMtDT0=    0
 Symmetry not used in FoFCou.
 Harris En= -444.660334808780    
 JPrj=0 DoOrth=F DoCkMO=T.
 Mixing orbitals, IMix= 1 IMixAn=  0 NRI=1 NE=   44 Coef=  7.07106781D-01  7.07106781D-01
 Mixing orbitals, IMix= 1 IMixAn=  0 NRI=1 NE=   44 Coef= -7.07106781D-01  7.07106781D-01
 Initial guess <Sx>= 0.0000 <Sy>= 0.0000 <Sz>= 0.0000 <S**2>= 1.0000 S= 0.6180
 Leave Link  401 at Mon Aug  3 22:13:14 2020, MaxMem=  6442450944 cpu:              48.3 elap:               2.1
 (Enter /scratch/scicomp/CentOS/7.3.1611/Haswell/software/Gaussian/g16/l502.exe)
 Two-electron integral symmetry not used.
 UHF open shell SCF:
 Using DIIS extrapolation, IDIIS=  1040.
 NGot=  6442450944 LenX=  6441877030 LenY=  6441597718
 Requested convergence on RMS density matrix=1.00D-08 within 128 cycles.
 Requested convergence on MAX density matrix=1.00D-06.
 Requested convergence on             energy=1.00D-06.
 No special actions if energy rises.
 Fock matrices will be formed incrementally for  20 cycles.

 Cycle   1  Pass 1  IDiag  1:
 FoFJK:  IHMeth= 1 ICntrl=       0 DoSepK=T KAlg= 0 I1Cent=           0 FoldK=F
 IRaf=         1 NMat=       1 IRICut=       1 DoRegI=T DoRafI=F ISym2E= 0 IDoP0=0 IntGTp=1.
 FoFCou: FMM=F IPFlag=           0 FMFlag=      100000 FMFlg1=           0
         NFxFlg=           0 DoJE=T BraDBF=F KetDBF=F FulRan=T
         wScrn=  0.000000 ICntrl=       500 IOpCl=  0 I1Cent=           0 NGrid=           0
         NMat0=    1 NMatS0=      1 NMatT0=    0 NMatD0=    1 NMtDS0=    0 NMtDT0=    0
 Symmetry not used in FoFCou.
 Inv3:  Mode=1 IEnd=    65510787.
 Iteration    1 A*A^-1 deviation from unit magnitude is 3.66D-15 for   1852.
 Iteration    1 A*A^-1 deviation from orthogonality  is 2.27D-15 for   4575   4545.
 Iteration    1 A^-1*A deviation from unit magnitude is 3.66D-15 for   1852.
 Iteration    1 A^-1*A deviation from orthogonality  is 1.65D-15 for   4482   4460.
 E= -466.565068362056    
 DIIS: error= 4.70D-02 at cycle   1 NSaved=   1.
 NSaved= 1 IEnMin= 1 EnMin= -466.565068362056     IErMin= 1 ErrMin= 4.70D-02
 ErrMax= 4.70D-02  0.00D+00 EMaxC= 1.00D-01 BMatC= 4.12D+00 BMatP= 4.12D+00
 IDIUse=3 WtCom= 5.30D-01 WtEn= 4.70D-01
 Coeff-Com:  0.100D+01
 Coeff-En:   0.100D+01
 Coeff:      0.100D+01
 Gap=     0.179 Goal=   None    Shift=    0.000
 Gap=     0.179 Goal=   None    Shift=    0.000
 GapD=    0.179 DampG=1.000 DampE=0.500 DampFc=0.5000 IDamp=-1.
 Damping current iteration by 5.00D-01
 RMSDP=1.71D-03 MaxDP=9.32D-02              OVMax= 3.62D-01

 Cycle   2  Pass 1  IDiag  1:
 RMSU=  8.18D-04    CP:  9.62D-01
 E= -466.679767487582     Delta-E=       -0.114699125526 Rises=F Damp=T
 DIIS: error= 2.24D-02 at cycle   2 NSaved=   2.
 NSaved= 2 IEnMin= 2 EnMin= -466.679767487582     IErMin= 2 ErrMin= 2.24D-02
 ErrMax= 2.24D-02  0.00D+00 EMaxC= 1.00D-01 BMatC= 9.37D-01 BMatP= 4.12D+00
 IDIUse=3 WtCom= 7.76D-01 WtEn= 2.24D-01
 Coeff-Com: -0.869D+00 0.187D+01
 Coeff-En:   0.000D+00 0.100D+01
 Coeff:     -0.675D+00 0.167D+01
 Gap=     0.284 Goal=   None    Shift=    0.000
 Gap=     0.284 Goal=   None    Shift=    0.000
 RMSDP=1.22D-03 MaxDP=4.93D-02 DE=-1.15D-01 OVMax= 1.41D-01

 Cycle   3  Pass 1  IDiag  1:
 RMSU=  5.94D-04    CP:  9.04D-01  2.23D+00
 E= -466.830322074219     Delta-E=       -0.150554586637 Rises=F Damp=F
 DIIS: error= 7.77D-03 at cycle   3 NSaved=   3.
 NSaved= 3 IEnMin= 3 EnMin= -466.830322074219     IErMin= 3 ErrMin= 7.77D-03
 ErrMax= 7.77D-03  0.00D+00 EMaxC= 1.00D-01 BMatC= 2.45D-02 BMatP= 9.37D-01
 IDIUse=3 WtCom= 9.22D-01 WtEn= 7.77D-02
 Coeff-Com: -0.320D+00 0.685D+00 0.635D+00
 Coeff-En:   0.000D+00 0.000D+00 0.100D+01
 Coeff:     -0.295D+00 0.631D+00 0.664D+00
 Gap=     0.306 Goal=   None    Shift=    0.000
 Gap=     0.306 Goal=   None    Shift=    0.000
 RMSDP=2.07D-04 MaxDP=1.04D-02 DE=-1.51D-01 OVMax= 6.25D-02

 Cycle   4  Pass 1  IDiag  1:
 RMSU=  1.91D-04    CP:  8.98D-01  2.31D+00  1.00D+00
 E= -466.841010739086     Delta-E=       -0.010688664867 Rises=F Damp=F
 DIIS: error= 5.10D-03 at cycle   4 NSaved=   4.
 NSaved= 4 IEnMin= 4 EnMin= -466.841010739086     IErMin= 4 ErrMin= 5.10D-03
 ErrMax= 5.10D-03  0.00D+00 EMaxC= 1.00D-01 BMatC= 2.04D-03 BMatP= 2.45D-02
 IDIUse=3 WtCom= 9.49D-01 WtEn= 5.10D-02
 Coeff-Com:  0.152D+00-0.324D+00-0.763D-01 0.125D+01
 Coeff-En:   0.000D+00 0.000D+00 0.000D+00 0.100D+01
 Coeff:      0.144D+00-0.308D+00-0.724D-01 0.124D+01
 Gap=     0.317 Goal=   None    Shift=    0.000
 Gap=     0.317 Goal=   None    Shift=    0.000
 RMSDP=2.12D-04 MaxDP=1.23D-02 DE=-1.07D-02 OVMax= 7.64D-02

 Cycle   5  Pass 1  IDiag  1:
 RMSU=  8.35D-05    CP:  8.91D-01  2.37D+00  1.23D+00  1.64D+00
 E= -466.845585889540     Delta-E=       -0.004575150453 Rises=F Damp=F
 DIIS: error= 2.21D-03 at cycle   5 NSaved=   5.
 NSaved= 5 IEnMin= 5 EnMin= -466.845585889540     IErMin= 5 ErrMin= 2.21D-03
 ErrMax= 2.21D-03  0.00D+00 EMaxC= 1.00D-01 BMatC= 7.79D-04 BMatP= 2.04D-03
 IDIUse=3 WtCom= 9.78D-01 WtEn= 2.21D-02
 Coeff-Com:  0.554D-01-0.119D+00-0.591D-01 0.303D+00 0.820D+00
 Coeff-En:   0.000D+00 0.000D+00 0.000D+00 0.000D+00 0.100D+01
 Coeff:      0.542D-01-0.116D+00-0.578D-01 0.296D+00 0.824D+00
 Gap=     0.319 Goal=   None    Shift=    0.000
 Gap=     0.319 Goal=   None    Shift=    0.000
 RMSDP=7.21D-05 MaxDP=2.80D-03 DE=-4.58D-03 OVMax= 2.66D-02

 Cycle   6  Pass 1  IDiag  1:
 RMSU=  3.09D-05    CP:  8.90D-01  2.37D+00  1.27D+00  1.91D+00  1.41D+00
 E= -466.846890846472     Delta-E=       -0.001304956932 Rises=F Damp=F
 DIIS: error= 1.59D-03 at cycle   6 NSaved=   6.
 NSaved= 6 IEnMin= 6 EnMin= -466.846890846472     IErMin= 6 ErrMin= 1.59D-03
 ErrMax= 1.59D-03  0.00D+00 EMaxC= 1.00D-01 BMatC= 5.10D-04 BMatP= 7.79D-04
 IDIUse=3 WtCom= 9.84D-01 WtEn= 1.59D-02
 Coeff-Com: -0.850D-01 0.182D+00 0.550D-01-0.630D+00 0.103D+00 0.138D+01
 Coeff-En:   0.000D+00 0.000D+00 0.000D+00 0.000D+00 0.000D+00 0.100D+01
 Coeff:     -0.836D-01 0.179D+00 0.541D-01-0.620D+00 0.101D+00 0.137D+01
 Gap=     0.315 Goal=   None    Shift=    0.000
 Gap=     0.315 Goal=   None    Shift=    0.000
 RMSDP=9.90D-05 MaxDP=3.97D-03 DE=-1.30D-03 OVMax= 3.69D-02

 Cycle   7  Pass 1  IDiag  1:
 RMSU=  2.99D-05    CP:  8.88D-01  2.37D+00  1.31D+00  2.19D+00  2.13D+00
                    CP:  2.30D+00
 E= -466.848478049579     Delta-E=       -0.001587203107 Rises=F Damp=F
 DIIS: error= 1.00D-03 at cycle   7 NSaved=   7.
 NSaved= 7 IEnMin= 7 EnMin= -466.848478049579     IErMin= 7 ErrMin= 1.00D-03
 ErrMax= 1.00D-03  0.00D+00 EMaxC= 1.00D-01 BMatC= 2.55D-04 BMatP= 5.10D-04
 IDIUse=3 WtCom= 9.90D-01 WtEn= 1.00D-02
 Coeff-Com: -0.240D-01 0.520D-01 0.395D-01 0.965D-03-0.775D+00-0.388D+00
 Coeff-Com:  0.209D+01
 Coeff-En:   0.000D+00 0.000D+00 0.000D+00 0.000D+00 0.000D+00 0.000D+00
 Coeff-En:   0.100D+01
 Coeff:     -0.238D-01 0.515D-01 0.391D-01 0.955D-03-0.767D+00-0.384D+00
 Coeff:      0.208D+01
 Gap=     0.315 Goal=   None    Shift=    0.000
 Gap=     0.315 Goal=   None    Shift=    0.000
 RMSDP=1.35D-04 MaxDP=6.34D-03 DE=-1.59D-03 OVMax= 5.01D-02

 Cycle   8  Pass 1  IDiag  1:
 RMSU=  5.62D-05    CP:  8.86D-01  2.37D+00  1.35D+00  2.51D+00  3.00D+00
                    CP:  3.00D+00  2.62D+00
 E= -466.849818975432     Delta-E=       -0.001340925854 Rises=F Damp=F
 DIIS: error= 3.47D-04 at cycle   8 NSaved=   8.
 NSaved= 8 IEnMin= 8 EnMin= -466.849818975432     IErMin= 8 ErrMin= 3.47D-04
 ErrMax= 3.47D-04  0.00D+00 EMaxC= 1.00D-01 BMatC= 5.70D-05 BMatP= 2.55D-04
 IDIUse=3 WtCom= 9.97D-01 WtEn= 3.47D-03
 Coeff-Com:  0.247D-01-0.530D-01-0.630D-02 0.259D+00-0.257D+00-0.653D+00
 Coeff-Com:  0.588D+00 0.110D+01
 Coeff-En:   0.000D+00 0.000D+00 0.000D+00 0.000D+00 0.000D+00 0.000D+00
 Coeff-En:   0.000D+00 0.100D+01
 Coeff:      0.246D-01-0.528D-01-0.628D-02 0.258D+00-0.256D+00-0.650D+00
 Coeff:      0.586D+00 0.110D+01
 Gap=     0.317 Goal=   None    Shift=    0.000
 Gap=     0.317 Goal=   None    Shift=    0.000
 RMSDP=5.87D-05 MaxDP=2.85D-03 DE=-1.34D-03 OVMax= 2.15D-02

 Cycle   9  Pass 1  IDiag  1:
 RMSU=  3.23D-05    CP:  8.85D-01  2.37D+00  1.36D+00  2.61D+00  3.00D+00
                    CP:  3.00D+00  3.00D+00  1.68D+00
 E= -466.850031056134     Delta-E=       -0.000212080701 Rises=F Damp=F
 DIIS: error= 1.12D-04 at cycle   9 NSaved=   9.
 NSaved= 9 IEnMin= 9 EnMin= -466.850031056134     IErMin= 9 ErrMin= 1.12D-04
 ErrMax= 1.12D-04  0.00D+00 EMaxC= 1.00D-01 BMatC= 8.27D-06 BMatP= 5.70D-05
 IDIUse=3 WtCom= 9.99D-01 WtEn= 1.12D-03
 Coeff-Com:  0.120D-01-0.259D-01-0.784D-02 0.840D-01 0.355D-01-0.147D+00
 Coeff-Com: -0.130D+00 0.287D+00 0.893D+00
 Coeff-En:   0.000D+00 0.000D+00 0.000D+00 0.000D+00 0.000D+00 0.000D+00
 Coeff-En:   0.000D+00 0.000D+00 0.100D+01
 Coeff:      0.120D-01-0.259D-01-0.784D-02 0.840D-01 0.355D-01-0.147D+00
 Coeff:     -0.130D+00 0.286D+00 0.893D+00
 Gap=     0.317 Goal=   None    Shift=    0.000
 Gap=     0.317 Goal=   None    Shift=    0.000
 RMSDP=1.38D-05 MaxDP=6.80D-04 DE=-2.12D-04 OVMax= 5.14D-03

 Cycle  10  Pass 1  IDiag  1:
 RMSU=  5.33D-06    CP:  8.85D-01  2.37D+00  1.37D+00  2.63D+00  3.00D+00
                    CP:  3.00D+00  3.00D+00  1.83D+00  1.25D+00
 E= -466.850045954372     Delta-E=       -0.000014898238 Rises=F Damp=F
 DIIS: error= 4.77D-05 at cycle  10 NSaved=  10.
 NSaved=10 IEnMin=10 EnMin= -466.850045954372     IErMin=10 ErrMin= 4.77D-05
 ErrMax= 4.77D-05  0.00D+00 EMaxC= 1.00D-01 BMatC= 1.27D-06 BMatP= 8.27D-06
 IDIUse=1 WtCom= 1.00D+00 WtEn= 0.00D+00
 Coeff-Com: -0.182D-02 0.393D-02-0.407D-03-0.299D-01 0.456D-01 0.844D-01
 Coeff-Com: -0.110D+00-0.178D+00 0.161D+00 0.102D+01
 Coeff:     -0.182D-02 0.393D-02-0.407D-03-0.299D-01 0.456D-01 0.844D-01
 Coeff:     -0.110D+00-0.178D+00 0.161D+00 0.102D+01
 Gap=     0.316 Goal=   None    Shift=    0.000
 Gap=     0.316 Goal=   None    Shift=    0.000
 RMSDP=5.98D-06 MaxDP=2.81D-04 DE=-1.49D-05 OVMax= 2.22D-03

 Cycle  11  Pass 1  IDiag  1:
 RMSU=  2.22D-06    CP:  8.85D-01  2.37D+00  1.37D+00  2.64D+00  3.00D+00
                    CP:  3.00D+00  3.00D+00  1.89D+00  1.36D+00  1.43D+00
 E= -466.850047854200     Delta-E=       -0.000001899829 Rises=F Damp=F
 DIIS: error= 1.78D-05 at cycle  11 NSaved=  11.
 NSaved=11 IEnMin=11 EnMin= -466.850047854200     IErMin=11 ErrMin= 1.78D-05
 ErrMax= 1.78D-05  0.00D+00 EMaxC= 1.00D-01 BMatC= 2.61D-07 BMatP= 1.27D-06
 IDIUse=1 WtCom= 1.00D+00 WtEn= 0.00D+00
 Coeff-Com: -0.129D-02 0.277D-02 0.239D-03-0.152D-01 0.136D-01 0.370D-01
 Coeff-Com: -0.272D-01-0.821D-01-0.616D-02 0.371D+00 0.707D+00
 Coeff:     -0.129D-02 0.277D-02 0.239D-03-0.152D-01 0.136D-01 0.370D-01
 Coeff:     -0.272D-01-0.821D-01-0.616D-02 0.371D+00 0.707D+00
 Gap=     0.316 Goal=   None    Shift=    0.000
 Gap=     0.316 Goal=   None    Shift=    0.000
 RMSDP=8.86D-07 MaxDP=4.73D-05 DE=-1.90D-06 OVMax= 1.99D-04

 Cycle  12  Pass 1  IDiag  1:
 RMSU=  6.20D-07    CP:  8.85D-01  2.37D+00  1.37D+00  2.64D+00  3.00D+00
                    CP:  3.00D+00  3.00D+00  1.89D+00  1.36D+00  1.47D+00
                    CP:  1.18D+00
 E= -466.850047997489     Delta-E=       -0.000000143289 Rises=F Damp=F
 DIIS: error= 1.19D-05 at cycle  12 NSaved=  12.
 NSaved=12 IEnMin=12 EnMin= -466.850047997489     IErMin=12 ErrMin= 1.19D-05
 ErrMax= 1.19D-05  0.00D+00 EMaxC= 1.00D-01 BMatC= 6.45D-08 BMatP= 2.61D-07
 IDIUse=1 WtCom= 1.00D+00 WtEn= 0.00D+00
 Coeff-Com:  0.404D-03-0.876D-03 0.211D-04 0.644D-02-0.880D-02-0.183D-01
 Coeff-Com:  0.243D-01 0.372D-01-0.420D-01-0.237D+00 0.162D+00 0.108D+01
 Coeff:      0.404D-03-0.876D-03 0.211D-04 0.644D-02-0.880D-02-0.183D-01
 Coeff:      0.243D-01 0.372D-01-0.420D-01-0.237D+00 0.162D+00 0.108D+01
 Gap=     0.316 Goal=   None    Shift=    0.000
 Gap=     0.316 Goal=   None    Shift=    0.000
 RMSDP=6.96D-07 MaxDP=2.93D-05 DE=-1.43D-07 OVMax= 1.36D-04

 Cycle  13  Pass 1  IDiag  1:
 RMSU=  4.07D-07    CP:  8.85D-01  2.37D+00  1.37D+00  2.64D+00  3.00D+00
                    CP:  3.00D+00  3.00D+00  1.88D+00  1.37D+00  1.47D+00
                    CP:  1.35D+00  1.58D+00
 E= -466.850048076042     Delta-E=       -0.000000078553 Rises=F Damp=F
 DIIS: error= 6.57D-06 at cycle  13 NSaved=  13.
 NSaved=13 IEnMin=13 EnMin= -466.850048076042     IErMin=13 ErrMin= 6.57D-06
 ErrMax= 6.57D-06  0.00D+00 EMaxC= 1.00D-01 BMatC= 1.35D-08 BMatP= 6.45D-08
 IDIUse=1 WtCom= 1.00D+00 WtEn= 0.00D+00
 Coeff-Com: -0.759D-04 0.166D-03 0.676D-04-0.690D-03 0.650D-03 0.156D-02
 Coeff-Com: -0.260D-02-0.861D-03 0.597D-02 0.630D-02-0.155D+00-0.253D+00
 Coeff-Com:  0.140D+01
 Coeff:     -0.759D-04 0.166D-03 0.676D-04-0.690D-03 0.650D-03 0.156D-02
 Coeff:     -0.260D-02-0.861D-03 0.597D-02 0.630D-02-0.155D+00-0.253D+00
 Coeff:      0.140D+01
 Gap=     0.316 Goal=   None    Shift=    0.000
 Gap=     0.316 Goal=   None    Shift=    0.000
 RMSDP=3.81D-07 MaxDP=2.06D-05 DE=-7.86D-08 OVMax= 9.31D-05

 Cycle  14  Pass 1  IDiag  1:
 RMSU=  2.56D-07    CP:  8.85D-01  2.37D+00  1.37D+00  2.64D+00  3.00D+00
                    CP:  3.00D+00  3.00D+00  1.88D+00  1.37D+00  1.48D+00
                    CP:  1.39D+00  1.82D+00  1.54D+00
 E= -466.850048105298     Delta-E=       -0.000000029256 Rises=F Damp=F
 DIIS: error= 3.48D-06 at cycle  14 NSaved=  14.
 NSaved=14 IEnMin=14 EnMin= -466.850048105298     IErMin=14 ErrMin= 3.48D-06
 ErrMax= 3.48D-06  0.00D+00 EMaxC= 1.00D-01 BMatC= 4.09D-09 BMatP= 1.35D-08
 IDIUse=1 WtCom= 1.00D+00 WtEn= 0.00D+00
 Coeff-Com: -0.153D-03 0.330D-03 0.461D-04-0.196D-02 0.224D-02 0.524D-02
 Coeff-Com: -0.687D-02-0.100D-01 0.134D-01 0.689D-01-0.776D-01-0.365D+00
 Coeff-Com:  0.165D+00 0.121D+01
 Coeff:     -0.153D-03 0.330D-03 0.461D-04-0.196D-02 0.224D-02 0.524D-02
 Coeff:     -0.687D-02-0.100D-01 0.134D-01 0.689D-01-0.776D-01-0.365D+00
 Coeff:      0.165D+00 0.121D+01
 Gap=     0.316 Goal=   None    Shift=    0.000
 Gap=     0.316 Goal=   None    Shift=    0.000
 RMSDP=2.67D-07 MaxDP=1.19D-05 DE=-2.93D-08 OVMax= 6.46D-05

 Cycle  15  Pass 1  IDiag  1:
 RMSU=  9.27D-08    CP:  8.85D-01  2.37D+00  1.37D+00  2.64D+00  3.00D+00
                    CP:  3.00D+00  3.00D+00  1.88D+00  1.37D+00  1.49D+00
                    CP:  1.39D+00  1.92D+00  1.87D+00  1.76D+00
 E= -466.850048114250     Delta-E=       -0.000000008952 Rises=F Damp=F
 DIIS: error= 1.23D-06 at cycle  15 NSaved=  15.
 NSaved=15 IEnMin=15 EnMin= -466.850048114250     IErMin=15 ErrMin= 1.23D-06
 ErrMax= 1.23D-06  0.00D+00 EMaxC= 1.00D-01 BMatC= 6.49D-10 BMatP= 4.09D-09
 IDIUse=1 WtCom= 1.00D+00 WtEn= 0.00D+00
 Coeff-Com:  0.225D-04-0.489D-04-0.293D-04 0.115D-03 0.976D-04-0.738D-04
 Coeff-Com: -0.431D-03-0.162D-03 0.186D-02 0.637D-02 0.220D-01 0.202D-02
 Coeff-Com: -0.308D+00 0.184D+00 0.109D+01
 Coeff:      0.225D-04-0.489D-04-0.293D-04 0.115D-03 0.976D-04-0.738D-04
 Coeff:     -0.431D-03-0.162D-03 0.186D-02 0.637D-02 0.220D-01 0.202D-02
 Coeff:     -0.308D+00 0.184D+00 0.109D+01
 Gap=     0.316 Goal=   None    Shift=    0.000
 Gap=     0.316 Goal=   None    Shift=    0.000
 RMSDP=1.24D-07 MaxDP=5.01D-06 DE=-8.95D-09 OVMax= 2.74D-05

 Cycle  16  Pass 1  IDiag  1:
 RMSU=  4.04D-08    CP:  8.85D-01  2.37D+00  1.37D+00  2.64D+00  3.00D+00
                    CP:  3.00D+00  3.00D+00  1.88D+00  1.36D+00  1.49D+00
                    CP:  1.38D+00  1.93D+00  1.97D+00  2.12D+00  1.50D+00
 E= -466.850048115375     Delta-E=       -0.000000001125 Rises=F Damp=F
 DIIS: error= 2.23D-07 at cycle  16 NSaved=  16.
 NSaved=16 IEnMin=16 EnMin= -466.850048115375     IErMin=16 ErrMin= 2.23D-07
 ErrMax= 2.23D-07  0.00D+00 EMaxC= 1.00D-01 BMatC= 6.09D-11 BMatP= 6.49D-10
 IDIUse=1 WtCom= 1.00D+00 WtEn= 0.00D+00
 Coeff-Com:  0.101D-04-0.217D-04-0.759D-05 0.125D-03-0.120D-03-0.296D-03
 Coeff-Com:  0.340D-03 0.614D-03-0.844D-03-0.412D-02 0.127D-01 0.322D-01
 Coeff-Com: -0.850D-01-0.720D-01 0.252D+00 0.864D+00
 Coeff:      0.101D-04-0.217D-04-0.759D-05 0.125D-03-0.120D-03-0.296D-03
 Coeff:      0.340D-03 0.614D-03-0.844D-03-0.412D-02 0.127D-01 0.322D-01
 Coeff:     -0.850D-01-0.720D-01 0.252D+00 0.864D+00
 Gap=     0.316 Goal=   None    Shift=    0.000
 Gap=     0.316 Goal=   None    Shift=    0.000
 RMSDP=2.80D-08 MaxDP=1.33D-06 DE=-1.12D-09 OVMax= 4.39D-06

 Cycle  17  Pass 1  IDiag  1:
 RMSU=  1.20D-08    CP:  8.85D-01  2.37D+00  1.37D+00  2.64D+00  3.00D+00
                    CP:  3.00D+00  3.00D+00  1.88D+00  1.36D+00  1.50D+00
                    CP:  1.39D+00  1.92D+00  1.97D+00  2.16D+00  1.61D+00
                    CP:  1.31D+00
 E= -466.850048115419     Delta-E=       -0.000000000044 Rises=F Damp=F
 DIIS: error= 8.22D-08 at cycle  17 NSaved=  17.
 NSaved=17 IEnMin=17 EnMin= -466.850048115419     IErMin=17 ErrMin= 8.22D-08
 ErrMax= 8.22D-08  0.00D+00 EMaxC= 1.00D-01 BMatC= 7.05D-12 BMatP= 6.09D-11
 IDIUse=1 WtCom= 1.00D+00 WtEn= 0.00D+00
 Coeff-Com: -0.584D-06 0.131D-05 0.126D-05 0.258D-05-0.267D-04-0.721D-05
 Coeff-Com:  0.671D-04 0.874D-04-0.394D-03-0.127D-02-0.352D-03 0.459D-02
 Coeff-Com:  0.238D-01-0.333D-01-0.969D-01 0.142D+00 0.961D+00
 Coeff:     -0.584D-06 0.131D-05 0.126D-05 0.258D-05-0.267D-04-0.721D-05
 Coeff:      0.671D-04 0.874D-04-0.394D-03-0.127D-02-0.352D-03 0.459D-02
 Coeff:      0.238D-01-0.333D-01-0.969D-01 0.142D+00 0.961D+00
 Gap=     0.316 Goal=   None    Shift=    0.000
 Gap=     0.316 Goal=   None    Shift=    0.000
 RMSDP=9.46D-09 MaxDP=2.95D-07 DE=-4.42D-11 OVMax= 1.46D-06

 Error on total polarization charges =  0.01122
 SCF Done:  E(UwB97XD) =  -466.850048115     A.U. after   17 cycles
            NFock= 17  Conv=0.95D-08     -V/T= 2.0058
 <Sx>= 0.0000 <Sy>= 0.0000 <Sz>= 0.0000 <S**2>= 0.0000 S= 0.0000
 <L.S>=  0.00000000000    
 KE= 4.641777103850D+02 PE=-2.423580336855D+03 EE= 8.217254907025D+02
 --------------------------------------------------------------------
 Variational PCM results
 =======================
 <psi(f)|   H    |psi(f)>                     (a.u.) =    -466.857935
 <psi(f)|H+V(f)/2|psi(f)>                     (a.u.) =    -466.859440
 Total free energy in solution:
 - with all non electrostatic terms           (a.u.) =    -466.850048
 --------------------------------------------------------------------
 (Polarized solute)-Solvent               (kcal/mol) =      -0.94
 --------------------------------------------------------------------
 Quantum repulsion energy                 (kcal/mol) =       5.89
 Total non electrostatic                  (kcal/mol) =       5.89
 --------------------------------------------------------------------
 Partition over spheres:
 Sphere  on Atom  Surface  Charge   GEl     GCav    GDR
    1               7.00   0.010   -0.05    0.00    0.00
    2               5.04   0.007   -0.04    0.00    0.00
    3               7.52  -0.010   -0.04    0.00    0.00
    4               3.69  -0.004   -0.01    0.00    0.00
    5               4.05   0.007   -0.04    0.00    0.00
    6               4.27   0.005   -0.03    0.00    0.00
    7               4.83  -0.007   -0.03    0.00    0.00
    8               4.07  -0.005   -0.01    0.00    0.00
    9               3.60   0.002    0.00    0.00    0.00
   10               7.18  -0.007   -0.01    0.00    0.00
   11               3.20  -0.003   -0.01    0.00    0.00
   12               6.29   0.010   -0.06    0.00    0.00
   13               7.52  -0.010   -0.03    0.00    0.00
   14               7.00   0.010   -0.05    0.00    0.00
   15               7.52  -0.010   -0.04    0.00    0.00
   16               3.54   0.002    0.00    0.00    0.00
   17               2.73  -0.002   -0.01    0.00    0.00
   18               7.42  -0.008   -0.03    0.00    0.00
   19               5.09   0.009   -0.06    0.00    0.00
   20               5.00  -0.007   -0.03    0.00    0.00
   21               6.52   0.010   -0.06    0.00    0.00
   22               7.51  -0.010   -0.03    0.00    0.00
   23               3.60   0.002    0.00    0.00    0.00
   24               2.99  -0.003   -0.01    0.00    0.00
   25               7.17  -0.007   -0.01    0.00    0.00
   26               3.47   0.002    0.00    0.00    0.00
   27               7.42  -0.008   -0.03    0.00    0.00
   28               2.70  -0.002   -0.01    0.00    0.00
 Added spheres:    76.37   0.018   -0.23    0.00    0.00
 --------------------------------------------------------------------
 After PCM corrections, the energy is  -466.850048115     a.u.
 --------------------------------------------------------------------
 Annihilation of the first spin contaminant:
 S**2 before annihilation     0.0000,   after    -0.0000
 Leave Link  502 at Mon Aug  3 22:18:25 2020, MaxMem=  6442450944 cpu:            7387.0 elap:             310.5
 (Enter /scratch/scicomp/CentOS/7.3.1611/Haswell/software/Gaussian/g16/l601.exe)
 Copying SCF densities to generalized density rwf, IOpCl= 1 IROHF=0.

 **********************************************************************

            Population analysis using the SCF Density.

 **********************************************************************

 Alpha  occ. eigenvalues --  -10.28280 -10.28278 -10.28134 -10.28132 -10.28092
 Alpha  occ. eigenvalues --  -10.28090 -10.28028 -10.28026 -10.27803 -10.27800
 Alpha  occ. eigenvalues --  -10.27501 -10.27499  -0.93988  -0.93561  -0.84018
 Alpha  occ. eigenvalues --   -0.83969  -0.83762  -0.83586  -0.71185  -0.71106
 Alpha  occ. eigenvalues --   -0.67810  -0.67804  -0.59615  -0.59476  -0.57295
 Alpha  occ. eigenvalues --   -0.56726  -0.53345  -0.52603  -0.50798  -0.50740
 Alpha  occ. eigenvalues --   -0.49815  -0.49377  -0.47174  -0.46845  -0.44993
 Alpha  occ. eigenvalues --   -0.44929  -0.41103  -0.40914  -0.39536  -0.39136
 Alpha  occ. eigenvalues --   -0.39118  -0.38924  -0.29636  -0.27659
 Alpha virt. eigenvalues --    0.03977   0.04871   0.11363   0.12943   0.14294
 Alpha virt. eigenvalues --    0.15270   0.15385   0.16261   0.16432   0.16902
 Alpha virt. eigenvalues --    0.17696   0.17717   0.18066   0.19193   0.20897
 Alpha virt. eigenvalues --    0.21796   0.22427   0.23529   0.23916   0.24304
 Alpha virt. eigenvalues --    0.25641   0.26421   0.26581   0.27569   0.28692
 Alpha virt. eigenvalues --    0.28784   0.29463   0.29742   0.30571   0.31069
 Alpha virt. eigenvalues --    0.31972   0.32435   0.32544   0.32821   0.33520
 Alpha virt. eigenvalues --    0.34071   0.34520   0.35833   0.36079   0.37835
 Alpha virt. eigenvalues --    0.38116   0.38948   0.40245   0.41649   0.41968
 Alpha virt. eigenvalues --    0.42074   0.43833   0.44605   0.45797   0.46488
 Alpha virt. eigenvalues --    0.46835   0.46929   0.48280   0.48624   0.48939
 Alpha virt. eigenvalues --    0.49130   0.49636   0.49906   0.50306   0.50509
 Alpha virt. eigenvalues --    0.51218   0.51341   0.52041   0.52514   0.53224
 Alpha virt. eigenvalues --    0.53519   0.54189   0.55044   0.55093   0.55752
 Alpha virt. eigenvalues --    0.57664   0.58113   0.58167   0.59587   0.59906
 Alpha virt. eigenvalues --    0.60346   0.61299   0.63267   0.63598   0.64522
 Alpha virt. eigenvalues --    0.65450   0.66989   0.68228   0.68771   0.69337
 Alpha virt. eigenvalues --    0.71446   0.72359   0.73256   0.73593   0.75181
 Alpha virt. eigenvalues --    0.76995   0.78421   0.78624   0.81054   0.81818
 Alpha virt. eigenvalues --    0.82156   0.82420   0.82947   0.87404   0.87637
 Alpha virt. eigenvalues --    0.88563   0.88650   0.91046   0.91731   0.92369
 Alpha virt. eigenvalues --    0.92697   0.95463   0.96506   0.98855   0.99185
 Alpha virt. eigenvalues --    1.01002   1.03882   1.04206   1.04491   1.04842
 Alpha virt. eigenvalues --    1.07109   1.07135   1.08360   1.09675   1.11831
 Alpha virt. eigenvalues --    1.13518   1.13691   1.14463   1.15049   1.15801
 Alpha virt. eigenvalues --    1.16249   1.16752   1.16878   1.19129   1.20779
 Alpha virt. eigenvalues --    1.21515   1.22563   1.23929   1.24048   1.24987
 Alpha virt. eigenvalues --    1.25595   1.25932   1.26823   1.27294   1.28673
 Alpha virt. eigenvalues --    1.28857   1.30659   1.32234   1.32744   1.32846
 Alpha virt. eigenvalues --    1.34375   1.34966   1.36236   1.37195   1.38311
 Alpha virt. eigenvalues --    1.38970   1.40078   1.40745   1.41192   1.41740
 Alpha virt. eigenvalues --    1.42726   1.42841   1.44085   1.44884   1.45479
 Alpha virt. eigenvalues --    1.46065   1.46785   1.46925   1.47225   1.48941
 Alpha virt. eigenvalues --    1.50222   1.50438   1.50616   1.53625   1.55713
 Alpha virt. eigenvalues --    1.56375   1.57805   1.58371   1.58502   1.61120
 Alpha virt. eigenvalues --    1.61239   1.62718   1.63605   1.65327   1.67843
 Alpha virt. eigenvalues --    1.68609   1.70153   1.70666   1.73383   1.75893
 Alpha virt. eigenvalues --    1.76217   1.80063   1.80371   1.82919   1.83998
 Alpha virt. eigenvalues --    1.86419   1.87984   1.89747   1.90140   1.91556
 Alpha virt. eigenvalues --    1.92756   1.96014   1.99863   2.00991   2.01510
 Alpha virt. eigenvalues --    2.04121   2.05517   2.06797   2.07838   2.08727
 Alpha virt. eigenvalues --    2.09116   2.11795   2.12524   2.13285   2.15564
 Alpha virt. eigenvalues --    2.18549   2.19779   2.20152   2.20895   2.22496
 Alpha virt. eigenvalues --    2.23321   2.23598   2.24361   2.26138   2.26429
 Alpha virt. eigenvalues --    2.29034   2.33251   2.37296   2.38049   2.40652
 Alpha virt. eigenvalues --    2.43001   2.46083   2.46321   2.48821   2.49997
 Alpha virt. eigenvalues --    2.50112   2.50436   2.53448   2.54278   2.54712
 Alpha virt. eigenvalues --    2.55298   2.57378   2.57656   2.60666   2.61306
 Alpha virt. eigenvalues --    2.62253   2.64496   2.64538   2.65244   2.66430
 Alpha virt. eigenvalues --    2.67927   2.68003   2.70556   2.72393   2.72520
 Alpha virt. eigenvalues --    2.73263   2.73374   2.74879   2.76035   2.77176
 Alpha virt. eigenvalues --    2.77652   2.77742   2.79075   2.80790   2.81276
 Alpha virt. eigenvalues --    2.81638   2.82198   2.82539   2.83878   2.84767
 Alpha virt. eigenvalues --    2.84918   2.86339   2.87397   2.88663   2.89091
 Alpha virt. eigenvalues --    2.90107   2.90306   2.92566   2.92917   2.93345
 Alpha virt. eigenvalues --    2.94857   2.94911   2.95273   2.96160   2.99213
 Alpha virt. eigenvalues --    3.01894   3.02101   3.02992   3.04370   3.06471
 Alpha virt. eigenvalues --    3.06555   3.08618   3.09346   3.09603   3.11012
 Alpha virt. eigenvalues --    3.12244   3.12830   3.13079   3.14294   3.15014
 Alpha virt. eigenvalues --    3.15088   3.17208   3.17246   3.18775   3.18919
 Alpha virt. eigenvalues --    3.19688   3.19908   3.20333   3.21077   3.21347
 Alpha virt. eigenvalues --    3.22358   3.23015   3.23395   3.23590   3.24192
 Alpha virt. eigenvalues --    3.25703   3.26290   3.27005   3.27500   3.28284
 Alpha virt. eigenvalues --    3.29062   3.29131   3.30647   3.31364   3.31407
 Alpha virt. eigenvalues --    3.32407   3.33099   3.33140   3.33699   3.34454
 Alpha virt. eigenvalues --    3.35052   3.35798   3.36151   3.37700   3.38375
 Alpha virt. eigenvalues --    3.39050   3.40041   3.42290   3.43766   3.43887
 Alpha virt. eigenvalues --    3.44958   3.45656   3.46549   3.46614   3.47014
 Alpha virt. eigenvalues --    3.48759   3.48981   3.49231   3.49816   3.51135
 Alpha virt. eigenvalues --    3.51420   3.52618   3.53524   3.54810   3.55162
 Alpha virt. eigenvalues --    3.55336   3.55997   3.58706   3.59181   3.62634
 Alpha virt. eigenvalues --    3.63989   3.64898   3.65123   3.65279   3.65797
 Alpha virt. eigenvalues --    3.68246   3.68608   3.70708   3.71857   3.72306
 Alpha virt. eigenvalues --    3.74540   3.76304   3.77032   3.78995   3.79743
 Alpha virt. eigenvalues --    3.84869   3.84891   3.85631   3.86223   3.86422
 Alpha virt. eigenvalues --    3.88164   3.90550   3.90772   3.93082   3.93788
 Alpha virt. eigenvalues --    3.95138   3.95589   3.99900   4.00099   4.02376
 Alpha virt. eigenvalues --    4.04579   4.08402   4.08846   4.09072   4.10678
 Alpha virt. eigenvalues --    4.11903   4.12941   4.13513   4.16084   4.18014
 Alpha virt. eigenvalues --    4.18912   4.19938   4.21454   4.22847   4.23633
 Alpha virt. eigenvalues --    4.25234   4.27444   4.30955   4.31100   4.33596
 Alpha virt. eigenvalues --    4.35238   4.37692   4.37767   4.39314   4.40762
 Alpha virt. eigenvalues --    4.43559   4.44250   4.46206   4.47852   4.49408
 Alpha virt. eigenvalues --    4.50296   4.58982   4.60857   4.62150   4.65647
 Alpha virt. eigenvalues --    4.68852   4.69261   4.71873   4.74103   4.74936
 Alpha virt. eigenvalues --    4.75675   4.78060   4.78576   4.80656   4.83508
 Alpha virt. eigenvalues --    4.84490   4.84640   4.89360   4.89908   4.94094
 Alpha virt. eigenvalues --    4.94106   4.96110   4.98234   5.05935   5.08305
 Alpha virt. eigenvalues --    5.11821   5.12043   5.18085   5.19260   5.23022
 Alpha virt. eigenvalues --    5.23611   5.30120   5.32165   5.40204   5.40706
 Alpha virt. eigenvalues --    5.43351   5.44716   5.48925   5.49182   5.66969
 Alpha virt. eigenvalues --    5.70520   5.75227   5.77408   5.92503   5.99034
 Alpha virt. eigenvalues --    7.94108   7.95724   8.01930   8.03794   8.06105
 Alpha virt. eigenvalues --    8.06879   8.10766   8.11316   8.17646   8.18370
 Alpha virt. eigenvalues --    8.34058   8.36120  34.76301  34.77876  34.81002
 Alpha virt. eigenvalues --   34.82065  34.86163  34.86977  34.97271  34.97954
 Alpha virt. eigenvalues --   35.00563  35.01747  35.15512  35.18861
  Beta  occ. eigenvalues --  -10.28280 -10.28278 -10.28134 -10.28132 -10.28092
  Beta  occ. eigenvalues --  -10.28090 -10.28028 -10.28026 -10.27803 -10.27800
  Beta  occ. eigenvalues --  -10.27501 -10.27499  -0.93988  -0.93561  -0.84018
  Beta  occ. eigenvalues --   -0.83969  -0.83762  -0.83586  -0.71185  -0.71106
  Beta  occ. eigenvalues --   -0.67810  -0.67804  -0.59615  -0.59476  -0.57295
  Beta  occ. eigenvalues --   -0.56726  -0.53345  -0.52603  -0.50798  -0.50740
  Beta  occ. eigenvalues --   -0.49815  -0.49377  -0.47174  -0.46845  -0.44993
  Beta  occ. eigenvalues --   -0.44929  -0.41103  -0.40914  -0.39536  -0.39136
  Beta  occ. eigenvalues --   -0.39118  -0.38924  -0.29636  -0.27659
  Beta virt. eigenvalues --    0.03977   0.04871   0.11363   0.12943   0.14294
  Beta virt. eigenvalues --    0.15270   0.15385   0.16261   0.16432   0.16902
  Beta virt. eigenvalues --    0.17696   0.17717   0.18066   0.19193   0.20897
  Beta virt. eigenvalues --    0.21796   0.22427   0.23529   0.23916   0.24304
  Beta virt. eigenvalues --    0.25641   0.26421   0.26581   0.27569   0.28692
  Beta virt. eigenvalues --    0.28784   0.29463   0.29742   0.30571   0.31069
  Beta virt. eigenvalues --    0.31972   0.32435   0.32544   0.32821   0.33520
  Beta virt. eigenvalues --    0.34071   0.34520   0.35833   0.36079   0.37835
  Beta virt. eigenvalues --    0.38116   0.38948   0.40245   0.41649   0.41968
  Beta virt. eigenvalues --    0.42074   0.43833   0.44605   0.45797   0.46488
  Beta virt. eigenvalues --    0.46835   0.46929   0.48280   0.48624   0.48939
  Beta virt. eigenvalues --    0.49130   0.49636   0.49906   0.50306   0.50509
  Beta virt. eigenvalues --    0.51218   0.51341   0.52041   0.52514   0.53224
  Beta virt. eigenvalues --    0.53519   0.54189   0.55044   0.55093   0.55752
  Beta virt. eigenvalues --    0.57664   0.58113   0.58167   0.59587   0.59906
  Beta virt. eigenvalues --    0.60346   0.61299   0.63267   0.63598   0.64522
  Beta virt. eigenvalues --    0.65450   0.66989   0.68228   0.68771   0.69337
  Beta virt. eigenvalues --    0.71446   0.72359   0.73256   0.73593   0.75181
  Beta virt. eigenvalues --    0.76995   0.78421   0.78624   0.81054   0.81818
  Beta virt. eigenvalues --    0.82156   0.82420   0.82947   0.87404   0.87637
  Beta virt. eigenvalues --    0.88563   0.88650   0.91046   0.91731   0.92369
  Beta virt. eigenvalues --    0.92697   0.95463   0.96506   0.98855   0.99185
  Beta virt. eigenvalues --    1.01002   1.03882   1.04206   1.04491   1.04842
  Beta virt. eigenvalues --    1.07109   1.07135   1.08360   1.09675   1.11831
  Beta virt. eigenvalues --    1.13518   1.13691   1.14463   1.15049   1.15801
  Beta virt. eigenvalues --    1.16249   1.16752   1.16878   1.19129   1.20779
  Beta virt. eigenvalues --    1.21515   1.22563   1.23929   1.24048   1.24987
  Beta virt. eigenvalues --    1.25595   1.25932   1.26823   1.27294   1.28673
  Beta virt. eigenvalues --    1.28857   1.30659   1.32234   1.32744   1.32846
  Beta virt. eigenvalues --    1.34375   1.34966   1.36236   1.37195   1.38311
  Beta virt. eigenvalues --    1.38970   1.40078   1.40745   1.41192   1.41740
  Beta virt. eigenvalues --    1.42726   1.42841   1.44085   1.44884   1.45479
  Beta virt. eigenvalues --    1.46065   1.46785   1.46925   1.47225   1.48941
  Beta virt. eigenvalues --    1.50222   1.50438   1.50616   1.53625   1.55713
  Beta virt. eigenvalues --    1.56375   1.57805   1.58371   1.58502   1.61120
  Beta virt. eigenvalues --    1.61239   1.62718   1.63605   1.65327   1.67843
  Beta virt. eigenvalues --    1.68609   1.70153   1.70666   1.73383   1.75893
  Beta virt. eigenvalues --    1.76217   1.80063   1.80371   1.82919   1.83998
  Beta virt. eigenvalues --    1.86419   1.87984   1.89747   1.90140   1.91556
  Beta virt. eigenvalues --    1.92756   1.96014   1.99863   2.00991   2.01510
  Beta virt. eigenvalues --    2.04121   2.05517   2.06797   2.07838   2.08727
  Beta virt. eigenvalues --    2.09116   2.11795   2.12524   2.13285   2.15564
  Beta virt. eigenvalues --    2.18549   2.19779   2.20152   2.20895   2.22496
  Beta virt. eigenvalues --    2.23321   2.23598   2.24361   2.26138   2.26429
  Beta virt. eigenvalues --    2.29034   2.33251   2.37296   2.38049   2.40652
  Beta virt. eigenvalues --    2.43001   2.46083   2.46321   2.48821   2.49997
  Beta virt. eigenvalues --    2.50112   2.50436   2.53448   2.54278   2.54712
  Beta virt. eigenvalues --    2.55298   2.57378   2.57656   2.60666   2.61306
  Beta virt. eigenvalues --    2.62253   2.64496   2.64538   2.65244   2.66430
  Beta virt. eigenvalues --    2.67927   2.68003   2.70556   2.72393   2.72520
  Beta virt. eigenvalues --    2.73263   2.73374   2.74879   2.76035   2.77176
  Beta virt. eigenvalues --    2.77652   2.77742   2.79075   2.80790   2.81276
  Beta virt. eigenvalues --    2.81638   2.82198   2.82539   2.83878   2.84767
  Beta virt. eigenvalues --    2.84918   2.86339   2.87397   2.88663   2.89091
  Beta virt. eigenvalues --    2.90107   2.90306   2.92566   2.92917   2.93345
  Beta virt. eigenvalues --    2.94857   2.94911   2.95273   2.96160   2.99213
  Beta virt. eigenvalues --    3.01894   3.02101   3.02992   3.04370   3.06471
  Beta virt. eigenvalues --    3.06555   3.08618   3.09346   3.09603   3.11012
  Beta virt. eigenvalues --    3.12244   3.12830   3.13079   3.14294   3.15014
  Beta virt. eigenvalues --    3.15088   3.17208   3.17246   3.18775   3.18919
  Beta virt. eigenvalues --    3.19688   3.19908   3.20333   3.21077   3.21347
  Beta virt. eigenvalues --    3.22358   3.23015   3.23395   3.23590   3.24192
  Beta virt. eigenvalues --    3.25703   3.26290   3.27005   3.27500   3.28284
  Beta virt. eigenvalues --    3.29062   3.29131   3.30647   3.31364   3.31407
  Beta virt. eigenvalues --    3.32407   3.33099   3.33140   3.33699   3.34454
  Beta virt. eigenvalues --    3.35052   3.35798   3.36151   3.37700   3.38375
  Beta virt. eigenvalues --    3.39050   3.40041   3.42290   3.43766   3.43887
  Beta virt. eigenvalues --    3.44958   3.45656   3.46549   3.46614   3.47014
  Beta virt. eigenvalues --    3.48759   3.48981   3.49231   3.49816   3.51135
  Beta virt. eigenvalues --    3.51420   3.52618   3.53524   3.54810   3.55162
  Beta virt. eigenvalues --    3.55336   3.55997   3.58706   3.59181   3.62634
  Beta virt. eigenvalues --    3.63989   3.64898   3.65123   3.65279   3.65797
  Beta virt. eigenvalues --    3.68246   3.68608   3.70708   3.71857   3.72306
  Beta virt. eigenvalues --    3.74540   3.76304   3.77032   3.78995   3.79743
  Beta virt. eigenvalues --    3.84869   3.84891   3.85631   3.86223   3.86422
  Beta virt. eigenvalues --    3.88164   3.90550   3.90772   3.93082   3.93788
  Beta virt. eigenvalues --    3.95138   3.95589   3.99900   4.00099   4.02376
  Beta virt. eigenvalues --    4.04579   4.08402   4.08846   4.09072   4.10678
  Beta virt. eigenvalues --    4.11903   4.12941   4.13513   4.16084   4.18014
  Beta virt. eigenvalues --    4.18912   4.19938   4.21454   4.22847   4.23633
  Beta virt. eigenvalues --    4.25234   4.27444   4.30955   4.31100   4.33596
  Beta virt. eigenvalues --    4.35238   4.37692   4.37767   4.39314   4.40762
  Beta virt. eigenvalues --    4.43559   4.44250   4.46206   4.47852   4.49408
  Beta virt. eigenvalues --    4.50296   4.58982   4.60857   4.62150   4.65647
  Beta virt. eigenvalues --    4.68852   4.69261   4.71873   4.74103   4.74936
  Beta virt. eigenvalues --    4.75675   4.78060   4.78576   4.80656   4.83508
  Beta virt. eigenvalues --    4.84490   4.84640   4.89360   4.89908   4.94094
  Beta virt. eigenvalues --    4.94106   4.96110   4.98234   5.05935   5.08305
  Beta virt. eigenvalues --    5.11821   5.12043   5.18085   5.19260   5.23022
  Beta virt. eigenvalues --    5.23611   5.30120   5.32165   5.40204   5.40706
  Beta virt. eigenvalues --    5.43351   5.44716   5.48925   5.49182   5.66969
  Beta virt. eigenvalues --    5.70520   5.75227   5.77408   5.92503   5.99034
  Beta virt. eigenvalues --    7.94108   7.95724   8.01930   8.03794   8.06105
  Beta virt. eigenvalues --    8.06879   8.10766   8.11316   8.17646   8.18370
  Beta virt. eigenvalues --    8.34058   8.36120  34.76301  34.77876  34.81002
  Beta virt. eigenvalues --   34.82065  34.86163  34.86977  34.97271  34.97954
  Beta virt. eigenvalues --   35.00563  35.01747  35.15512  35.18861
          Condensed to atoms (all electrons):
               1          2          3          4          5          6
     1  C    5.142688   0.007715   0.422264  -0.001812   0.000392  -0.003376
     2  C    0.007715   5.276361  -0.001826   0.424269  -0.021165  -0.043347
     3  H    0.422264  -0.001826   0.490941   0.000028  -0.000040  -0.000026
     4  H   -0.001812   0.424269   0.000028   0.472002  -0.001697   0.001885
     5  C    0.000392  -0.021165  -0.000040  -0.001697   5.124117   0.527617
     6  C   -0.003376  -0.043347  -0.000026   0.001885   0.527617   5.277869
     7  H    0.000224  -0.000994   0.000000  -0.000058   0.423090  -0.027163
     8  H   -0.000812   0.001882  -0.000002  -0.000022  -0.041257   0.424309
     9  C    0.001082  -0.000217  -0.000003  -0.000946  -0.068222   0.246412
    10  H   -0.000022  -0.000174  -0.000001  -0.000052  -0.003298  -0.034965
    11  H   -0.000009  -0.001934   0.000000   0.000069   0.007835  -0.053422
    12  C   -0.000089   0.006780   0.000002   0.000899   0.302377  -0.071924
    13  H   -0.000001   0.000020   0.000000  -0.000002  -0.034103   0.004157
    14  C    0.000118  -0.003365  -0.000000  -0.000819  -0.060388   0.007750
    15  H   -0.000000  -0.000026  -0.000000  -0.000002   0.006607  -0.001824
    16  C   -0.000550   0.008668  -0.000001   0.000645   0.005976  -0.068555
    17  H   -0.000066  -0.001431  -0.000001  -0.000568   0.010074  -0.001866
    18  H    0.000002   0.000567   0.000000   0.000117  -0.002915   0.011374
    19  C   -0.060387   0.528246   0.006606  -0.041119  -0.002032  -0.021231
    20  H    0.003301  -0.026794  -0.000092  -0.004678   0.000170  -0.001004
    21  C    0.582083  -0.071914  -0.030898   0.005339   0.000560   0.006815
    22  H   -0.023974   0.004222  -0.005393  -0.000058   0.000011   0.000021
    23  C   -0.082494   0.246896   0.004777  -0.014054   0.004028  -0.000246
    24  H    0.013080  -0.053469  -0.000092  -0.003994   0.002117  -0.001925
    25  H    0.004339  -0.035054  -0.000025  -0.000243   0.000295  -0.000174
    26  C    0.279098  -0.068475  -0.027433   0.003602  -0.002536   0.008679
    27  H   -0.039652   0.011359  -0.004474  -0.000098   0.000329   0.000566
    28  H   -0.036220  -0.001855   0.001047  -0.000124  -0.002651  -0.001398
               7          8          9         10         11         12
     1  C    0.000224  -0.000812   0.001082  -0.000022  -0.000009  -0.000089
     2  C   -0.000994   0.001882  -0.000217  -0.000174  -0.001934   0.006780
     3  H    0.000000  -0.000002  -0.000003  -0.000001   0.000000   0.000002
     4  H   -0.000058  -0.000022  -0.000946  -0.000052   0.000069   0.000899
     5  C    0.423090  -0.041257  -0.068222  -0.003298   0.007835   0.302377
     6  C   -0.027163   0.424309   0.246412  -0.034965  -0.053422  -0.071924
     7  H    0.477869  -0.004667   0.002946  -0.000264  -0.000027  -0.028521
     8  H   -0.004667   0.471447  -0.013852  -0.000249  -0.003984   0.005335
     9  C    0.002946  -0.013852   4.953354   0.385926   0.452355   0.036858
    10  H   -0.000264  -0.000249   0.385926   0.568988  -0.020195   0.001500
    11  H   -0.000027  -0.003984   0.452355  -0.020195   0.535409  -0.004142
    12  C   -0.028521   0.005335   0.036858   0.001500  -0.004142   5.004883
    13  H   -0.003040  -0.000058  -0.000235  -0.000054   0.000026   0.423190
    14  C    0.003270  -0.001811  -0.082564   0.004330   0.013078   0.581762
    15  H   -0.000092   0.000028   0.004776  -0.000025  -0.000091  -0.030957
    16  C   -0.000616   0.003593   0.357300  -0.024155  -0.052924  -0.063245
    17  H    0.000026  -0.000125  -0.034754   0.006880  -0.007942  -0.014566
    18  H    0.000028  -0.000098  -0.045197  -0.007782  -0.001306   0.006371
    19  C    0.000171  -0.001699   0.004045   0.000294   0.002108   0.000561
    20  H    0.000007  -0.000058   0.001506   0.000097  -0.000635  -0.000097
    21  C   -0.000098   0.000906  -0.000325   0.000014  -0.000231  -0.000252
    22  H   -0.000000  -0.000001  -0.000034  -0.000001   0.000006  -0.000000
    23  C    0.001480  -0.000935   0.000134  -0.000006   0.000050  -0.000320
    24  H   -0.000626   0.000070   0.000049   0.000002  -0.000014  -0.000229
    25  H    0.000097  -0.000052  -0.000006   0.000001   0.000002   0.000014
    26  C   -0.001133   0.000592  -0.000594   0.000048  -0.000033   0.000545
    27  H   -0.000018   0.000117  -0.000022   0.000001  -0.000002  -0.000047
    28  H    0.001299  -0.000596   0.000370  -0.000009   0.000023   0.000598
              13         14         15         16         17         18
     1  C   -0.000001   0.000118  -0.000000  -0.000550  -0.000066   0.000002
     2  C    0.000020  -0.003365  -0.000026   0.008668  -0.001431   0.000567
     3  H    0.000000  -0.000000  -0.000000  -0.000001  -0.000001   0.000000
     4  H   -0.000002  -0.000819  -0.000002   0.000645  -0.000568   0.000117
     5  C   -0.034103  -0.060388   0.006607   0.005976   0.010074  -0.002915
     6  C    0.004157   0.007750  -0.001824  -0.068555  -0.001866   0.011374
     7  H   -0.003040   0.003270  -0.000092  -0.000616   0.000026   0.000028
     8  H   -0.000058  -0.001811   0.000028   0.003593  -0.000125  -0.000098
     9  C   -0.000235  -0.082564   0.004776   0.357300  -0.034754  -0.045197
    10  H   -0.000054   0.004330  -0.000025  -0.024155   0.006880  -0.007782
    11  H    0.000026   0.013078  -0.000091  -0.052924  -0.007942  -0.001306
    12  C    0.423190   0.581762  -0.030957  -0.063245  -0.014566   0.006371
    13  H    0.487913  -0.024221  -0.005396   0.003830  -0.000360  -0.000090
    14  C   -0.024221   5.143176   0.422297   0.278906  -0.036194  -0.039643
    15  H   -0.005396   0.422297   0.490935  -0.027413   0.001044  -0.004470
    16  C    0.003830   0.278906  -0.027413   4.929721   0.401528   0.437762
    17  H   -0.000360  -0.036194   0.001044   0.401528   0.587734  -0.021526
    18  H   -0.000090  -0.039643  -0.004470   0.437762  -0.021526   0.537748
    19  C    0.000011   0.000396  -0.000040  -0.002538  -0.002646   0.000328
    20  H   -0.000000   0.000224   0.000000  -0.001144   0.001290  -0.000018
    21  C   -0.000000  -0.000090   0.000002   0.000547   0.000597  -0.000047
    22  H    0.000000  -0.000001   0.000000   0.000011  -0.000002  -0.000001
    23  C   -0.000034   0.001080  -0.000003  -0.000602   0.000367  -0.000022
    24  H    0.000007  -0.000009  -0.000000  -0.000033   0.000023  -0.000002
    25  H   -0.000001  -0.000022  -0.000001   0.000048  -0.000009   0.000001
    26  C    0.000011  -0.000550  -0.000001   0.000968   0.000114  -0.000002
    27  H   -0.000001   0.000002   0.000000  -0.000002   0.000002  -0.000000
    28  H   -0.000002  -0.000066  -0.000001   0.000114  -0.000026   0.000002
              19         20         21         22         23         24
     1  C   -0.060387   0.003301   0.582083  -0.023974  -0.082494   0.013080
     2  C    0.528246  -0.026794  -0.071914   0.004222   0.246896  -0.053469
     3  H    0.006606  -0.000092  -0.030898  -0.005393   0.004777  -0.000092
     4  H   -0.041119  -0.004678   0.005339  -0.000058  -0.014054  -0.003994
     5  C   -0.002032   0.000170   0.000560   0.000011   0.004028   0.002117
     6  C   -0.021231  -0.001004   0.006815   0.000021  -0.000246  -0.001925
     7  H    0.000171   0.000007  -0.000098  -0.000000   0.001480  -0.000626
     8  H   -0.001699  -0.000058   0.000906  -0.000001  -0.000935   0.000070
     9  C    0.004045   0.001506  -0.000325  -0.000034   0.000134   0.000049
    10  H    0.000294   0.000097   0.000014  -0.000001  -0.000006   0.000002
    11  H    0.002108  -0.000635  -0.000231   0.000006   0.000050  -0.000014
    12  C    0.000561  -0.000097  -0.000252  -0.000000  -0.000320  -0.000229
    13  H    0.000011  -0.000000  -0.000000   0.000000  -0.000034   0.000007
    14  C    0.000396   0.000224  -0.000090  -0.000001   0.001080  -0.000009
    15  H   -0.000040   0.000000   0.000002   0.000000  -0.000003  -0.000000
    16  C   -0.002538  -0.001144   0.000547   0.000011  -0.000602  -0.000033
    17  H   -0.002646   0.001290   0.000597  -0.000002   0.000367   0.000023
    18  H    0.000328  -0.000018  -0.000047  -0.000001  -0.000022  -0.000002
    19  C    5.123737   0.422780   0.302346  -0.034213  -0.068382   0.007847
    20  H    0.422780   0.477788  -0.028612  -0.003036   0.002936  -0.000027
    21  C    0.302346  -0.028612   5.004803   0.422979   0.036799  -0.004139
    22  H   -0.034213  -0.003036   0.422979   0.487833  -0.000236   0.000026
    23  C   -0.068382   0.002936   0.036799  -0.000236   4.952889   0.452307
    24  H    0.007847  -0.000027  -0.004139   0.000026   0.452307   0.535745
    25  H   -0.003269  -0.000264   0.001501  -0.000054   0.385989  -0.020208
    26  C    0.005928  -0.000618  -0.063352   0.003833   0.357244  -0.052935
    27  H   -0.002909   0.000028   0.006375  -0.000091  -0.045169  -0.001304
    28  H    0.010051   0.000026  -0.014491  -0.000359  -0.034842  -0.007949
              25         26         27         28
     1  C    0.004339   0.279098  -0.039652  -0.036220
     2  C   -0.035054  -0.068475   0.011359  -0.001855
     3  H   -0.000025  -0.027433  -0.004474   0.001047
     4  H   -0.000243   0.003602  -0.000098  -0.000124
     5  C    0.000295  -0.002536   0.000329  -0.002651
     6  C   -0.000174   0.008679   0.000566  -0.001398
     7  H    0.000097  -0.001133  -0.000018   0.001299
     8  H   -0.000052   0.000592   0.000117  -0.000596
     9  C   -0.000006  -0.000594  -0.000022   0.000370
    10  H    0.000001   0.000048   0.000001  -0.000009
    11  H    0.000002  -0.000033  -0.000002   0.000023
    12  C    0.000014   0.000545  -0.000047   0.000598
    13  H   -0.000001   0.000011  -0.000001  -0.000002
    14  C   -0.000022  -0.000550   0.000002  -0.000066
    15  H   -0.000001  -0.000001   0.000000  -0.000001
    16  C    0.000048   0.000968  -0.000002   0.000114
    17  H   -0.000009   0.000114   0.000002  -0.000026
    18  H    0.000001  -0.000002  -0.000000   0.000002
    19  C   -0.003269   0.005928  -0.002909   0.010051
    20  H   -0.000264  -0.000618   0.000028   0.000026
    21  C    0.001501  -0.063352   0.006375  -0.014491
    22  H   -0.000054   0.003833  -0.000091  -0.000359
    23  C    0.385989   0.357244  -0.045169  -0.034842
    24  H   -0.020208  -0.052935  -0.001304  -0.007949
    25  H    0.569016  -0.024162  -0.007787   0.006885
    26  C   -0.024162   4.929752   0.437756   0.401550
    27  H   -0.007787   0.437756   0.537728  -0.021557
    28  H    0.006885   0.401550  -0.021557   0.587855
          Atomic-Atomic Spin Densities.
               1          2          3          4          5          6
     1  C   -0.000001  -0.000000   0.000000   0.000000  -0.000000  -0.000000
     2  C   -0.000000   0.000000   0.000000   0.000000  -0.000000  -0.000000
     3  H    0.000000   0.000000   0.000000  -0.000000  -0.000000   0.000000
     4  H    0.000000   0.000000  -0.000000   0.000000   0.000000  -0.000000
     5  C   -0.000000  -0.000000  -0.000000   0.000000  -0.000001   0.000000
     6  C   -0.000000  -0.000000   0.000000  -0.000000   0.000000   0.000000
     7  H    0.000000   0.000000   0.000000  -0.000000  -0.000000  -0.000000
     8  H    0.000000   0.000000  -0.000000  -0.000000  -0.000000  -0.000000
     9  C   -0.000000   0.000000  -0.000000  -0.000000  -0.000000   0.000000
    10  H   -0.000000  -0.000000  -0.000000   0.000000  -0.000000   0.000000
    11  H    0.000000  -0.000000   0.000000   0.000000   0.000000  -0.000000
    12  C   -0.000000   0.000000   0.000000  -0.000000   0.000000   0.000000
    13  H    0.000000   0.000000   0.000000  -0.000000   0.000000  -0.000000
    14  C   -0.000000   0.000000  -0.000000  -0.000000   0.000000   0.000000
    15  H    0.000000  -0.000000  -0.000000   0.000000  -0.000000  -0.000000
    16  C   -0.000000   0.000000   0.000000   0.000000  -0.000000  -0.000000
    17  H   -0.000000  -0.000000  -0.000000   0.000000   0.000000  -0.000000
    18  H   -0.000000   0.000000  -0.000000   0.000000   0.000000  -0.000000
    19  C    0.000000  -0.000000   0.000000   0.000000   0.000000   0.000000
    20  H   -0.000000   0.000000   0.000000   0.000000  -0.000000  -0.000000
    21  C    0.000000  -0.000000  -0.000000  -0.000000   0.000000  -0.000000
    22  H   -0.000000   0.000000  -0.000000  -0.000000   0.000000  -0.000000
    23  C   -0.000000  -0.000000   0.000000  -0.000000  -0.000000  -0.000000
    24  H   -0.000000   0.000000  -0.000000   0.000000   0.000000   0.000000
    25  H   -0.000000  -0.000000   0.000000   0.000000  -0.000000   0.000000
    26  C    0.000000   0.000000  -0.000000  -0.000000   0.000000  -0.000000
    27  H    0.000000   0.000000  -0.000000   0.000000   0.000000  -0.000000
    28  H    0.000000   0.000000  -0.000000   0.000000  -0.000000   0.000000
               7          8          9         10         11         12
     1  C    0.000000   0.000000  -0.000000  -0.000000   0.000000  -0.000000
     2  C    0.000000   0.000000   0.000000  -0.000000  -0.000000   0.000000
     3  H    0.000000  -0.000000  -0.000000  -0.000000   0.000000   0.000000
     4  H   -0.000000  -0.000000  -0.000000   0.000000   0.000000  -0.000000
     5  C   -0.000000  -0.000000  -0.000000  -0.000000   0.000000   0.000000
     6  C   -0.000000  -0.000000   0.000000   0.000000  -0.000000   0.000000
     7  H    0.000000  -0.000000   0.000000  -0.000000  -0.000000  -0.000000
     8  H   -0.000000  -0.000000   0.000000  -0.000000  -0.000000   0.000000
     9  C    0.000000   0.000000  -0.000001  -0.000000   0.000000  -0.000000
    10  H   -0.000000  -0.000000  -0.000000   0.000000  -0.000000   0.000000
    11  H   -0.000000  -0.000000   0.000000  -0.000000   0.000000  -0.000000
    12  C   -0.000000   0.000000  -0.000000   0.000000  -0.000000   0.000000
    13  H    0.000000   0.000000   0.000000  -0.000000  -0.000000  -0.000000
    14  C    0.000000  -0.000000   0.000000   0.000000   0.000000  -0.000000
    15  H   -0.000000   0.000000  -0.000000  -0.000000   0.000000   0.000000
    16  C   -0.000000   0.000000   0.000000  -0.000000  -0.000000   0.000000
    17  H   -0.000000  -0.000000   0.000000   0.000000  -0.000000   0.000000
    18  H    0.000000  -0.000000   0.000000   0.000000  -0.000000  -0.000000
    19  C    0.000000  -0.000000   0.000000   0.000000  -0.000000  -0.000000
    20  H    0.000000   0.000000  -0.000000  -0.000000   0.000000   0.000000
    21  C   -0.000000   0.000000  -0.000000   0.000000   0.000000  -0.000000
    22  H    0.000000   0.000000  -0.000000   0.000000   0.000000   0.000000
    23  C    0.000000   0.000000  -0.000000  -0.000000   0.000000   0.000000
    24  H   -0.000000  -0.000000  -0.000000   0.000000  -0.000000  -0.000000
    25  H    0.000000  -0.000000   0.000000  -0.000000  -0.000000  -0.000000
    26  C   -0.000000  -0.000000   0.000000   0.000000  -0.000000  -0.000000
    27  H   -0.000000  -0.000000  -0.000000   0.000000  -0.000000  -0.000000
    28  H    0.000000  -0.000000   0.000000   0.000000  -0.000000  -0.000000
              13         14         15         16         17         18
     1  C    0.000000  -0.000000   0.000000  -0.000000  -0.000000  -0.000000
     2  C    0.000000   0.000000  -0.000000   0.000000  -0.000000   0.000000
     3  H    0.000000  -0.000000  -0.000000   0.000000  -0.000000  -0.000000
     4  H   -0.000000  -0.000000   0.000000   0.000000   0.000000   0.000000
     5  C    0.000000   0.000000  -0.000000  -0.000000   0.000000   0.000000
     6  C   -0.000000   0.000000  -0.000000  -0.000000  -0.000000  -0.000000
     7  H    0.000000   0.000000  -0.000000  -0.000000  -0.000000   0.000000
     8  H    0.000000  -0.000000   0.000000   0.000000  -0.000000  -0.000000
     9  C    0.000000   0.000000  -0.000000   0.000000   0.000000   0.000000
    10  H   -0.000000   0.000000  -0.000000  -0.000000   0.000000   0.000000
    11  H   -0.000000   0.000000   0.000000  -0.000000  -0.000000  -0.000000
    12  C   -0.000000  -0.000000   0.000000   0.000000   0.000000  -0.000000
    13  H   -0.000000   0.000000   0.000000  -0.000000  -0.000000   0.000000
    14  C    0.000000   0.000001  -0.000000  -0.000000  -0.000000  -0.000000
    15  H    0.000000  -0.000000  -0.000000   0.000000   0.000000   0.000000
    16  C   -0.000000  -0.000000   0.000000   0.000001  -0.000000  -0.000000
    17  H   -0.000000  -0.000000   0.000000  -0.000000   0.000000   0.000000
    18  H    0.000000  -0.000000   0.000000  -0.000000   0.000000  -0.000000
    19  C   -0.000000   0.000000   0.000000  -0.000000   0.000000  -0.000000
    20  H   -0.000000  -0.000000  -0.000000   0.000000  -0.000000   0.000000
    21  C   -0.000000   0.000000  -0.000000   0.000000   0.000000   0.000000
    22  H    0.000000  -0.000000  -0.000000   0.000000  -0.000000   0.000000
    23  C    0.000000   0.000000   0.000000  -0.000000  -0.000000   0.000000
    24  H   -0.000000  -0.000000  -0.000000   0.000000   0.000000   0.000000
    25  H   -0.000000   0.000000   0.000000  -0.000000  -0.000000  -0.000000
    26  C   -0.000000   0.000000  -0.000000  -0.000000   0.000000   0.000000
    27  H   -0.000000   0.000000  -0.000000  -0.000000   0.000000   0.000000
    28  H    0.000000   0.000000   0.000000  -0.000000   0.000000  -0.000000
              19         20         21         22         23         24
     1  C    0.000000  -0.000000   0.000000  -0.000000  -0.000000  -0.000000
     2  C   -0.000000   0.000000  -0.000000   0.000000  -0.000000   0.000000
     3  H    0.000000   0.000000  -0.000000  -0.000000   0.000000  -0.000000
     4  H    0.000000   0.000000  -0.000000  -0.000000  -0.000000   0.000000
     5  C    0.000000  -0.000000   0.000000   0.000000  -0.000000   0.000000
     6  C    0.000000  -0.000000  -0.000000  -0.000000  -0.000000   0.000000
     7  H    0.000000   0.000000  -0.000000   0.000000   0.000000  -0.000000
     8  H   -0.000000   0.000000   0.000000   0.000000   0.000000  -0.000000
     9  C    0.000000  -0.000000  -0.000000  -0.000000  -0.000000  -0.000000
    10  H    0.000000  -0.000000   0.000000   0.000000  -0.000000   0.000000
    11  H   -0.000000   0.000000   0.000000   0.000000   0.000000  -0.000000
    12  C   -0.000000   0.000000  -0.000000   0.000000   0.000000  -0.000000
    13  H   -0.000000  -0.000000  -0.000000   0.000000   0.000000  -0.000000
    14  C    0.000000  -0.000000   0.000000  -0.000000   0.000000  -0.000000
[...]
     5  C   -0.000000   0.000000   0.000000  -0.000000
     6  C    0.000000  -0.000000  -0.000000   0.000000
     7  H    0.000000  -0.000000  -0.000000   0.000000
     8  H   -0.000000  -0.000000  -0.000000  -0.000000
     9  C   -0.000000   0.000000  -0.000000   0.000000
    10  H    0.000000   0.000000   0.000000   0.000000
    11  H   -0.000000  -0.000000  -0.000000  -0.000000
    12  C   -0.000000  -0.000000  -0.000000  -0.000000
    13  H    0.000000  -0.000000  -0.000000   0.000000
    14  C    0.000000   0.000000   0.000000   0.000000
    15  H    0.000000  -0.000000   0.000000   0.000000
    16  C   -0.000000   0.000000  -0.000000  -0.000000
    17  H   -0.000000   0.000000   0.000000  -0.000000
    18  H   -0.000000   0.000000  -0.000000  -0.000000
    19  C    0.000000   0.000000   0.000000  -0.000000
    20  H    0.000000   0.000000  -0.000000   0.000000
    21  C   -0.000000  -0.000000   0.000000  -0.000000
    22  H    0.000000   0.000000  -0.000000   0.000000
    23  C    0.000000  -0.000000  -0.000000  -0.000000
    24  H    0.000000   0.000000   0.000000   0.000000
    25  H   -0.000000   0.000000  -0.000000  -0.000000
    26  C    0.000000  -0.000001   0.000000   0.000000
    27  H   -0.000000   0.000000   0.000000  -0.000000
    28  H   -0.000000   0.000000  -0.000000  -0.000000
 Mulliken charges and spin densities:
               1          2
     1  C   -0.205144  -0.000001
     2  C   -0.196310  -0.000000
     3  H    0.148650   0.000000
     4  H    0.168822   0.000000
     5  C   -0.191067  -0.000000
     6  C   -0.195560  -0.000000
     7  H    0.166865   0.000000
     8  H    0.168958  -0.000000
     9  C   -0.210645  -0.000001
    10  H    0.131393   0.000000
    11  H    0.138998   0.000000
    12  C   -0.160819  -0.000000
    13  H    0.152262  -0.000000
    14  C   -0.204684   0.000001
    15  H    0.148620  -0.000000
    16  C   -0.192810   0.000000
    17  H    0.115326   0.000000
    18  H    0.133218  -0.000000
    19  C   -0.191528   0.000000
    20  H    0.167237  -0.000000
    21  C   -0.160493  -0.000000
    22  H    0.152210   0.000000
    23  C   -0.209289   0.000001
    24  H    0.138775  -0.000000
    25  H    0.131146  -0.000000
    26  C   -0.191918  -0.000000
    27  H    0.132960   0.000000
    28  H    0.114828   0.000000
 Sum of Mulliken charges =  -0.00000  -0.00000
 Mulliken charges and spin densities with hydrogens summed into heavy atoms:
               1          2
     1  C   -0.056494  -0.000000
     2  C   -0.027488   0.000000
     5  C   -0.024201   0.000000
     6  C   -0.026602  -0.000000
     9  C    0.059745  -0.000000
    12  C   -0.008557  -0.000000
    14  C   -0.056064   0.000001
    16  C    0.055734   0.000000
    19  C   -0.024291   0.000000
    21  C   -0.008283   0.000000
    23  C    0.060633   0.000000
    26  C    0.055870  -0.000000
 Electronic spatial extent (au):  <R**2>=           2338.7139
 Charge=              0.0000 electrons
 Dipole moment (field-independent basis, Debye):
    X=             -0.0018    Y=             -0.0003    Z=              0.0007  Tot=              0.0019
 Quadrupole moment (field-independent basis, Debye-Ang):
   XX=            -70.4695   YY=            -68.0984   ZZ=            -74.9904
   XY=             -3.2961   XZ=             -3.9331   YZ=             -1.7169
 Traceless Quadrupole moment (field-independent basis, Debye-Ang):
   XX=              0.7166   YY=              3.0877   ZZ=             -3.8043
   XY=             -3.2961   XZ=             -3.9331   YZ=             -1.7169
 Octapole moment (field-independent basis, Debye-Ang**2):
  XXX=             -0.0168  YYY=             -0.0016  ZZZ=              0.0033  XYY=             -0.0013
  XXY=              0.0018  XXZ=              0.0030  XZZ=             -0.0081  YZZ=             -0.0001
  YYZ=             -0.0017  XYZ=             -0.0027
 Hexadecapole moment (field-independent basis, Debye-Ang**3):
 XXXX=          -2069.1121 YYYY=           -609.0875 ZZZZ=           -440.6712 XXXY=           -118.6980
 XXXZ=           -173.5221 YYYX=            -68.2639 YYYZ=             -9.3566 ZZZX=           -113.8870
 ZZZY=            -23.0400 XXYY=           -440.5959 XXZZ=           -438.3366 YYZZ=           -190.0871
 XXYZ=            -27.0489 YYXZ=            -40.6842 ZZXY=            -47.9002
 N-N= 6.708270876523D+02 E-N=-2.424256676248D+03  KE= 4.642910210097D+02
                          Isotropic Fermi Contact Couplings
        Atom                 a.u.       MegaHertz       Gauss      10(-4) cm-1
     1  C(13)             -0.00000      -0.00002      -0.00001      -0.00001
     2  C(13)             -0.00000      -0.00006      -0.00002      -0.00002
     3  H(1)               0.00000       0.00000       0.00000       0.00000
     4  H(1)               0.00000       0.00006       0.00002       0.00002
     5  C(13)             -0.00000      -0.00014      -0.00005      -0.00005
     6  C(13)              0.00000       0.00004       0.00002       0.00001
     7  H(1)               0.00000       0.00023       0.00008       0.00008
     8  H(1)              -0.00000      -0.00005      -0.00002      -0.00002
     9  C(13)             -0.00000      -0.00024      -0.00009      -0.00008
    10  H(1)               0.00000       0.00010       0.00004       0.00003
    11  H(1)               0.00000       0.00013       0.00005       0.00004
    12  C(13)              0.00000       0.00009       0.00003       0.00003
    13  H(1)              -0.00000      -0.00019      -0.00007      -0.00006
    14  C(13)              0.00000       0.00003       0.00001       0.00001
    15  H(1)              -0.00000      -0.00001      -0.00000      -0.00000
    16  C(13)              0.00000       0.00012       0.00004       0.00004
    17  H(1)              -0.00000      -0.00002      -0.00001      -0.00001
    18  H(1)              -0.00000      -0.00003      -0.00001      -0.00001
    19  C(13)              0.00000       0.00016       0.00006       0.00005
    20  H(1)              -0.00000      -0.00024      -0.00009      -0.00008
    21  C(13)             -0.00000      -0.00010      -0.00004      -0.00003
    22  H(1)               0.00000       0.00020       0.00007       0.00007
    23  C(13)              0.00000       0.00024       0.00009       0.00008
    24  H(1)              -0.00000      -0.00013      -0.00005      -0.00004
    25  H(1)              -0.00000      -0.00011      -0.00004      -0.00004
    26  C(13)             -0.00000      -0.00013      -0.00005      -0.00004
    27  H(1)               0.00000       0.00003       0.00001       0.00001
    28  H(1)               0.00000       0.00003       0.00001       0.00001
 --------------------------------------------------------
       Center         ----  Spin Dipole Couplings  ----
                      3XX-RR        3YY-RR        3ZZ-RR
 --------------------------------------------------------
     1   Atom       -0.000000      0.000000      0.000000
     2   Atom        0.000000     -0.000000     -0.000000
     3   Atom        0.000000      0.000000     -0.000000
     4   Atom       -0.000000     -0.000000      0.000000
     5   Atom       -0.000000     -0.000000      0.000001
     6   Atom       -0.000000      0.000000      0.000000
     7   Atom        0.000000     -0.000000      0.000000
     8   Atom        0.000000      0.000000     -0.000000
     9   Atom       -0.000000      0.000000     -0.000000
    10   Atom        0.000000      0.000000     -0.000000
    11   Atom        0.000000     -0.000000      0.000000
    12   Atom        0.000000      0.000001     -0.000001
    13   Atom       -0.000000      0.000000     -0.000000
    14   Atom        0.000000     -0.000000      0.000000
    15   Atom       -0.000000     -0.000000      0.000000
    16   Atom        0.000000     -0.000000      0.000000
    17   Atom        0.000000     -0.000000      0.000000
    18   Atom       -0.000000      0.000000     -0.000000
    19   Atom        0.000000      0.000000     -0.000001
    20   Atom       -0.000000      0.000000     -0.000000
    21   Atom       -0.000000     -0.000000      0.000001
    22   Atom        0.000000     -0.000000      0.000000
    23   Atom        0.000000     -0.000000      0.000000
    24   Atom       -0.000000      0.000000     -0.000000
    25   Atom       -0.000000     -0.000000      0.000000
    26   Atom       -0.000000      0.000000     -0.000000
    27   Atom       -0.000000     -0.000000      0.000000
    28   Atom       -0.000000      0.000000     -0.000000
 --------------------------------------------------------
                        XY            XZ            YZ
 --------------------------------------------------------
     1   Atom        0.000000     -0.000001      0.000000
     2   Atom        0.000000      0.000000     -0.000000
     3   Atom       -0.000000      0.000000      0.000000
     4   Atom       -0.000000     -0.000000      0.000000
     5   Atom        0.000000     -0.000000     -0.000000
     6   Atom       -0.000000     -0.000000     -0.000000
     7   Atom        0.000000      0.000000     -0.000000
     8   Atom        0.000000      0.000000     -0.000000
     9   Atom       -0.000000      0.000000     -0.000000
    10   Atom        0.000000     -0.000000      0.000000
    11   Atom       -0.000000     -0.000000     -0.000000
    12   Atom        0.000000     -0.000000     -0.000000
    13   Atom        0.000000     -0.000000     -0.000000
    14   Atom       -0.000000      0.000001     -0.000000
    15   Atom        0.000000     -0.000000     -0.000000
    16   Atom       -0.000000     -0.000000     -0.000000
    17   Atom        0.000000      0.000000      0.000000
    18   Atom       -0.000000      0.000000     -0.000000
    19   Atom       -0.000000      0.000000      0.000000
    20   Atom       -0.000000     -0.000000      0.000000
    21   Atom       -0.000000      0.000000      0.000000
    22   Atom       -0.000000      0.000000      0.000000
    23   Atom        0.000000     -0.000000      0.000000
    24   Atom        0.000000      0.000000      0.000000
    25   Atom       -0.000000      0.000000     -0.000000
    26   Atom        0.000000      0.000000      0.000000
    27   Atom        0.000000     -0.000000      0.000000
    28   Atom       -0.000000     -0.000000     -0.000000
 --------------------------------------------------------


 ---------------------------------------------------------------------------------
              Anisotropic Spin Dipole Couplings in Principal Axis System
 ---------------------------------------------------------------------------------

       Atom             a.u.   MegaHertz   Gauss  10(-4) cm-1        Axes

              Baa    -0.0000    -0.000    -0.000    -0.000  0.8216 -0.1656  0.5454
     1 C(13)  Bbb     0.0000     0.000     0.000     0.000  0.2117  0.9771 -0.0222
              Bcc     0.0000     0.000     0.000     0.000 -0.5292  0.1338  0.8379
 
              Baa    -0.0000    -0.000    -0.000    -0.000 -0.4695  0.2695  0.8408
     2 C(13)  Bbb    -0.0000    -0.000    -0.000    -0.000 -0.1416  0.9170 -0.3729
              Bcc     0.0000     0.000     0.000     0.000  0.8715  0.2941  0.3924
 
              Baa    -0.0000    -0.000    -0.000    -0.000 -0.3017 -0.1873  0.9348
     3 H(1)   Bbb     0.0000     0.000     0.000     0.000 -0.2211  0.9675  0.1225
              Bcc     0.0000     0.000     0.000     0.000  0.9274  0.1698  0.3333
 
              Baa    -0.0000    -0.000    -0.000    -0.000  0.9681  0.2082  0.1392
     4 H(1)   Bbb    -0.0000    -0.000    -0.000    -0.000 -0.1561  0.9362 -0.3150
              Bcc     0.0000     0.000     0.000     0.000 -0.1959  0.2832  0.9388
 
              Baa    -0.0000    -0.000    -0.000    -0.000 -0.5662  0.8219  0.0628
     5 C(13)  Bbb    -0.0000    -0.000    -0.000    -0.000  0.8237  0.5612  0.0809
              Bcc     0.0000     0.000     0.000     0.000 -0.0313 -0.0975  0.9947
 
              Baa    -0.0000    -0.000    -0.000    -0.000  0.8047  0.2608  0.5333
     6 C(13)  Bbb     0.0000     0.000     0.000     0.000 -0.0180  0.9087 -0.4171
              Bcc     0.0000     0.000     0.000     0.000 -0.5933  0.3260  0.7360
 
              Baa    -0.0000    -0.000    -0.000    -0.000 -0.4778  0.8419  0.2509
     7 H(1)   Bbb     0.0000     0.000     0.000     0.000  0.8115  0.5324 -0.2411
              Bcc     0.0000     0.000     0.000     0.000  0.3365 -0.0884  0.9375
 
              Baa    -0.0000    -0.000    -0.000    -0.000 -0.2658  0.2259  0.9372
     8 H(1)   Bbb     0.0000     0.000     0.000     0.000 -0.2016  0.9376 -0.2832
              Bcc     0.0000     0.000     0.000     0.000  0.9427  0.2642  0.2037
 
              Baa    -0.0000    -0.000    -0.000    -0.000  0.8423  0.2085 -0.4970
     9 C(13)  Bbb    -0.0000    -0.000    -0.000    -0.000  0.3671  0.4532  0.8123
              Bcc     0.0000     0.000     0.000     0.000 -0.3946  0.8667 -0.3052
 
              Baa    -0.0000    -0.000    -0.000    -0.000  0.4992 -0.1810  0.8474
    10 H(1)   Bbb     0.0000     0.000     0.000     0.000 -0.5370  0.7029  0.4664
              Bcc     0.0000     0.000     0.000     0.000  0.6801  0.6879 -0.2537
 
              Baa    -0.0000    -0.000    -0.000    -0.000  0.5594  0.8233  0.0965
    11 H(1)   Bbb     0.0000     0.000     0.000     0.000 -0.5043  0.2456  0.8279
              Bcc     0.0000     0.000     0.000     0.000  0.6579 -0.5118  0.5525
 
              Baa    -0.0000    -0.000    -0.000    -0.000  0.1663  0.0583  0.9843
    12 C(13)  Bbb     0.0000     0.000     0.000     0.000  0.9014 -0.4136 -0.1278
              Bcc     0.0000     0.000     0.000     0.000  0.3997  0.9086 -0.1214
 
              Baa    -0.0000    -0.000    -0.000    -0.000  0.3619  0.2152  0.9071
    13 H(1)   Bbb    -0.0000    -0.000    -0.000    -0.000  0.9225 -0.2230 -0.3151
              Bcc     0.0000     0.000     0.000     0.000  0.1345  0.9508 -0.2792
 
              Baa    -0.0000    -0.000    -0.000    -0.000 -0.5965  0.1328  0.7915
    14 C(13)  Bbb    -0.0000    -0.000    -0.000    -0.000  0.1945  0.9807 -0.0179
              Bcc     0.0000     0.000     0.000     0.000  0.7787 -0.1433  0.6109
 
              Baa    -0.0000    -0.000    -0.000    -0.000 -0.0493  0.9837  0.1727
    15 H(1)   Bbb    -0.0000    -0.000    -0.000    -0.000  0.9346 -0.0156  0.3554
              Bcc     0.0000     0.000     0.000     0.000 -0.3523 -0.1790  0.9186
 
              Baa    -0.0000    -0.000    -0.000    -0.000  0.2794  0.9164  0.2867
    16 C(13)  Bbb    -0.0000    -0.000    -0.000    -0.000  0.6680 -0.4000  0.6275
              Bcc     0.0000     0.000     0.000     0.000 -0.6897 -0.0162  0.7239
 
              Baa    -0.0000    -0.000    -0.000    -0.000 -0.5370  0.8106 -0.2335
    17 H(1)   Bbb    -0.0000    -0.000    -0.000    -0.000 -0.6169 -0.1885  0.7641
              Bcc     0.0000     0.000     0.000     0.000  0.5754  0.5544  0.6013
 
              Baa    -0.0000    -0.000    -0.000    -0.000  0.5161  0.5933  0.6178
    18 H(1)   Bbb    -0.0000    -0.000    -0.000    -0.000 -0.6392 -0.2134  0.7389
              Bcc     0.0000     0.000     0.000     0.000 -0.5702  0.7762 -0.2691
 
              Baa    -0.0000    -0.000    -0.000    -0.000 -0.1377 -0.1593  0.9776
    19 C(13)  Bbb     0.0000     0.000     0.000     0.000 -0.0498  0.9869  0.1538
              Bcc     0.0000     0.000     0.000     0.000  0.9892  0.0275  0.1438
 
              Baa    -0.0000    -0.000    -0.000    -0.000  0.1698 -0.1885  0.9673
    20 H(1)   Bbb    -0.0000    -0.000    -0.000    -0.000  0.8544  0.5173 -0.0492
              Bcc     0.0000     0.000     0.000     0.000 -0.4912  0.8348  0.2489
 
              Baa    -0.0000    -0.000    -0.000    -0.000  0.4795  0.8699 -0.1158
    21 C(13)  Bbb    -0.0000    -0.000    -0.000    -0.000  0.8720 -0.4871 -0.0486
              Bcc     0.0000     0.000     0.000     0.000  0.0987  0.0777  0.9921
 
              Baa    -0.0000    -0.000    -0.000    -0.000  0.1922  0.9364 -0.2936
    22 H(1)   Bbb     0.0000     0.000     0.000     0.000  0.9394 -0.2620 -0.2209
              Bcc     0.0000     0.000     0.000     0.000  0.2838  0.2334  0.9300
 
              Baa    -0.0000    -0.000    -0.000    -0.000 -0.4001  0.8627 -0.3093
    23 C(13)  Bbb     0.0000     0.000     0.000     0.000  0.3697  0.4608  0.8068
              Bcc     0.0000     0.000     0.000     0.000  0.8386  0.2085 -0.5033
 
              Baa    -0.0000    -0.000    -0.000    -0.000  0.6762 -0.5344  0.5071
    24 H(1)   Bbb    -0.0000    -0.000    -0.000    -0.000 -0.4641  0.2256  0.8566
              Bcc     0.0000     0.000     0.000     0.000  0.5722  0.8145  0.0955
 
              Baa    -0.0000    -0.000    -0.000    -0.000  0.6325  0.7453 -0.2109
    25 H(1)   Bbb    -0.0000    -0.000    -0.000    -0.000 -0.6019  0.6443  0.4718
              Bcc     0.0000     0.000     0.000     0.000  0.4875 -0.1715  0.8561
 
              Baa    -0.0000    -0.000    -0.000    -0.000 -0.6897 -0.0140  0.7240
    26 C(13)  Bbb     0.0000     0.000     0.000     0.000  0.6638 -0.4115  0.6245
              Bcc     0.0000     0.000     0.000     0.000  0.2892  0.9113  0.2931
 
              Baa    -0.0000    -0.000    -0.000    -0.000 -0.5952  0.7591 -0.2635
    27 H(1)   Bbb     0.0000     0.000     0.000     0.000 -0.5765 -0.1750  0.7982
              Bcc     0.0000     0.000     0.000     0.000  0.5598  0.6270  0.5418
 
              Baa    -0.0000    -0.000    -0.000    -0.000  0.5590  0.5200  0.6458
    28 H(1)   Bbb     0.0000     0.000     0.000     0.000  0.7369  0.0456 -0.6745
              Bcc     0.0000     0.000     0.000     0.000 -0.3802  0.8529 -0.3577
 

 ---------------------------------------------------------------------------------

 No NMR shielding tensors so no spin-rotation constants.
 Leave Link  601 at Mon Aug  3 22:50:17 2020, MaxMem=  6442450944 cpu:               7.9 elap:               0.4
 (Enter /scratch/scicomp/CentOS/7.3.1611/Haswell/software/Gaussian/g16/l9999.exe)
 1\1\GINC-ATLAS-205\SP\UwB97XD\def2TZVP\C12H16\BOCHEN\03-Aug-2020\0\\#p
  uwb97xd guess=mix def2tzvp # scrf=(iefpcm,solvent=Cyclohexane,read) n
 osym 6d 10f\\endo-2 xp-pcm for eta=3\\0,1\C,0,-3.121942,-0.439924,0.27
 7771\C,0,-0.797162,-0.267484,-1.333299\H,0,-4.04452,-0.521623,0.840727
 \H,0,0.132617,-0.192479,-1.884118\C,0,1.213684,1.436717,0.855014\C,0,0
 .797162,0.267484,1.333299\H,0,0.625474,2.334691,1.002965\H,0,-0.132617
 ,0.192479,1.884118\C,0,1.625967,-0.975882,1.184356\H,0,2.219247,-1.095
 182,2.100353\H,0,0.977773,-1.851608,1.125614\C,0,2.478853,1.534377,0.1
 2517\H,0,2.879166,2.517204,-0.093218\C,0,3.121942,0.439924,-0.277771\H
 ,0,4.04452,0.521623,-0.840727\C,0,2.55568,-0.931899,-0.031548\H,0,2.00
 912,-1.243493,-0.930088\H,0,3.361336,-1.657785,0.093053\C,0,-1.213684,
 -1.436717,-0.855014\H,0,-0.625474,-2.334691,-1.002965\C,0,-2.478853,-1
 .534377,-0.12517\H,0,-2.879166,-2.517204,0.093218\C,0,-1.625967,0.9758
 82,-1.184356\H,0,-0.977773,1.851608,-1.125614\H,0,-2.219247,1.095182,-
 2.100353\C,0,-2.55568,0.931899,0.031548\H,0,-3.361336,1.657785,-0.0930
 53\H,0,-2.00912,1.243493,0.930088\\Version=ES64L-G16RevB.01\HF=-466.81
 15735\S2=0.\S2-1=0.\S2A=0.\RMSD=8.921e-09\Dipole=-0.0006952,-0.0001322
 ,0.0002604\Quadrupole=0.5327827,2.2956127,-2.8283954,-2.4505733,-2.924
 1612,-1.2764498\PG=CI [X(C12H16)]\\@


 Human beings, who are almost unique in having the
 ability to learn from the experience of others, are
 also remarkable for their apparent disinclination to do so.
                               -- Douglas Adams,
                                Last Chance to See
 Job cpu time:       0 days  2 hours  6 minutes  3.5 seconds.
 Elapsed time:       0 days  0 hours  5 minutes 18.4 seconds.
 File lengths (MBytes):  RWF=    673 Int=      0 D2E=      0 Chk=     25 Scr=      1
 Normal termination of Gaussian 16 at Mon Aug  3 22:50:17 2020.
