 Entering Gaussian System, Link 0=g16
 Input=meso-TS_49_2_pcm.com
 Output=meso-TS_49_2_pcm.log
 Initial command:
 /scratch/scicomp/CentOS/7.3.1611/Haswell/software/Gaussian/g16/l1.exe "/scratch/bochen/cyclohexadiene-dimerization/wb97xd-def2tzvp/xp-pcm/meso/Gau-26323.inp" -scrdir="/scratch/bochen/cyclohexadiene-dimerization/wb97xd-def2tzvp/xp-pcm/meso/"
 Entering Link 1 = /scratch/scicomp/CentOS/7.3.1611/Haswell/software/Gaussian/g16/l1.exe PID=     26325.
  
 Copyright (c) 1988-2017, Gaussian, Inc.  All Rights Reserved.
  
 This is part of the Gaussian(R) 16 program.  It is based on
 the Gaussian(R) 09 system (copyright 2009, Gaussian, Inc.),
 the Gaussian(R) 03 system (copyright 2003, Gaussian, Inc.),
 the Gaussian(R) 98 system (copyright 1998, Gaussian, Inc.),
 the Gaussian(R) 94 system (copyright 1995, Gaussian, Inc.),
 the Gaussian 92(TM) system (copyright 1992, Gaussian, Inc.),
 the Gaussian 90(TM) system (copyright 1990, Gaussian, Inc.),
 the Gaussian 88(TM) system (copyright 1988, Gaussian, Inc.),
 the Gaussian 86(TM) system (copyright 1986, Carnegie Mellon
 University), and the Gaussian 82(TM) system (copyright 1983,
 Carnegie Mellon University). Gaussian is a federally registered
 trademark of Gaussian, Inc.
  
 This software contains proprietary and confidential information,
 including trade secrets, belonging to Gaussian, Inc.
  
 This software is provided under written license and may be
 used, copied, transmitted, or stored only in accord with that
 written license.
  
 The following legend is applicable only to US Government
 contracts under FAR:
  
                    RESTRICTED RIGHTS LEGEND
  
 Use, reproduction and disclosure by the US Government is
 subject to restrictions as set forth in subparagraphs (a)
 and (c) of the Commercial Computer Software - Restricted
 Rights clause in FAR 52.227-19.
  
 Gaussian, Inc.
 340 Quinnipiac St., Bldg. 40, Wallingford CT 06492
  
  
 ---------------------------------------------------------------
 Warning -- This program may not be used in any manner that
 competes with the business of Gaussian, Inc. or will provide
 assistance to any competitor of Gaussian, Inc.  The licensee
 of this program is prohibited from giving any competitor of
 Gaussian, Inc. access to this program.  By using this program,
 the user acknowledges that Gaussian, Inc. is engaged in the
 business of creating and licensing software in the field of
 computational chemistry and represents and warrants to the
 licensee that it is not a competitor of Gaussian, Inc. and that
 it will not use this program in any manner prohibited above.
 ---------------------------------------------------------------
  

 Cite this work as:
 Gaussian 16, Revision B.01,
 M. J. Frisch, G. W. Trucks, H. B. Schlegel, G. E. Scuseria, 
 M. A. Robb, J. R. Cheeseman, G. Scalmani, V. Barone, 
 G. A. Petersson, H. Nakatsuji, X. Li, M. Caricato, A. V. Marenich, 
 J. Bloino, B. G. Janesko, R. Gomperts, B. Mennucci, H. P. Hratchian, 
 J. V. Ortiz, A. F. Izmaylov, J. L. Sonnenberg, D. Williams-Young, 
 F. Ding, F. Lipparini, F. Egidi, J. Goings, B. Peng, A. Petrone, 
 T. Henderson, D. Ranasinghe, V. G. Zakrzewski, J. Gao, N. Rega, 
 G. Zheng, W. Liang, M. Hada, M. Ehara, K. Toyota, R. Fukuda, 
 J. Hasegawa, M. Ishida, T. Nakajima, Y. Honda, O. Kitao, H. Nakai, 
 T. Vreven, K. Throssell, J. A. Montgomery, Jr., J. E. Peralta, 
 F. Ogliaro, M. J. Bearpark, J. J. Heyd, E. N. Brothers, K. N. Kudin, 
 V. N. Staroverov, T. A. Keith, R. Kobayashi, J. Normand, 
 K. Raghavachari, A. P. Rendell, J. C. Burant, S. S. Iyengar, 
 J. Tomasi, M. Cossi, J. M. Millam, M. Klene, C. Adamo, R. Cammi, 
 J. W. Ochterski, R. L. Martin, K. Morokuma, O. Farkas, 
 J. B. Foresman, and D. J. Fox, Gaussian, Inc., Wallingford CT, 2016.
 
 ******************************************
 Gaussian 16:  ES64L-G16RevB.01 20-Dec-2017
                 3-Aug-2020 
 ******************************************
 %nproc=24
 Will use up to   24 processors via shared memory.
 %mem=48GB
 ----------------------------------------------------------------------
 #p uwb97xd guess=mix def2tzvp # scrf=(iefpcm,solvent=Cyclohexane,read)
  nosym 6d 10f
 ----------------------------------------------------------------------
 1/38=1,40=2,172=1/1;
 2/12=2,15=1,17=6,18=5,40=1/2;
 3/5=44,7=101,8=22,11=2,25=1,30=1,70=2203,72=17,74=-58,116=2/1,2,3;
 4/13=-1/1;
 5/5=2,38=5,53=17/2;
 6/7=2,8=2,9=2,10=2,28=1/1;
 99/5=1,9=1/99;
 Leave Link    1 at Mon Aug  3 14:43:43 2020, MaxMem=  6442450944 cpu:               1.6 elap:               0.1
 (Enter /scratch/scicomp/CentOS/7.3.1611/Haswell/software/Gaussian/g16/l101.exe)
 -----------------------
 endo-2 xp-pcm for eta=3
 -----------------------
 Symbolic Z-matrix:
 Charge =  0 Multiplicity = 1
 6                    -3.12775  -0.44152   0.26112 
 6                    -0.71992  -0.24822  -1.21984 
 1                    -4.0736   -0.53513   0.78213 
 1                     0.23413  -0.16473  -1.7252 
 6                     1.16007   1.42422   0.7826 
 6                     0.71992   0.24822   1.21984 
 1                     0.56693   2.32073   0.91735 
 1                    -0.23413   0.16473   1.7252 
 6                     1.55459  -0.99429   1.10423 
 1                     2.07784  -1.12631   2.05986 
 1                     0.91189  -1.86751   0.99096 
 6                     2.45364   1.5293    0.10781 
 1                     2.85378   2.51504  -0.09747 
 6                     3.12775   0.44152  -0.26112 
 1                     4.0736    0.53513  -0.78213 
 6                     2.57732  -0.94051  -0.03613 
 1                     2.12125  -1.28557  -0.97224 
 1                     3.39036  -1.6399    0.16813 
 6                    -1.16007  -1.42422  -0.7826 
 1                    -0.56693  -2.32073  -0.91735 
 6                    -2.45364  -1.5293   -0.10781 
 1                    -2.85378  -2.51504   0.09747 
 6                    -1.55459   0.99429  -1.10423 
 1                    -0.91189   1.86751  -0.99096 
 1                    -2.07784   1.12631  -2.05986 
 6                    -2.57732   0.94051   0.03613 
 1                    -3.39036   1.6399   -0.16813 
 1                    -2.12125   1.28557   0.97224 
 
 ITRead=  0  0  0  0  0  0  0  0  0  0  0  0  0  0  0  0  0  0  0  0
 ITRead=  0  0  0  0  0  0  0  0
 MicOpt= -1 -1 -1 -1 -1 -1 -1 -1 -1 -1 -1 -1 -1 -1 -1 -1 -1 -1 -1 -1
 MicOpt= -1 -1 -1 -1 -1 -1 -1 -1
 NAtoms=     28 NQM=       28 NQMF=       0 NMMI=      0 NMMIF=      0
                NMic=       0 NMicF=      0.
                    Isotopes and Nuclear Properties:
 (Nuclear quadrupole moments (NQMom) in fm**2, nuclear magnetic moments (NMagM)
  in nuclear magnetons)

  Atom         1           2           3           4           5           6           7           8           9          10
 IAtWgt=          12          12           1           1          12          12           1           1          12           1
 AtmWgt=  12.0000000  12.0000000   1.0078250   1.0078250  12.0000000  12.0000000   1.0078250   1.0078250  12.0000000   1.0078250
 NucSpn=           0           0           1           1           0           0           1           1           0           1
 AtZEff=  -0.0000000  -0.0000000  -0.0000000  -0.0000000  -0.0000000  -0.0000000  -0.0000000  -0.0000000  -0.0000000  -0.0000000
 NQMom=    0.0000000   0.0000000   0.0000000   0.0000000   0.0000000   0.0000000   0.0000000   0.0000000   0.0000000   0.0000000
 NMagM=    0.0000000   0.0000000   2.7928460   2.7928460   0.0000000   0.0000000   2.7928460   2.7928460   0.0000000   2.7928460
 AtZNuc=   6.0000000   6.0000000   1.0000000   1.0000000   6.0000000   6.0000000   1.0000000   1.0000000   6.0000000   1.0000000

  Atom        11          12          13          14          15          16          17          18          19          20
 IAtWgt=           1          12           1          12           1          12           1           1          12           1
 AtmWgt=   1.0078250  12.0000000   1.0078250  12.0000000   1.0078250  12.0000000   1.0078250   1.0078250  12.0000000   1.0078250
 NucSpn=           1           0           1           0           1           0           1           1           0           1
 AtZEff=  -0.0000000  -0.0000000  -0.0000000  -0.0000000  -0.0000000  -0.0000000  -0.0000000  -0.0000000  -0.0000000  -0.0000000
 NQMom=    0.0000000   0.0000000   0.0000000   0.0000000   0.0000000   0.0000000   0.0000000   0.0000000   0.0000000   0.0000000
 NMagM=    2.7928460   0.0000000   2.7928460   0.0000000   2.7928460   0.0000000   2.7928460   2.7928460   0.0000000   2.7928460
 AtZNuc=   1.0000000   6.0000000   1.0000000   6.0000000   1.0000000   6.0000000   1.0000000   1.0000000   6.0000000   1.0000000

  Atom        21          22          23          24          25          26          27          28
 IAtWgt=          12           1          12           1           1          12           1           1
 AtmWgt=  12.0000000   1.0078250  12.0000000   1.0078250   1.0078250  12.0000000   1.0078250   1.0078250
 NucSpn=           0           1           0           1           1           0           1           1
 AtZEff=  -0.0000000  -0.0000000  -0.0000000  -0.0000000  -0.0000000  -0.0000000  -0.0000000  -0.0000000
 NQMom=    0.0000000   0.0000000   0.0000000   0.0000000   0.0000000   0.0000000   0.0000000   0.0000000
 NMagM=    0.0000000   2.7928460   0.0000000   2.7928460   2.7928460   0.0000000   2.7928460   2.7928460
 AtZNuc=   6.0000000   1.0000000   6.0000000   1.0000000   1.0000000   6.0000000   1.0000000   1.0000000
 Leave Link  101 at Mon Aug  3 14:43:43 2020, MaxMem=  6442450944 cpu:               2.4 elap:               0.1
 (Enter /scratch/scicomp/CentOS/7.3.1611/Haswell/software/Gaussian/g16/l202.exe)
                          Input orientation:                          
 ---------------------------------------------------------------------
 Center     Atomic      Atomic             Coordinates (Angstroms)
 Number     Number       Type             X           Y           Z
 ---------------------------------------------------------------------
      1          6           0       -3.127753   -0.441522    0.261122
      2          6           0       -0.719921   -0.248221   -1.219838
      3          1           0       -4.073595   -0.535125    0.782132
      4          1           0        0.234126   -0.164733   -1.725204
      5          6           0        1.160074    1.424218    0.782600
      6          6           0        0.719921    0.248221    1.219838
      7          1           0        0.566933    2.320735    0.917353
      8          1           0       -0.234126    0.164733    1.725204
      9          6           0        1.554591   -0.994289    1.104230
     10          1           0        2.077836   -1.126314    2.059864
     11          1           0        0.911886   -1.867512    0.990956
     12          6           0        2.453641    1.529303    0.107811
     13          1           0        2.853781    2.515042   -0.097470
     14          6           0        3.127753    0.441522   -0.261122
     15          1           0        4.073595    0.535125   -0.782132
     16          6           0        2.577324   -0.940508   -0.036133
     17          1           0        2.121249   -1.285571   -0.972240
     18          1           0        3.390356   -1.639895    0.168128
     19          6           0       -1.160074   -1.424218   -0.782600
     20          1           0       -0.566933   -2.320735   -0.917353
     21          6           0       -2.453641   -1.529303   -0.107811
     22          1           0       -2.853781   -2.515042    0.097470
     23          6           0       -1.554591    0.994289   -1.104230
     24          1           0       -0.911886    1.867512   -0.990956
     25          1           0       -2.077836    1.126314   -2.059864
     26          6           0       -2.577324    0.940508    0.036133
     27          1           0       -3.390356    1.639895   -0.168129
     28          1           0       -2.121249    1.285571    0.972240
 ---------------------------------------------------------------------
                    Distance matrix (angstroms):
                    1          2          3          4          5
     1  C    0.000000
     2  C    2.833419   0.000000
     3  H    1.083896   3.916290   0.000000
     4  H    3.914631   1.082853   4.998038   0.000000
     5  C    4.705145   3.215772   5.588409   3.109859   0.000000
     6  C    4.024857   2.876042   4.876783   3.013271   1.329617
     7  H    4.659550   3.580938   5.450571   3.642996   1.083382
     8  H    3.299115   3.013271   4.015060   3.497588   2.102046
     9  C    4.789648   3.336362   5.656064   3.230710   2.471491
    10  H    5.550006   4.399425   6.310484   4.318639   2.996482
    11  H    4.345663   3.189437   5.164677   3.276635   3.307642
    12  C    5.921116   3.872175   6.879054   3.340052   1.462771
    13  H    6.681961   4.654748   7.620089   4.085744   2.198423
    14  C    6.339074   4.024857   7.341773   3.299115   2.434504
    15  H    7.341773   4.876783   8.364751   4.015060   3.424540
    16  C    5.734566   3.571028   6.713316   2.990880   2.875909
    17  H    5.457621   3.034740   6.482059   2.320445   3.368424
    18  H    6.628008   4.556049   7.570210   3.965173   3.839339
    19  C    2.434504   1.329617   3.424540   2.102046   3.993310
    20  H    3.387926   2.100052   4.286412   2.437758   4.460613
    21  C    1.331843   2.425605   2.098723   3.420834   4.751321
    22  H    2.097934   3.380405   2.424207   4.287337   5.665528
    23  C    2.529936   1.501290   3.498978   2.220011   3.333822
    24  H    3.436481   2.136718   4.348897   2.445912   2.763156
    25  H    2.991222   2.106875   3.849724   2.669076   4.318844
    26  C    1.504526   2.537811   2.229985   3.496872   3.841788
    27  H    2.141381   3.435447   2.469924   4.337976   4.653688
    28  H    2.121695   3.020173   2.676328   3.863596   3.289721
                    6          7          8          9         10
     6  C    0.000000
     7  H    2.100052   0.000000
     8  H    1.082853   2.437758   0.000000
     9  C    1.501290   3.464069   2.220011   0.000000
    10  H    2.106875   3.933231   2.669076   1.097475   0.000000
    11  H    2.136718   4.203073   2.445912   1.090146   1.746819
    12  C    2.425605   2.200316   3.420834   2.858261   3.317234
    13  H    3.380405   2.509441   4.287337   3.930316   4.302982
    14  C    2.833419   3.387926   3.914631   2.529936   2.991222
    15  H    3.916290   4.286412   4.998038   3.498978   3.849724
    16  C    2.537811   3.947976   3.496872   1.532744   2.162687
    17  H    3.020173   4.357970   3.863596   2.172021   3.036594
    18  H    3.435447   4.921346   4.337976   2.159428   2.359055
    19  C    3.215772   4.460613   3.109859   3.333822   4.318844
    20  H    3.580938   5.118109   3.642996   3.216694   4.157555
    21  C    3.872175   4.999762   3.340052   4.221517   5.039395
    22  H    4.654748   5.979819   4.085744   4.770744   5.486383
    23  C    3.336362   3.216694   3.230710   4.301017   5.263361
    24  H    3.189437   2.456412   3.276635   4.320095   5.216218
    25  H    4.399425   4.157555   4.318639   5.263361   6.270255
    26  C    3.571028   3.545127   2.990880   4.685829   5.480671
    27  H    4.556049   4.159561   3.965173   5.745461   6.520505
    28  H    3.034740   2.881128   2.320445   4.327468   4.963107
                   11         12         13         14         15
    11  H    0.000000
    12  C    3.833446   0.000000
    13  H    4.915527   1.083482   0.000000
    14  C    3.436481   1.331843   2.097934   0.000000
    15  H    4.348897   2.098723   2.424207   1.083896   0.000000
    16  C    2.165163   2.477092   3.467134   1.504526   2.229985
    17  H    2.378099   3.033234   3.968184   2.121695   2.676328
    18  H    2.621387   3.305282   4.197851   2.141381   2.469923
    19  C    2.763156   4.751321   5.665528   4.705145   5.588409
    20  H    2.456412   4.999762   5.979819   4.659550   5.450571
    21  C    3.556465   5.786448   6.672748   5.921116   6.879054
    22  H    3.924011   6.672748   7.610257   6.681961   7.620089
    23  C    4.320095   4.221517   4.770744   4.789648   5.656064
    24  H    4.604837   3.556465   3.924011   4.345663   5.164677
    25  H    5.216218   5.039395   5.486383   5.550006   6.310484
    26  C    4.579438   5.065810   5.656316   5.734566   6.713316
    27  H    5.670509   5.851553   6.305563   6.628008   7.570210
    28  H    4.375179   4.662216   5.235151   5.457621   6.482059
                   16         17         18         19         20
    16  C    0.000000
    17  H    1.096982   0.000000
    18  H    1.091735   1.742589   0.000000
    19  C    3.841788   3.289721   4.653688   0.000000
    20  H    3.545127   2.881128   4.159561   1.083382   0.000000
    21  C    5.065810   4.662216   5.851553   1.462771   2.200316
    22  H    5.656316   5.235151   6.305563   2.198423   2.509441
    23  C    4.685829   4.327468   5.745461   2.471491   3.464069
    24  H    4.579438   4.375179   5.670508   3.307642   4.203073
    25  H    5.480671   4.963107   6.520505   2.996482   3.933231
    26  C    5.487608   5.296115   6.503008   2.875909   3.947976
    27  H    6.503008   6.291481   7.539771   3.839339   4.921346
    28  H    5.296115   5.328280   6.291481   3.368424   4.357970
                   21         22         23         24         25
    21  C    0.000000
    22  H    1.083482   0.000000
    23  C    2.858261   3.930316   0.000000
    24  H    3.833446   4.915527   1.090146   0.000000
    25  H    3.317234   4.302982   1.097475   1.746819   0.000000
    26  C    2.477092   3.467134   1.532744   2.165163   2.162687
    27  H    3.305282   4.197851   2.159427   2.621387   2.359054
    28  H    3.033234   3.968184   2.172021   2.378099   3.036594
                   26         27         28
    26  C    0.000000
    27  H    1.091735   0.000000
    28  H    1.096982   1.742590   0.000000
 Symmetry turned off by external request.
 Stoichiometry    C12H16
 Framework group  CI[X(C12H16)]
 Deg. of freedom    39
 Full point group                 CI      NOp   2
 Rotational constants (GHZ):           1.7702073           0.5971610           0.5372422
 Leave Link  202 at Mon Aug  3 14:43:43 2020, MaxMem=  6442450944 cpu:               0.3 elap:               0.0
 (Enter /scratch/scicomp/CentOS/7.3.1611/Haswell/software/Gaussian/g16/l301.exe)
 Standard basis: def2TZVP (6D, 10F)
 Ernie: Thresh=  0.10000D-02 Tol=  0.10000D-05 Strict=F.
   528 basis functions,   740 primitive gaussians,   528 cartesian basis functions
    44 alpha electrons       44 beta electrons
       nuclear repulsion energy       677.2008204301 Hartrees.
 IExCor= 4639 DFT=T Ex+Corr=wB97XD ExCW=0 ScaHFX=  1.000000
 ScaDFX=  1.000000  1.000000  1.000000  1.000000 ScalE2=  1.000000  1.000000
 IRadAn=      5 IRanWt=     -1 IRanGd=            0 ICorTp=0 IEmpDi=121
 HFx  wShort=  0.000000 wLong=  0.200000 cFull=  0.222036 cShort=  0.000000 cLong=  0.777964
 DFx  wShort=  0.000000 wLong=  0.200000 cFull=  0.000000 cShort=  0.000000 cLong=  1.000000
 NAtoms=   28 NActive=   28 NUniq=   28 SFac= 1.00D+00 NAtFMM=   60 NAOKFM=F Big=F
 Integral buffers will be    131072 words long.
 Raffenetti 2 integral format.
 Two-electron integral symmetry is turned off.
 R6Disp:  Grimme-D2 Dispersion energy=       -0.0223066379 Hartrees.
 Nuclear repulsion after empirical dispersion term =      677.1785137922 Hartrees.
 Using the following non-standard input for PCM:
 norep pcmdoc geomview  nodis nocav g03defaults tsare=0.075
 Warning! Using old PCM defaults because the g03defaults keyword was found.
 These settings can be overridden by following keywords.
 nsfe=28
 NVESolv=36  SolvMW=84.1595   Rsolv=2.815
 eps=2.0165 RhoS=0.7781
 --- end of non-standard input.
 Reading user-defined spheres from input:
 ISph  on   Nord    Re0     Alpha      Xe            Ye            Ze
 --- end of user-defined spheres data.
 ------------------------------------------------------------------------------
 Polarizable Continuum Model (PCM)
 =================================
 Model                : PCM.
 Atomic radii         : UA0 (Simple United Atom Topological Model).
 Polarization charges : Total charges.
 Charge compensation  : None.
 Solution method      : On-the-fly selection.
 Cavity type          : SES (Solvent Excluding Surface) (Alpha=1.000).
 Cavity algorithm     : GePol (RMin=0.200 OFac=0.890).
                        User-defined sphere list used, NSphG=   28.
                        Tesserae with average area of 0.075 Ang**2.
                        Smoothing algorithm: None.
                        Polarization charges: point-like.
                        Self-potential: constant (ISelfS= 1).
                        Self-field    : global E.n sum rule (ISelfD= 3).
 Solvent              : CycloHexane, Eps=   2.016500 Eps(inf)=   2.035188
                        RSolv=   2.815000 Ang.
 ------------------------------------------------------------------------------
 GePol: Number of generator spheres                  =      28
 GePol: Total number of spheres                      =     188
 GePol: Number of exposed spheres                    =     130 ( 69.15%)
 GePol: Number of tesserae                           =    4675
 GePol: Average area of tesserae                     =       0.05 Ang**2
 GePol: Minimum area of tessera                      =   0.10D-02 Ang**2
 GePol: Maximum area of tessera                      =    0.12395 Ang**2
 GePol: Number of small tesserae                     =       0
 GePol: Fraction of small tesserae (<1% of avg)      =       0.00%
 GePol: Total count of vertices                      =   16561
 GePol: Maximum number of vertices in a tessera      =       7
 GePol: Cavity surface area                          =    221.876 Ang**2
 GePol: Cavity volume                                =    252.319 Ang**3
 Leave Link  301 at Mon Aug  3 14:43:43 2020, MaxMem=  6442450944 cpu:               8.1 elap:               0.4
 (Enter /scratch/scicomp/CentOS/7.3.1611/Haswell/software/Gaussian/g16/l302.exe)
 NPDir=0 NMtPBC=     1 NCelOv=     1 NCel=       1 NClECP=     1 NCelD=      1
         NCelK=      1 NCelE2=     1 NClLst=     1 CellRange=     0.0.
 One-electron integrals computed using PRISM.
   1 Symmetry operations used in ECPInt.
 ECPInt:  NShTT=   19306 NPrTT=   56928 LenC2=   18478 LenP2D=   41942.
 LDataN:  DoStor=T MaxTD1= 6 Len=  172
 NBasis=   528 RedAO= T EigKep=  1.84D-05  NBF=   528
 NBsUse=   528 1.00D-06 EigRej= -1.00D+00 NBFU=   528
 Precomputing XC quadrature grid using
 IXCGrd= 4 IRadAn=           5 IRanWt=          -1 IRanGd=           0 AccXCQ= 0.00D+00.
 Generated NRdTot=       0 NPtTot=           0 NUsed=           0 NTot=          32
 NSgBfM=   526   526   526   526   526 MxSgAt=    28 MxSgA2=    28.
 Leave Link  302 at Mon Aug  3 14:43:44 2020, MaxMem=  6442450944 cpu:              12.7 elap:               0.6
 (Enter /scratch/scicomp/CentOS/7.3.1611/Haswell/software/Gaussian/g16/l303.exe)
 DipDrv:  MaxL=1.
 Leave Link  303 at Mon Aug  3 14:43:44 2020, MaxMem=  6442450944 cpu:               1.5 elap:               0.1
 (Enter /scratch/scicomp/CentOS/7.3.1611/Haswell/software/Gaussian/g16/l401.exe)
 ExpMin= 9.52D-02 ExpMax= 1.36D+04 ExpMxC= 4.63D+02 IAcc=3 IRadAn=         5 AccDes= 0.00D+00
 Harris functional with IExCor= 4639 and IRadAn=       5 diagonalized for initial guess.
 HarFok:  IExCor= 4639 AccDes= 0.00D+00 IRadAn=         5 IDoV= 1 UseB2=F ITyADJ=14
 ICtDFT=  3500011 ScaDFX=  1.000000  1.000000  1.000000  1.000000
 FoFCou: FMM=F IPFlag=           0 FMFlag=      100000 FMFlg1=           0
         NFxFlg=           0 DoJE=T BraDBF=F KetDBF=T FulRan=T
         wScrn=  0.000000 ICntrl=       500 IOpCl=  0 I1Cent=   200000004 NGrid=           0
         NMat0=    1 NMatS0=      1 NMatT0=    0 NMatD0=    1 NMtDS0=    0 NMtDT0=    0
 Symmetry not used in FoFCou.
 Harris En= -444.655667047765    
 JPrj=0 DoOrth=F DoCkMO=T.
 Mixing orbitals, IMix= 1 IMixAn=  0 NRI=1 NE=   44 Coef=  7.07106781D-01  7.07106781D-01
 Mixing orbitals, IMix= 1 IMixAn=  0 NRI=1 NE=   44 Coef= -7.07106781D-01  7.07106781D-01
 Initial guess <Sx>= 0.0000 <Sy>= 0.0000 <Sz>= 0.0000 <S**2>= 1.0000 S= 0.6180
 Leave Link  401 at Mon Aug  3 14:43:46 2020, MaxMem=  6442450944 cpu:              48.6 elap:               2.1
 (Enter /scratch/scicomp/CentOS/7.3.1611/Haswell/software/Gaussian/g16/l502.exe)
 Two-electron integral symmetry not used.
 UHF open shell SCF:
 Using DIIS extrapolation, IDIIS=  1040.
 NGot=  6442450944 LenX=  6441877030 LenY=  6441597718
 Requested convergence on RMS density matrix=1.00D-08 within 128 cycles.
 Requested convergence on MAX density matrix=1.00D-06.
 Requested convergence on             energy=1.00D-06.
 No special actions if energy rises.
 Fock matrices will be formed incrementally for  20 cycles.

 Cycle   1  Pass 1  IDiag  1:
 FoFJK:  IHMeth= 1 ICntrl=       0 DoSepK=T KAlg= 0 I1Cent=           0 FoldK=F
 IRaf=         1 NMat=       1 IRICut=       1 DoRegI=T DoRafI=F ISym2E= 0 IDoP0=0 IntGTp=1.
 FoFCou: FMM=F IPFlag=           0 FMFlag=      100000 FMFlg1=           0
         NFxFlg=           0 DoJE=T BraDBF=F KetDBF=F FulRan=T
         wScrn=  0.000000 ICntrl=       500 IOpCl=  0 I1Cent=           0 NGrid=           0
         NMat0=    1 NMatS0=      1 NMatT0=    0 NMatD0=    1 NMtDS0=    0 NMtDT0=    0
 Symmetry not used in FoFCou.
 Inv3:  Mode=1 IEnd=    65566875.
 Iteration    1 A*A^-1 deviation from unit magnitude is 3.33D-15 for    995.
 Iteration    1 A*A^-1 deviation from orthogonality  is 1.92D-15 for   2072    616.
 Iteration    1 A^-1*A deviation from unit magnitude is 3.33D-15 for    995.
 Iteration    1 A^-1*A deviation from orthogonality  is 1.87D-15 for   2077    229.
 E= -466.579975599082    
 DIIS: error= 5.08D-02 at cycle   1 NSaved=   1.
 NSaved= 1 IEnMin= 1 EnMin= -466.579975599082     IErMin= 1 ErrMin= 5.08D-02
 ErrMax= 5.08D-02  0.00D+00 EMaxC= 1.00D-01 BMatC= 4.11D+00 BMatP= 4.11D+00
 IDIUse=3 WtCom= 4.92D-01 WtEn= 5.08D-01
 Coeff-Com:  0.100D+01
 Coeff-En:   0.100D+01
 Coeff:      0.100D+01
 Gap=     0.182 Goal=   None    Shift=    0.000
 Gap=     0.182 Goal=   None    Shift=    0.000
 GapD=    0.182 DampG=1.000 DampE=0.500 DampFc=0.5000 IDamp=-1.
 Damping current iteration by 5.00D-01
 RMSDP=1.64D-03 MaxDP=9.26D-02              OVMax= 3.46D-01

 Cycle   2  Pass 1  IDiag  1:
 RMSU=  7.85D-04    CP:  9.64D-01
 E= -466.690897471756     Delta-E=       -0.110921872674 Rises=F Damp=T
 DIIS: error= 2.42D-02 at cycle   2 NSaved=   2.
 NSaved= 2 IEnMin= 2 EnMin= -466.690897471756     IErMin= 2 ErrMin= 2.42D-02
 ErrMax= 2.42D-02  0.00D+00 EMaxC= 1.00D-01 BMatC= 9.36D-01 BMatP= 4.11D+00
 IDIUse=3 WtCom= 7.58D-01 WtEn= 2.42D-01
 Coeff-Com: -0.868D+00 0.187D+01
 Coeff-En:   0.000D+00 0.100D+01
 Coeff:     -0.657D+00 0.166D+01
 Gap=     0.276 Goal=   None    Shift=    0.000
 Gap=     0.276 Goal=   None    Shift=    0.000
 RMSDP=1.17D-03 MaxDP=5.34D-02 DE=-1.11D-01 OVMax= 1.40D-01

 Cycle   3  Pass 1  IDiag  1:
 RMSU=  6.22D-04    CP:  9.10D-01  2.18D+00
 E= -466.835476290779     Delta-E=       -0.144578819023 Rises=F Damp=F
 DIIS: error= 7.80D-03 at cycle   3 NSaved=   3.
 NSaved= 3 IEnMin= 3 EnMin= -466.835476290779     IErMin= 3 ErrMin= 7.80D-03
 ErrMax= 7.80D-03  0.00D+00 EMaxC= 1.00D-01 BMatC= 2.47D-02 BMatP= 9.36D-01
 IDIUse=3 WtCom= 9.22D-01 WtEn= 7.80D-02
 Coeff-Com: -0.318D+00 0.681D+00 0.637D+00
 Coeff-En:   0.000D+00 0.000D+00 0.100D+01
 Coeff:     -0.293D+00 0.628D+00 0.665D+00
 Gap=     0.298 Goal=   None    Shift=    0.000
 Gap=     0.298 Goal=   None    Shift=    0.000
 RMSDP=2.24D-04 MaxDP=1.15D-02 DE=-1.45D-01 OVMax= 6.49D-02

 Cycle   4  Pass 1  IDiag  1:
 RMSU=  2.04D-04    CP:  9.03D-01  2.28D+00  9.90D-01
 E= -466.846501103468     Delta-E=       -0.011024812689 Rises=F Damp=F
 DIIS: error= 5.17D-03 at cycle   4 NSaved=   4.
 NSaved= 4 IEnMin= 4 EnMin= -466.846501103468     IErMin= 4 ErrMin= 5.17D-03
 ErrMax= 5.17D-03  0.00D+00 EMaxC= 1.00D-01 BMatC= 2.12D-03 BMatP= 2.47D-02
 IDIUse=3 WtCom= 9.48D-01 WtEn= 5.17D-02
 Coeff-Com:  0.142D+00-0.303D+00-0.694D-01 0.123D+01
 Coeff-En:   0.000D+00 0.000D+00 0.000D+00 0.100D+01
 Coeff:      0.134D+00-0.288D+00-0.658D-01 0.122D+01
 Gap=     0.309 Goal=   None    Shift=    0.000
 Gap=     0.309 Goal=   None    Shift=    0.000
 RMSDP=2.19D-04 MaxDP=1.33D-02 DE=-1.10D-02 OVMax= 7.86D-02

 Cycle   5  Pass 1  IDiag  1:
 RMSU=  8.91D-05    CP:  8.96D-01  2.34D+00  1.22D+00  1.63D+00
 E= -466.851299864618     Delta-E=       -0.004798761150 Rises=F Damp=F
 DIIS: error= 2.39D-03 at cycle   5 NSaved=   5.
 NSaved= 5 IEnMin= 5 EnMin= -466.851299864618     IErMin= 5 ErrMin= 2.39D-03
 ErrMax= 2.39D-03  0.00D+00 EMaxC= 1.00D-01 BMatC= 9.00D-04 BMatP= 2.12D-03
 IDIUse=3 WtCom= 9.76D-01 WtEn= 2.39D-02
 Coeff-Com:  0.713D-01-0.153D+00-0.770D-01 0.404D+00 0.755D+00
 Coeff-En:   0.000D+00 0.000D+00 0.000D+00 0.000D+00 0.100D+01
 Coeff:      0.696D-01-0.149D+00-0.751D-01 0.394D+00 0.761D+00
 Gap=     0.312 Goal=   None    Shift=    0.000
 Gap=     0.312 Goal=   None    Shift=    0.000
 RMSDP=7.83D-05 MaxDP=3.47D-03 DE=-4.80D-03 OVMax= 2.86D-02

 Cycle   6  Pass 1  IDiag  1:
 RMSU=  3.26D-05    CP:  8.94D-01  2.35D+00  1.25D+00  1.91D+00  1.38D+00
 E= -466.852689021035     Delta-E=       -0.001389156417 Rises=F Damp=F
 DIIS: error= 1.75D-03 at cycle   6 NSaved=   6.
 NSaved= 6 IEnMin= 6 EnMin= -466.852689021035     IErMin= 6 ErrMin= 1.75D-03
 ErrMax= 1.75D-03  0.00D+00 EMaxC= 1.00D-01 BMatC= 5.35D-04 BMatP= 9.00D-04
 IDIUse=3 WtCom= 9.82D-01 WtEn= 1.75D-02
 Coeff-Com: -0.782D-01 0.168D+00 0.569D-01-0.574D+00 0.348D-01 0.139D+01
 Coeff-En:   0.000D+00 0.000D+00 0.000D+00 0.000D+00 0.000D+00 0.100D+01
 Coeff:     -0.769D-01 0.165D+00 0.559D-01-0.564D+00 0.342D-01 0.139D+01
 Gap=     0.308 Goal=   None    Shift=    0.000
 Gap=     0.308 Goal=   None    Shift=    0.000
 RMSDP=1.03D-04 MaxDP=4.12D-03 DE=-1.39D-03 OVMax= 3.85D-02

 Cycle   7  Pass 1  IDiag  1:
 RMSU=  3.24D-05    CP:  8.92D-01  2.35D+00  1.29D+00  2.20D+00  2.07D+00
                    CP:  2.21D+00
 E= -466.854335684985     Delta-E=       -0.001646663951 Rises=F Damp=F
 DIIS: error= 1.13D-03 at cycle   7 NSaved=   7.
 NSaved= 7 IEnMin= 7 EnMin= -466.854335684985     IErMin= 7 ErrMin= 1.13D-03
 ErrMax= 1.13D-03  0.00D+00 EMaxC= 1.00D-01 BMatC= 2.77D-04 BMatP= 5.35D-04
 IDIUse=3 WtCom= 9.89D-01 WtEn= 1.13D-02
 Coeff-Com: -0.262D-01 0.568D-01 0.444D-01-0.147D-02-0.662D+00-0.600D+00
 Coeff-Com:  0.219D+01
 Coeff-En:   0.000D+00 0.000D+00 0.000D+00 0.000D+00 0.000D+00 0.000D+00
 Coeff-En:   0.100D+01
 Coeff:     -0.259D-01 0.561D-01 0.439D-01-0.146D-02-0.654D+00-0.594D+00
 Coeff:      0.218D+01
 Gap=     0.308 Goal=   None    Shift=    0.000
 Gap=     0.308 Goal=   None    Shift=    0.000
 RMSDP=1.42D-04 MaxDP=6.83D-03 DE=-1.65D-03 OVMax= 5.34D-02

 Cycle   8  Pass 1  IDiag  1:
 RMSU=  5.24D-05    CP:  8.90D-01  2.35D+00  1.33D+00  2.52D+00  2.94D+00
                    CP:  3.00D+00  2.73D+00
 E= -466.855818398862     Delta-E=       -0.001482713876 Rises=F Damp=F
 DIIS: error= 4.16D-04 at cycle   8 NSaved=   8.
 NSaved= 8 IEnMin= 8 EnMin= -466.855818398862     IErMin= 8 ErrMin= 4.16D-04
 ErrMax= 4.16D-04  0.00D+00 EMaxC= 1.00D-01 BMatC= 7.26D-05 BMatP= 2.77D-04
 IDIUse=3 WtCom= 9.96D-01 WtEn= 4.16D-03
 Coeff-Com:  0.254D-01-0.546D-01-0.757D-02 0.272D+00-0.214D+00-0.811D+00
 Coeff-Com:  0.661D+00 0.113D+01
 Coeff-En:   0.000D+00 0.000D+00 0.000D+00 0.000D+00 0.000D+00 0.000D+00
 Coeff-En:   0.000D+00 0.100D+01
 Coeff:      0.253D-01-0.543D-01-0.754D-02 0.271D+00-0.213D+00-0.808D+00
 Coeff:      0.658D+00 0.113D+01
 Gap=     0.310 Goal=   None    Shift=    0.000
 Gap=     0.310 Goal=   None    Shift=    0.000
 RMSDP=7.00D-05 MaxDP=3.49D-03 DE=-1.48D-03 OVMax= 2.65D-02

 Cycle   9  Pass 1  IDiag  1:
 RMSU=  4.01D-05    CP:  8.89D-01  2.34D+00  1.35D+00  2.64D+00  3.00D+00
                    CP:  3.00D+00  3.00D+00  1.79D+00
 E= -466.856114975957     Delta-E=       -0.000296577095 Rises=F Damp=F
 DIIS: error= 1.37D-04 at cycle   9 NSaved=   9.
 NSaved= 9 IEnMin= 9 EnMin= -466.856114975957     IErMin= 9 ErrMin= 1.37D-04
 ErrMax= 1.37D-04  0.00D+00 EMaxC= 1.00D-01 BMatC= 1.28D-05 BMatP= 7.26D-05
 IDIUse=3 WtCom= 9.99D-01 WtEn= 1.37D-03
 Coeff-Com:  0.150D-01-0.323D-01-0.103D-01 0.109D+00 0.288D-01-0.216D+00
 Coeff-Com: -0.112D+00 0.379D+00 0.839D+00
 Coeff-En:   0.000D+00 0.000D+00 0.000D+00 0.000D+00 0.000D+00 0.000D+00
 Coeff-En:   0.000D+00 0.000D+00 0.100D+01
 Coeff:      0.150D-01-0.323D-01-0.103D-01 0.109D+00 0.287D-01-0.216D+00
 Coeff:     -0.112D+00 0.379D+00 0.839D+00
 Gap=     0.309 Goal=   None    Shift=    0.000
 Gap=     0.309 Goal=   None    Shift=    0.000
 RMSDP=1.84D-05 MaxDP=9.21D-04 DE=-2.97D-04 OVMax= 6.92D-03

 Cycle  10  Pass 1  IDiag  1:
 RMSU=  5.14D-06    CP:  8.88D-01  2.34D+00  1.35D+00  2.66D+00  3.00D+00
                    CP:  3.00D+00  3.00D+00  1.99D+00  1.32D+00
 E= -466.856139655962     Delta-E=       -0.000024680005 Rises=F Damp=F
 DIIS: error= 6.11D-05 at cycle  10 NSaved=  10.
 NSaved=10 IEnMin=10 EnMin= -466.856139655962     IErMin=10 ErrMin= 6.11D-05
 ErrMax= 6.11D-05  0.00D+00 EMaxC= 1.00D-01 BMatC= 2.00D-06 BMatP= 1.28D-05
 IDIUse=1 WtCom= 1.00D+00 WtEn= 0.00D+00
 Coeff-Com: -0.935D-03 0.204D-02-0.990D-03-0.253D-01 0.413D-01 0.955D-01
 Coeff-Com: -0.127D+00-0.169D+00 0.169D+00 0.102D+01
 Coeff:     -0.935D-03 0.204D-02-0.990D-03-0.253D-01 0.413D-01 0.955D-01
 Coeff:     -0.127D+00-0.169D+00 0.169D+00 0.102D+01
 Gap=     0.309 Goal=   None    Shift=    0.000
 Gap=     0.309 Goal=   None    Shift=    0.000
 RMSDP=8.48D-06 MaxDP=3.94D-04 DE=-2.47D-05 OVMax= 3.17D-03

 Cycle  11  Pass 1  IDiag  1:
 RMSU=  2.71D-06    CP:  8.88D-01  2.34D+00  1.36D+00  2.67D+00  3.00D+00
                    CP:  3.00D+00  3.00D+00  2.07D+00  1.46D+00  1.42D+00
 E= -466.856143154465     Delta-E=       -0.000003498504 Rises=F Damp=F
 DIIS: error= 2.41D-05 at cycle  11 NSaved=  11.
 NSaved=11 IEnMin=11 EnMin= -466.856143154465     IErMin=11 ErrMin= 2.41D-05
 ErrMax= 2.41D-05  0.00D+00 EMaxC= 1.00D-01 BMatC= 4.55D-07 BMatP= 2.00D-06
 IDIUse=1 WtCom= 1.00D+00 WtEn= 0.00D+00
 Coeff-Com: -0.154D-02 0.331D-02 0.412D-03-0.185D-01 0.125D-01 0.518D-01
 Coeff-Com: -0.324D-01-0.101D+00-0.205D-01 0.402D+00 0.704D+00
 Coeff:     -0.154D-02 0.331D-02 0.412D-03-0.185D-01 0.125D-01 0.518D-01
 Coeff:     -0.324D-01-0.101D+00-0.205D-01 0.402D+00 0.704D+00
 Gap=     0.309 Goal=   None    Shift=    0.000
 Gap=     0.309 Goal=   None    Shift=    0.000
 RMSDP=1.46D-06 MaxDP=7.59D-05 DE=-3.50D-06 OVMax= 4.40D-04

 Cycle  12  Pass 1  IDiag  1:
 RMSU=  8.43D-07    CP:  8.88D-01  2.34D+00  1.36D+00  2.67D+00  3.00D+00
                    CP:  3.00D+00  3.00D+00  2.07D+00  1.48D+00  1.50D+00
                    CP:  1.20D+00
 E= -466.856143422169     Delta-E=       -0.000000267704 Rises=F Damp=F
 DIIS: error= 1.39D-05 at cycle  12 NSaved=  12.
 NSaved=12 IEnMin=12 EnMin= -466.856143422169     IErMin=12 ErrMin= 1.39D-05
 ErrMax= 1.39D-05  0.00D+00 EMaxC= 1.00D-01 BMatC= 7.13D-08 BMatP= 4.55D-07
 IDIUse=1 WtCom= 1.00D+00 WtEn= 0.00D+00
 Coeff-Com:  0.484D-03-0.105D-02-0.856D-04 0.710D-02-0.632D-02-0.230D-01
 Coeff-Com:  0.236D-01 0.407D-01-0.260D-01-0.233D+00 0.539D-02 0.121D+01
 Coeff:      0.484D-03-0.105D-02-0.856D-04 0.710D-02-0.632D-02-0.230D-01
 Coeff:      0.236D-01 0.407D-01-0.260D-01-0.233D+00 0.539D-02 0.121D+01
 Gap=     0.309 Goal=   None    Shift=    0.000
 Gap=     0.309 Goal=   None    Shift=    0.000
 RMSDP=8.56D-07 MaxDP=3.52D-05 DE=-2.68D-07 OVMax= 1.58D-04

 Cycle  13  Pass 1  IDiag  1:
 RMSU=  5.17D-07    CP:  8.88D-01  2.34D+00  1.36D+00  2.68D+00  3.00D+00
                    CP:  3.00D+00  3.00D+00  2.07D+00  1.48D+00  1.52D+00
                    CP:  1.37D+00  1.56D+00
 E= -466.856143527169     Delta-E=       -0.000000105000 Rises=F Damp=F
 DIIS: error= 7.29D-06 at cycle  13 NSaved=  13.
 NSaved=13 IEnMin=13 EnMin= -466.856143527169     IErMin=13 ErrMin= 7.29D-06
 ErrMax= 7.29D-06  0.00D+00 EMaxC= 1.00D-01 BMatC= 1.71D-08 BMatP= 7.13D-08
 IDIUse=1 WtCom= 1.00D+00 WtEn= 0.00D+00
 Coeff-Com: -0.124D-03 0.271D-03 0.112D-03-0.903D-03 0.875D-04 0.206D-02
 Coeff-Com: -0.189D-02-0.860D-03 0.244D-02 0.367D-02-0.906D-01-0.251D+00
 Coeff-Com:  0.134D+01
 Coeff:     -0.124D-03 0.271D-03 0.112D-03-0.903D-03 0.875D-04 0.206D-02
 Coeff:     -0.189D-02-0.860D-03 0.244D-02 0.367D-02-0.906D-01-0.251D+00
 Coeff:      0.134D+01
 Gap=     0.309 Goal=   None    Shift=    0.000
 Gap=     0.309 Goal=   None    Shift=    0.000
 RMSDP=4.37D-07 MaxDP=2.45D-05 DE=-1.05D-07 OVMax= 1.02D-04

 Cycle  14  Pass 1  IDiag  1:
 RMSU=  2.94D-07    CP:  8.88D-01  2.34D+00  1.36D+00  2.68D+00  3.00D+00
                    CP:  3.00D+00  3.00D+00  2.07D+00  1.48D+00  1.53D+00
                    CP:  1.39D+00  1.69D+00  1.54D+00
 E= -466.856143562472     Delta-E=       -0.000000035303 Rises=F Damp=F
 DIIS: error= 4.12D-06 at cycle  14 NSaved=  14.
 NSaved=14 IEnMin=14 EnMin= -466.856143562472     IErMin=14 ErrMin= 4.12D-06
 ErrMax= 4.12D-06  0.00D+00 EMaxC= 1.00D-01 BMatC= 5.59D-09 BMatP= 1.71D-08
 IDIUse=1 WtCom= 1.00D+00 WtEn= 0.00D+00
 Coeff-Com: -0.226D-03 0.488D-03 0.111D-03-0.261D-02 0.175D-02 0.785D-02
 Coeff-Com: -0.760D-02-0.132D-01 0.906D-02 0.796D-01-0.171D-01-0.454D+00
 Coeff-Com:  0.123D+00 0.127D+01
 Coeff:     -0.226D-03 0.488D-03 0.111D-03-0.261D-02 0.175D-02 0.785D-02
 Coeff:     -0.760D-02-0.132D-01 0.906D-02 0.796D-01-0.171D-01-0.454D+00
 Coeff:      0.123D+00 0.127D+01
 Gap=     0.309 Goal=   None    Shift=    0.000
 Gap=     0.309 Goal=   None    Shift=    0.000
 RMSDP=3.34D-07 MaxDP=1.51D-05 DE=-3.53D-08 OVMax= 7.64D-05

 Cycle  15  Pass 1  IDiag  1:
 RMSU=  1.20D-07    CP:  8.88D-01  2.34D+00  1.36D+00  2.68D+00  3.00D+00
                    CP:  3.00D+00  3.00D+00  2.07D+00  1.48D+00  1.54D+00
                    CP:  1.38D+00  1.74D+00  1.93D+00  1.77D+00
 E= -466.856143575134     Delta-E=       -0.000000012662 Rises=F Damp=F
 DIIS: error= 1.46D-06 at cycle  15 NSaved=  15.
 NSaved=15 IEnMin=15 EnMin= -466.856143575134     IErMin=15 ErrMin= 1.46D-06
 ErrMax= 1.46D-06  0.00D+00 EMaxC= 1.00D-01 BMatC= 8.28D-10 BMatP= 5.59D-09
 IDIUse=1 WtCom= 1.00D+00 WtEn= 0.00D+00
 Coeff-Com:  0.301D-04-0.654D-04-0.369D-04 0.120D-03 0.219D-03 0.704D-04
 Coeff-Com: -0.826D-03-0.433D-03 0.260D-02 0.913D-02 0.121D-01-0.205D-01
 Coeff-Com: -0.266D+00 0.194D+00 0.107D+01
 Coeff:      0.301D-04-0.654D-04-0.369D-04 0.120D-03 0.219D-03 0.704D-04
 Coeff:     -0.826D-03-0.433D-03 0.260D-02 0.913D-02 0.121D-01-0.205D-01
 Coeff:     -0.266D+00 0.194D+00 0.107D+01
 Gap=     0.309 Goal=   None    Shift=    0.000
 Gap=     0.309 Goal=   None    Shift=    0.000
 RMSDP=1.39D-07 MaxDP=5.81D-06 DE=-1.27D-08 OVMax= 3.23D-05

 Cycle  16  Pass 1  IDiag  1:
 RMSU=  5.37D-08    CP:  8.88D-01  2.34D+00  1.36D+00  2.68D+00  3.00D+00
                    CP:  3.00D+00  3.00D+00  2.07D+00  1.48D+00  1.54D+00
                    CP:  1.37D+00  1.75D+00  2.04D+00  2.05D+00  1.52D+00
 E= -466.856143576588     Delta-E=       -0.000000001454 Rises=F Damp=F
 DIIS: error= 3.39D-07 at cycle  16 NSaved=  16.
 NSaved=16 IEnMin=16 EnMin= -466.856143576588     IErMin=16 ErrMin= 3.39D-07
 ErrMax= 3.39D-07  0.00D+00 EMaxC= 1.00D-01 BMatC= 8.59D-11 BMatP= 8.28D-10
 IDIUse=1 WtCom= 1.00D+00 WtEn= 0.00D+00
 Coeff-Com:  0.179D-04-0.386D-04-0.140D-04 0.186D-03-0.664D-04-0.459D-03
 Coeff-Com:  0.304D-03 0.874D-03-0.279D-03-0.504D-02 0.486D-02 0.373D-01
 Coeff-Com: -0.701D-01-0.896D-01 0.246D+00 0.876D+00
 Coeff:      0.179D-04-0.386D-04-0.140D-04 0.186D-03-0.664D-04-0.459D-03
 Coeff:      0.304D-03 0.874D-03-0.279D-03-0.504D-02 0.486D-02 0.373D-01
 Coeff:     -0.701D-01-0.896D-01 0.246D+00 0.876D+00
 Gap=     0.309 Goal=   None    Shift=    0.000
 Gap=     0.309 Goal=   None    Shift=    0.000
 RMSDP=3.37D-08 MaxDP=1.38D-06 DE=-1.45D-09 OVMax= 5.89D-06

 Cycle  17  Pass 1  IDiag  1:
 RMSU=  1.47D-08    CP:  8.88D-01  2.34D+00  1.36D+00  2.68D+00  3.00D+00
                    CP:  3.00D+00  3.00D+00  2.07D+00  1.48D+00  1.54D+00
                    CP:  1.37D+00  1.75D+00  2.05D+00  2.09D+00  1.66D+00
                    CP:  1.33D+00
 E= -466.856143576655     Delta-E=       -0.000000000068 Rises=F Damp=F
 DIIS: error= 8.66D-08 at cycle  17 NSaved=  17.
 NSaved=17 IEnMin=17 EnMin= -466.856143576655     IErMin=17 ErrMin= 8.66D-08
 ErrMax= 8.66D-08  0.00D+00 EMaxC= 1.00D-01 BMatC= 9.74D-12 BMatP= 8.59D-11
 IDIUse=1 WtCom= 1.00D+00 WtEn= 0.00D+00
 Coeff-Com: -0.560D-06 0.128D-05 0.247D-06 0.522D-06-0.158D-04 0.421D-05
 Coeff-Com:  0.348D-04 0.100D-03-0.305D-03-0.148D-02-0.164D-03 0.745D-02
 Coeff-Com:  0.175D-01-0.369D-01-0.792D-01 0.169D+00 0.924D+00
 Coeff:     -0.560D-06 0.128D-05 0.247D-06 0.522D-06-0.158D-04 0.421D-05
 Coeff:      0.348D-04 0.100D-03-0.305D-03-0.148D-02-0.164D-03 0.745D-02
 Coeff:      0.175D-01-0.369D-01-0.792D-01 0.169D+00 0.924D+00
 Gap=     0.309 Goal=   None    Shift=    0.000
 Gap=     0.309 Goal=   None    Shift=    0.000
 RMSDP=1.14D-08 MaxDP=3.93D-07 DE=-6.75D-11 OVMax= 1.81D-06

 Cycle  18  Pass 1  IDiag  1:
 RMSU=  5.75D-09    CP:  8.88D-01  2.34D+00  1.36D+00  2.68D+00  3.00D+00
                    CP:  3.00D+00  3.00D+00  2.07D+00  1.48D+00  1.54D+00
                    CP:  1.37D+00  1.75D+00  2.05D+00  2.09D+00  1.71D+00
                    CP:  1.44D+00  1.23D+00
 E= -466.856143576665     Delta-E=       -0.000000000009 Rises=F Damp=F
 DIIS: error= 3.31D-08 at cycle  18 NSaved=  18.
 NSaved=18 IEnMin=18 EnMin= -466.856143576665     IErMin=18 ErrMin= 3.31D-08
 ErrMax= 3.31D-08  0.00D+00 EMaxC= 1.00D-01 BMatC= 1.06D-12 BMatP= 9.74D-12
 IDIUse=1 WtCom= 1.00D+00 WtEn= 0.00D+00
 Coeff-Com: -0.314D-06 0.673D-06 0.671D-06-0.455D-05-0.761D-05 0.162D-04
 Coeff-Com: -0.471D-05-0.172D-04-0.162D-04 0.968D-04-0.465D-03-0.193D-02
 Coeff-Com:  0.919D-02 0.231D-02-0.354D-01-0.642D-01 0.146D+00 0.944D+00
 Coeff:     -0.314D-06 0.673D-06 0.671D-06-0.455D-05-0.761D-05 0.162D-04
 Coeff:     -0.471D-05-0.172D-04-0.162D-04 0.968D-04-0.465D-03-0.193D-02
 Coeff:      0.919D-02 0.231D-02-0.354D-01-0.642D-01 0.146D+00 0.944D+00
 Gap=     0.309 Goal=   None    Shift=    0.000
 Gap=     0.309 Goal=   None    Shift=    0.000
 RMSDP=3.64D-09 MaxDP=1.51D-07 DE=-9.21D-12 OVMax= 4.93D-07

 Error on total polarization charges =  0.01182
 SCF Done:  E(UwB97XD) =  -466.856143577     A.U. after   18 cycles
            NFock= 18  Conv=0.36D-08     -V/T= 2.0058
 <Sx>= 0.0000 <Sy>= 0.0000 <Sz>= 0.0000 <S**2>= 0.0000 S= 0.0000
 <L.S>=  0.00000000000    
 KE= 4.641846128201D+02 PE=-2.436118079196D+03 EE= 8.278988090065D+02
 --------------------------------------------------------------------
 Variational PCM results
 =======================
 <psi(f)|   H    |psi(f)>                     (a.u.) =    -466.854608
 <psi(f)|H+V(f)/2|psi(f)>                     (a.u.) =    -466.856144
 (Polarized solute)-Solvent               (kcal/mol) =      -0.96
 --------------------------------------------------------------------
 Partition over spheres:
 Sphere  on Atom  Surface  Charge   GEl     GCav    GDR
    1      C1       7.06   0.011   -0.05    0.00    0.00
    2      C2       3.91   0.006   -0.04    0.00    0.00
    3      H3       7.52  -0.010   -0.04    0.00    0.00
    4      H4       3.51  -0.004   -0.01    0.00    0.00
    5      C5       5.32   0.009   -0.06    0.00    0.00
    6      C6       4.80   0.007   -0.04    0.00    0.00
    7      H7       4.66  -0.007   -0.03    0.00    0.00
    8      H8       3.74  -0.005   -0.01    0.00    0.00
    9      C9       3.14   0.002    0.00    0.00    0.00
   10      H10      6.92  -0.007   -0.01    0.00    0.00
   11      H11      2.61  -0.002   -0.01    0.00    0.00
   12      C12      6.73   0.010   -0.06    0.00    0.00
   13      H13      7.52  -0.010   -0.03    0.00    0.00
   14      C14      7.32   0.011   -0.05    0.00    0.00
   15      H15      7.52  -0.010   -0.04    0.00    0.00
   16      C16      3.73   0.001    0.00    0.00    0.00
   17      H17      3.31  -0.003   -0.01    0.00    0.00
   18      H18      6.95  -0.008   -0.03    0.00    0.00
   19      C19      5.08   0.009   -0.06    0.00    0.00
   20      H20      5.16  -0.007   -0.03    0.00    0.00
   21      C21      6.26   0.010   -0.06    0.00    0.00
   22      H22      7.51  -0.010   -0.03    0.00    0.00
   23      C23      3.61   0.002    0.00    0.00    0.00
   24      H24      3.97  -0.003   -0.01    0.00    0.00
   25      H25      6.90  -0.007   -0.01    0.00    0.00
   26      C26      3.14   0.001    0.00    0.00    0.00
   27      H27      7.05  -0.008   -0.03    0.00    0.00
   28      H28      3.33  -0.003   -0.01    0.00    0.00
 Added spheres:    73.60   0.012   -0.21    0.00    0.00
 --------------------------------------------------------------------
 After PCM corrections, the energy is  -466.856143577     a.u.
 --------------------------------------------------------------------
 Annihilation of the first spin contaminant:
 S**2 before annihilation     0.0000,   after     0.0000
 Leave Link  502 at Mon Aug  3 14:49:01 2020, MaxMem=  6442450944 cpu:            7477.3 elap:             314.3
 (Enter /scratch/scicomp/CentOS/7.3.1611/Haswell/software/Gaussian/g16/l601.exe)
 Copying SCF densities to generalized density rwf, IOpCl= 1 IROHF=0.

 **********************************************************************

            Population analysis using the SCF Density.

 **********************************************************************

 Alpha  occ. eigenvalues --  -10.28558 -10.28557 -10.28303 -10.28303 -10.28298
 Alpha  occ. eigenvalues --  -10.28298 -10.28212 -10.28211 -10.28019 -10.28019
 Alpha  occ. eigenvalues --  -10.27566 -10.27565  -0.94269  -0.93625  -0.84377
 Alpha  occ. eigenvalues --   -0.84246  -0.83838  -0.83740  -0.71540  -0.71228
 Alpha  occ. eigenvalues --   -0.68082  -0.67969  -0.59827  -0.59683  -0.57447
 Alpha  occ. eigenvalues --   -0.56681  -0.53720  -0.52851  -0.51029  -0.50998
 Alpha  occ. eigenvalues --   -0.49934  -0.49414  -0.47461  -0.46943  -0.45341
 Alpha  occ. eigenvalues --   -0.45080  -0.41378  -0.41054  -0.39817  -0.39338
 Alpha  occ. eigenvalues --   -0.39269  -0.38993  -0.29894  -0.27519
 Alpha virt. eigenvalues --    0.03349   0.05064   0.10516   0.12285   0.13362
 Alpha virt. eigenvalues --    0.14484   0.14856   0.15675   0.15684   0.15848
 Alpha virt. eigenvalues --    0.16752   0.16917   0.17200   0.18209   0.19960
 Alpha virt. eigenvalues --    0.21174   0.21376   0.22866   0.23554   0.23773
 Alpha virt. eigenvalues --    0.24653   0.25451   0.25753   0.26728   0.28012
 Alpha virt. eigenvalues --    0.28186   0.29017   0.29321   0.30072   0.30569
 Alpha virt. eigenvalues --    0.31419   0.31493   0.32306   0.32530   0.33411
 Alpha virt. eigenvalues --    0.33778   0.34275   0.35602   0.36036   0.37280
 Alpha virt. eigenvalues --    0.37837   0.38889   0.40046   0.41212   0.41479
 Alpha virt. eigenvalues --    0.41651   0.43670   0.44011   0.45081   0.45775
 Alpha virt. eigenvalues --    0.46436   0.46762   0.47731   0.47817   0.48405
 Alpha virt. eigenvalues --    0.48635   0.48861   0.49152   0.49569   0.49979
 Alpha virt. eigenvalues --    0.50336   0.50388   0.51813   0.52010   0.52593
 Alpha virt. eigenvalues --    0.53109   0.54084   0.54110   0.54826   0.55047
 Alpha virt. eigenvalues --    0.56850   0.57442   0.57694   0.58805   0.59837
 Alpha virt. eigenvalues --    0.60158   0.60684   0.62104   0.62841   0.64720
 Alpha virt. eigenvalues --    0.65651   0.66836   0.67867   0.68214   0.68507
 Alpha virt. eigenvalues --    0.69882   0.72316   0.72837   0.73656   0.74688
 Alpha virt. eigenvalues --    0.77339   0.78164   0.78343   0.80120   0.80145
 Alpha virt. eigenvalues --    0.81461   0.82366   0.83245   0.87335   0.87598
 Alpha virt. eigenvalues --    0.89243   0.89978   0.90085   0.91657   0.92828
 Alpha virt. eigenvalues --    0.93539   0.94916   0.96299   0.98295   0.98768
 Alpha virt. eigenvalues --    1.00692   1.03527   1.04646   1.04832   1.04893
 Alpha virt. eigenvalues --    1.06504   1.07519   1.07921   1.08970   1.11272
 Alpha virt. eigenvalues --    1.12692   1.13548   1.13987   1.14785   1.15691
 Alpha virt. eigenvalues --    1.16145   1.16975   1.17656   1.18726   1.20081
 Alpha virt. eigenvalues --    1.20472   1.21259   1.23972   1.24411   1.24774
 Alpha virt. eigenvalues --    1.25489   1.26017   1.27398   1.28091   1.28567
 Alpha virt. eigenvalues --    1.29197   1.31052   1.31417   1.32479   1.32571
 Alpha virt. eigenvalues --    1.33996   1.34709   1.37171   1.37407   1.37471
 Alpha virt. eigenvalues --    1.38710   1.38746   1.40612   1.41049   1.41838
 Alpha virt. eigenvalues --    1.42887   1.43346   1.43409   1.43694   1.44894
 Alpha virt. eigenvalues --    1.45840   1.46218   1.46996   1.47763   1.48689
 Alpha virt. eigenvalues --    1.49141   1.50889   1.51982   1.54207   1.55863
 Alpha virt. eigenvalues --    1.57484   1.58090   1.58742   1.59807   1.61224
 Alpha virt. eigenvalues --    1.61897   1.63420   1.63546   1.65898   1.67506
 Alpha virt. eigenvalues --    1.68409   1.70497   1.73006   1.74296   1.78395
 Alpha virt. eigenvalues --    1.78710   1.80669   1.81072   1.83532   1.84647
 Alpha virt. eigenvalues --    1.86918   1.87333   1.90272   1.91229   1.91905
 Alpha virt. eigenvalues --    1.92952   1.97364   1.98064   2.00431   2.00758
 Alpha virt. eigenvalues --    2.03248   2.03602   2.07485   2.08716   2.09006
 Alpha virt. eigenvalues --    2.10292   2.11906   2.12713   2.14094   2.15464
 Alpha virt. eigenvalues --    2.17621   2.20138   2.20564   2.21132   2.22599
 Alpha virt. eigenvalues --    2.23235   2.24813   2.25224   2.27114   2.27348
 Alpha virt. eigenvalues --    2.31883   2.35477   2.37567   2.38991   2.41518
 Alpha virt. eigenvalues --    2.43475   2.45051   2.45447   2.49144   2.49682
 Alpha virt. eigenvalues --    2.50044   2.50651   2.53302   2.54844   2.55271
 Alpha virt. eigenvalues --    2.56192   2.57674   2.58760   2.61239   2.61867
 Alpha virt. eigenvalues --    2.62503   2.64754   2.64872   2.65396   2.66054
 Alpha virt. eigenvalues --    2.66646   2.67632   2.70934   2.72268   2.72780
 Alpha virt. eigenvalues --    2.73109   2.73929   2.74860   2.75840   2.76870
 Alpha virt. eigenvalues --    2.77455   2.78788   2.79837   2.80637   2.81220
 Alpha virt. eigenvalues --    2.81252   2.82836   2.82970   2.84100   2.85249
 Alpha virt. eigenvalues --    2.86159   2.86736   2.87144   2.87573   2.90068
 Alpha virt. eigenvalues --    2.91118   2.91439   2.92553   2.92601   2.94263
 Alpha virt. eigenvalues --    2.95173   2.95622   2.95870   2.96868   3.00875
 Alpha virt. eigenvalues --    3.01184   3.02267   3.03224   3.04835   3.05793
 Alpha virt. eigenvalues --    3.07492   3.09150   3.09861   3.10132   3.10373
 Alpha virt. eigenvalues --    3.11693   3.13033   3.13452   3.14579   3.15264
 Alpha virt. eigenvalues --    3.15472   3.16554   3.17081   3.18599   3.19255
 Alpha virt. eigenvalues --    3.19870   3.20405   3.20562   3.20940   3.21559
 Alpha virt. eigenvalues --    3.21895   3.22787   3.23270   3.23919   3.24428
 Alpha virt. eigenvalues --    3.25701   3.26219   3.26583   3.26837   3.27733
 Alpha virt. eigenvalues --    3.28134   3.30491   3.30721   3.31661   3.31703
 Alpha virt. eigenvalues --    3.32383   3.32693   3.33564   3.34443   3.34712
 Alpha virt. eigenvalues --    3.35917   3.36202   3.36659   3.37709   3.38917
 Alpha virt. eigenvalues --    3.40291   3.42086   3.42881   3.43315   3.44071
 Alpha virt. eigenvalues --    3.45397   3.45461   3.46572   3.47044   3.47148
 Alpha virt. eigenvalues --    3.48126   3.49358   3.49802   3.50826   3.51764
 Alpha virt. eigenvalues --    3.52401   3.53227   3.53809   3.54840   3.54861
 Alpha virt. eigenvalues --    3.57330   3.57882   3.58035   3.60635   3.65390
 Alpha virt. eigenvalues --    3.65402   3.65771   3.65994   3.68001   3.68669
 Alpha virt. eigenvalues --    3.69064   3.69351   3.71863   3.71992   3.73887
 Alpha virt. eigenvalues --    3.76925   3.77102   3.78808   3.80909   3.82799
 Alpha virt. eigenvalues --    3.85115   3.85511   3.85635   3.86535   3.87234
 Alpha virt. eigenvalues --    3.89110   3.91379   3.92305   3.94031   3.95219
 Alpha virt. eigenvalues --    3.97347   3.98795   4.01462   4.01798   4.04249
 Alpha virt. eigenvalues --    4.05991   4.08080   4.09046   4.09055   4.10601
 Alpha virt. eigenvalues --    4.12000   4.12914   4.14733   4.14819   4.18425
 Alpha virt. eigenvalues --    4.18563   4.20639   4.20764   4.23266   4.24764
 Alpha virt. eigenvalues --    4.25696   4.26972   4.30889   4.31021   4.34828
 Alpha virt. eigenvalues --    4.35170   4.38306   4.38625   4.39829   4.41822
 Alpha virt. eigenvalues --    4.44004   4.44662   4.47788   4.49122   4.51887
 Alpha virt. eigenvalues --    4.53685   4.59061   4.61223   4.64182   4.67411
 Alpha virt. eigenvalues --    4.67947   4.68978   4.73323   4.73497   4.76114
 Alpha virt. eigenvalues --    4.77257   4.79719   4.80766   4.83937   4.84564
 Alpha virt. eigenvalues --    4.85379   4.86589   4.91615   4.93856   4.94908
 Alpha virt. eigenvalues --    4.97034   4.97840   4.99896   5.06756   5.07683
 Alpha virt. eigenvalues --    5.13892   5.15101   5.19235   5.20597   5.22591
 Alpha virt. eigenvalues --    5.23318   5.32798   5.32916   5.41254   5.42317
 Alpha virt. eigenvalues --    5.43803   5.44483   5.50180   5.51590   5.69453
 Alpha virt. eigenvalues --    5.71112   5.76450   5.79012   5.94956   6.02269
 Alpha virt. eigenvalues --    7.94019   7.95327   8.00899   8.04565   8.05238
 Alpha virt. eigenvalues --    8.08337   8.09596   8.12291   8.17416   8.18661
 Alpha virt. eigenvalues --    8.35438   8.35653  34.76124  34.77622  34.81015
 Alpha virt. eigenvalues --   34.81679  34.85270  34.89034  34.96229  34.98956
 Alpha virt. eigenvalues --   35.01278  35.01723  35.16472  35.18473
  Beta  occ. eigenvalues --  -10.28558 -10.28557 -10.28303 -10.28303 -10.28298
  Beta  occ. eigenvalues --  -10.28298 -10.28212 -10.28211 -10.28019 -10.28019
  Beta  occ. eigenvalues --  -10.27566 -10.27565  -0.94269  -0.93625  -0.84377
  Beta  occ. eigenvalues --   -0.84246  -0.83838  -0.83740  -0.71540  -0.71228
  Beta  occ. eigenvalues --   -0.68082  -0.67969  -0.59827  -0.59683  -0.57447
  Beta  occ. eigenvalues --   -0.56681  -0.53720  -0.52851  -0.51029  -0.50998
  Beta  occ. eigenvalues --   -0.49934  -0.49414  -0.47461  -0.46943  -0.45341
  Beta  occ. eigenvalues --   -0.45080  -0.41378  -0.41054  -0.39817  -0.39338
  Beta  occ. eigenvalues --   -0.39269  -0.38993  -0.29894  -0.27519
  Beta virt. eigenvalues --    0.03349   0.05064   0.10516   0.12285   0.13362
  Beta virt. eigenvalues --    0.14484   0.14856   0.15675   0.15684   0.15848
  Beta virt. eigenvalues --    0.16752   0.16917   0.17200   0.18209   0.19960
  Beta virt. eigenvalues --    0.21174   0.21376   0.22866   0.23554   0.23773
  Beta virt. eigenvalues --    0.24653   0.25451   0.25753   0.26728   0.28012
  Beta virt. eigenvalues --    0.28186   0.29017   0.29321   0.30072   0.30569
  Beta virt. eigenvalues --    0.31419   0.31493   0.32306   0.32530   0.33411
  Beta virt. eigenvalues --    0.33778   0.34275   0.35602   0.36036   0.37280
  Beta virt. eigenvalues --    0.37837   0.38889   0.40046   0.41212   0.41479
  Beta virt. eigenvalues --    0.41651   0.43670   0.44011   0.45081   0.45775
  Beta virt. eigenvalues --    0.46436   0.46762   0.47731   0.47817   0.48405
  Beta virt. eigenvalues --    0.48635   0.48861   0.49152   0.49569   0.49979
  Beta virt. eigenvalues --    0.50336   0.50388   0.51813   0.52010   0.52593
  Beta virt. eigenvalues --    0.53109   0.54084   0.54110   0.54826   0.55047
  Beta virt. eigenvalues --    0.56850   0.57442   0.57694   0.58805   0.59837
  Beta virt. eigenvalues --    0.60158   0.60684   0.62104   0.62841   0.64720
  Beta virt. eigenvalues --    0.65651   0.66836   0.67867   0.68214   0.68507
  Beta virt. eigenvalues --    0.69882   0.72316   0.72837   0.73656   0.74688
  Beta virt. eigenvalues --    0.77339   0.78164   0.78343   0.80120   0.80145
  Beta virt. eigenvalues --    0.81461   0.82366   0.83245   0.87335   0.87598
  Beta virt. eigenvalues --    0.89243   0.89978   0.90085   0.91657   0.92828
  Beta virt. eigenvalues --    0.93539   0.94916   0.96299   0.98295   0.98768
  Beta virt. eigenvalues --    1.00692   1.03527   1.04646   1.04832   1.04893
  Beta virt. eigenvalues --    1.06504   1.07519   1.07921   1.08970   1.11272
  Beta virt. eigenvalues --    1.12692   1.13548   1.13987   1.14785   1.15691
  Beta virt. eigenvalues --    1.16145   1.16975   1.17656   1.18726   1.20081
  Beta virt. eigenvalues --    1.20472   1.21259   1.23972   1.24411   1.24774
  Beta virt. eigenvalues --    1.25489   1.26017   1.27398   1.28091   1.28567
  Beta virt. eigenvalues --    1.29197   1.31052   1.31417   1.32479   1.32571
  Beta virt. eigenvalues --    1.33996   1.34709   1.37171   1.37407   1.37471
  Beta virt. eigenvalues --    1.38710   1.38746   1.40612   1.41049   1.41838
  Beta virt. eigenvalues --    1.42887   1.43346   1.43409   1.43694   1.44894
  Beta virt. eigenvalues --    1.45840   1.46218   1.46996   1.47763   1.48689
  Beta virt. eigenvalues --    1.49141   1.50889   1.51982   1.54207   1.55863
  Beta virt. eigenvalues --    1.57484   1.58090   1.58742   1.59807   1.61224
  Beta virt. eigenvalues --    1.61897   1.63420   1.63546   1.65898   1.67506
  Beta virt. eigenvalues --    1.68409   1.70497   1.73006   1.74296   1.78395
  Beta virt. eigenvalues --    1.78710   1.80669   1.81072   1.83532   1.84647
  Beta virt. eigenvalues --    1.86918   1.87333   1.90272   1.91229   1.91905
  Beta virt. eigenvalues --    1.92952   1.97364   1.98064   2.00431   2.00758
  Beta virt. eigenvalues --    2.03248   2.03602   2.07485   2.08716   2.09006
  Beta virt. eigenvalues --    2.10292   2.11906   2.12713   2.14094   2.15464
  Beta virt. eigenvalues --    2.17621   2.20138   2.20564   2.21132   2.22599
  Beta virt. eigenvalues --    2.23235   2.24813   2.25224   2.27114   2.27348
  Beta virt. eigenvalues --    2.31883   2.35477   2.37567   2.38991   2.41518
  Beta virt. eigenvalues --    2.43475   2.45051   2.45447   2.49144   2.49682
  Beta virt. eigenvalues --    2.50044   2.50651   2.53302   2.54844   2.55271
  Beta virt. eigenvalues --    2.56192   2.57674   2.58760   2.61239   2.61867
  Beta virt. eigenvalues --    2.62503   2.64754   2.64872   2.65396   2.66054
  Beta virt. eigenvalues --    2.66646   2.67632   2.70934   2.72268   2.72780
  Beta virt. eigenvalues --    2.73109   2.73929   2.74860   2.75840   2.76870
  Beta virt. eigenvalues --    2.77455   2.78788   2.79837   2.80637   2.81220
  Beta virt. eigenvalues --    2.81252   2.82836   2.82970   2.84100   2.85249
  Beta virt. eigenvalues --    2.86159   2.86736   2.87144   2.87573   2.90068
  Beta virt. eigenvalues --    2.91118   2.91439   2.92553   2.92601   2.94263
  Beta virt. eigenvalues --    2.95173   2.95622   2.95870   2.96868   3.00875
  Beta virt. eigenvalues --    3.01184   3.02267   3.03224   3.04835   3.05793
  Beta virt. eigenvalues --    3.07492   3.09150   3.09861   3.10132   3.10373
  Beta virt. eigenvalues --    3.11693   3.13033   3.13452   3.14579   3.15264
  Beta virt. eigenvalues --    3.15472   3.16554   3.17081   3.18599   3.19255
  Beta virt. eigenvalues --    3.19870   3.20405   3.20562   3.20940   3.21559
  Beta virt. eigenvalues --    3.21895   3.22787   3.23270   3.23919   3.24428
  Beta virt. eigenvalues --    3.25701   3.26219   3.26583   3.26837   3.27733
  Beta virt. eigenvalues --    3.28134   3.30491   3.30721   3.31661   3.31703
  Beta virt. eigenvalues --    3.32383   3.32693   3.33564   3.34443   3.34712
  Beta virt. eigenvalues --    3.35917   3.36202   3.36659   3.37709   3.38917
  Beta virt. eigenvalues --    3.40291   3.42086   3.42881   3.43315   3.44071
  Beta virt. eigenvalues --    3.45397   3.45461   3.46572   3.47044   3.47148
  Beta virt. eigenvalues --    3.48126   3.49358   3.49802   3.50826   3.51764
  Beta virt. eigenvalues --    3.52401   3.53227   3.53809   3.54840   3.54861
  Beta virt. eigenvalues --    3.57330   3.57882   3.58035   3.60635   3.65390
  Beta virt. eigenvalues --    3.65402   3.65771   3.65994   3.68001   3.68669
  Beta virt. eigenvalues --    3.69064   3.69351   3.71863   3.71992   3.73887
  Beta virt. eigenvalues --    3.76925   3.77102   3.78808   3.80909   3.82799
  Beta virt. eigenvalues --    3.85115   3.85511   3.85635   3.86535   3.87234
  Beta virt. eigenvalues --    3.89110   3.91379   3.92305   3.94031   3.95219
  Beta virt. eigenvalues --    3.97347   3.98795   4.01462   4.01798   4.04249
  Beta virt. eigenvalues --    4.05991   4.08080   4.09046   4.09055   4.10601
  Beta virt. eigenvalues --    4.12000   4.12914   4.14733   4.14819   4.18425
  Beta virt. eigenvalues --    4.18563   4.20639   4.20764   4.23266   4.24764
  Beta virt. eigenvalues --    4.25696   4.26972   4.30889   4.31021   4.34828
  Beta virt. eigenvalues --    4.35170   4.38306   4.38625   4.39829   4.41822
  Beta virt. eigenvalues --    4.44004   4.44662   4.47788   4.49122   4.51887
  Beta virt. eigenvalues --    4.53685   4.59061   4.61223   4.64182   4.67411
  Beta virt. eigenvalues --    4.67947   4.68978   4.73323   4.73497   4.76114
  Beta virt. eigenvalues --    4.77257   4.79719   4.80766   4.83937   4.84564
  Beta virt. eigenvalues --    4.85379   4.86589   4.91615   4.93856   4.94908
  Beta virt. eigenvalues --    4.97034   4.97840   4.99896   5.06756   5.07683
  Beta virt. eigenvalues --    5.13892   5.15101   5.19235   5.20597   5.22591
  Beta virt. eigenvalues --    5.23318   5.32798   5.32916   5.41254   5.42317
  Beta virt. eigenvalues --    5.43803   5.44483   5.50180   5.51590   5.69453
  Beta virt. eigenvalues --    5.71112   5.76450   5.79012   5.94956   6.02269
  Beta virt. eigenvalues --    7.94019   7.95327   8.00899   8.04565   8.05238
  Beta virt. eigenvalues --    8.08337   8.09596   8.12291   8.17416   8.18661
  Beta virt. eigenvalues --    8.35438   8.35653  34.76124  34.77622  34.81015
  Beta virt. eigenvalues --   34.81679  34.85270  34.89034  34.96229  34.98956
  Beta virt. eigenvalues --   35.01278  35.01723  35.16472  35.18473
          Condensed to atoms (all electrons):
               1          2          3          4          5          6
     1  C    5.122677   0.004463   0.425070  -0.001782   0.000953  -0.004988
     2  C    0.004463   5.317665  -0.002394   0.425803  -0.033832  -0.048410
     3  H    0.425070  -0.002394   0.498270   0.000035  -0.000047   0.000007
     4  H   -0.001782   0.425803   0.000035   0.473659  -0.004382   0.003839
     5  C    0.000953  -0.033832  -0.000047  -0.004382   5.152421   0.522286
     6  C   -0.004988  -0.048410   0.000007   0.003839   0.522286   5.317783
     7  H    0.000320  -0.001725   0.000001  -0.000100   0.425511  -0.028131
     8  H   -0.001539   0.003840  -0.000026   0.000032  -0.041856   0.425783
     9  C    0.001960  -0.003903  -0.000005  -0.001327  -0.063145   0.235855
    10  H   -0.000041   0.000332  -0.000001  -0.000126  -0.005044  -0.034270
    11  H    0.000129  -0.004589   0.000001   0.000146   0.008077  -0.057410
    12  C   -0.000158   0.009827   0.000002   0.002143   0.298395  -0.076497
    13  H   -0.000001   0.000014   0.000000   0.000023  -0.040203   0.005676
    14  C    0.000147  -0.004983  -0.000000  -0.001536  -0.056509   0.004443
    15  H   -0.000000   0.000007  -0.000000  -0.000026   0.007832  -0.002390
    16  C   -0.000606   0.011503   0.000000   0.000272  -0.002562  -0.066432
    17  H   -0.000043  -0.000478  -0.000001  -0.001533   0.010098  -0.000681
    18  H    0.000003   0.000509   0.000000   0.000207  -0.002593   0.011157
    19  C   -0.056454   0.522312   0.007836  -0.041900  -0.010229  -0.033859
    20  H    0.004117  -0.028010  -0.000106  -0.005174   0.000355  -0.001728
    21  C    0.597595  -0.076499  -0.034116   0.005426   0.001235   0.009842
    22  H   -0.028985   0.005685  -0.006655  -0.000071   0.000024   0.000015
    23  C   -0.087802   0.235877   0.005834  -0.015089   0.006846  -0.003906
    24  H    0.012971  -0.057415  -0.000125  -0.004013   0.001035  -0.004592
    25  H    0.004806  -0.034256  -0.000044  -0.000268   0.000581   0.000332
    26  C    0.286544  -0.066413  -0.032413   0.004091  -0.005169   0.011502
    27  H   -0.035784   0.011154  -0.004462  -0.000124   0.000286   0.000509
    28  H   -0.033836  -0.000679   0.001443  -0.000157  -0.003729  -0.000486
               7          8          9         10         11         12
     1  C    0.000320  -0.001539   0.001960  -0.000041   0.000129  -0.000158
     2  C   -0.001725   0.003840  -0.003903   0.000332  -0.004589   0.009827
     3  H    0.000001  -0.000026  -0.000005  -0.000001   0.000001   0.000002
     4  H   -0.000100   0.000032  -0.001327  -0.000126   0.000146   0.002143
     5  C    0.425511  -0.041856  -0.063145  -0.005044   0.008077   0.298395
     6  C   -0.028131   0.425783   0.235855  -0.034270  -0.057410  -0.076497
     7  H    0.483162  -0.005170   0.003538  -0.000303  -0.000053  -0.032350
     8  H   -0.005170   0.473468  -0.015072  -0.000269  -0.004011   0.005418
     9  C    0.003538  -0.015072   4.960197   0.380414   0.457006   0.035914
    10  H   -0.000303  -0.000269   0.380414   0.580486  -0.022353   0.001847
    11  H   -0.000053  -0.004011   0.457006  -0.022353   0.540244  -0.004003
    12  C   -0.032350   0.005418   0.035914   0.001847  -0.004003   4.994874
    13  H   -0.003604  -0.000071  -0.000582  -0.000049   0.000036   0.428091
    14  C    0.004117  -0.001778  -0.087782   0.004811   0.012970   0.597701
    15  H   -0.000107   0.000035   0.005833  -0.000044  -0.000125  -0.034073
    16  C   -0.000950   0.004085   0.362121  -0.022942  -0.053980  -0.059522
    17  H    0.000014  -0.000157  -0.033649   0.007398  -0.009082  -0.015585
    18  H    0.000038  -0.000124  -0.041807  -0.009578  -0.000675   0.005534
    19  C    0.000355  -0.004383   0.006836   0.000581   0.001037   0.001239
    20  H    0.000009  -0.000100   0.002492   0.000225  -0.001121  -0.000177
    21  C   -0.000177   0.002146  -0.001604  -0.000012  -0.000057  -0.000239
    22  H   -0.000001   0.000023  -0.000066  -0.000001   0.000010   0.000000
    23  C    0.002486  -0.001324   0.001199  -0.000038   0.000226  -0.001604
    24  H   -0.001118   0.000146   0.000227  -0.000007  -0.000020  -0.000057
    25  H    0.000225  -0.000126  -0.000038   0.000004  -0.000007  -0.000012
    26  C   -0.001846   0.000270  -0.001007   0.000083  -0.000129   0.000830
    27  H   -0.000027   0.000207  -0.000027   0.000001  -0.000001  -0.000046
    28  H    0.001767  -0.001538   0.000464  -0.000010   0.000011   0.000473
              13         14         15         16         17         18
     1  C   -0.000001   0.000147  -0.000000  -0.000606  -0.000043   0.000003
     2  C    0.000014  -0.004983   0.000007   0.011503  -0.000478   0.000509
     3  H    0.000000  -0.000000  -0.000000   0.000000  -0.000001   0.000000
     4  H    0.000023  -0.001536  -0.000026   0.000272  -0.001533   0.000207
     5  C   -0.040203  -0.056509   0.007832  -0.002562   0.010098  -0.002593
     6  C    0.005676   0.004443  -0.002390  -0.066432  -0.000681   0.011157
     7  H   -0.003604   0.004117  -0.000107  -0.000950   0.000014   0.000038
     8  H   -0.000071  -0.001778   0.000035   0.004085  -0.000157  -0.000124
     9  C   -0.000582  -0.087782   0.005833   0.362121  -0.033649  -0.041807
    10  H   -0.000049   0.004811  -0.000044  -0.022942   0.007398  -0.009578
    11  H    0.000036   0.012970  -0.000125  -0.053980  -0.009082  -0.000675
    12  C    0.428091   0.597701  -0.034073  -0.059522  -0.015585   0.005534
    13  H    0.496066  -0.028999  -0.006653   0.005381  -0.000422  -0.000137
    14  C   -0.028999   5.122486   0.425028   0.286563  -0.033839  -0.035802
    15  H   -0.006653   0.425028   0.498283  -0.032416   0.001444  -0.004463
    16  C    0.005381   0.286563  -0.032416   4.923675   0.397208   0.428694
    17  H   -0.000422  -0.033839   0.001444   0.397208   0.591876  -0.022992
    18  H   -0.000137  -0.035802  -0.004463   0.428694  -0.022992   0.546171
    19  C    0.000024   0.000951  -0.000047  -0.005164  -0.003739   0.000286
    20  H   -0.000001   0.000320   0.000001  -0.001850   0.001766  -0.000026
    21  C    0.000000  -0.000158   0.000002   0.000829   0.000472  -0.000046
    22  H    0.000000  -0.000001   0.000000   0.000015  -0.000002  -0.000001
    23  C   -0.000066   0.001959  -0.000005  -0.001007   0.000466  -0.000027
    24  H    0.000010   0.000129   0.000001  -0.000129   0.000011  -0.000001
    25  H   -0.000001  -0.000041  -0.000001   0.000083  -0.000010   0.000001
    26  C    0.000015  -0.000606   0.000000   0.000867   0.000079  -0.000004
    27  H   -0.000001   0.000003   0.000000  -0.000004   0.000002  -0.000000
    28  H   -0.000002  -0.000043  -0.000001   0.000080  -0.000022   0.000002
              19         20         21         22         23         24
     1  C   -0.056454   0.004117   0.597595  -0.028985  -0.087802   0.012971
     2  C    0.522312  -0.028010  -0.076499   0.005685   0.235877  -0.057415
     3  H    0.007836  -0.000106  -0.034116  -0.006655   0.005834  -0.000125
     4  H   -0.041900  -0.005174   0.005426  -0.000071  -0.015089  -0.004013
     5  C   -0.010229   0.000355   0.001235   0.000024   0.006846   0.001035
     6  C   -0.033859  -0.001728   0.009842   0.000015  -0.003906  -0.004592
     7  H    0.000355   0.000009  -0.000177  -0.000001   0.002486  -0.001118
     8  H   -0.004383  -0.000100   0.002146   0.000023  -0.001324   0.000146
     9  C    0.006836   0.002492  -0.001604  -0.000066   0.001199   0.000227
    10  H    0.000581   0.000225  -0.000012  -0.000001  -0.000038  -0.000007
    11  H    0.001037  -0.001121  -0.000057   0.000010   0.000226  -0.000020
    12  C    0.001239  -0.000177  -0.000239   0.000000  -0.001604  -0.000057
    13  H    0.000024  -0.000001   0.000000   0.000000  -0.000066   0.000010
    14  C    0.000951   0.000320  -0.000158  -0.000001   0.001959   0.000129
    15  H   -0.000047   0.000001   0.000002   0.000000  -0.000005   0.000001
    16  C   -0.005164  -0.001850   0.000829   0.000015  -0.001007  -0.000129
    17  H   -0.003739   0.001766   0.000472  -0.000002   0.000466   0.000011
    18  H    0.000286  -0.000026  -0.000046  -0.000001  -0.000027  -0.000001
    19  C    5.152539   0.425446   0.298229  -0.040240  -0.063177   0.008087
    20  H    0.425446   0.483085  -0.032396  -0.003602   0.003539  -0.000053
    21  C    0.298229  -0.032396   4.995002   0.428099   0.035929  -0.004004
    22  H   -0.040240  -0.003602   0.428099   0.496090  -0.000582   0.000036
    23  C   -0.063177   0.003539   0.035929  -0.000582   4.960271   0.457030
    24  H    0.008087  -0.000053  -0.004004   0.000036   0.457030   0.540140
    25  H   -0.005053  -0.000304   0.001854  -0.000049   0.380378  -0.022344
    26  C   -0.002602  -0.000951  -0.059503   0.005383   0.362139  -0.053988
    27  H   -0.002588   0.000038   0.005522  -0.000137  -0.041806  -0.000675
    28  H    0.010094   0.000014  -0.015570  -0.000421  -0.033656  -0.009081
              25         26         27         28
     1  C    0.004806   0.286544  -0.035784  -0.033836
     2  C   -0.034256  -0.066413   0.011154  -0.000679
     3  H   -0.000044  -0.032413  -0.004462   0.001443
     4  H   -0.000268   0.004091  -0.000124  -0.000157
     5  C    0.000581  -0.005169   0.000286  -0.003729
     6  C    0.000332   0.011502   0.000509  -0.000486
     7  H    0.000225  -0.001846  -0.000027   0.001767
     8  H   -0.000126   0.000270   0.000207  -0.001538
     9  C   -0.000038  -0.001007  -0.000027   0.000464
    10  H    0.000004   0.000083   0.000001  -0.000010
    11  H   -0.000007  -0.000129  -0.000001   0.000011
    12  C   -0.000012   0.000830  -0.000046   0.000473
    13  H   -0.000001   0.000015  -0.000001  -0.000002
    14  C   -0.000041  -0.000606   0.000003  -0.000043
    15  H   -0.000001   0.000000   0.000000  -0.000001
    16  C    0.000083   0.000867  -0.000004   0.000080
    17  H   -0.000010   0.000079   0.000002  -0.000022
    18  H    0.000001  -0.000004  -0.000000   0.000002
    19  C   -0.005053  -0.002602  -0.002588   0.010094
    20  H   -0.000304  -0.000951   0.000038   0.000014
    21  C    0.001854  -0.059503   0.005522  -0.015570
    22  H   -0.000049   0.005383  -0.000137  -0.000421
    23  C    0.380378   0.362139  -0.041806  -0.033656
    24  H   -0.022344  -0.053988  -0.000675  -0.009081
    25  H    0.580535  -0.022935  -0.009581   0.007398
    26  C   -0.022935   4.923638   0.428685   0.397220
    27  H   -0.009581   0.428685   0.546162  -0.022990
    28  H    0.007398   0.397220  -0.022990   0.591838
          Atomic-Atomic Spin Densities.
               1          2          3          4          5          6
     1  C    0.000001   0.000000  -0.000000  -0.000000  -0.000000  -0.000000
     2  C    0.000000  -0.000000  -0.000000  -0.000000   0.000000   0.000000
     3  H   -0.000000  -0.000000  -0.000000   0.000000   0.000000  -0.000000
     4  H   -0.000000  -0.000000   0.000000   0.000000   0.000000  -0.000000
     5  C   -0.000000   0.000000   0.000000   0.000000   0.000000   0.000000
     6  C   -0.000000   0.000000  -0.000000  -0.000000   0.000000   0.000000
     7  H    0.000000  -0.000000  -0.000000   0.000000   0.000000   0.000000
     8  H   -0.000000   0.000000   0.000000   0.000000  -0.000000   0.000000
     9  C    0.000000  -0.000000   0.000000   0.000000  -0.000000  -0.000000
    10  H   -0.000000   0.000000   0.000000  -0.000000   0.000000  -0.000000
    11  H   -0.000000   0.000000  -0.000000  -0.000000  -0.000000   0.000000
    12  C    0.000000  -0.000000  -0.000000   0.000000   0.000000  -0.000000
    13  H    0.000000  -0.000000  -0.000000  -0.000000  -0.000000   0.000000
    14  C    0.000000   0.000000   0.000000   0.000000   0.000000  -0.000000
    15  H   -0.000000   0.000000   0.000000  -0.000000   0.000000   0.000000
    16  C    0.000000  -0.000000  -0.000000  -0.000000   0.000000   0.000000
    17  H   -0.000000   0.000000   0.000000  -0.000000  -0.000000   0.000000
    18  H    0.000000  -0.000000  -0.000000  -0.000000   0.000000   0.000000
    19  C   -0.000000  -0.000000  -0.000000  -0.000000  -0.000000  -0.000000
    20  H    0.000000  -0.000000  -0.000000  -0.000000   0.000000   0.000000
    21  C   -0.000000   0.000000  -0.000000   0.000000  -0.000000   0.000000
    22  H    0.000000  -0.000000   0.000000   0.000000  -0.000000   0.000000
    23  C    0.000000   0.000000  -0.000000   0.000000   0.000000   0.000000
    24  H    0.000000  -0.000000   0.000000   0.000000  -0.000000  -0.000000
    25  H    0.000000   0.000000  -0.000000  -0.000000   0.000000  -0.000000
    26  C   -0.000000  -0.000000   0.000000   0.000000  -0.000000   0.000000
    27  H   -0.000000  -0.000000   0.000000  -0.000000  -0.000000   0.000000
    28  H   -0.000000  -0.000000   0.000000  -0.000000   0.000000  -0.000000
               7          8          9         10         11         12
     1  C    0.000000  -0.000000   0.000000  -0.000000  -0.000000   0.000000
     2  C   -0.000000   0.000000  -0.000000   0.000000   0.000000  -0.000000
     3  H   -0.000000   0.000000   0.000000   0.000000  -0.000000  -0.000000
     4  H    0.000000   0.000000   0.000000  -0.000000  -0.000000   0.000000
     5  C    0.000000  -0.000000  -0.000000   0.000000  -0.000000   0.000000
     6  C    0.000000   0.000000  -0.000000  -0.000000   0.000000  -0.000000
     7  H   -0.000000   0.000000  -0.000000   0.000000   0.000000   0.000000
     8  H    0.000000  -0.000000  -0.000000   0.000000  -0.000000  -0.000000
     9  C   -0.000000  -0.000000   0.000001   0.000000  -0.000000   0.000000
    10  H    0.000000   0.000000   0.000000  -0.000000   0.000000  -0.000000
    11  H    0.000000  -0.000000  -0.000000   0.000000  -0.000000   0.000000
    12  C    0.000000  -0.000000   0.000000  -0.000000   0.000000  -0.000000
    13  H   -0.000000  -0.000000  -0.000000   0.000000   0.000000   0.000000
    14  C   -0.000000   0.000000  -0.000000  -0.000000  -0.000000   0.000000
    15  H    0.000000  -0.000000   0.000000   0.000000  -0.000000   0.000000
    16  C    0.000000  -0.000000  -0.000000   0.000000   0.000000  -0.000000
    17  H    0.000000   0.000000  -0.000000  -0.000000   0.000000  -0.000000
    18  H   -0.000000   0.000000  -0.000000   0.000000   0.000000   0.000000
    19  C   -0.000000  -0.000000  -0.000000  -0.000000   0.000000   0.000000
    20  H   -0.000000  -0.000000  -0.000000   0.000000  -0.000000  -0.000000
    21  C    0.000000   0.000000   0.000000   0.000000  -0.000000   0.000000
    22  H    0.000000   0.000000   0.000000  -0.000000  -0.000000  -0.000000
    23  C    0.000000  -0.000000   0.000000   0.000000  -0.000000  -0.000000
    24  H    0.000000   0.000000   0.000000  -0.000000  -0.000000   0.000000
    25  H   -0.000000   0.000000  -0.000000   0.000000   0.000000  -0.000000
    26  C    0.000000   0.000000  -0.000000  -0.000000  -0.000000   0.000000
    27  H    0.000000   0.000000   0.000000  -0.000000  -0.000000   0.000000
    28  H   -0.000000   0.000000  -0.000000   0.000000   0.000000   0.000000
              13         14         15         16         17         18
     1  C    0.000000   0.000000  -0.000000   0.000000  -0.000000   0.000000
     2  C   -0.000000   0.000000   0.000000  -0.000000   0.000000  -0.000000
     3  H   -0.000000   0.000000   0.000000  -0.000000   0.000000  -0.000000
     4  H   -0.000000   0.000000  -0.000000  -0.000000  -0.000000  -0.000000
     5  C   -0.000000   0.000000   0.000000   0.000000  -0.000000   0.000000
     6  C    0.000000  -0.000000   0.000000   0.000000   0.000000   0.000000
     7  H   -0.000000  -0.000000   0.000000   0.000000   0.000000  -0.000000
     8  H   -0.000000   0.000000  -0.000000  -0.000000   0.000000   0.000000
     9  C   -0.000000  -0.000000   0.000000  -0.000000  -0.000000  -0.000000
    10  H    0.000000  -0.000000   0.000000   0.000000  -0.000000   0.000000
    11  H    0.000000  -0.000000  -0.000000   0.000000   0.000000   0.000000
    12  C    0.000000   0.000000   0.000000  -0.000000  -0.000000   0.000000
    13  H    0.000000  -0.000000  -0.000000   0.000000   0.000000  -0.000000
    14  C   -0.000000  -0.000000   0.000000   0.000000  -0.000000   0.000000
    15  H   -0.000000   0.000000   0.000000  -0.000000  -0.000000  -0.000000
    16  C    0.000000   0.000000  -0.000000  -0.000000   0.000000   0.000000
    17  H    0.000000  -0.000000  -0.000000   0.000000   0.000000  -0.000000
    18  H   -0.000000   0.000000  -0.000000   0.000000  -0.000000   0.000000
    19  C    0.000000   0.000000  -0.000000   0.000000  -0.000000   0.000000
    20  H   -0.000000  -0.000000   0.000000  -0.000000   0.000000  -0.000000
    21  C    0.000000  -0.000000   0.000000  -0.000000  -0.000000  -0.000000
    22  H    0.000000   0.000000   0.000000  -0.000000   0.000000  -0.000000
    23  C   -0.000000  -0.000000  -0.000000   0.000000   0.000000  -0.000000
    24  H    0.000000   0.000000   0.000000   0.000000  -0.000000   0.000000
    25  H    0.000000   0.000000  -0.000000   0.000000  -0.000000   0.000000
    26  C    0.000000  -0.000000   0.000000   0.000000  -0.000000  -0.000000
    27  H    0.000000  -0.000000   0.000000   0.000000  -0.000000  -0.000000
    28  H   -0.000000   0.000000  -0.000000   0.000000   0.000000   0.000000
              19         20         21         22         23         24
     1  C   -0.000000   0.000000  -0.000000   0.000000   0.000000   0.000000
     2  C   -0.000000  -0.000000   0.000000  -0.000000   0.000000  -0.000000
     3  H   -0.000000  -0.000000  -0.000000   0.000000  -0.000000   0.000000
     4  H   -0.000000  -0.000000   0.000000   0.000000   0.000000   0.000000
[...]
     3  H   -0.000000   0.000000   0.000000   0.000000
     4  H   -0.000000   0.000000  -0.000000  -0.000000
     5  C    0.000000  -0.000000  -0.000000   0.000000
     6  C   -0.000000   0.000000   0.000000  -0.000000
     7  H   -0.000000   0.000000   0.000000  -0.000000
     8  H    0.000000   0.000000   0.000000   0.000000
     9  C   -0.000000  -0.000000   0.000000  -0.000000
    10  H    0.000000  -0.000000  -0.000000   0.000000
    11  H    0.000000  -0.000000  -0.000000   0.000000
    12  C   -0.000000   0.000000   0.000000   0.000000
    13  H    0.000000   0.000000   0.000000  -0.000000
    14  C    0.000000  -0.000000  -0.000000   0.000000
    15  H   -0.000000   0.000000   0.000000  -0.000000
    16  C    0.000000   0.000000   0.000000   0.000000
    17  H   -0.000000  -0.000000  -0.000000   0.000000
    18  H    0.000000  -0.000000  -0.000000   0.000000
    19  C   -0.000000  -0.000000  -0.000000   0.000000
    20  H   -0.000000  -0.000000   0.000000  -0.000000
    21  C    0.000000   0.000000  -0.000000   0.000000
    22  H   -0.000000  -0.000000   0.000000  -0.000000
    23  C   -0.000000   0.000000   0.000000   0.000000
    24  H   -0.000000  -0.000000  -0.000000  -0.000000
    25  H    0.000000  -0.000000  -0.000000   0.000000
    26  C   -0.000000   0.000000  -0.000000  -0.000000
    27  H   -0.000000  -0.000000  -0.000000   0.000000
    28  H    0.000000  -0.000000   0.000000   0.000000
 Mulliken charges and spin densities:
               1          2
     1  C   -0.209739   0.000000
     2  C   -0.185405  -0.000000
     3  H    0.141896  -0.000000
     4  H    0.161931   0.000000
     5  C   -0.166635   0.000000
     6  C   -0.185249   0.000000
     7  H    0.154118  -0.000000
     8  H    0.162092   0.000000
     9  C   -0.204040   0.000001
    10  H    0.118909  -0.000000
    11  H    0.137723  -0.000000
    12  C   -0.157963  -0.000000
    13  H    0.145455   0.000000
    14  C   -0.209551  -0.000000
    15  H    0.141886   0.000000
    16  C   -0.173812  -0.000000
    17  H    0.111400   0.000000
    18  H    0.125675   0.000000
    19  C   -0.166418   0.000000
    20  H    0.154194   0.000000
    21  C   -0.157800  -0.000000
    22  H    0.145433  -0.000000
    23  C   -0.204089  -0.000001
    24  H    0.137798   0.000000
    25  H    0.118874   0.000000
    26  C   -0.173782   0.000000
    27  H    0.125685  -0.000000
    28  H    0.111417  -0.000000
 Sum of Mulliken charges =  -0.00000   0.00000
 Mulliken charges and spin densities with hydrogens summed into heavy atoms:
               1          2
     1  C   -0.067843   0.000000
     2  C   -0.023474  -0.000000
     5  C   -0.012517  -0.000000
     6  C   -0.023158   0.000000
     9  C    0.052592   0.000000
    12  C   -0.012508   0.000000
    14  C   -0.067665  -0.000000
    16  C    0.063262  -0.000000
    19  C   -0.012224   0.000000
    21  C   -0.012368  -0.000000
    23  C    0.052583  -0.000000
    26  C    0.063320   0.000000
 Electronic spatial extent (au):  <R**2>=           2289.6046
 Charge=             -0.0000 electrons
 Dipole moment (field-independent basis, Debye):
    X=             -0.0004    Y=              0.0005    Z=              0.0002  Tot=              0.0007
 Quadrupole moment (field-independent basis, Debye-Ang):
   XX=            -72.3663   YY=            -69.8139   ZZ=            -76.9688
   XY=             -3.3099   XZ=             -3.7161   YZ=             -1.7259
 Traceless Quadrupole moment (field-independent basis, Debye-Ang):
   XX=              0.6834   YY=              3.2357   ZZ=             -3.9191
   XY=             -3.3099   XZ=             -3.7161   YZ=             -1.7259
 Octapole moment (field-independent basis, Debye-Ang**2):
  XXX=             -0.0104  YYY=              0.0040  ZZZ=              0.0017  XYY=              0.0020
  XXY=              0.0038  XXZ=              0.0017  XZZ=             -0.0003  YZZ=             -0.0005
  YYZ=             -0.0009  XYZ=             -0.0007
 Hexadecapole moment (field-independent basis, Debye-Ang**3):
 XXXX=          -2090.6278 YYYY=           -630.1664 ZZZZ=           -406.0567 XXXY=           -113.2863
 XXXZ=           -149.2882 YYYX=            -65.2858 YYYZ=             -5.8360 ZZZX=            -95.3923
 ZZZY=            -17.6571 XXYY=           -450.5940 XXZZ=           -438.0003 YYZZ=           -187.8829
 XXYZ=            -24.2482 YYXZ=            -34.7371 ZZXY=            -46.0730
 N-N= 6.771785137922D+02 E-N=-2.436118080757D+03  KE= 4.641846128201D+02
                          Isotropic Fermi Contact Couplings
        Atom                 a.u.       MegaHertz       Gauss      10(-4) cm-1
     1  C(13)              0.00000       0.00003       0.00001       0.00001
     2  C(13)              0.00000       0.00001       0.00000       0.00000
     3  H(1)              -0.00000      -0.00002      -0.00001      -0.00001
     4  H(1)              -0.00000      -0.00000      -0.00000      -0.00000
     5  C(13)              0.00000       0.00005       0.00002       0.00002
     6  C(13)             -0.00000      -0.00002      -0.00001      -0.00001
     7  H(1)              -0.00000      -0.00009      -0.00003      -0.00003
     8  H(1)               0.00000       0.00002       0.00001       0.00001
     9  C(13)              0.00000       0.00016       0.00006       0.00005
    10  H(1)              -0.00000      -0.00009      -0.00003      -0.00003
    11  H(1)              -0.00000      -0.00010      -0.00004      -0.00003
    12  C(13)             -0.00000      -0.00004      -0.00002      -0.00001
    13  H(1)               0.00000       0.00007       0.00003       0.00002
    14  C(13)             -0.00000      -0.00001      -0.00000      -0.00000
    15  H(1)               0.00000       0.00001       0.00000       0.00000
    16  C(13)             -0.00000      -0.00008      -0.00003      -0.00003
    17  H(1)               0.00000       0.00002       0.00001       0.00001
    18  H(1)               0.00000       0.00001       0.00000       0.00000
    19  C(13)             -0.00000      -0.00003      -0.00001      -0.00001
    20  H(1)               0.00000       0.00008       0.00003       0.00003
    21  C(13)              0.00000       0.00003       0.00001       0.00001
    22  H(1)              -0.00000      -0.00006      -0.00002      -0.00002
    23  C(13)             -0.00000      -0.00015      -0.00005      -0.00005
    24  H(1)               0.00000       0.00010       0.00003       0.00003
    25  H(1)               0.00000       0.00007       0.00003       0.00002
    26  C(13)              0.00000       0.00007       0.00003       0.00002
    27  H(1)              -0.00000      -0.00000      -0.00000      -0.00000
    28  H(1)              -0.00000      -0.00000      -0.00000      -0.00000
 --------------------------------------------------------
       Center         ----  Spin Dipole Couplings  ----
                      3XX-RR        3YY-RR        3ZZ-RR
 --------------------------------------------------------
     1   Atom        0.000000     -0.000000      0.000000
     2   Atom       -0.000000      0.000000     -0.000000
     3   Atom        0.000000     -0.000000      0.000000
     4   Atom       -0.000000      0.000000     -0.000000
     5   Atom        0.000000      0.000000     -0.000000
     6   Atom        0.000000     -0.000000      0.000000
     7   Atom       -0.000000      0.000000     -0.000000
     8   Atom       -0.000000     -0.000000      0.000000
     9   Atom        0.000000     -0.000000      0.000000
    10   Atom       -0.000000     -0.000000      0.000000
    11   Atom       -0.000000      0.000000     -0.000000
    12   Atom       -0.000000     -0.000000      0.000000
    13   Atom        0.000000     -0.000000      0.000000
    14   Atom       -0.000000      0.000000      0.000000
    15   Atom        0.000000      0.000000     -0.000000
    16   Atom       -0.000000      0.000000     -0.000000
    17   Atom        0.000000      0.000000     -0.000000
    18   Atom       -0.000000     -0.000000      0.000000
    19   Atom       -0.000000     -0.000000      0.000000
    20   Atom        0.000000     -0.000000      0.000000
    21   Atom        0.000000      0.000000     -0.000000
    22   Atom        0.000000      0.000000     -0.000000
    23   Atom       -0.000000      0.000000     -0.000000
    24   Atom        0.000000     -0.000000      0.000000
    25   Atom        0.000000      0.000000     -0.000000
    26   Atom        0.000000     -0.000000      0.000000
    27   Atom        0.000000      0.000000     -0.000000
    28   Atom       -0.000000     -0.000000      0.000000
 --------------------------------------------------------
                        XY            XZ            YZ
 --------------------------------------------------------
     1   Atom       -0.000000      0.000000     -0.000000
     2   Atom       -0.000000     -0.000000     -0.000000
     3   Atom        0.000000     -0.000000     -0.000000
     4   Atom        0.000000      0.000000     -0.000000
     5   Atom       -0.000000      0.000000      0.000000
     6   Atom        0.000000      0.000000      0.000000
     7   Atom       -0.000000     -0.000000      0.000000
     8   Atom       -0.000000     -0.000000      0.000000
     9   Atom        0.000000     -0.000000      0.000000
    10   Atom       -0.000000      0.000000     -0.000000
    11   Atom        0.000000      0.000000      0.000000
    12   Atom        0.000000     -0.000000      0.000000
    13   Atom       -0.000000      0.000000      0.000000
    14   Atom        0.000000     -0.000000      0.000000
    15   Atom       -0.000000      0.000000      0.000000
    16   Atom        0.000000      0.000000      0.000000
    17   Atom       -0.000000     -0.000000     -0.000000
    18   Atom        0.000000     -0.000000      0.000000
    19   Atom        0.000000      0.000000      0.000000
    20   Atom        0.000000      0.000000     -0.000000
    21   Atom       -0.000000     -0.000000     -0.000000
    22   Atom       -0.000000     -0.000000     -0.000000
    23   Atom       -0.000000     -0.000000     -0.000000
    24   Atom       -0.000000     -0.000000     -0.000000
    25   Atom        0.000000     -0.000000      0.000000
    26   Atom       -0.000000     -0.000000     -0.000000
    27   Atom       -0.000000      0.000000     -0.000000
    28   Atom        0.000000      0.000000      0.000000
 --------------------------------------------------------


 ---------------------------------------------------------------------------------
              Anisotropic Spin Dipole Couplings in Principal Axis System
 ---------------------------------------------------------------------------------

       Atom             a.u.   MegaHertz   Gauss  10(-4) cm-1        Axes

              Baa    -0.0000    -0.000    -0.000    -0.000 -0.4966  0.5904  0.6362
     1 C(13)  Bbb    -0.0000    -0.000    -0.000    -0.000  0.5039  0.7930 -0.3425
              Bcc     0.0000     0.000     0.000     0.000  0.7067 -0.1505  0.6913
 
              Baa    -0.0000    -0.000    -0.000    -0.000  0.6494  0.1961  0.7347
     2 C(13)  Bbb     0.0000     0.000     0.000     0.000  0.4414  0.6895 -0.5742
              Bcc     0.0000     0.000     0.000     0.000 -0.6192  0.6972  0.3612
 
              Baa    -0.0000    -0.000    -0.000    -0.000  0.0162  0.9806  0.1953
     3 H(1)   Bbb    -0.0000    -0.000    -0.000    -0.000  0.8641 -0.1120  0.4907
              Bcc     0.0000     0.000     0.000     0.000 -0.5030 -0.1608  0.8492
 
              Baa    -0.0000    -0.000    -0.000    -0.000 -0.5675  0.1162  0.8151
     4 H(1)   Bbb     0.0000     0.000     0.000     0.000  0.8191  0.1808  0.5444
              Bcc     0.0000     0.000     0.000     0.000 -0.0841  0.9766 -0.1978
 
              Baa    -0.0000    -0.000    -0.000    -0.000 -0.0107 -0.0504  0.9987
     5 C(13)  Bbb     0.0000     0.000     0.000     0.000  0.8309  0.5552  0.0370
              Bcc     0.0000     0.000     0.000     0.000 -0.5563  0.8302  0.0359
 
              Baa    -0.0000    -0.000    -0.000    -0.000 -0.5959  0.5304  0.6029
     6 C(13)  Bbb    -0.0000    -0.000    -0.000    -0.000  0.1815  0.8203 -0.5424
              Bcc     0.0000     0.000     0.000     0.000  0.7823  0.2138  0.5851
 
              Baa    -0.0000    -0.000    -0.000    -0.000  0.4171 -0.0111  0.9088
     7 H(1)   Bbb    -0.0000    -0.000    -0.000    -0.000  0.7764  0.5242 -0.3499
              Bcc     0.0000     0.000     0.000     0.000 -0.4725  0.8515  0.2273
 
              Baa    -0.0000    -0.000    -0.000    -0.000  0.7410  0.6305  0.2312
     8 H(1)   Bbb    -0.0000    -0.000    -0.000    -0.000 -0.5004  0.7480 -0.4360
              Bcc     0.0000     0.000     0.000     0.000 -0.4478  0.2074  0.8697
 
              Baa    -0.0000    -0.000    -0.000    -0.000 -0.4223  0.9011 -0.0986
     9 C(13)  Bbb     0.0000     0.000     0.000     0.000 -0.1003  0.0616  0.9930
              Bcc     0.0000     0.000     0.000     0.000  0.9009  0.4292  0.0644
 
              Baa    -0.0000    -0.000    -0.000    -0.000  0.7498  0.6005 -0.2779
    10 H(1)   Bbb    -0.0000    -0.000    -0.000    -0.000 -0.4930  0.7871  0.3706
              Bcc     0.0000     0.000     0.000     0.000  0.4413 -0.1408  0.8862
 
              Baa    -0.0000    -0.000    -0.000    -0.000  0.6709 -0.5632  0.4823
    11 H(1)   Bbb    -0.0000    -0.000    -0.000    -0.000 -0.4685  0.1822  0.8645
              Bcc     0.0000     0.000     0.000     0.000  0.5748  0.8059  0.1416
 
              Baa    -0.0000    -0.000    -0.000    -0.000 -0.6371  0.7529 -0.1653
    12 C(13)  Bbb    -0.0000    -0.000    -0.000    -0.000  0.7685  0.6369 -0.0612
              Bcc     0.0000     0.000     0.000     0.000 -0.0592  0.1660  0.9843
 
              Baa    -0.0000    -0.000    -0.000    -0.000  0.2458  0.9291 -0.2762
    13 H(1)   Bbb     0.0000     0.000     0.000     0.000  0.9674 -0.2530  0.0099
              Bcc     0.0000     0.000     0.000     0.000  0.0606  0.2696  0.9611
 
              Baa    -0.0000    -0.000    -0.000    -0.000  0.8125 -0.2188  0.5404
    14 C(13)  Bbb     0.0000     0.000     0.000     0.000  0.3925  0.8907 -0.2295
              Bcc     0.0000     0.000     0.000     0.000 -0.4311  0.3985  0.8095
 
              Baa    -0.0000    -0.000    -0.000    -0.000 -0.3806 -0.1772  0.9076
    15 H(1)   Bbb     0.0000     0.000     0.000     0.000 -0.6454  0.7538 -0.1235
              Bcc     0.0000     0.000     0.000     0.000  0.6622  0.6328  0.4013
 
              Baa    -0.0000    -0.000    -0.000    -0.000  0.7385  0.0035 -0.6743
    16 C(13)  Bbb     0.0000     0.000     0.000     0.000  0.6561 -0.2344  0.7174
              Bcc     0.0000     0.000     0.000     0.000  0.1555  0.9721  0.1754
 
              Baa    -0.0000    -0.000    -0.000    -0.000  0.4442  0.3761  0.8132
    17 H(1)   Bbb     0.0000     0.000     0.000     0.000  0.8958 -0.1758 -0.4081
              Bcc     0.0000     0.000     0.000     0.000 -0.0106  0.9098 -0.4150
 
              Baa    -0.0000    -0.000    -0.000    -0.000 -0.6291  0.7149 -0.3053
    18 H(1)   Bbb     0.0000     0.000     0.000     0.000 -0.5536 -0.1363  0.8215
              Bcc     0.0000     0.000     0.000     0.000  0.5457  0.6858  0.4815
 
              Baa    -0.0000    -0.000    -0.000    -0.000 -0.4350  0.8996  0.0390
    19 C(13)  Bbb    -0.0000    -0.000    -0.000    -0.000  0.8845  0.4349 -0.1689
              Bcc     0.0000     0.000     0.000     0.000  0.1689  0.0390  0.9849
 
              Baa    -0.0000    -0.000    -0.000    -0.000 -0.3872  0.8977  0.2101
    20 H(1)   Bbb     0.0000     0.000     0.000     0.000  0.7849  0.4405 -0.4358
              Bcc     0.0000     0.000     0.000     0.000  0.4838  0.0039  0.8752
 
              Baa    -0.0000    -0.000    -0.000    -0.000  0.1422  0.1003  0.9847
    21 C(13)  Bbb     0.0000     0.000     0.000     0.000  0.9897 -0.0294 -0.1399
              Bcc     0.0000     0.000     0.000     0.000  0.0150  0.9945 -0.1035
 
              Baa    -0.0000    -0.000    -0.000    -0.000  0.3119  0.2086  0.9270
    22 H(1)   Bbb     0.0000     0.000     0.000     0.000  0.9497 -0.0380 -0.3110
              Bcc     0.0000     0.000     0.000     0.000 -0.0296  0.9773 -0.2099
 
              Baa    -0.0000    -0.000    -0.000    -0.000  0.8904  0.4232  0.1676
    23 C(13)  Bbb    -0.0000    -0.000    -0.000    -0.000 -0.1894  0.0096  0.9819
              Bcc     0.0000     0.000     0.000     0.000 -0.4140  0.9060 -0.0887
 
              Baa    -0.0000    -0.000    -0.000    -0.000  0.5497  0.8233  0.1412
    24 H(1)   Bbb     0.0000     0.000     0.000     0.000 -0.6205  0.2893  0.7289
              Bcc     0.0000     0.000     0.000     0.000  0.5593 -0.4883  0.6699
 
              Baa    -0.0000    -0.000    -0.000    -0.000  0.4590 -0.1551  0.8748
    25 H(1)   Bbb     0.0000     0.000     0.000     0.000 -0.4505  0.8080  0.3797
              Bcc     0.0000     0.000     0.000     0.000  0.7657  0.5683 -0.3011
 
              Baa    -0.0000    -0.000    -0.000    -0.000  0.1410  0.9758  0.1673
    26 C(13)  Bbb    -0.0000    -0.000    -0.000    -0.000  0.6589 -0.2186  0.7197
              Bcc     0.0000     0.000     0.000     0.000  0.7389  0.0088 -0.6738
 
              Baa    -0.0000    -0.000    -0.000    -0.000  0.4288  0.6083  0.6679
    27 H(1)   Bbb    -0.0000    -0.000    -0.000    -0.000  0.6955  0.2496 -0.6738
              Bcc     0.0000     0.000     0.000     0.000 -0.5766  0.7535 -0.3160
 
              Baa    -0.0000    -0.000    -0.000    -0.000 -0.7032  0.7102  0.0336
    28 H(1)   Bbb    -0.0000    -0.000    -0.000    -0.000 -0.5282 -0.5534  0.6440
              Bcc     0.0000     0.000     0.000     0.000  0.4760  0.4351  0.7643
 

 ---------------------------------------------------------------------------------

 No NMR shielding tensors so no spin-rotation constants.
 Leave Link  601 at Mon Aug  3 14:49:01 2020, MaxMem=  6442450944 cpu:               7.9 elap:               0.4
 (Enter /scratch/scicomp/CentOS/7.3.1611/Haswell/software/Gaussian/g16/l9999.exe)
 1\1\GINC-ATLAS-205\SP\UwB97XD\def2TZVP\C12H16\BOCHEN\03-Aug-2020\0\\#p
  uwb97xd guess=mix def2tzvp # scrf=(iefpcm,solvent=Cyclohexane,read) n
 osym 6d 10f\\endo-2 xp-pcm for eta=3\\0,1\C,0,-3.127753,-0.441522,0.26
 1122\C,0,-0.719921,-0.248221,-1.219838\H,0,-4.073595,-0.535125,0.78213
 2\H,0,0.234126,-0.164733,-1.725204\C,0,1.160074,1.424218,0.7826\C,0,0.
 719921,0.248221,1.219838\H,0,0.566933,2.320735,0.917353\H,0,-0.234126,
 0.164733,1.725204\C,0,1.554591,-0.994289,1.10423\H,0,2.077836,-1.12631
 4,2.059864\H,0,0.911886,-1.867512,0.990956\C,0,2.453641,1.529303,0.107
 811\H,0,2.853781,2.515042,-0.09747\C,0,3.127753,0.441522,-0.261122\H,0
 ,4.073595,0.535125,-0.782132\C,0,2.577324,-0.940508,-0.036133\H,0,2.12
 1249,-1.285571,-0.97224\H,0,3.390356,-1.639895,0.168128\C,0,-1.160074,
 -1.424218,-0.7826\H,0,-0.566933,-2.320735,-0.917353\C,0,-2.453641,-1.5
 29303,-0.107811\H,0,-2.853781,-2.515042,0.09747\C,0,-1.554591,0.994289
 ,-1.10423\H,0,-0.911886,1.867512,-0.990956\H,0,-2.077836,1.126314,-2.0
 59864\C,0,-2.577324,0.940508,0.036133\H,0,-3.390356,1.639895,-0.168129
 \H,0,-2.121249,1.285571,0.97224\\Version=ES64L-G16RevB.01\HF=-466.8561
 436\S2=0.\S2-1=0.\S2A=0.\RMSD=3.643e-09\Dipole=-0.0001765,0.0001888,0.
 0000904\Quadrupole=0.5080813,2.4056933,-2.9137745,-2.4607978,-2.762805
 7,-1.2831913\PG=CI [X(C12H16)]\\@


 ALTHOUGH J.J. COULD DIAGNOSE THE FAULTS OF AN
 APPARATUS WITH UNCANNY ACCURACY, IT WAS JUST AS
 WELL NOT TO LET HIM HANDLE IT.
   -- GEORGE THOMPSON, ABOUT HIS FATHER
 Job cpu time:       0 days  2 hours  6 minutes  2.3 seconds.
 Elapsed time:       0 days  0 hours  5 minutes 18.2 seconds.
 File lengths (MBytes):  RWF=    635 Int=      0 D2E=      0 Chk=     23 Scr=      1
 Normal termination of Gaussian 16 at Mon Aug  3 14:49:01 2020.
