 Entering Gaussian System, Link 0=g16
 Input=meso-TS_88_2_xp-Ger.com
 Output=meso-TS_88_2_xp-Ger.log
 Initial command:
 /scratch/scicomp/CentOS/7.3.1611/Haswell/software/Gaussian/g16/l1.exe "/scratch/bochen/cyclohexadiene-dimerization/wb97xd-def2tzvp/xp-pcm/meso/Gau-137450.inp" -scrdir="/scratch/bochen/cyclohexadiene-dimerization/wb97xd-def2tzvp/xp-pcm/meso/"
 Entering Link 1 = /scratch/scicomp/CentOS/7.3.1611/Haswell/software/Gaussian/g16/l1.exe PID=    137451.
  
 Copyright (c) 1988-2017, Gaussian, Inc.  All Rights Reserved.
  
 This is part of the Gaussian(R) 16 program.  It is based on
 the Gaussian(R) 09 system (copyright 2009, Gaussian, Inc.),
 the Gaussian(R) 03 system (copyright 2003, Gaussian, Inc.),
 the Gaussian(R) 98 system (copyright 1998, Gaussian, Inc.),
 the Gaussian(R) 94 system (copyright 1995, Gaussian, Inc.),
 the Gaussian 92(TM) system (copyright 1992, Gaussian, Inc.),
 the Gaussian 90(TM) system (copyright 1990, Gaussian, Inc.),
 the Gaussian 88(TM) system (copyright 1988, Gaussian, Inc.),
 the Gaussian 86(TM) system (copyright 1986, Carnegie Mellon
 University), and the Gaussian 82(TM) system (copyright 1983,
 Carnegie Mellon University). Gaussian is a federally registered
 trademark of Gaussian, Inc.
  
 This software contains proprietary and confidential information,
 including trade secrets, belonging to Gaussian, Inc.
  
 This software is provided under written license and may be
 used, copied, transmitted, or stored only in accord with that
 written license.
  
 The following legend is applicable only to US Government
 contracts under FAR:
  
                    RESTRICTED RIGHTS LEGEND
  
 Use, reproduction and disclosure by the US Government is
 subject to restrictions as set forth in subparagraphs (a)
 and (c) of the Commercial Computer Software - Restricted
 Rights clause in FAR 52.227-19.
  
 Gaussian, Inc.
 340 Quinnipiac St., Bldg. 40, Wallingford CT 06492
  
  
 ---------------------------------------------------------------
 Warning -- This program may not be used in any manner that
 competes with the business of Gaussian, Inc. or will provide
 assistance to any competitor of Gaussian, Inc.  The licensee
 of this program is prohibited from giving any competitor of
 Gaussian, Inc. access to this program.  By using this program,
 the user acknowledges that Gaussian, Inc. is engaged in the
 business of creating and licensing software in the field of
 computational chemistry and represents and warrants to the
 licensee that it is not a competitor of Gaussian, Inc. and that
 it will not use this program in any manner prohibited above.
 ---------------------------------------------------------------
  

 Cite this work as:
 Gaussian 16, Revision B.01,
 M. J. Frisch, G. W. Trucks, H. B. Schlegel, G. E. Scuseria, 
 M. A. Robb, J. R. Cheeseman, G. Scalmani, V. Barone, 
 G. A. Petersson, H. Nakatsuji, X. Li, M. Caricato, A. V. Marenich, 
 J. Bloino, B. G. Janesko, R. Gomperts, B. Mennucci, H. P. Hratchian, 
 J. V. Ortiz, A. F. Izmaylov, J. L. Sonnenberg, D. Williams-Young, 
 F. Ding, F. Lipparini, F. Egidi, J. Goings, B. Peng, A. Petrone, 
 T. Henderson, D. Ranasinghe, V. G. Zakrzewski, J. Gao, N. Rega, 
 G. Zheng, W. Liang, M. Hada, M. Ehara, K. Toyota, R. Fukuda, 
 J. Hasegawa, M. Ishida, T. Nakajima, Y. Honda, O. Kitao, H. Nakai, 
 T. Vreven, K. Throssell, J. A. Montgomery, Jr., J. E. Peralta, 
 F. Ogliaro, M. J. Bearpark, J. J. Heyd, E. N. Brothers, K. N. Kudin, 
 V. N. Staroverov, T. A. Keith, R. Kobayashi, J. Normand, 
 K. Raghavachari, A. P. Rendell, J. C. Burant, S. S. Iyengar, 
 J. Tomasi, M. Cossi, J. M. Millam, M. Klene, C. Adamo, R. Cammi, 
 J. W. Ochterski, R. L. Martin, K. Morokuma, O. Farkas, 
 J. B. Foresman, and D. J. Fox, Gaussian, Inc., Wallingford CT, 2016.
 
 ******************************************
 Gaussian 16:  ES64L-G16RevB.01 20-Dec-2017
                 3-Aug-2020 
 ******************************************
 %chk=meso-TS_88_2_xp-12.chk
 %nproc=24
 Will use up to   24 processors via shared memory.
 %mem=48GB
 ----------------------------------------------------------------------
 #p uwb97xd guess=mix def2tzvp # scrf=(iefpcm,solvent=Cyclohexane,read)
  nosym 6d 10f
 ----------------------------------------------------------------------
 1/38=1,40=2,172=1/1;
 2/12=2,15=1,17=6,18=5,40=1/2;
 3/5=44,7=101,8=22,11=2,25=1,30=1,70=2203,72=17,74=-58,116=2/1,2,3;
 4/13=-1/1;
 5/5=2,38=5,53=17/2;
 6/7=2,8=2,9=2,10=2,28=1/1;
 99/5=1,9=1/99;
 Leave Link    1 at Mon Aug  3 18:29:42 2020, MaxMem=  6442450944 cpu:               2.3 elap:               0.1
 (Enter /scratch/scicomp/CentOS/7.3.1611/Haswell/software/Gaussian/g16/l101.exe)
 -----------------------
 endo-2 xp-pcm for eta=3
 -----------------------
 Symbolic Z-matrix:
 Charge =  0 Multiplicity = 1
 6                    -3.10074  -0.43673   0.29582 
 6                    -0.85798  -0.28632  -1.42891 
 1                    -3.99899  -0.5072    0.89819 
 1                     0.04492  -0.22043  -2.02422 
 6                     1.25679   1.45045   0.9223 
 6                     0.85798   0.28632   1.42891 
 1                     0.67993   2.35239   1.08982 
 1                    -0.04492   0.22043   2.02422 
 6                     1.67802  -0.95902   1.24721 
 1                     2.33356  -1.06405   2.12193 
 1                     1.03075  -1.83759   1.24221 
 6                     2.49165   1.53793   0.14061 
 1                     2.89475   2.51704  -0.08896 
 6                     3.10074   0.43673  -0.29582 
 1                     3.99899   0.5072   -0.89819 
 6                     2.52005  -0.9251   -0.0297 
 1                     1.89813  -1.20658  -0.88823 
 1                     3.31245  -1.67345   0.02771 
 6                    -1.25679  -1.45045  -0.9223 
 1                    -0.67993  -2.35239  -1.08982 
 6                    -2.49165  -1.53793  -0.14061 
 1                    -2.89475  -2.51704   0.08896 
 6                    -1.67802   0.95902  -1.24721 
 1                    -1.03075   1.83759  -1.24221 
 1                    -2.33356   1.06405  -2.12193 
 6                    -2.52005   0.9251    0.0297 
 1                    -3.31245   1.67345  -0.02771 
 1                    -1.89813   1.20658   0.88823 
 
 ITRead=  0  0  0  0  0  0  0  0  0  0  0  0  0  0  0  0  0  0  0  0
 ITRead=  0  0  0  0  0  0  0  0
 MicOpt= -1 -1 -1 -1 -1 -1 -1 -1 -1 -1 -1 -1 -1 -1 -1 -1 -1 -1 -1 -1
 MicOpt= -1 -1 -1 -1 -1 -1 -1 -1
 NAtoms=     28 NQM=       28 NQMF=       0 NMMI=      0 NMMIF=      0
                NMic=       0 NMicF=      0.
                    Isotopes and Nuclear Properties:
 (Nuclear quadrupole moments (NQMom) in fm**2, nuclear magnetic moments (NMagM)
  in nuclear magnetons)

  Atom         1           2           3           4           5           6           7           8           9          10
 IAtWgt=          12          12           1           1          12          12           1           1          12           1
 AtmWgt=  12.0000000  12.0000000   1.0078250   1.0078250  12.0000000  12.0000000   1.0078250   1.0078250  12.0000000   1.0078250
 NucSpn=           0           0           1           1           0           0           1           1           0           1
 AtZEff=  -0.0000000  -0.0000000  -0.0000000  -0.0000000  -0.0000000  -0.0000000  -0.0000000  -0.0000000  -0.0000000  -0.0000000
 NQMom=    0.0000000   0.0000000   0.0000000   0.0000000   0.0000000   0.0000000   0.0000000   0.0000000   0.0000000   0.0000000
 NMagM=    0.0000000   0.0000000   2.7928460   2.7928460   0.0000000   0.0000000   2.7928460   2.7928460   0.0000000   2.7928460
 AtZNuc=   6.0000000   6.0000000   1.0000000   1.0000000   6.0000000   6.0000000   1.0000000   1.0000000   6.0000000   1.0000000

  Atom        11          12          13          14          15          16          17          18          19          20
 IAtWgt=           1          12           1          12           1          12           1           1          12           1
 AtmWgt=   1.0078250  12.0000000   1.0078250  12.0000000   1.0078250  12.0000000   1.0078250   1.0078250  12.0000000   1.0078250
 NucSpn=           1           0           1           0           1           0           1           1           0           1
 AtZEff=  -0.0000000  -0.0000000  -0.0000000  -0.0000000  -0.0000000  -0.0000000  -0.0000000  -0.0000000  -0.0000000  -0.0000000
 NQMom=    0.0000000   0.0000000   0.0000000   0.0000000   0.0000000   0.0000000   0.0000000   0.0000000   0.0000000   0.0000000
 NMagM=    2.7928460   0.0000000   2.7928460   0.0000000   2.7928460   0.0000000   2.7928460   2.7928460   0.0000000   2.7928460
 AtZNuc=   1.0000000   6.0000000   1.0000000   6.0000000   1.0000000   6.0000000   1.0000000   1.0000000   6.0000000   1.0000000

  Atom        21          22          23          24          25          26          27          28
 IAtWgt=          12           1          12           1           1          12           1           1
 AtmWgt=  12.0000000   1.0078250  12.0000000   1.0078250   1.0078250  12.0000000   1.0078250   1.0078250
 NucSpn=           0           1           0           1           1           0           1           1
 AtZEff=  -0.0000000  -0.0000000  -0.0000000  -0.0000000  -0.0000000  -0.0000000  -0.0000000  -0.0000000
 NQMom=    0.0000000   0.0000000   0.0000000   0.0000000   0.0000000   0.0000000   0.0000000   0.0000000
 NMagM=    0.0000000   2.7928460   0.0000000   2.7928460   2.7928460   0.0000000   2.7928460   2.7928460
 AtZNuc=   6.0000000   1.0000000   6.0000000   1.0000000   1.0000000   6.0000000   1.0000000   1.0000000
 Leave Link  101 at Mon Aug  3 18:29:42 2020, MaxMem=  6442450944 cpu:               2.4 elap:               0.1
 (Enter /scratch/scicomp/CentOS/7.3.1611/Haswell/software/Gaussian/g16/l202.exe)
                          Input orientation:                          
 ---------------------------------------------------------------------
 Center     Atomic      Atomic             Coordinates (Angstroms)
 Number     Number       Type             X           Y           Z
 ---------------------------------------------------------------------
      1          6           0       -3.100740   -0.436725    0.295815
      2          6           0       -0.857979   -0.286324   -1.428905
      3          1           0       -3.998989   -0.507198    0.898194
      4          1           0        0.044923   -0.220426   -2.024218
      5          6           0        1.256794    1.450448    0.922302
      6          6           0        0.857979    0.286324    1.428905
      7          1           0        0.679926    2.352386    1.089821
      8          1           0       -0.044923    0.220426    2.024218
      9          6           0        1.678016   -0.959021    1.247210
     10          1           0        2.333558   -1.064055    2.121932
     11          1           0        1.030749   -1.837588    1.242211
     12          6           0        2.491654    1.537925    0.140607
     13          1           0        2.894748    2.517041   -0.088961
     14          6           0        3.100740    0.436725   -0.295815
     15          1           0        3.998989    0.507198   -0.898194
     16          6           0        2.520053   -0.925099   -0.029697
     17          1           0        1.898127   -1.206584   -0.888225
     18          1           0        3.312455   -1.673451    0.027707
     19          6           0       -1.256794   -1.450448   -0.922302
     20          1           0       -0.679926   -2.352386   -1.089821
     21          6           0       -2.491654   -1.537925   -0.140607
     22          1           0       -2.894748   -2.517041    0.088961
     23          6           0       -1.678016    0.959021   -1.247210
     24          1           0       -1.030749    1.837588   -1.242211
     25          1           0       -2.333558    1.064055   -2.121932
     26          6           0       -2.520053    0.925099    0.029697
     27          1           0       -3.312455    1.673451   -0.027707
     28          1           0       -1.898127    1.206584    0.888225
 ---------------------------------------------------------------------
                    Distance matrix (angstroms):
                    1          2          3          4          5
     1  C    0.000000
     2  C    2.833241   0.000000
     3  H    1.083826   3.915370   0.000000
     4  H    3.914656   1.083500   4.997595   0.000000
     5  C    4.789782   3.607883   5.608584   3.597559   0.000000
     6  C    4.180688   3.382235   4.949896   3.583562   1.330746
     7  H    4.764769   3.958778   5.486911   4.088989   1.083666
     8  H    3.571728   3.583562   4.175165   4.073359   2.102770
     9  C    4.900455   3.747717   5.705641   3.730249   2.467496
    10  H    5.767135   4.837274   6.473699   4.810418   2.986848
    11  H    4.463999   3.620576   5.214072   3.775795   3.311287
    12  C    5.932807   4.124475   6.847256   3.710089   1.464096
    13  H    6.694674   4.872090   7.592372   4.400051   2.200720
    14  C    6.290572   4.180688   7.261047   3.571728   2.431374
    15  H    7.261047   4.949896   8.259762   4.175165   3.423968
    16  C    5.651352   3.711727   6.597995   3.255909   2.854006
    17  H    5.194546   2.955560   6.201323   2.386913   3.278587
    18  H    6.536853   4.630158   7.454871   4.122917   3.845099
    19  C    2.431374   1.330746   3.423968   2.102770   4.258625
    20  H    3.383797   2.101260   4.286386   2.437982   4.718164
    21  C    1.331950   2.427985   2.100849   3.423159   4.910296
    22  H    2.100699   3.380598   2.431805   4.287380   5.802648
    23  C    2.520551   1.502118   3.484175   2.227859   3.682580
    24  H    3.438442   2.139090   4.346240   2.450312   3.172987
    25  H    2.947272   2.116871   3.789942   2.704924   4.723059
    26  C    1.504188   2.521419   2.234505   3.479928   3.916288
    27  H    2.145305   3.439262   2.466547   4.341061   4.672289
    28  H    2.120776   2.946146   2.711230   3.780757   3.164515
                    6          7          8          9         10
     6  C    0.000000
     7  H    2.101260   0.000000
     8  H    1.083500   2.437982   0.000000
     9  C    1.502118   3.462134   2.227859   0.000000
    10  H    2.116871   3.933424   2.704924   1.098138   0.000000
    11  H    2.139090   4.207396   2.450312   1.091265   1.752020
    12  C    2.427985   2.201525   3.423159   2.849792   3.274285
    13  H    3.380598   2.514374   4.287380   3.917754   4.245849
    14  C    2.833241   3.383797   3.914656   2.520551   2.947272
    15  H    3.915370   4.286386   4.997595   3.484175   3.789942
    16  C    2.521419   3.921900   3.479928   1.529924   2.164162
    17  H    2.946146   4.250053   3.780757   2.160976   3.044825
    18  H    3.439262   4.926019   4.341061   2.160784   2.390686
    19  C    3.607883   4.718164   3.597559   3.682580   4.723059
    20  H    3.958778   5.360496   4.088989   3.600426   4.588708
    21  C    4.124475   5.167920   3.710089   4.432529   5.350356
    22  H    4.872090   6.123017   4.400051   4.967810   5.794767
    23  C    3.747717   3.600426   3.730249   4.600431   5.615753
    24  H    3.620576   2.937652   3.775795   4.621217   5.572751
    25  H    4.837274   4.588708   4.810418   5.615753   6.657417
    26  C    3.711727   3.660721   3.255909   4.759835   5.647276
    27  H    4.630158   4.201063   4.122917   5.784473   6.632673
    28  H    2.955560   2.828402   2.386913   4.196131   4.958326
                   11         12         13         14         15
    11  H    0.000000
    12  C    3.839513   0.000000
    13  H    4.920295   1.083446   0.000000
    14  C    3.438442   1.331950   2.100699   0.000000
    15  H    4.346240   2.100849   2.431805   1.083826   0.000000
    16  C    2.160651   2.469068   3.462981   1.504188   2.234505
    17  H    2.385219   2.990502   3.936681   2.120776   2.711230
    18  H    2.590008   3.316534   4.212875   2.145305   2.466547
    19  C    3.172987   4.910296   5.802648   4.789782   5.608584
    20  H    2.937652   5.167920   6.123017   4.764769   5.486911
    21  C    3.795959   5.862874   6.742310   5.932807   6.847256
    22  H    4.147429   6.742310   7.674106   6.694674   7.592372
    23  C    4.621217   4.432529   4.967810   4.900455   5.705641
    24  H    4.891732   3.795959   4.147429   4.463999   5.214072
    25  H    5.572751   5.350356   5.794767   5.767135   6.473699
    26  C    4.659488   5.050254   5.645213   5.651352   6.597995
    27  H    5.727435   5.808130   6.264564   6.536853   7.454871
    28  H    4.239175   4.465299   5.063975   5.194546   6.201323
                   16         17         18         19         20
    16  C    0.000000
    17  H    1.096857   0.000000
    18  H    1.091433   1.748491   0.000000
    19  C    3.916288   3.164515   4.672289   0.000000
    20  H    3.660721   2.828402   4.201063   1.083666   0.000000
    21  C    5.050254   4.465299   5.808130   1.464096   2.201525
    22  H    5.645213   5.063975   6.264564   2.200720   2.514374
    23  C    4.759835   4.196131   5.784473   2.467496   3.462134
    24  H    4.659488   4.239175   5.727435   3.311287   4.207396
    25  H    5.647276   4.958326   6.632673   2.986848   3.933424
    26  C    5.369304   4.990688   6.385187   2.854006   3.921900
    27  H    6.385187   6.015418   7.422551   3.845099   4.926019
    28  H    4.990688   4.836393   6.015418   3.278587   4.250053
                   21         22         23         24         25
    21  C    0.000000
    22  H    1.083446   0.000000
    23  C    2.849792   3.917754   0.000000
    24  H    3.839513   4.920295   1.091265   0.000000
    25  H    3.274285   4.245849   1.098138   1.752020   0.000000
    26  C    2.469068   3.462981   1.529924   2.160651   2.164162
    27  H    3.316534   4.212875   2.160784   2.590008   2.390686
    28  H    2.990502   3.936681   2.160976   2.385219   3.044825
                   26         27         28
    26  C    0.000000
    27  H    1.091433   0.000000
    28  H    1.096857   1.748491   0.000000
 Symmetry turned off by external request.
 Stoichiometry    C12H16
 Framework group  CI[X(C12H16)]
 Deg. of freedom    39
 Full point group                 CI      NOp   2
 Rotational constants (GHZ):           1.6353234           0.5653914           0.5259215
 Leave Link  202 at Mon Aug  3 18:29:42 2020, MaxMem=  6442450944 cpu:               0.3 elap:               0.0
 (Enter /scratch/scicomp/CentOS/7.3.1611/Haswell/software/Gaussian/g16/l301.exe)
 Standard basis: def2TZVP (6D, 10F)
 Ernie: Thresh=  0.10000D-02 Tol=  0.10000D-05 Strict=F.
   528 basis functions,   740 primitive gaussians,   528 cartesian basis functions
    44 alpha electrons       44 beta electrons
       nuclear repulsion energy       666.6918323575 Hartrees.
 IExCor= 4639 DFT=T Ex+Corr=wB97XD ExCW=0 ScaHFX=  1.000000
 ScaDFX=  1.000000  1.000000  1.000000  1.000000 ScalE2=  1.000000  1.000000
 IRadAn=      5 IRanWt=     -1 IRanGd=            0 ICorTp=0 IEmpDi=121
 HFx  wShort=  0.000000 wLong=  0.200000 cFull=  0.222036 cShort=  0.000000 cLong=  0.777964
 DFx  wShort=  0.000000 wLong=  0.200000 cFull=  0.000000 cShort=  0.000000 cLong=  1.000000
 NAtoms=   28 NActive=   28 NUniq=   28 SFac= 1.00D+00 NAtFMM=   60 NAOKFM=F Big=F
 Integral buffers will be    131072 words long.
 Raffenetti 2 integral format.
 Two-electron integral symmetry is turned off.
 R6Disp:  Grimme-D2 Dispersion energy=       -0.0204319638 Hartrees.
 Nuclear repulsion after empirical dispersion term =      666.6714003937 Hartrees.
 Using the following non-standard input for PCM:
 qrep pcmdoc geomview  nodis nocav g03defaults tsare=0.075
 Warning! Using old PCM defaults because the g03defaults keyword was found.
 These settings can be overridden by following keywords.
 nsfe=28
 NVESolv=36  SolvMW=84.1595   Rsolv=2.815
 eps=2.0165 RhoS=0.778099999999998
 --- end of non-standard input.
 Reading user-defined spheres from input:
 ISph  on   Nord    Re0     Alpha      Xe            Ye            Ze
 --- end of user-defined spheres data.
 ------------------------------------------------------------------------------
 Polarizable Continuum Model (PCM)
 =================================
 Model                : PCM.
 Atomic radii         : UA0 (Simple United Atom Topological Model).
 Polarization charges : Total charges.
 Charge compensation  : None.
 Solution method      : On-the-fly selection.
 Cavity type          : SES (Solvent Excluding Surface) (Alpha=1.000).
 Cavity algorithm     : GePol (RMin=0.200 OFac=0.890).
                        User-defined sphere list used, NSphG=   28.
                        Tesserae with average area of 0.075 Ang**2.
                        Smoothing algorithm: None.
                        Polarization charges: point-like.
                        Self-potential: constant (ISelfS= 1).
                        Self-field    : global E.n sum rule (ISelfD= 3).
 Solvent              : CycloHexane, Eps=   2.016500 Eps(inf)=   2.035188
                        RSolv=   2.815000 Ang.
 ------------------------------------------------------------------------------
 GePol: Number of generator spheres                  =      28
 GePol: Total number of spheres                      =     206
 GePol: Number of exposed spheres                    =     140 ( 67.96%)
 GePol: Number of tesserae                           =    4789
 GePol: Average area of tesserae                     =       0.05 Ang**2
 GePol: Minimum area of tessera                      =   0.10D-02 Ang**2
 GePol: Maximum area of tessera                      =    0.12443 Ang**2
 GePol: Number of small tesserae                     =       0
 GePol: Fraction of small tesserae (<1% of avg)      =       0.00%
 GePol: Total count of vertices                      =   16946
 GePol: Maximum number of vertices in a tessera      =       7
 GePol: Cavity surface area                          =    226.431 Ang**2
 GePol: Cavity volume                                =    260.287 Ang**3
 Leave Link  301 at Mon Aug  3 18:29:43 2020, MaxMem=  6442450944 cpu:               8.5 elap:               0.4
 (Enter /scratch/scicomp/CentOS/7.3.1611/Haswell/software/Gaussian/g16/l302.exe)
 NPDir=0 NMtPBC=     1 NCelOv=     1 NCel=       1 NClECP=     1 NCelD=      1
         NCelK=      1 NCelE2=     1 NClLst=     1 CellRange=     0.0.
 One-electron integrals computed using PRISM.
   1 Symmetry operations used in ECPInt.
 ECPInt:  NShTT=   19306 NPrTT=   56928 LenC2=   18446 LenP2D=   41568.
 LDataN:  DoStor=T MaxTD1= 6 Len=  172
 NBasis=   528 RedAO= T EigKep=  2.12D-05  NBF=   528
 NBsUse=   528 1.00D-06 EigRej= -1.00D+00 NBFU=   528
 Precomputing XC quadrature grid using
 IXCGrd= 4 IRadAn=           5 IRanWt=          -1 IRanGd=           0 AccXCQ= 0.00D+00.
 Generated NRdTot=       0 NPtTot=           0 NUsed=           0 NTot=          32
 NSgBfM=   526   526   526   526   526 MxSgAt=    28 MxSgA2=    28.
 Leave Link  302 at Mon Aug  3 18:29:44 2020, MaxMem=  6442450944 cpu:              12.6 elap:               0.6
 (Enter /scratch/scicomp/CentOS/7.3.1611/Haswell/software/Gaussian/g16/l303.exe)
 DipDrv:  MaxL=1.
 Leave Link  303 at Mon Aug  3 18:29:44 2020, MaxMem=  6442450944 cpu:               1.5 elap:               0.1
 (Enter /scratch/scicomp/CentOS/7.3.1611/Haswell/software/Gaussian/g16/l401.exe)
 ExpMin= 9.52D-02 ExpMax= 1.36D+04 ExpMxC= 4.63D+02 IAcc=3 IRadAn=         5 AccDes= 0.00D+00
 Harris functional with IExCor= 4639 and IRadAn=       5 diagonalized for initial guess.
 HarFok:  IExCor= 4639 AccDes= 0.00D+00 IRadAn=         5 IDoV= 1 UseB2=F ITyADJ=14
 ICtDFT=  3500011 ScaDFX=  1.000000  1.000000  1.000000  1.000000
 FoFCou: FMM=F IPFlag=           0 FMFlag=      100000 FMFlg1=           0
         NFxFlg=           0 DoJE=T BraDBF=F KetDBF=T FulRan=T
         wScrn=  0.000000 ICntrl=       500 IOpCl=  0 I1Cent=   200000004 NGrid=           0
         NMat0=    1 NMatS0=      1 NMatT0=    0 NMatD0=    1 NMtDS0=    0 NMtDT0=    0
 Symmetry not used in FoFCou.
 Harris En= -444.661620177890    
 JPrj=0 DoOrth=F DoCkMO=T.
 Mixing orbitals, IMix= 1 IMixAn=  0 NRI=1 NE=   44 Coef=  7.07106781D-01  7.07106781D-01
 Mixing orbitals, IMix= 1 IMixAn=  0 NRI=1 NE=   44 Coef= -7.07106781D-01  7.07106781D-01
 Initial guess <Sx>= 0.0000 <Sy>= 0.0000 <Sz>= 0.0000 <S**2>= 1.0000 S= 0.6180
 Leave Link  401 at Mon Aug  3 18:29:46 2020, MaxMem=  6442450944 cpu:              48.7 elap:               2.1
 (Enter /scratch/scicomp/CentOS/7.3.1611/Haswell/software/Gaussian/g16/l502.exe)
 Two-electron integral symmetry not used.
 UHF open shell SCF:
 Using DIIS extrapolation, IDIIS=  1040.
 NGot=  6442450944 LenX=  6441877030 LenY=  6441597718
 Requested convergence on RMS density matrix=1.00D-08 within 128 cycles.
 Requested convergence on MAX density matrix=1.00D-06.
 Requested convergence on             energy=1.00D-06.
 No special actions if energy rises.
 Fock matrices will be formed incrementally for  20 cycles.

 Cycle   1  Pass 1  IDiag  1:
 FoFJK:  IHMeth= 1 ICntrl=       0 DoSepK=T KAlg= 0 I1Cent=           0 FoldK=F
 IRaf=         1 NMat=       1 IRICut=       1 DoRegI=T DoRafI=F ISym2E= 0 IDoP0=0 IntGTp=1.
 FoFCou: FMM=F IPFlag=           0 FMFlag=      100000 FMFlg1=           0
         NFxFlg=           0 DoJE=T BraDBF=F KetDBF=F FulRan=T
         wScrn=  0.000000 ICntrl=       500 IOpCl=  0 I1Cent=           0 NGrid=           0
         NMat0=    1 NMatS0=      1 NMatT0=    0 NMatD0=    1 NMtDS0=    0 NMtDT0=    0
 Symmetry not used in FoFCou.
 Inv3:  Mode=1 IEnd=    68803563.
 Iteration    1 A*A^-1 deviation from unit magnitude is 3.33D-15 for   1498.
 Iteration    1 A*A^-1 deviation from orthogonality  is 3.21D-15 for   3943   3306.
 Iteration    1 A^-1*A deviation from unit magnitude is 3.33D-15 for   2588.
 Iteration    1 A^-1*A deviation from orthogonality  is 1.75D-15 for   3000   2799.
 E= -466.561415450867    
 DIIS: error= 5.30D-02 at cycle   1 NSaved=   1.
 NSaved= 1 IEnMin= 1 EnMin= -466.561415450867     IErMin= 1 ErrMin= 5.30D-02
 ErrMax= 5.30D-02  0.00D+00 EMaxC= 1.00D-01 BMatC= 4.12D+00 BMatP= 4.12D+00
 IDIUse=3 WtCom= 4.70D-01 WtEn= 5.30D-01
 Coeff-Com:  0.100D+01
 Coeff-En:   0.100D+01
 Coeff:      0.100D+01
 Gap=     0.178 Goal=   None    Shift=    0.000
 Gap=     0.178 Goal=   None    Shift=    0.000
 GapD=    0.178 DampG=1.000 DampE=0.500 DampFc=0.5000 IDamp=-1.
 Damping current iteration by 5.00D-01
 RMSDP=1.73D-03 MaxDP=9.36D-02              OVMax= 3.70D-01

 Cycle   2  Pass 1  IDiag  1:
 RMSU=  8.25D-04    CP:  9.60D-01
 E= -466.678291860494     Delta-E=       -0.116876409627 Rises=F Damp=T
 DIIS: error= 2.53D-02 at cycle   2 NSaved=   2.
 NSaved= 2 IEnMin= 2 EnMin= -466.678291860494     IErMin= 2 ErrMin= 2.53D-02
 ErrMax= 2.53D-02  0.00D+00 EMaxC= 1.00D-01 BMatC= 9.38D-01 BMatP= 4.12D+00
 IDIUse=3 WtCom= 7.47D-01 WtEn= 2.53D-01
 Coeff-Com: -0.870D+00 0.187D+01
 Coeff-En:   0.000D+00 0.100D+01
 Coeff:     -0.650D+00 0.165D+01
 Gap=     0.287 Goal=   None    Shift=    0.000
 Gap=     0.287 Goal=   None    Shift=    0.000
 RMSDP=1.24D-03 MaxDP=4.94D-02 DE=-1.17D-01 OVMax= 1.39D-01

 Cycle   3  Pass 1  IDiag  1:
 RMSU=  5.88D-04    CP:  8.99D-01  2.24D+00
 E= -466.832110499237     Delta-E=       -0.153818638743 Rises=F Damp=F
 DIIS: error= 7.81D-03 at cycle   3 NSaved=   3.
 NSaved= 3 IEnMin= 3 EnMin= -466.832110499237     IErMin= 3 ErrMin= 7.81D-03
 ErrMax= 7.81D-03  0.00D+00 EMaxC= 1.00D-01 BMatC= 2.31D-02 BMatP= 9.38D-01
 IDIUse=3 WtCom= 9.22D-01 WtEn= 7.81D-02
 Coeff-Com: -0.310D+00 0.664D+00 0.646D+00
 Coeff-En:   0.000D+00 0.000D+00 0.100D+01
 Coeff:     -0.286D+00 0.612D+00 0.674D+00
 Gap=     0.310 Goal=   None    Shift=    0.000
 Gap=     0.310 Goal=   None    Shift=    0.000
 RMSDP=2.02D-04 MaxDP=9.44D-03 DE=-1.54D-01 OVMax= 6.32D-02

 Cycle   4  Pass 1  IDiag  1:
 RMSU=  1.83D-04    CP:  8.92D-01  2.32D+00  1.02D+00
 E= -466.842498762562     Delta-E=       -0.010388263324 Rises=F Damp=F
 DIIS: error= 5.03D-03 at cycle   4 NSaved=   4.
 NSaved= 4 IEnMin= 4 EnMin= -466.842498762562     IErMin= 4 ErrMin= 5.03D-03
 ErrMax= 5.03D-03  0.00D+00 EMaxC= 1.00D-01 BMatC= 1.99D-03 BMatP= 2.31D-02
 IDIUse=3 WtCom= 9.50D-01 WtEn= 5.03D-02
 Coeff-Com:  0.152D+00-0.326D+00-0.812D-01 0.125D+01
 Coeff-En:   0.000D+00 0.000D+00 0.000D+00 0.100D+01
 Coeff:      0.145D+00-0.310D+00-0.772D-01 0.124D+01
 Gap=     0.321 Goal=   None    Shift=    0.000
 Gap=     0.321 Goal=   None    Shift=    0.000
 RMSDP=2.07D-04 MaxDP=1.06D-02 DE=-1.04D-02 OVMax= 7.48D-02

 Cycle   5  Pass 1  IDiag  1:
 RMSU=  7.96D-05    CP:  8.85D-01  2.38D+00  1.25D+00  1.64D+00
 E= -466.846940159393     Delta-E=       -0.004441396832 Rises=F Damp=F
 DIIS: error= 2.12D-03 at cycle   5 NSaved=   5.
 NSaved= 5 IEnMin= 5 EnMin= -466.846940159393     IErMin= 5 ErrMin= 2.12D-03
 ErrMax= 2.12D-03  0.00D+00 EMaxC= 1.00D-01 BMatC= 7.27D-04 BMatP= 1.99D-03
 IDIUse=3 WtCom= 9.79D-01 WtEn= 2.12D-02
 Coeff-Com:  0.434D-01-0.933D-01-0.510D-01 0.228D+00 0.873D+00
 Coeff-En:   0.000D+00 0.000D+00 0.000D+00 0.000D+00 0.100D+01
 Coeff:      0.425D-01-0.913D-01-0.499D-01 0.223D+00 0.875D+00
 Gap=     0.322 Goal=   None    Shift=    0.000
 Gap=     0.322 Goal=   None    Shift=    0.000
 RMSDP=6.91D-05 MaxDP=2.66D-03 DE=-4.44D-03 OVMax= 2.63D-02

 Cycle   6  Pass 1  IDiag  1:
 RMSU=  3.08D-05    CP:  8.84D-01  2.38D+00  1.29D+00  1.89D+00  1.43D+00
 E= -466.848238149912     Delta-E=       -0.001297990519 Rises=F Damp=F
 DIIS: error= 1.45D-03 at cycle   6 NSaved=   6.
 NSaved= 6 IEnMin= 6 EnMin= -466.848238149912     IErMin= 6 ErrMin= 1.45D-03
 ErrMax= 1.45D-03  0.00D+00 EMaxC= 1.00D-01 BMatC= 4.93D-04 BMatP= 7.27D-04
 IDIUse=3 WtCom= 9.86D-01 WtEn= 1.45D-02
 Coeff-Com: -0.867D-01 0.186D+00 0.561D-01-0.658D+00 0.139D+00 0.136D+01
 Coeff-En:   0.000D+00 0.000D+00 0.000D+00 0.000D+00 0.000D+00 0.100D+01
 Coeff:     -0.855D-01 0.183D+00 0.552D-01-0.648D+00 0.137D+00 0.136D+01
 Gap=     0.319 Goal=   None    Shift=    0.000
 Gap=     0.319 Goal=   None    Shift=    0.000
 RMSDP=9.45D-05 MaxDP=3.87D-03 DE=-1.30D-03 OVMax= 3.59D-02

 Cycle   7  Pass 1  IDiag  1:
 RMSU=  2.84D-05    CP:  8.82D-01  2.39D+00  1.32D+00  2.16D+00  2.15D+00
                    CP:  2.38D+00
 E= -466.849783488485     Delta-E=       -0.001545338573 Rises=F Damp=F
 DIIS: error= 1.06D-03 at cycle   7 NSaved=   7.
 NSaved= 7 IEnMin= 7 EnMin= -466.849783488485     IErMin= 7 ErrMin= 1.06D-03
 ErrMax= 1.06D-03  0.00D+00 EMaxC= 1.00D-01 BMatC= 2.42D-04 BMatP= 4.93D-04
 IDIUse=3 WtCom= 9.89D-01 WtEn= 1.06D-02
 Coeff-Com: -0.232D-01 0.503D-01 0.389D-01-0.455D-02-0.832D+00-0.229D+00
 Coeff-Com:  0.200D+01
 Coeff-En:   0.000D+00 0.000D+00 0.000D+00 0.000D+00 0.000D+00 0.000D+00
 Coeff-En:   0.100D+01
 Coeff:     -0.230D-01 0.498D-01 0.385D-01-0.450D-02-0.823D+00-0.227D+00
 Coeff:      0.199D+01
 Gap=     0.319 Goal=   None    Shift=    0.000
 Gap=     0.319 Goal=   None    Shift=    0.000
 RMSDP=1.27D-04 MaxDP=5.82D-03 DE=-1.55D-03 OVMax= 4.74D-02

 Cycle   8  Pass 1  IDiag  1:
 RMSU=  5.87D-05    CP:  8.80D-01  2.38D+00  1.36D+00  2.46D+00  3.00D+00
                    CP:  3.00D+00  2.48D+00
 E= -466.851029186676     Delta-E=       -0.001245698191 Rises=F Damp=F
 DIIS: error= 3.62D-04 at cycle   8 NSaved=   8.
 NSaved= 8 IEnMin= 8 EnMin= -466.851029186676     IErMin= 8 ErrMin= 3.62D-04
 ErrMax= 3.62D-04  0.00D+00 EMaxC= 1.00D-01 BMatC= 5.13D-05 BMatP= 2.42D-04
 IDIUse=3 WtCom= 9.96D-01 WtEn= 3.62D-03
 Coeff-Com:  0.239D-01-0.513D-01-0.615D-02 0.252D+00-0.279D+00-0.572D+00
 Coeff-Com:  0.545D+00 0.109D+01
 Coeff-En:   0.000D+00 0.000D+00 0.000D+00 0.000D+00 0.000D+00 0.000D+00
 Coeff-En:   0.000D+00 0.100D+01
 Coeff:      0.238D-01-0.511D-01-0.612D-02 0.251D+00-0.278D+00-0.570D+00
 Coeff:      0.543D+00 0.109D+01
 Gap=     0.321 Goal=   None    Shift=    0.000
 Gap=     0.321 Goal=   None    Shift=    0.000
 RMSDP=5.29D-05 MaxDP=2.49D-03 DE=-1.25D-03 OVMax= 1.94D-02

 Cycle   9  Pass 1  IDiag  1:
 RMSU=  2.73D-05    CP:  8.79D-01  2.38D+00  1.38D+00  2.55D+00  3.00D+00
                    CP:  3.00D+00  3.00D+00  1.60D+00
 E= -466.851212067653     Delta-E=       -0.000182880977 Rises=F Damp=F
 DIIS: error= 1.05D-04 at cycle   9 NSaved=   9.
 NSaved= 9 IEnMin= 9 EnMin= -466.851212067653     IErMin= 9 ErrMin= 1.05D-04
 ErrMax= 1.05D-04  0.00D+00 EMaxC= 1.00D-01 BMatC= 6.94D-06 BMatP= 5.13D-05
 IDIUse=3 WtCom= 9.99D-01 WtEn= 1.05D-03
 Coeff-Com:  0.107D-01-0.230D-01-0.727D-02 0.734D-01 0.422D-01-0.126D+00
 Coeff-Com: -0.142D+00 0.254D+00 0.918D+00
 Coeff-En:   0.000D+00 0.000D+00 0.000D+00 0.000D+00 0.000D+00 0.000D+00
 Coeff-En:   0.000D+00 0.000D+00 0.100D+01
 Coeff:      0.107D-01-0.229D-01-0.726D-02 0.734D-01 0.422D-01-0.126D+00
 Coeff:     -0.142D+00 0.254D+00 0.918D+00
 Gap=     0.320 Goal=   None    Shift=    0.000
 Gap=     0.320 Goal=   None    Shift=    0.000
 RMSDP=1.25D-05 MaxDP=5.87D-04 DE=-1.83D-04 OVMax= 4.67D-03

 Cycle  10  Pass 1  IDiag  1:
 RMSU=  4.96D-06    CP:  8.79D-01  2.38D+00  1.38D+00  2.56D+00  3.00D+00
                    CP:  3.00D+00  3.00D+00  1.74D+00  1.26D+00
 E= -466.851224307030     Delta-E=       -0.000012239377 Rises=F Damp=F
 DIIS: error= 4.23D-05 at cycle  10 NSaved=  10.
 NSaved=10 IEnMin=10 EnMin= -466.851224307030     IErMin=10 ErrMin= 4.23D-05
 ErrMax= 4.23D-05  0.00D+00 EMaxC= 1.00D-01 BMatC= 9.43D-07 BMatP= 6.94D-06
 IDIUse=1 WtCom= 1.00D+00 WtEn= 0.00D+00
 Coeff-Com: -0.222D-02 0.480D-02-0.738D-04-0.316D-01 0.457D-01 0.768D-01
 Coeff-Com: -0.953D-01-0.180D+00 0.135D+00 0.105D+01
 Coeff:     -0.222D-02 0.480D-02-0.738D-04-0.316D-01 0.457D-01 0.768D-01
 Coeff:     -0.953D-01-0.180D+00 0.135D+00 0.105D+01
 Gap=     0.320 Goal=   None    Shift=    0.000
 Gap=     0.320 Goal=   None    Shift=    0.000
 RMSDP=4.83D-06 MaxDP=2.19D-04 DE=-1.22D-05 OVMax= 1.83D-03

 Cycle  11  Pass 1  IDiag  1:
 RMSU=  1.65D-06    CP:  8.79D-01  2.38D+00  1.38D+00  2.57D+00  3.00D+00
                    CP:  3.00D+00  3.00D+00  1.78D+00  1.36D+00  1.33D+00
 E= -466.851225659388     Delta-E=       -0.000001352358 Rises=F Damp=F
 DIIS: error= 1.47D-05 at cycle  11 NSaved=  11.
 NSaved=11 IEnMin=11 EnMin= -466.851225659388     IErMin=11 ErrMin= 1.47D-05
 ErrMax= 1.47D-05  0.00D+00 EMaxC= 1.00D-01 BMatC= 1.11D-07 BMatP= 9.43D-07
 IDIUse=1 WtCom= 1.00D+00 WtEn= 0.00D+00
 Coeff-Com: -0.555D-03 0.119D-02 0.120D-03-0.582D-02 0.435D-02 0.127D-01
 Coeff-Com: -0.359D-02-0.322D-01-0.289D-01 0.119D+00 0.934D+00
 Coeff:     -0.555D-03 0.119D-02 0.120D-03-0.582D-02 0.435D-02 0.127D-01
 Coeff:     -0.359D-02-0.322D-01-0.289D-01 0.119D+00 0.934D+00
 Gap=     0.320 Goal=   None    Shift=    0.000
 Gap=     0.320 Goal=   None    Shift=    0.000
 RMSDP=7.39D-07 MaxDP=2.83D-05 DE=-1.35D-06 OVMax= 1.45D-04

 Cycle  12  Pass 1  IDiag  1:
 RMSU=  5.58D-07    CP:  8.79D-01  2.38D+00  1.38D+00  2.57D+00  3.00D+00
                    CP:  3.00D+00  3.00D+00  1.77D+00  1.36D+00  1.35D+00
                    CP:  1.25D+00
 E= -466.851225757313     Delta-E=       -0.000000097925 Rises=F Damp=F
 DIIS: error= 9.77D-06 at cycle  12 NSaved=  12.
 NSaved=12 IEnMin=12 EnMin= -466.851225757313     IErMin=12 ErrMin= 9.77D-06
 ErrMax= 9.77D-06  0.00D+00 EMaxC= 1.00D-01 BMatC= 6.02D-08 BMatP= 1.11D-07
 IDIUse=1 WtCom= 1.00D+00 WtEn= 0.00D+00
 Coeff-Com:  0.365D-03-0.792D-03 0.198D-04 0.581D-02-0.895D-02-0.145D-01
 Coeff-Com:  0.221D-01 0.329D-01-0.471D-01-0.231D+00 0.430D+00 0.811D+00
 Coeff:      0.365D-03-0.792D-03 0.198D-04 0.581D-02-0.895D-02-0.145D-01
 Coeff:      0.221D-01 0.329D-01-0.471D-01-0.231D+00 0.430D+00 0.811D+00
 Gap=     0.320 Goal=   None    Shift=    0.000
 Gap=     0.320 Goal=   None    Shift=    0.000
 RMSDP=4.74D-07 MaxDP=2.14D-05 DE=-9.79D-08 OVMax= 1.08D-04

 Cycle  13  Pass 1  IDiag  1:
 RMSU=  2.69D-07    CP:  8.79D-01  2.38D+00  1.38D+00  2.57D+00  3.00D+00
                    CP:  3.00D+00  3.00D+00  1.77D+00  1.36D+00  1.35D+00
                    CP:  1.41D+00  1.44D+00
 E= -466.851225808859     Delta-E=       -0.000000051546 Rises=F Damp=F
 DIIS: error= 5.94D-06 at cycle  13 NSaved=  13.
 NSaved=13 IEnMin=13 EnMin= -466.851225808859     IErMin=13 ErrMin= 5.94D-06
 ErrMax= 5.94D-06  0.00D+00 EMaxC= 1.00D-01 BMatC= 1.21D-08 BMatP= 6.02D-08
 IDIUse=1 WtCom= 1.00D+00 WtEn= 0.00D+00
 Coeff-Com: -0.610D-04 0.134D-03 0.546D-04-0.674D-03 0.975D-03 0.117D-02
 Coeff-Com: -0.326D-02-0.807D-03 0.957D-02 0.115D-01-0.276D+00-0.725D-01
 Coeff-Com:  0.133D+01
 Coeff:     -0.610D-04 0.134D-03 0.546D-04-0.674D-03 0.975D-03 0.117D-02
 Coeff:     -0.326D-02-0.807D-03 0.957D-02 0.115D-01-0.276D+00-0.725D-01
 Coeff:      0.133D+01
 Gap=     0.320 Goal=   None    Shift=    0.000
 Gap=     0.320 Goal=   None    Shift=    0.000
 RMSDP=3.35D-07 MaxDP=1.86D-05 DE=-5.15D-08 OVMax= 8.60D-05

 Cycle  14  Pass 1  IDiag  1:
 RMSU=  1.93D-07    CP:  8.79D-01  2.38D+00  1.38D+00  2.57D+00  3.00D+00
                    CP:  3.00D+00  3.00D+00  1.77D+00  1.36D+00  1.36D+00
                    CP:  1.47D+00  1.78D+00  1.62D+00
 E= -466.851225832908     Delta-E=       -0.000000024048 Rises=F Damp=F
 DIIS: error= 3.20D-06 at cycle  14 NSaved=  14.
 NSaved=14 IEnMin=14 EnMin= -466.851225832908     IErMin=14 ErrMin= 3.20D-06
 ErrMax= 3.20D-06  0.00D+00 EMaxC= 1.00D-01 BMatC= 3.58D-09 BMatP= 1.21D-08
 IDIUse=1 WtCom= 1.00D+00 WtEn= 0.00D+00
 Coeff-Com: -0.150D-03 0.324D-03 0.397D-04-0.199D-02 0.264D-02 0.463D-02
 Coeff-Com: -0.710D-02-0.995D-02 0.168D-01 0.743D-01-0.194D+00-0.281D+00
 Coeff-Com:  0.203D+00 0.119D+01
 Coeff:     -0.150D-03 0.324D-03 0.397D-04-0.199D-02 0.264D-02 0.463D-02
 Coeff:     -0.710D-02-0.995D-02 0.168D-01 0.743D-01-0.194D+00-0.281D+00
 Coeff:      0.203D+00 0.119D+01
 Gap=     0.320 Goal=   None    Shift=    0.000
 Gap=     0.320 Goal=   None    Shift=    0.000
 RMSDP=2.34D-07 MaxDP=1.15D-05 DE=-2.40D-08 OVMax= 6.20D-05

 Cycle  15  Pass 1  IDiag  1:
 RMSU=  8.18D-08    CP:  8.79D-01  2.38D+00  1.38D+00  2.57D+00  3.00D+00
                    CP:  3.00D+00  3.00D+00  1.77D+00  1.36D+00  1.37D+00
                    CP:  1.48D+00  1.95D+00  2.05D+00  1.79D+00
 E= -466.851225840620     Delta-E=       -0.000000007712 Rises=F Damp=F
 DIIS: error= 1.11D-06 at cycle  15 NSaved=  15.
 NSaved=15 IEnMin=15 EnMin= -466.851225840620     IErMin=15 ErrMin= 1.11D-06
 ErrMax= 1.11D-06  0.00D+00 EMaxC= 1.00D-01 BMatC= 5.30D-10 BMatP= 3.58D-09
 IDIUse=1 WtCom= 1.00D+00 WtEn= 0.00D+00
 Coeff-Com:  0.168D-04-0.366D-04-0.253D-04 0.890D-04 0.598D-04-0.682D-05
 Coeff-Com: -0.249D-03-0.289D-03 0.115D-02 0.577D-02 0.330D-01-0.278D-01
 Coeff-Com: -0.279D+00 0.173D+00 0.109D+01
 Coeff:      0.168D-04-0.366D-04-0.253D-04 0.890D-04 0.598D-04-0.682D-05
 Coeff:     -0.249D-03-0.289D-03 0.115D-02 0.577D-02 0.330D-01-0.278D-01
 Coeff:     -0.279D+00 0.173D+00 0.109D+01
 Gap=     0.320 Goal=   None    Shift=    0.000
 Gap=     0.320 Goal=   None    Shift=    0.000
 RMSDP=1.07D-07 MaxDP=4.79D-06 DE=-7.71D-09 OVMax= 2.55D-05

 Cycle  16  Pass 1  IDiag  1:
 RMSU=  3.21D-08    CP:  8.79D-01  2.38D+00  1.38D+00  2.57D+00  3.00D+00
                    CP:  3.00D+00  3.00D+00  1.77D+00  1.36D+00  1.37D+00
                    CP:  1.49D+00  1.98D+00  2.20D+00  2.19D+00  1.45D+00
 E= -466.851225841548     Delta-E=       -0.000000000928 Rises=F Damp=F
 DIIS: error= 2.20D-07 at cycle  16 NSaved=  16.
 NSaved=16 IEnMin=16 EnMin= -466.851225841548     IErMin=16 ErrMin= 2.20D-07
 ErrMax= 2.20D-07  0.00D+00 EMaxC= 1.00D-01 BMatC= 5.19D-11 BMatP= 5.30D-10
 IDIUse=1 WtCom= 1.00D+00 WtEn= 0.00D+00
 Coeff-Com:  0.116D-04-0.250D-04-0.804D-05 0.143D-03-0.167D-03-0.279D-03
 Coeff-Com:  0.425D-03 0.635D-03-0.123D-02-0.461D-02 0.250D-01 0.170D-01
 Coeff-Com: -0.822D-01-0.685D-01 0.255D+00 0.858D+00
 Coeff:      0.116D-04-0.250D-04-0.804D-05 0.143D-03-0.167D-03-0.279D-03
 Coeff:      0.425D-03 0.635D-03-0.123D-02-0.461D-02 0.250D-01 0.170D-01
 Coeff:     -0.822D-01-0.685D-01 0.255D+00 0.858D+00
 Gap=     0.320 Goal=   None    Shift=    0.000
 Gap=     0.320 Goal=   None    Shift=    0.000
 RMSDP=2.36D-08 MaxDP=9.40D-07 DE=-9.28D-10 OVMax= 3.91D-06

 Cycle  17  Pass 1  IDiag  1:
 RMSU=  1.07D-08    CP:  8.79D-01  2.38D+00  1.38D+00  2.57D+00  3.00D+00
                    CP:  3.00D+00  3.00D+00  1.77D+00  1.36D+00  1.37D+00
                    CP:  1.49D+00  1.98D+00  2.21D+00  2.26D+00  1.55D+00
                    CP:  1.31D+00
 E= -466.851225841588     Delta-E=       -0.000000000040 Rises=F Damp=F
 DIIS: error= 9.37D-08 at cycle  17 NSaved=  17.
 NSaved=17 IEnMin=17 EnMin= -466.851225841588     IErMin=17 ErrMin= 9.37D-08
 ErrMax= 9.37D-08  0.00D+00 EMaxC= 1.00D-01 BMatC= 6.72D-12 BMatP= 5.19D-11
 IDIUse=1 WtCom= 1.00D+00 WtEn= 0.00D+00
 Coeff-Com: -0.146D-06 0.364D-06 0.117D-05 0.445D-05-0.242D-04-0.696D-05
 Coeff-Com:  0.507D-04 0.963D-04-0.360D-03-0.122D-02-0.703D-03 0.582D-02
 Coeff-Com:  0.265D-01-0.340D-01-0.117D+00 0.143D+00 0.979D+00
 Coeff:     -0.146D-06 0.364D-06 0.117D-05 0.445D-05-0.242D-04-0.696D-05
 Coeff:      0.507D-04 0.963D-04-0.360D-03-0.122D-02-0.703D-03 0.582D-02
 Coeff:      0.265D-01-0.340D-01-0.117D+00 0.143D+00 0.979D+00
 Gap=     0.320 Goal=   None    Shift=    0.000
 Gap=     0.320 Goal=   None    Shift=    0.000
 RMSDP=8.51D-09 MaxDP=2.97D-07 DE=-3.98D-11 OVMax= 1.27D-06

 Error on total polarization charges =  0.01113
 SCF Done:  E(UwB97XD) =  -466.851225842     A.U. after   17 cycles
            NFock= 17  Conv=0.85D-08     -V/T= 2.0058
 <Sx>= 0.0000 <Sy>= 0.0000 <Sz>= 0.0000 <S**2>= 0.0000 S= 0.0000
 <L.S>=  0.00000000000    
 KE= 4.641639905209D+02 PE=-2.415263317840D+03 EE= 8.175767010838D+02
 --------------------------------------------------------------------
 Variational PCM results
 =======================
 <psi(f)|   H    |psi(f)>                     (a.u.) =    -466.858808
 <psi(f)|H+V(f)/2|psi(f)>                     (a.u.) =    -466.860295
 Total free energy in solution:
 - with all non electrostatic terms           (a.u.) =    -466.851226
 --------------------------------------------------------------------
 (Polarized solute)-Solvent               (kcal/mol) =      -0.93
 --------------------------------------------------------------------
 Quantum repulsion energy                 (kcal/mol) =       5.69
 Total non electrostatic                  (kcal/mol) =       5.69
 --------------------------------------------------------------------
 Partition over spheres:
 Sphere  on Atom  Surface  Charge   GEl     GCav    GDR
    1               7.08   0.010   -0.05    0.00    0.00
    2               4.67   0.007   -0.04    0.00    0.00
    3               7.52  -0.010   -0.04    0.00    0.00
    4               4.23  -0.006   -0.02    0.00    0.00
    5               4.67   0.007   -0.05    0.00    0.00
    6               4.22   0.005   -0.03    0.00    0.00
    7               5.88  -0.008   -0.03    0.00    0.00
    8               4.53  -0.006   -0.02    0.00    0.00
    9               3.59   0.002    0.00    0.00    0.00
   10               7.15  -0.007   -0.01    0.00    0.00
   11               3.45  -0.003   -0.01    0.00    0.00
   12               6.69   0.010   -0.06    0.00    0.00
   13               7.52  -0.010   -0.03    0.00    0.00
   14               6.82   0.010   -0.05    0.00    0.00
   15               7.51  -0.010   -0.04    0.00    0.00
   16               3.62   0.002    0.00    0.00    0.00
   17               2.48  -0.001   -0.00    0.00    0.00
   18               7.34  -0.008   -0.03    0.00    0.00
   19               4.99   0.009   -0.06    0.00    0.00
   20               5.12  -0.007   -0.03    0.00    0.00
   21               6.40   0.010   -0.06    0.00    0.00
   22               7.51  -0.010   -0.03    0.00    0.00
   23               3.60   0.002    0.00    0.00    0.00
   24               3.48  -0.003   -0.01    0.00    0.00
   25               7.15  -0.007   -0.01    0.00    0.00
   26               3.60   0.002    0.00    0.00    0.00
   27               7.45  -0.008   -0.03    0.00    0.00
   28               2.36  -0.001   -0.00    0.00    0.00
 Added spheres:    75.80   0.022   -0.21    0.00    0.00
 --------------------------------------------------------------------
 After PCM corrections, the energy is  -466.851225842     a.u.
 --------------------------------------------------------------------
 Annihilation of the first spin contaminant:
 S**2 before annihilation     0.0000,   after    -0.0000
 Leave Link  502 at Mon Aug  3 18:34:56 2020, MaxMem=  6442450944 cpu:            7368.2 elap:             309.8
 (Enter /scratch/scicomp/CentOS/7.3.1611/Haswell/software/Gaussian/g16/l601.exe)
 Copying SCF densities to generalized density rwf, IOpCl= 1 IROHF=0.

 **********************************************************************

            Population analysis using the SCF Density.

 **********************************************************************

 Alpha  occ. eigenvalues --  -10.28204 -10.28203 -10.28136 -10.28135 -10.28096
 Alpha  occ. eigenvalues --  -10.28095 -10.28051 -10.28050 -10.27802 -10.27801
 Alpha  occ. eigenvalues --  -10.27589 -10.27587  -0.93965  -0.93648  -0.83931
 Alpha  occ. eigenvalues --   -0.83925  -0.83790  -0.83591  -0.71116  -0.71067
 Alpha  occ. eigenvalues --   -0.67803  -0.67769  -0.59613  -0.59481  -0.57346
 Alpha  occ. eigenvalues --   -0.56876  -0.53188  -0.52534  -0.50747  -0.50689
 Alpha  occ. eigenvalues --   -0.49856  -0.49460  -0.47137  -0.46917  -0.45043
 Alpha  occ. eigenvalues --   -0.44780  -0.41053  -0.40945  -0.39460  -0.39138
 Alpha  occ. eigenvalues --   -0.39051  -0.38994  -0.29609  -0.27838
 Alpha virt. eigenvalues --    0.04180   0.04649   0.11364   0.12911   0.14227
 Alpha virt. eigenvalues --    0.15168   0.15181   0.16230   0.16371   0.16905
 Alpha virt. eigenvalues --    0.17782   0.17796   0.18076   0.19216   0.20867
 Alpha virt. eigenvalues --    0.21506   0.22500   0.23284   0.23389   0.24382
 Alpha virt. eigenvalues --    0.25780   0.26502   0.26683   0.27470   0.28397
 Alpha virt. eigenvalues --    0.28690   0.29596   0.29630   0.30413   0.30970
 Alpha virt. eigenvalues --    0.31639   0.32012   0.32326   0.32702   0.33268
 Alpha virt. eigenvalues --    0.33605   0.34677   0.35356   0.35750   0.37824
 Alpha virt. eigenvalues --    0.38016   0.38436   0.40505   0.41433   0.41731
 Alpha virt. eigenvalues --    0.42104   0.43481   0.44485   0.45691   0.46200
 Alpha virt. eigenvalues --    0.46526   0.46907   0.48082   0.48580   0.48707
 Alpha virt. eigenvalues --    0.49211   0.49585   0.49845   0.50374   0.50443
 Alpha virt. eigenvalues --    0.51338   0.51409   0.51706   0.52335   0.52991
 Alpha virt. eigenvalues --    0.53100   0.53680   0.54774   0.55035   0.55645
 Alpha virt. eigenvalues --    0.57416   0.57645   0.57901   0.59696   0.59741
 Alpha virt. eigenvalues --    0.60585   0.61772   0.62980   0.63527   0.64431
 Alpha virt. eigenvalues --    0.64754   0.66558   0.68130   0.68818   0.69735
 Alpha virt. eigenvalues --    0.70528   0.72901   0.73510   0.73902   0.75571
 Alpha virt. eigenvalues --    0.76728   0.78556   0.78708   0.80166   0.81738
 Alpha virt. eigenvalues --    0.82054   0.82779   0.84080   0.85958   0.86145
 Alpha virt. eigenvalues --    0.86636   0.89297   0.91099   0.91262   0.92778
 Alpha virt. eigenvalues --    0.93121   0.95435   0.96248   0.98544   0.99204
 Alpha virt. eigenvalues --    1.01320   1.02894   1.04071   1.04100   1.04468
 Alpha virt. eigenvalues --    1.06763   1.07722   1.08812   1.10136   1.11418
 Alpha virt. eigenvalues --    1.12939   1.13225   1.14406   1.14981   1.15822
 Alpha virt. eigenvalues --    1.16178   1.16375   1.17278   1.19393   1.20400
 Alpha virt. eigenvalues --    1.21640   1.22906   1.23010   1.23954   1.24665
 Alpha virt. eigenvalues --    1.24941   1.25942   1.26775   1.27705   1.29005
 Alpha virt. eigenvalues --    1.29423   1.30387   1.32383   1.32402   1.33242
 Alpha virt. eigenvalues --    1.34812   1.34997   1.35382   1.37217   1.38479
 Alpha virt. eigenvalues --    1.39227   1.39233   1.40572   1.41046   1.41755
 Alpha virt. eigenvalues --    1.42337   1.42579   1.43794   1.45032   1.45671
 Alpha virt. eigenvalues --    1.45826   1.46346   1.46631   1.47283   1.48028
 Alpha virt. eigenvalues --    1.49966   1.50837   1.52414   1.52855   1.55576
 Alpha virt. eigenvalues --    1.56459   1.57203   1.57426   1.58526   1.60404
 Alpha virt. eigenvalues --    1.61002   1.62297   1.62770   1.64710   1.65687
 Alpha virt. eigenvalues --    1.68663   1.69238   1.69610   1.71169   1.75016
 Alpha virt. eigenvalues --    1.75924   1.79611   1.80998   1.82126   1.82767
 Alpha virt. eigenvalues --    1.87313   1.88154   1.88613   1.89354   1.91243
 Alpha virt. eigenvalues --    1.92072   1.96029   2.00194   2.01206   2.01926
 Alpha virt. eigenvalues --    2.03930   2.04690   2.06437   2.07463   2.09085
 Alpha virt. eigenvalues --    2.09131   2.11871   2.12358   2.13334   2.15367
 Alpha virt. eigenvalues --    2.19110   2.19324   2.20189   2.20410   2.22183
 Alpha virt. eigenvalues --    2.23090   2.23135   2.23694   2.24840   2.26067
 Alpha virt. eigenvalues --    2.28824   2.31237   2.37298   2.38096   2.40014
 Alpha virt. eigenvalues --    2.42068   2.46017   2.47537   2.48606   2.49257
 Alpha virt. eigenvalues --    2.50177   2.50205   2.51556   2.54222   2.54989
 Alpha virt. eigenvalues --    2.55662   2.57312   2.57546   2.60101   2.60136
 Alpha virt. eigenvalues --    2.61923   2.63786   2.64404   2.65318   2.66826
 Alpha virt. eigenvalues --    2.67788   2.69150   2.69804   2.72177   2.72366
 Alpha virt. eigenvalues --    2.73334   2.73352   2.75274   2.75946   2.76322
 Alpha virt. eigenvalues --    2.77326   2.78319   2.78925   2.79941   2.80888
 Alpha virt. eigenvalues --    2.81018   2.81714   2.82835   2.83782   2.83916
 Alpha virt. eigenvalues --    2.85157   2.85531   2.86592   2.88885   2.88896
 Alpha virt. eigenvalues --    2.89704   2.89890   2.92080   2.92601   2.92972
 Alpha virt. eigenvalues --    2.93921   2.94770   2.94808   2.95928   2.99057
 Alpha virt. eigenvalues --    3.01189   3.01879   3.03154   3.03568   3.06623
 Alpha virt. eigenvalues --    3.06749   3.07922   3.08420   3.09587   3.10710
 Alpha virt. eigenvalues --    3.11809   3.12085   3.12526   3.13886   3.14823
 Alpha virt. eigenvalues --    3.15031   3.16822   3.17202   3.18480   3.18634
 Alpha virt. eigenvalues --    3.19388   3.19486   3.19996   3.20864   3.21100
 Alpha virt. eigenvalues --    3.21992   3.22582   3.23466   3.23725   3.24257
 Alpha virt. eigenvalues --    3.25307   3.25535   3.27349   3.28251   3.28372
 Alpha virt. eigenvalues --    3.28877   3.29149   3.29813   3.31201   3.31428
 Alpha virt. eigenvalues --    3.32772   3.33195   3.33527   3.33919   3.34473
 Alpha virt. eigenvalues --    3.34711   3.35175   3.36183   3.38123   3.38502
 Alpha virt. eigenvalues --    3.39134   3.39174   3.41602   3.42931   3.43743
 Alpha virt. eigenvalues --    3.44969   3.46026   3.46291   3.47181   3.47241
 Alpha virt. eigenvalues --    3.47807   3.48442   3.49204   3.49495   3.50671
 Alpha virt. eigenvalues --    3.51539   3.51610   3.52346   3.52729   3.53875
 Alpha virt. eigenvalues --    3.55069   3.55754   3.60186   3.60444   3.60563
 Alpha virt. eigenvalues --    3.62931   3.63823   3.64278   3.64497   3.64764
 Alpha virt. eigenvalues --    3.67481   3.68390   3.69384   3.71204   3.71455
 Alpha virt. eigenvalues --    3.73497   3.75556   3.76339   3.77125   3.77350
 Alpha virt. eigenvalues --    3.83533   3.84292   3.85069   3.86195   3.86247
 Alpha virt. eigenvalues --    3.87249   3.88422   3.89456   3.92362   3.93327
 Alpha virt. eigenvalues --    3.93632   3.95250   3.98774   3.98970   4.01269
 Alpha virt. eigenvalues --    4.03558   4.08030   4.09348   4.09816   4.10708
 Alpha virt. eigenvalues --    4.12015   4.12415   4.13272   4.14971   4.18800
 Alpha virt. eigenvalues --    4.19695   4.20543   4.21809   4.22534   4.22896
 Alpha virt. eigenvalues --    4.24448   4.26736   4.30803   4.31295   4.33419
 Alpha virt. eigenvalues --    4.35773   4.36211   4.37154   4.39286   4.39331
 Alpha virt. eigenvalues --    4.44050   4.45064   4.45783   4.46423   4.47191
 Alpha virt. eigenvalues --    4.47991   4.59495   4.60330   4.61176   4.63649
 Alpha virt. eigenvalues --    4.69252   4.69923   4.71821   4.72256   4.73918
 Alpha virt. eigenvalues --    4.74155   4.76021   4.77218   4.78723   4.81081
 Alpha virt. eigenvalues --    4.83281   4.84387   4.88621   4.89145   4.94203
 Alpha virt. eigenvalues --    4.94716   4.94736   4.95725   5.04747   5.07460
 Alpha virt. eigenvalues --    5.08730   5.09988   5.18082   5.18820   5.23289
 Alpha virt. eigenvalues --    5.24054   5.28371   5.31128   5.39653   5.39918
 Alpha virt. eigenvalues --    5.43732   5.44821   5.47566   5.48380   5.65967
 Alpha virt. eigenvalues --    5.69485   5.74448   5.75662   5.91051   5.95169
 Alpha virt. eigenvalues --    7.94302   7.95947   8.00495   8.02588   8.06017
 Alpha virt. eigenvalues --    8.07515   8.11141   8.11541   8.17225   8.17951
 Alpha virt. eigenvalues --    8.33361   8.35464  34.76394  34.78030  34.81300
 Alpha virt. eigenvalues --   34.82043  34.83759  34.86949  34.97528  34.97900
 Alpha virt. eigenvalues --   35.00307  35.01072  35.15305  35.18025
  Beta  occ. eigenvalues --  -10.28204 -10.28203 -10.28136 -10.28135 -10.28096
  Beta  occ. eigenvalues --  -10.28095 -10.28051 -10.28050 -10.27802 -10.27801
  Beta  occ. eigenvalues --  -10.27589 -10.27587  -0.93965  -0.93648  -0.83931
  Beta  occ. eigenvalues --   -0.83925  -0.83790  -0.83591  -0.71116  -0.71067
  Beta  occ. eigenvalues --   -0.67803  -0.67769  -0.59613  -0.59481  -0.57346
  Beta  occ. eigenvalues --   -0.56876  -0.53188  -0.52534  -0.50747  -0.50689
  Beta  occ. eigenvalues --   -0.49856  -0.49460  -0.47137  -0.46917  -0.45043
  Beta  occ. eigenvalues --   -0.44780  -0.41053  -0.40945  -0.39460  -0.39138
  Beta  occ. eigenvalues --   -0.39051  -0.38994  -0.29609  -0.27838
  Beta virt. eigenvalues --    0.04180   0.04649   0.11364   0.12911   0.14227
  Beta virt. eigenvalues --    0.15168   0.15181   0.16230   0.16371   0.16905
  Beta virt. eigenvalues --    0.17782   0.17796   0.18076   0.19216   0.20867
  Beta virt. eigenvalues --    0.21506   0.22500   0.23284   0.23389   0.24382
  Beta virt. eigenvalues --    0.25780   0.26502   0.26683   0.27470   0.28397
  Beta virt. eigenvalues --    0.28690   0.29596   0.29630   0.30413   0.30970
  Beta virt. eigenvalues --    0.31639   0.32012   0.32326   0.32702   0.33268
  Beta virt. eigenvalues --    0.33605   0.34677   0.35356   0.35750   0.37824
  Beta virt. eigenvalues --    0.38016   0.38436   0.40505   0.41433   0.41731
  Beta virt. eigenvalues --    0.42104   0.43481   0.44485   0.45691   0.46200
  Beta virt. eigenvalues --    0.46526   0.46907   0.48082   0.48580   0.48707
  Beta virt. eigenvalues --    0.49211   0.49585   0.49845   0.50374   0.50443
  Beta virt. eigenvalues --    0.51338   0.51409   0.51706   0.52335   0.52991
  Beta virt. eigenvalues --    0.53100   0.53680   0.54774   0.55035   0.55645
  Beta virt. eigenvalues --    0.57416   0.57645   0.57901   0.59696   0.59741
  Beta virt. eigenvalues --    0.60585   0.61772   0.62980   0.63527   0.64431
  Beta virt. eigenvalues --    0.64754   0.66558   0.68130   0.68818   0.69735
  Beta virt. eigenvalues --    0.70528   0.72901   0.73510   0.73902   0.75571
  Beta virt. eigenvalues --    0.76728   0.78556   0.78708   0.80166   0.81738
  Beta virt. eigenvalues --    0.82054   0.82779   0.84080   0.85958   0.86145
  Beta virt. eigenvalues --    0.86636   0.89297   0.91099   0.91262   0.92778
  Beta virt. eigenvalues --    0.93121   0.95435   0.96248   0.98544   0.99204
  Beta virt. eigenvalues --    1.01320   1.02894   1.04071   1.04100   1.04468
  Beta virt. eigenvalues --    1.06763   1.07722   1.08812   1.10136   1.11418
  Beta virt. eigenvalues --    1.12939   1.13225   1.14406   1.14981   1.15822
  Beta virt. eigenvalues --    1.16178   1.16375   1.17278   1.19393   1.20400
  Beta virt. eigenvalues --    1.21640   1.22906   1.23010   1.23954   1.24665
  Beta virt. eigenvalues --    1.24941   1.25942   1.26775   1.27705   1.29005
  Beta virt. eigenvalues --    1.29423   1.30387   1.32383   1.32402   1.33242
  Beta virt. eigenvalues --    1.34812   1.34997   1.35382   1.37217   1.38479
  Beta virt. eigenvalues --    1.39227   1.39233   1.40572   1.41046   1.41755
  Beta virt. eigenvalues --    1.42337   1.42579   1.43794   1.45032   1.45671
  Beta virt. eigenvalues --    1.45826   1.46346   1.46631   1.47283   1.48028
  Beta virt. eigenvalues --    1.49966   1.50837   1.52414   1.52855   1.55576
  Beta virt. eigenvalues --    1.56459   1.57203   1.57426   1.58526   1.60404
  Beta virt. eigenvalues --    1.61002   1.62297   1.62770   1.64710   1.65687
  Beta virt. eigenvalues --    1.68663   1.69238   1.69610   1.71169   1.75016
  Beta virt. eigenvalues --    1.75924   1.79611   1.80998   1.82126   1.82767
  Beta virt. eigenvalues --    1.87313   1.88154   1.88613   1.89354   1.91243
  Beta virt. eigenvalues --    1.92072   1.96029   2.00194   2.01206   2.01926
  Beta virt. eigenvalues --    2.03930   2.04690   2.06437   2.07463   2.09085
  Beta virt. eigenvalues --    2.09131   2.11871   2.12358   2.13334   2.15367
  Beta virt. eigenvalues --    2.19110   2.19324   2.20189   2.20410   2.22183
  Beta virt. eigenvalues --    2.23090   2.23135   2.23694   2.24840   2.26067
  Beta virt. eigenvalues --    2.28824   2.31237   2.37298   2.38096   2.40014
  Beta virt. eigenvalues --    2.42068   2.46017   2.47537   2.48606   2.49257
  Beta virt. eigenvalues --    2.50177   2.50205   2.51556   2.54222   2.54989
  Beta virt. eigenvalues --    2.55662   2.57312   2.57546   2.60101   2.60136
  Beta virt. eigenvalues --    2.61923   2.63786   2.64404   2.65318   2.66826
  Beta virt. eigenvalues --    2.67788   2.69150   2.69804   2.72177   2.72366
  Beta virt. eigenvalues --    2.73334   2.73352   2.75274   2.75946   2.76322
  Beta virt. eigenvalues --    2.77326   2.78319   2.78925   2.79941   2.80888
  Beta virt. eigenvalues --    2.81018   2.81714   2.82835   2.83782   2.83916
  Beta virt. eigenvalues --    2.85157   2.85531   2.86592   2.88885   2.88896
  Beta virt. eigenvalues --    2.89704   2.89890   2.92080   2.92601   2.92972
  Beta virt. eigenvalues --    2.93921   2.94770   2.94808   2.95928   2.99057
  Beta virt. eigenvalues --    3.01189   3.01879   3.03154   3.03568   3.06623
  Beta virt. eigenvalues --    3.06749   3.07922   3.08420   3.09587   3.10710
  Beta virt. eigenvalues --    3.11809   3.12085   3.12526   3.13886   3.14823
  Beta virt. eigenvalues --    3.15031   3.16822   3.17202   3.18480   3.18634
  Beta virt. eigenvalues --    3.19388   3.19486   3.19996   3.20864   3.21100
  Beta virt. eigenvalues --    3.21992   3.22582   3.23466   3.23725   3.24257
  Beta virt. eigenvalues --    3.25307   3.25535   3.27349   3.28251   3.28372
  Beta virt. eigenvalues --    3.28877   3.29149   3.29813   3.31201   3.31428
  Beta virt. eigenvalues --    3.32772   3.33195   3.33527   3.33919   3.34473
  Beta virt. eigenvalues --    3.34711   3.35175   3.36183   3.38123   3.38502
  Beta virt. eigenvalues --    3.39134   3.39174   3.41602   3.42931   3.43743
  Beta virt. eigenvalues --    3.44969   3.46026   3.46291   3.47181   3.47241
  Beta virt. eigenvalues --    3.47807   3.48442   3.49204   3.49495   3.50671
  Beta virt. eigenvalues --    3.51539   3.51610   3.52346   3.52729   3.53875
  Beta virt. eigenvalues --    3.55069   3.55754   3.60186   3.60444   3.60563
  Beta virt. eigenvalues --    3.62931   3.63823   3.64278   3.64497   3.64764
  Beta virt. eigenvalues --    3.67481   3.68390   3.69384   3.71204   3.71455
  Beta virt. eigenvalues --    3.73497   3.75556   3.76339   3.77125   3.77350
  Beta virt. eigenvalues --    3.83533   3.84292   3.85069   3.86195   3.86247
  Beta virt. eigenvalues --    3.87249   3.88422   3.89456   3.92362   3.93327
  Beta virt. eigenvalues --    3.93632   3.95250   3.98774   3.98970   4.01269
  Beta virt. eigenvalues --    4.03558   4.08030   4.09348   4.09816   4.10708
  Beta virt. eigenvalues --    4.12015   4.12415   4.13272   4.14971   4.18800
  Beta virt. eigenvalues --    4.19695   4.20543   4.21809   4.22534   4.22896
  Beta virt. eigenvalues --    4.24448   4.26736   4.30803   4.31295   4.33419
  Beta virt. eigenvalues --    4.35773   4.36211   4.37154   4.39286   4.39331
  Beta virt. eigenvalues --    4.44050   4.45064   4.45783   4.46423   4.47191
  Beta virt. eigenvalues --    4.47991   4.59495   4.60330   4.61176   4.63649
  Beta virt. eigenvalues --    4.69252   4.69923   4.71821   4.72256   4.73918
  Beta virt. eigenvalues --    4.74155   4.76021   4.77218   4.78723   4.81081
  Beta virt. eigenvalues --    4.83281   4.84387   4.88621   4.89145   4.94203
  Beta virt. eigenvalues --    4.94716   4.94736   4.95725   5.04747   5.07460
  Beta virt. eigenvalues --    5.08730   5.09988   5.18082   5.18820   5.23289
  Beta virt. eigenvalues --    5.24054   5.28371   5.31128   5.39653   5.39918
  Beta virt. eigenvalues --    5.43732   5.44821   5.47566   5.48380   5.65967
  Beta virt. eigenvalues --    5.69485   5.74448   5.75662   5.91051   5.95169
  Beta virt. eigenvalues --    7.94302   7.95947   8.00495   8.02588   8.06017
  Beta virt. eigenvalues --    8.07515   8.11141   8.11541   8.17225   8.17951
  Beta virt. eigenvalues --    8.33361   8.35464  34.76394  34.78030  34.81300
  Beta virt. eigenvalues --   34.82043  34.83759  34.86949  34.97528  34.97900
  Beta virt. eigenvalues --   35.00307  35.01072  35.15305  35.18025
          Condensed to atoms (all electrons):
               1          2          3          4          5          6
     1  C    5.144097   0.012489   0.421121  -0.001833   0.000052  -0.002405
     2  C    0.012489   5.228103  -0.001597   0.422890  -0.013751  -0.032129
     3  H    0.421121  -0.001597   0.490410   0.000027  -0.000041  -0.000050
     4  H   -0.001833   0.422890   0.000027   0.473543  -0.000926   0.000559
     5  C    0.000052  -0.013751  -0.000041  -0.000926   5.088948   0.545549
     6  C   -0.002405  -0.032129  -0.000050   0.000559   0.545549   5.228589
     7  H    0.000168  -0.000538  -0.000000  -0.000039   0.422365  -0.027445
     8  H   -0.000114   0.000553   0.000013  -0.000002  -0.040520   0.422833
     9  C    0.000736   0.000165   0.000000  -0.000397  -0.074764   0.268800
    10  H   -0.000007  -0.000274  -0.000001  -0.000029  -0.002927  -0.034290
    11  H   -0.000005  -0.000728  -0.000001  -0.000001   0.007596  -0.050039
    12  C   -0.000077   0.004904   0.000002   0.000618   0.313333  -0.073272
    13  H   -0.000000   0.000017   0.000000  -0.000010  -0.032811   0.003784
    14  C    0.000094  -0.002392   0.000000  -0.000123  -0.067563   0.012078
    15  H    0.000000  -0.000050  -0.000000   0.000013   0.006265  -0.001584
    16  C   -0.000448   0.004087  -0.000001   0.000369   0.010839  -0.073397
    17  H   -0.000075  -0.001295  -0.000001  -0.000459   0.010622  -0.001482
    18  H   -0.000000   0.000621   0.000000   0.000063  -0.002725   0.011152
    19  C   -0.067564   0.545758   0.006294  -0.040613   0.001295  -0.013813
    20  H    0.003235  -0.027267  -0.000098  -0.004785   0.000056  -0.000543
    21  C    0.580857  -0.073582  -0.030502   0.005456   0.000304   0.004937
    22  H   -0.023399   0.003842  -0.005256  -0.000064   0.000005   0.000017
    23  C   -0.084390   0.269116   0.004535  -0.014098   0.000170   0.000181
    24  H    0.012782  -0.050032  -0.000098  -0.003962   0.002876  -0.000730
    25  H    0.005240  -0.034325   0.000017  -0.000175   0.000144  -0.000273
    26  C    0.280728  -0.073389  -0.026250   0.003700  -0.001224   0.004098
    27  H   -0.039633   0.011112  -0.004516  -0.000106   0.000358   0.000620
    28  H   -0.035564  -0.001438   0.001104  -0.000138  -0.001200  -0.001282
               7          8          9         10         11         12
     1  C    0.000168  -0.000114   0.000736  -0.000007  -0.000005  -0.000077
     2  C   -0.000538   0.000553   0.000165  -0.000274  -0.000728   0.004904
     3  H   -0.000000   0.000013   0.000000  -0.000001  -0.000001   0.000002
     4  H   -0.000039  -0.000002  -0.000397  -0.000029  -0.000001   0.000618
     5  C    0.422365  -0.040520  -0.074764  -0.002927   0.007596   0.313333
     6  C   -0.027445   0.422833   0.268800  -0.034290  -0.050039  -0.073272
     7  H    0.479175  -0.004793   0.003001  -0.000264  -0.000036  -0.027876
     8  H   -0.004793   0.473824  -0.014193  -0.000174  -0.003963   0.005456
     9  C    0.003001  -0.014193   4.927662   0.386572   0.445678   0.036008
    10  H   -0.000264  -0.000174   0.386572   0.569592  -0.019799   0.001425
    11  H   -0.000036  -0.003963   0.445678  -0.019799   0.538213  -0.003843
    12  C   -0.027876   0.005456   0.036008   0.001425  -0.003843   5.005129
    13  H   -0.003005  -0.000065  -0.000175  -0.000056   0.000028   0.421954
    14  C    0.003198  -0.001826  -0.084156   0.005238   0.012791   0.581100
    15  H   -0.000098   0.000028   0.004533   0.000017  -0.000098  -0.030160
    16  C   -0.000576   0.003697   0.366336  -0.027354  -0.049800  -0.066002
    17  H    0.000033  -0.000138  -0.036612   0.007152  -0.007585  -0.014799
    18  H    0.000028  -0.000106  -0.044932  -0.007142  -0.001749   0.006573
    19  C    0.000057  -0.000937   0.000128   0.000144   0.002902   0.000301
    20  H    0.000005  -0.000040   0.000745   0.000040  -0.000169  -0.000059
    21  C   -0.000060   0.000628   0.000033   0.000022  -0.000459  -0.000184
    22  H   -0.000000  -0.000010  -0.000019  -0.000000  -0.000005  -0.000000
    23  C    0.000747  -0.000401   0.000015  -0.000004   0.000009   0.000045
    24  H   -0.000173  -0.000001   0.000010   0.000004  -0.000010  -0.000453
    25  H    0.000040  -0.000029  -0.000004   0.000000   0.000004   0.000022
    26  C   -0.000742   0.000373  -0.000394   0.000016   0.000016   0.000446
    27  H   -0.000015   0.000063  -0.000022   0.000001  -0.000001  -0.000049
    28  H    0.001093  -0.000468   0.000197  -0.000004   0.000030   0.000526
              13         14         15         16         17         18
     1  C   -0.000000   0.000094   0.000000  -0.000448  -0.000075  -0.000000
     2  C    0.000017  -0.002392  -0.000050   0.004087  -0.001295   0.000621
     3  H    0.000000   0.000000  -0.000000  -0.000001  -0.000001   0.000000
     4  H   -0.000010  -0.000123   0.000013   0.000369  -0.000459   0.000063
     5  C   -0.032811  -0.067563   0.006265   0.010839   0.010622  -0.002725
     6  C    0.003784   0.012078  -0.001584  -0.073397  -0.001482   0.011152
     7  H   -0.003005   0.003198  -0.000098  -0.000576   0.000033   0.000028
     8  H   -0.000065  -0.001826   0.000028   0.003697  -0.000138  -0.000106
     9  C   -0.000175  -0.084156   0.004533   0.366336  -0.036612  -0.044932
    10  H   -0.000056   0.005238   0.000017  -0.027354   0.007152  -0.007142
    11  H    0.000028   0.012791  -0.000098  -0.049800  -0.007585  -0.001749
    12  C    0.421954   0.581100  -0.030160  -0.066002  -0.014799   0.006573
    13  H    0.487704  -0.023596  -0.005248   0.003589  -0.000352  -0.000090
    14  C   -0.023596   5.144184   0.420798   0.280714  -0.035462  -0.039803
    15  H   -0.005248   0.420798   0.490257  -0.026284   0.001101  -0.004526
    16  C    0.003589   0.280714  -0.026284   4.923686   0.399261   0.436906
    17  H   -0.000352  -0.035462   0.001101   0.399261   0.591922  -0.021021
    18  H   -0.000090  -0.039803  -0.004526   0.436906  -0.021021   0.538270
    19  C    0.000005   0.000049  -0.000041  -0.001171  -0.001186   0.000357
    20  H   -0.000000   0.000168  -0.000000  -0.000743   0.001096  -0.000015
    21  C   -0.000000  -0.000078   0.000002   0.000444   0.000526  -0.000049
    22  H    0.000000  -0.000000   0.000000   0.000005  -0.000006  -0.000001
    23  C   -0.000020   0.000736   0.000000  -0.000398   0.000195  -0.000022
    24  H   -0.000005  -0.000005  -0.000001   0.000016   0.000030  -0.000001
    25  H   -0.000000  -0.000007  -0.000001   0.000016  -0.000004   0.000001
    26  C    0.000005  -0.000449  -0.000001   0.000921   0.000129  -0.000001
    27  H   -0.000001  -0.000000   0.000000  -0.000001   0.000003  -0.000000
    28  H   -0.000006  -0.000075  -0.000001   0.000130  -0.000020   0.000003
              19         20         21         22         23         24
     1  C   -0.067564   0.003235   0.580857  -0.023399  -0.084390   0.012782
     2  C    0.545758  -0.027267  -0.073582   0.003842   0.269116  -0.050032
     3  H    0.006294  -0.000098  -0.030502  -0.005256   0.004535  -0.000098
     4  H   -0.040613  -0.004785   0.005456  -0.000064  -0.014098  -0.003962
     5  C    0.001295   0.000056   0.000304   0.000005   0.000170   0.002876
     6  C   -0.013813  -0.000543   0.004937   0.000017   0.000181  -0.000730
     7  H    0.000057   0.000005  -0.000060  -0.000000   0.000747  -0.000173
     8  H   -0.000937  -0.000040   0.000628  -0.000010  -0.000401  -0.000001
     9  C    0.000128   0.000745   0.000033  -0.000019   0.000015   0.000010
    10  H    0.000144   0.000040   0.000022  -0.000000  -0.000004   0.000004
    11  H    0.002902  -0.000169  -0.000459  -0.000005   0.000009  -0.000010
    12  C    0.000301  -0.000059  -0.000184  -0.000000   0.000045  -0.000453
    13  H    0.000005  -0.000000  -0.000000   0.000000  -0.000020  -0.000005
    14  C    0.000049   0.000168  -0.000078  -0.000000   0.000736  -0.000005
    15  H   -0.000041  -0.000000   0.000002   0.000000   0.000000  -0.000001
    16  C   -0.001171  -0.000743   0.000444   0.000005  -0.000398   0.000016
    17  H   -0.001186   0.001096   0.000526  -0.000006   0.000195   0.000030
    18  H    0.000357  -0.000015  -0.000049  -0.000001  -0.000022  -0.000001
    19  C    5.089024   0.422231   0.313147  -0.032935  -0.074974   0.007579
    20  H    0.422231   0.479538  -0.028004  -0.003016   0.002990  -0.000037
    21  C    0.313147  -0.028004   5.005486   0.421809   0.036241  -0.003834
    22  H   -0.032935  -0.003016   0.421809   0.487671  -0.000175   0.000028
    23  C   -0.074974   0.002990   0.036241  -0.000175   4.927649   0.445709
    24  H    0.007579  -0.000037  -0.003834   0.000028   0.445709   0.538233
    25  H   -0.002899  -0.000263   0.001426  -0.000057   0.386534  -0.019803
    26  C    0.010652  -0.000585  -0.065954   0.003599   0.366373  -0.049808
    27  H   -0.002683   0.000028   0.006436  -0.000091  -0.044888  -0.001745
    28  H    0.010594   0.000033  -0.014683  -0.000352  -0.036755  -0.007580
              25         26         27         28
     1  C    0.005240   0.280728  -0.039633  -0.035564
     2  C   -0.034325  -0.073389   0.011112  -0.001438
     3  H    0.000017  -0.026250  -0.004516   0.001104
     4  H   -0.000175   0.003700  -0.000106  -0.000138
     5  C    0.000144  -0.001224   0.000358  -0.001200
     6  C   -0.000273   0.004098   0.000620  -0.001282
     7  H    0.000040  -0.000742  -0.000015   0.001093
     8  H   -0.000029   0.000373   0.000063  -0.000468
     9  C   -0.000004  -0.000394  -0.000022   0.000197
    10  H    0.000000   0.000016   0.000001  -0.000004
    11  H    0.000004   0.000016  -0.000001   0.000030
    12  C    0.000022   0.000446  -0.000049   0.000526
    13  H   -0.000000   0.000005  -0.000001  -0.000006
    14  C   -0.000007  -0.000449  -0.000000  -0.000075
    15  H   -0.000001  -0.000001   0.000000  -0.000001
    16  C    0.000016   0.000921  -0.000001   0.000130
    17  H   -0.000004   0.000129   0.000003  -0.000020
    18  H    0.000001  -0.000001  -0.000000   0.000003
    19  C   -0.002899   0.010652  -0.002683   0.010594
    20  H   -0.000263  -0.000585   0.000028   0.000033
    21  C    0.001426  -0.065954   0.006436  -0.014683
    22  H   -0.000057   0.003599  -0.000091  -0.000352
    23  C    0.386534   0.366373  -0.044888  -0.036755
    24  H   -0.019803  -0.049808  -0.001745  -0.007580
    25  H    0.569628  -0.027346  -0.007151   0.007158
    26  C   -0.027346   4.923638   0.436773   0.399378
    27  H   -0.007151   0.436773   0.538365  -0.021014
    28  H    0.007158   0.399378  -0.021014   0.592040
          Atomic-Atomic Spin Densities.
               1          2          3          4          5          6
     1  C   -0.000001  -0.000000   0.000000   0.000000   0.000000  -0.000000
     2  C   -0.000000   0.000000   0.000000   0.000000  -0.000000  -0.000000
     3  H    0.000000   0.000000   0.000000  -0.000000  -0.000000  -0.000000
     4  H    0.000000   0.000000  -0.000000   0.000000   0.000000  -0.000000
     5  C    0.000000  -0.000000  -0.000000   0.000000  -0.000001   0.000000
     6  C   -0.000000  -0.000000  -0.000000  -0.000000   0.000000   0.000000
     7  H   -0.000000   0.000000   0.000000  -0.000000   0.000000  -0.000000
     8  H    0.000000   0.000000  -0.000000  -0.000000  -0.000000  -0.000000
     9  C   -0.000000   0.000000  -0.000000  -0.000000   0.000000   0.000000
    10  H   -0.000000  -0.000000  -0.000000   0.000000  -0.000000   0.000000
    11  H    0.000000  -0.000000   0.000000   0.000000   0.000000  -0.000000
    12  C   -0.000000   0.000000   0.000000  -0.000000   0.000000  -0.000000
    13  H    0.000000   0.000000   0.000000   0.000000   0.000000  -0.000000
    14  C    0.000000   0.000000  -0.000000  -0.000000   0.000000   0.000000
    15  H    0.000000  -0.000000   0.000000   0.000000  -0.000000  -0.000000
    16  C   -0.000000   0.000000   0.000000   0.000000  -0.000000  -0.000000
    17  H    0.000000  -0.000000  -0.000000   0.000000   0.000000   0.000000
    18  H   -0.000000   0.000000  -0.000000   0.000000   0.000000  -0.000000
    19  C   -0.000000  -0.000000   0.000000   0.000000  -0.000000   0.000000
    20  H   -0.000000   0.000000   0.000000   0.000000  -0.000000  -0.000000
    21  C    0.000000   0.000000  -0.000000  -0.000000   0.000000  -0.000000
    22  H   -0.000000   0.000000  -0.000000  -0.000000   0.000000  -0.000000
    23  C   -0.000000  -0.000000   0.000000  -0.000000   0.000000  -0.000000
    24  H   -0.000000   0.000000  -0.000000   0.000000   0.000000   0.000000
    25  H   -0.000000  -0.000000   0.000000   0.000000  -0.000000   0.000000
    26  C    0.000000   0.000000   0.000000  -0.000000  -0.000000  -0.000000
    27  H    0.000000   0.000000  -0.000000   0.000000   0.000000   0.000000
    28  H    0.000000  -0.000000  -0.000000   0.000000  -0.000000   0.000000
               7          8          9         10         11         12
     1  C   -0.000000   0.000000  -0.000000  -0.000000   0.000000  -0.000000
     2  C    0.000000   0.000000   0.000000  -0.000000  -0.000000   0.000000
     3  H    0.000000  -0.000000  -0.000000  -0.000000   0.000000   0.000000
     4  H   -0.000000  -0.000000  -0.000000   0.000000   0.000000  -0.000000
     5  C    0.000000  -0.000000   0.000000  -0.000000   0.000000   0.000000
     6  C   -0.000000  -0.000000   0.000000   0.000000  -0.000000  -0.000000
     7  H    0.000000  -0.000000   0.000000  -0.000000  -0.000000  -0.000000
     8  H   -0.000000  -0.000000   0.000000  -0.000000  -0.000000   0.000000
     9  C    0.000000   0.000000  -0.000001  -0.000000   0.000000   0.000000
    10  H   -0.000000  -0.000000  -0.000000   0.000000  -0.000000   0.000000
    11  H   -0.000000  -0.000000   0.000000  -0.000000   0.000000  -0.000000
    12  C   -0.000000   0.000000   0.000000   0.000000  -0.000000   0.000000
    13  H    0.000000   0.000000   0.000000  -0.000000  -0.000000  -0.000000
    14  C    0.000000  -0.000000   0.000000   0.000000   0.000000  -0.000000
    15  H   -0.000000   0.000000  -0.000000  -0.000000  -0.000000   0.000000
    16  C   -0.000000   0.000000   0.000000  -0.000000  -0.000000   0.000000
    17  H   -0.000000  -0.000000   0.000000   0.000000  -0.000000   0.000000
    18  H    0.000000  -0.000000   0.000000   0.000000  -0.000000  -0.000000
    19  C    0.000000  -0.000000  -0.000000   0.000000  -0.000000  -0.000000
    20  H    0.000000   0.000000   0.000000  -0.000000   0.000000   0.000000
    21  C   -0.000000   0.000000  -0.000000  -0.000000   0.000000  -0.000000
    22  H    0.000000  -0.000000  -0.000000  -0.000000   0.000000   0.000000
    23  C    0.000000   0.000000  -0.000000   0.000000   0.000000  -0.000000
    24  H   -0.000000  -0.000000  -0.000000   0.000000  -0.000000  -0.000000
    25  H    0.000000  -0.000000  -0.000000  -0.000000  -0.000000   0.000000
    26  C   -0.000000  -0.000000   0.000000   0.000000   0.000000  -0.000000
    27  H   -0.000000  -0.000000  -0.000000   0.000000  -0.000000  -0.000000
    28  H    0.000000  -0.000000   0.000000   0.000000  -0.000000  -0.000000
              13         14         15         16         17         18
     1  C    0.000000   0.000000   0.000000  -0.000000   0.000000  -0.000000
     2  C    0.000000   0.000000  -0.000000   0.000000  -0.000000   0.000000
     3  H    0.000000  -0.000000   0.000000   0.000000  -0.000000  -0.000000
     4  H    0.000000  -0.000000   0.000000   0.000000   0.000000   0.000000
     5  C    0.000000   0.000000  -0.000000  -0.000000   0.000000   0.000000
     6  C   -0.000000   0.000000  -0.000000  -0.000000   0.000000  -0.000000
     7  H    0.000000   0.000000  -0.000000  -0.000000  -0.000000   0.000000
     8  H    0.000000  -0.000000   0.000000   0.000000  -0.000000  -0.000000
     9  C    0.000000   0.000000  -0.000000   0.000000   0.000000   0.000000
    10  H   -0.000000   0.000000  -0.000000  -0.000000   0.000000   0.000000
    11  H   -0.000000   0.000000  -0.000000  -0.000000  -0.000000  -0.000000
    12  C   -0.000000  -0.000000   0.000000   0.000000   0.000000  -0.000000
    13  H   -0.000000   0.000000   0.000000  -0.000000  -0.000000   0.000000
    14  C    0.000000   0.000000  -0.000000  -0.000000  -0.000000  -0.000000
    15  H    0.000000  -0.000000  -0.000000  -0.000000   0.000000   0.000000
    16  C   -0.000000  -0.000000  -0.000000   0.000001  -0.000000  -0.000000
    17  H   -0.000000  -0.000000   0.000000  -0.000000   0.000000   0.000000
    18  H    0.000000  -0.000000   0.000000  -0.000000   0.000000  -0.000000
    19  C   -0.000000  -0.000000   0.000000   0.000000   0.000000  -0.000000
    20  H   -0.000000   0.000000  -0.000000   0.000000  -0.000000   0.000000
    21  C   -0.000000   0.000000  -0.000000   0.000000   0.000000   0.000000
    22  H    0.000000  -0.000000  -0.000000   0.000000  -0.000000   0.000000
    23  C    0.000000   0.000000   0.000000  -0.000000  -0.000000   0.000000
    24  H   -0.000000  -0.000000  -0.000000  -0.000000   0.000000   0.000000
    25  H    0.000000   0.000000   0.000000  -0.000000  -0.000000  -0.000000
    26  C   -0.000000   0.000000  -0.000000  -0.000000   0.000000   0.000000
    27  H   -0.000000   0.000000  -0.000000  -0.000000   0.000000   0.000000
    28  H    0.000000  -0.000000   0.000000  -0.000000   0.000000  -0.000000
              19         20         21         22         23         24
     1  C   -0.000000  -0.000000   0.000000  -0.000000  -0.000000  -0.000000
     2  C   -0.000000   0.000000   0.000000   0.000000  -0.000000   0.000000
     3  H    0.000000   0.000000  -0.000000  -0.000000   0.000000  -0.000000
     4  H    0.000000   0.000000  -0.000000  -0.000000  -0.000000   0.000000
     5  C   -0.000000  -0.000000   0.000000   0.000000   0.000000   0.000000
     6  C    0.000000  -0.000000  -0.000000  -0.000000  -0.000000   0.000000
     7  H    0.000000   0.000000  -0.000000   0.000000   0.000000  -0.000000
     8  H   -0.000000   0.000000   0.000000  -0.000000   0.000000  -0.000000
     9  C   -0.000000   0.000000  -0.000000  -0.000000  -0.000000  -0.000000
    10  H    0.000000  -0.000000  -0.000000  -0.000000   0.000000   0.000000
    11  H   -0.000000   0.000000   0.000000   0.000000   0.000000  -0.000000
    12  C   -0.000000   0.000000  -0.000000   0.000000  -0.000000  -0.000000
    13  H   -0.000000  -0.000000  -0.000000   0.000000   0.000000  -0.000000
    14  C   -0.000000   0.000000   0.000000  -0.000000   0.000000  -0.000000
[...]
     2  C   -0.000000   0.000000   0.000000   0.000000
     3  H    0.000000   0.000000  -0.000000  -0.000000
     4  H    0.000000  -0.000000   0.000000   0.000000
     5  C   -0.000000  -0.000000   0.000000  -0.000000
     6  C    0.000000  -0.000000   0.000000   0.000000
     7  H    0.000000  -0.000000  -0.000000   0.000000
     8  H   -0.000000  -0.000000  -0.000000  -0.000000
     9  C   -0.000000   0.000000  -0.000000   0.000000
    10  H   -0.000000   0.000000   0.000000   0.000000
    11  H   -0.000000  -0.000000  -0.000000  -0.000000
    12  C    0.000000  -0.000000  -0.000000  -0.000000
    13  H    0.000000  -0.000000  -0.000000   0.000000
    14  C    0.000000   0.000000   0.000000  -0.000000
    15  H    0.000000  -0.000000  -0.000000   0.000000
    16  C   -0.000000  -0.000000  -0.000000  -0.000000
    17  H   -0.000000   0.000000   0.000000   0.000000
    18  H   -0.000000   0.000000   0.000000  -0.000000
    19  C    0.000000   0.000000  -0.000000  -0.000000
    20  H    0.000000   0.000000  -0.000000   0.000000
    21  C    0.000000  -0.000000   0.000000  -0.000000
    22  H    0.000000   0.000000  -0.000000   0.000000
    23  C    0.000000  -0.000000  -0.000000  -0.000000
    24  H    0.000000   0.000000   0.000000   0.000000
    25  H   -0.000000   0.000000  -0.000000  -0.000000
    26  C    0.000000  -0.000001   0.000000   0.000000
    27  H   -0.000000   0.000000   0.000000   0.000000
    28  H   -0.000000   0.000000   0.000000  -0.000000
 Mulliken charges and spin densities:
               1          2
     1  C   -0.205316  -0.000001
     2  C   -0.202001   0.000001
     3  H    0.148867   0.000000
     4  H    0.169901   0.000000
     5  C   -0.187872  -0.000001
     6  C   -0.203261   0.000001
     7  H    0.166447   0.000000
     8  H    0.169947  -0.000000
     9  C   -0.199045  -0.000001
    10  H    0.130271   0.000000
    11  H    0.136921   0.000000
    12  C   -0.166735   0.000000
    13  H    0.152356  -0.000000
    14  C   -0.203663  -0.000000
    15  H    0.148803   0.000000
    16  C   -0.188100   0.000000
    17  H    0.111460  -0.000000
    18  H    0.132570  -0.000000
    19  C   -0.188433  -0.000000
    20  H    0.166295  -0.000000
    21  C   -0.165047   0.000000
    22  H    0.152279   0.000000
    23  C   -0.198867   0.000001
    24  H    0.135621  -0.000000
    25  H    0.130270  -0.000000
    26  C   -0.186514  -0.000000
    27  H    0.132350   0.000000
    28  H    0.110497  -0.000000
 Sum of Mulliken charges =  -0.00000   0.00000
 Mulliken charges and spin densities with hydrogens summed into heavy atoms:
               1          2
     1  C   -0.056449  -0.000001
     2  C   -0.032100   0.000001
     5  C   -0.021425  -0.000000
     6  C   -0.033314   0.000001
     9  C    0.068147  -0.000000
    12  C   -0.014380   0.000000
    14  C   -0.054861  -0.000000
    16  C    0.055930   0.000000
    19  C   -0.022138  -0.000000
    21  C   -0.012768   0.000001
    23  C    0.067024   0.000000
    26  C    0.056333  -0.000000
 Electronic spatial extent (au):  <R**2>=           2373.2106
 Charge=             -0.0000 electrons
 Dipole moment (field-independent basis, Debye):
    X=             -0.0029    Y=             -0.0037    Z=             -0.0024  Tot=              0.0053
 Quadrupole moment (field-independent basis, Debye-Ang):
   XX=            -70.8820   YY=            -68.0219   ZZ=            -74.5386
   XY=             -3.1967   XZ=             -4.1162   YZ=             -1.6367
 Traceless Quadrupole moment (field-independent basis, Debye-Ang):
   XX=              0.2655   YY=              3.1256   ZZ=             -3.3911
   XY=             -3.1967   XZ=             -4.1162   YZ=             -1.6367
 Octapole moment (field-independent basis, Debye-Ang**2):
  XXX=             -0.0263  YYY=             -0.0239  ZZZ=             -0.0241  XYY=              0.0007
  XXY=              0.0005  XXZ=             -0.0190  XZZ=             -0.0199  YZZ=             -0.0109
  YYZ=              0.0116  XYZ=             -0.0023
 Hexadecapole moment (field-independent basis, Debye-Ang**3):
 XXXX=          -2089.0614 YYYY=           -607.7125 ZZZZ=           -483.6558 XXXY=           -124.9678
 XXXZ=           -192.7568 YYYX=            -73.2976 YYYZ=            -13.5136 ZZZX=           -132.1256
 ZZZY=            -28.3817 XXYY=           -441.2223 XXZZ=           -444.8284 YYZZ=           -196.8246
 XXYZ=            -28.9870 YYXZ=            -46.3672 ZZXY=            -49.6214
 N-N= 6.666714003937D+02 E-N=-2.415941995423D+03  KE= 4.642781170699D+02
                          Isotropic Fermi Contact Couplings
        Atom                 a.u.       MegaHertz       Gauss      10(-4) cm-1
     1  C(13)             -0.00000      -0.00006      -0.00002      -0.00002
     2  C(13)              0.00000       0.00000       0.00000       0.00000
     3  H(1)               0.00000       0.00003       0.00001       0.00001
     4  H(1)               0.00000       0.00002       0.00001       0.00001
     5  C(13)             -0.00000      -0.00017      -0.00006      -0.00006
     6  C(13)              0.00000       0.00007       0.00003       0.00002
     7  H(1)               0.00000       0.00024       0.00009       0.00008
     8  H(1)              -0.00000      -0.00007      -0.00002      -0.00002
     9  C(13)             -0.00000      -0.00021      -0.00007      -0.00007
    10  H(1)               0.00000       0.00011       0.00004       0.00004
    11  H(1)               0.00000       0.00011       0.00004       0.00004
    12  C(13)              0.00000       0.00014       0.00005       0.00005
    13  H(1)              -0.00000      -0.00021      -0.00008      -0.00007
    14  C(13)             -0.00000      -0.00002      -0.00001      -0.00001
    15  H(1)               0.00000       0.00003       0.00001       0.00001
    16  C(13)              0.00000       0.00014       0.00005       0.00005
    17  H(1)              -0.00000      -0.00007      -0.00003      -0.00002
    18  H(1)              -0.00000      -0.00006      -0.00002      -0.00002
    19  C(13)              0.00000       0.00009       0.00003       0.00003
    20  H(1)              -0.00000      -0.00020      -0.00007      -0.00007
    21  C(13)             -0.00000      -0.00006      -0.00002      -0.00002
    22  H(1)               0.00000       0.00017       0.00006       0.00006
    23  C(13)              0.00000       0.00017       0.00006       0.00006
    24  H(1)              -0.00000      -0.00009      -0.00003      -0.00003
    25  H(1)              -0.00000      -0.00005      -0.00002      -0.00002
    26  C(13)             -0.00000      -0.00011      -0.00004      -0.00004
    27  H(1)               0.00000       0.00004       0.00001       0.00001
    28  H(1)               0.00000       0.00001       0.00000       0.00000
 --------------------------------------------------------
       Center         ----  Spin Dipole Couplings  ----
                      3XX-RR        3YY-RR        3ZZ-RR
 --------------------------------------------------------
     1   Atom       -0.000000      0.000001     -0.000000
     2   Atom        0.000000     -0.000000      0.000000
     3   Atom        0.000000      0.000000     -0.000000
     4   Atom       -0.000000     -0.000000      0.000000
     5   Atom       -0.000000     -0.000000      0.000000
     6   Atom       -0.000000     -0.000000      0.000001
     7   Atom        0.000000     -0.000000      0.000000
     8   Atom        0.000000     -0.000000     -0.000000
     9   Atom       -0.000000      0.000000     -0.000000
    10   Atom        0.000000      0.000000     -0.000000
    11   Atom       -0.000000     -0.000000      0.000000
    12   Atom        0.000000      0.000000     -0.000000
    13   Atom       -0.000000      0.000000     -0.000000
    14   Atom        0.000000      0.000000     -0.000000
    15   Atom       -0.000000      0.000000      0.000000
    16   Atom        0.000000     -0.000000      0.000000
    17   Atom        0.000000     -0.000000      0.000000
    18   Atom        0.000000      0.000000     -0.000000
    19   Atom        0.000000      0.000000     -0.000001
    20   Atom       -0.000000      0.000000     -0.000000
    21   Atom       -0.000000     -0.000001      0.000001
    22   Atom        0.000000     -0.000000      0.000000
    23   Atom        0.000000     -0.000000      0.000000
    24   Atom       -0.000000      0.000000     -0.000000
    25   Atom        0.000000     -0.000000      0.000000
    26   Atom       -0.000000      0.000000     -0.000000
    27   Atom        0.000000     -0.000000      0.000000
    28   Atom       -0.000000      0.000000     -0.000000
 --------------------------------------------------------
                        XY            XZ            YZ
 --------------------------------------------------------
     1   Atom        0.000000     -0.000001      0.000000
     2   Atom        0.000000      0.000001      0.000000
     3   Atom       -0.000000      0.000000      0.000000
     4   Atom       -0.000000     -0.000000      0.000000
     5   Atom       -0.000000     -0.000000     -0.000000
     6   Atom       -0.000000      0.000000      0.000000
     7   Atom        0.000000      0.000000     -0.000000
     8   Atom        0.000000     -0.000000     -0.000000
     9   Atom       -0.000000      0.000000     -0.000000
    10   Atom        0.000000     -0.000000      0.000000
    11   Atom       -0.000000     -0.000000     -0.000000
    12   Atom        0.000000      0.000000     -0.000000
    13   Atom        0.000000     -0.000000     -0.000000
    14   Atom       -0.000000      0.000000     -0.000000
    15   Atom       -0.000000     -0.000000     -0.000000
    16   Atom       -0.000000     -0.000000     -0.000000
    17   Atom        0.000000      0.000000      0.000000
    18   Atom       -0.000000      0.000000     -0.000000
    19   Atom       -0.000000     -0.000000      0.000000
    20   Atom       -0.000000     -0.000000      0.000000
    21   Atom       -0.000000      0.000000      0.000000
    22   Atom        0.000000      0.000000      0.000000
    23   Atom        0.000000     -0.000000      0.000000
    24   Atom        0.000000      0.000000      0.000000
    25   Atom       -0.000000      0.000000     -0.000000
    26   Atom        0.000000      0.000000      0.000000
    27   Atom        0.000000     -0.000000      0.000000
    28   Atom       -0.000000     -0.000000     -0.000000
 --------------------------------------------------------


 ---------------------------------------------------------------------------------
              Anisotropic Spin Dipole Couplings in Principal Axis System
 ---------------------------------------------------------------------------------

       Atom             a.u.   MegaHertz   Gauss  10(-4) cm-1        Axes

              Baa    -0.0000    -0.000    -0.000    -0.000  0.7485 -0.1097  0.6541
     1 C(13)  Bbb     0.0000     0.000     0.000     0.000  0.0383  0.9917  0.1225
              Bcc     0.0000     0.000     0.000     0.000 -0.6621 -0.0667  0.7465
 
              Baa    -0.0000    -0.000    -0.000    -0.000 -0.6736  0.2985  0.6762
     2 C(13)  Bbb    -0.0000    -0.000    -0.000    -0.000 -0.0078  0.9119 -0.4104
              Bcc     0.0000     0.000     0.000     0.000  0.7391  0.2817  0.6119
 
              Baa    -0.0000    -0.000    -0.000    -0.000 -0.3876 -0.1657  0.9068
     3 H(1)   Bbb     0.0000     0.000     0.000     0.000  0.9172  0.0298  0.3974
              Bcc     0.0000     0.000     0.000     0.000 -0.0929  0.9857  0.1404
 
              Baa    -0.0000    -0.000    -0.000    -0.000 -0.1862  0.9523 -0.2419
     4 H(1)   Bbb    -0.0000    -0.000    -0.000    -0.000  0.9207  0.2551  0.2954
              Bcc     0.0000     0.000     0.000     0.000 -0.3430  0.1677  0.9242
 
              Baa    -0.0000    -0.000    -0.000    -0.000  0.8254  0.3247  0.4617
     5 C(13)  Bbb    -0.0000    -0.000    -0.000    -0.000 -0.4295  0.8921  0.1405
              Bcc     0.0000     0.000     0.000     0.000 -0.3663 -0.3143  0.8758
 
              Baa    -0.0000    -0.000    -0.000    -0.000  0.8255  0.5374 -0.1724
     6 C(13)  Bbb    -0.0000    -0.000    -0.000    -0.000 -0.5503  0.8342 -0.0345
              Bcc     0.0000     0.000     0.000     0.000  0.1253  0.1234  0.9844
 
              Baa    -0.0000    -0.000    -0.000    -0.000 -0.5066  0.8241  0.2537
     7 H(1)   Bbb     0.0000     0.000     0.000     0.000  0.7399  0.2645  0.6185
              Bcc     0.0000     0.000     0.000     0.000 -0.4426 -0.5010  0.7437
 
              Baa    -0.0000    -0.000    -0.000    -0.000 -0.0871  0.8215  0.5635
     8 H(1)   Bbb    -0.0000    -0.000    -0.000    -0.000  0.1126 -0.5539  0.8249
              Bcc     0.0000     0.000     0.000     0.000  0.9898  0.1353 -0.0442
 
              Baa    -0.0000    -0.000    -0.000    -0.000  0.7125  0.1151 -0.6922
     9 C(13)  Bbb     0.0000     0.000     0.000     0.000  0.4962  0.6150  0.6129
              Bcc     0.0000     0.000     0.000     0.000 -0.4962  0.7801 -0.3810
 
              Baa    -0.0000    -0.000    -0.000    -0.000  0.5162 -0.1401  0.8449
    10 H(1)   Bbb     0.0000     0.000     0.000     0.000  0.8477  0.2244 -0.4807
              Bcc     0.0000     0.000     0.000     0.000 -0.1222  0.9644  0.2346
 
              Baa    -0.0000    -0.000    -0.000    -0.000  0.5999  0.7983  0.0540
    11 H(1)   Bbb     0.0000     0.000     0.000     0.000 -0.3151  0.1737  0.9330
              Bcc     0.0000     0.000     0.000     0.000  0.7354 -0.5767  0.3557
 
              Baa    -0.0000    -0.000    -0.000    -0.000 -0.1917  0.1453  0.9706
    12 C(13)  Bbb     0.0000     0.000     0.000     0.000 -0.3254  0.9236 -0.2025
              Bcc     0.0000     0.000     0.000     0.000  0.9259  0.3547  0.1298
 
              Baa    -0.0000    -0.000    -0.000    -0.000 -0.2141  0.3954  0.8932
    13 H(1)   Bbb    -0.0000    -0.000    -0.000    -0.000  0.9433 -0.1539  0.2942
              Bcc     0.0000     0.000     0.000     0.000  0.2538  0.9055 -0.3400
 
              Baa    -0.0000    -0.000    -0.000    -0.000 -0.1239  0.0362  0.9916
    14 C(13)  Bbb     0.0000     0.000     0.000     0.000  0.2496  0.9683 -0.0042
              Bcc     0.0000     0.000     0.000     0.000  0.9604 -0.2470  0.1290
 
              Baa    -0.0000    -0.000    -0.000    -0.000  0.9938  0.0309  0.1067
    15 H(1)   Bbb     0.0000     0.000     0.000     0.000 -0.0559  0.9692  0.2399
              Bcc     0.0000     0.000     0.000     0.000 -0.0960 -0.2444  0.9649
 
              Baa    -0.0000    -0.000    -0.000    -0.000  0.3700  0.8746  0.3133
    16 C(13)  Bbb    -0.0000    -0.000    -0.000    -0.000  0.6638 -0.4849  0.5695
              Bcc     0.0000     0.000     0.000     0.000 -0.6500  0.0027  0.7599
 
              Baa    -0.0000    -0.000    -0.000    -0.000 -0.0228  0.9110 -0.4117
    17 H(1)   Bbb    -0.0000    -0.000    -0.000    -0.000  0.8210 -0.2179 -0.5277
              Bcc     0.0000     0.000     0.000     0.000  0.5705  0.3500  0.7430
 
              Baa    -0.0000    -0.000    -0.000    -0.000  0.6593  0.6801  0.3207
    18 H(1)   Bbb    -0.0000    -0.000    -0.000    -0.000 -0.3395 -0.1113  0.9340
              Bcc     0.0000     0.000     0.000     0.000 -0.6709  0.7246 -0.1575
 
              Baa    -0.0000    -0.000    -0.000    -0.000  0.1726  0.0060  0.9850
    19 C(13)  Bbb     0.0000     0.000     0.000     0.000  0.8812  0.4458 -0.1571
              Bcc     0.0000     0.000     0.000     0.000 -0.4401  0.8951  0.0717
 
              Baa    -0.0000    -0.000    -0.000    -0.000  0.4692 -0.0325  0.8825
    20 H(1)   Bbb    -0.0000    -0.000    -0.000    -0.000  0.7707  0.5029 -0.3912
              Bcc     0.0000     0.000     0.000     0.000 -0.4311  0.8637  0.2610
 
              Baa    -0.0000    -0.000    -0.000    -0.000  0.3667  0.9230 -0.1164
    21 C(13)  Bbb    -0.0000    -0.000    -0.000    -0.000  0.8818 -0.3848 -0.2727
              Bcc     0.0000     0.000     0.000     0.000  0.2965  0.0026  0.9550
 
              Baa    -0.0000    -0.000    -0.000    -0.000 -0.1068  0.9713 -0.2127
    22 H(1)   Bbb    -0.0000    -0.000    -0.000    -0.000  0.8425 -0.0251 -0.5381
              Bcc     0.0000     0.000     0.000     0.000  0.5279  0.2367  0.8156
 
              Baa    -0.0000    -0.000    -0.000    -0.000 -0.4512  0.8224 -0.3464
    23 C(13)  Bbb    -0.0000    -0.000    -0.000    -0.000  0.5351  0.5600  0.6325
              Bcc     0.0000     0.000     0.000     0.000  0.7142  0.1000 -0.6928
 
              Baa    -0.0000    -0.000    -0.000    -0.000  0.6424 -0.4347  0.6312
    24 H(1)   Bbb    -0.0000    -0.000    -0.000    -0.000 -0.5700  0.2796  0.7726
              Bcc     0.0000     0.000     0.000     0.000  0.5123  0.8561  0.0681
 
              Baa    -0.0000    -0.000    -0.000    -0.000  0.6716  0.6565 -0.3436
    25 H(1)   Bbb    -0.0000    -0.000    -0.000    -0.000 -0.4282  0.7223  0.5431
              Bcc     0.0000     0.000     0.000     0.000  0.6047 -0.2176  0.7662
 
              Baa    -0.0000    -0.000    -0.000    -0.000 -0.6520 -0.0098  0.7582
    26 C(13)  Bbb     0.0000     0.000     0.000     0.000  0.6869 -0.4309  0.5852
              Bcc     0.0000     0.000     0.000     0.000  0.3210  0.9023  0.2877
 
              Baa    -0.0000    -0.000    -0.000    -0.000 -0.5401  0.8174 -0.2001
    27 H(1)   Bbb     0.0000     0.000     0.000     0.000  0.7224  0.3283 -0.6086
              Bcc     0.0000     0.000     0.000     0.000  0.4318  0.4733  0.7678
 
              Baa    -0.0000    -0.000    -0.000    -0.000  0.6482  0.5682  0.5069
    28 H(1)   Bbb     0.0000     0.000     0.000     0.000 -0.3267 -0.3939  0.8592
              Bcc     0.0000     0.000     0.000     0.000 -0.6878  0.7225  0.0697
 

 ---------------------------------------------------------------------------------

 No NMR shielding tensors so no spin-rotation constants.
 Leave Link  601 at Mon Aug  3 19:06:41 2020, MaxMem=  6442450944 cpu:               7.9 elap:               0.4
 (Enter /scratch/scicomp/CentOS/7.3.1611/Haswell/software/Gaussian/g16/l9999.exe)
 1\1\GINC-ATLAS-205\SP\UwB97XD\def2TZVP\C12H16\BOCHEN\03-Aug-2020\0\\#p
  uwb97xd guess=mix def2tzvp # scrf=(iefpcm,solvent=Cyclohexane,read) n
 osym 6d 10f\\endo-2 xp-pcm for eta=3\\0,1\C,0,-3.10074,-0.436725,0.295
 815\C,0,-0.857979,-0.286324,-1.428905\H,0,-3.998989,-0.507198,0.898194
 \H,0,0.044923,-0.220426,-2.024218\C,0,1.256794,1.450448,0.922302\C,0,0
 .857979,0.286324,1.428905\H,0,0.679926,2.352386,1.089821\H,0,-0.044923
 ,0.220426,2.024218\C,0,1.678016,-0.959021,1.24721\H,0,2.333558,-1.0640
 55,2.121932\H,0,1.030749,-1.837588,1.242211\C,0,2.491654,1.537925,0.14
 0607\H,0,2.894748,2.517041,-0.088961\C,0,3.10074,0.436725,-0.295815\H,
 0,3.998989,0.507198,-0.898194\C,0,2.520053,-0.925099,-0.029697\H,0,1.8
 98127,-1.206584,-0.888225\H,0,3.312455,-1.673451,0.027707\C,0,-1.25679
 4,-1.450448,-0.922302\H,0,-0.679926,-2.352386,-1.089821\C,0,-2.491654,
 -1.537925,-0.140607\H,0,-2.894748,-2.517041,0.088961\C,0,-1.678016,0.9
 59021,-1.24721\H,0,-1.030749,1.837588,-1.242211\H,0,-2.333558,1.064055
 ,-2.121932\C,0,-2.520053,0.925099,0.029697\H,0,-3.312455,1.673451,-0.0
 27707\H,0,-1.898127,1.206584,0.888225\\Version=ES64L-G16RevB.01\HF=-46
 6.8129003\S2=0.\S2-1=0.\S2A=0.\RMSD=7.903e-09\Dipole=-0.0011512,-0.001
 4739,-0.0009481\Quadrupole=0.1973565,2.3238316,-2.521188,-2.3766707,-3
 .0603215,-1.216829\PG=CI [X(C12H16)]\\@


 THE RED LIGHT IS ALWAYS LONGER THAN THE GREEN LIGHT.

                     -- PETER'S THEORY OF RELATIVITY
 Job cpu time:       0 days  2 hours  5 minutes 21.7 seconds.
 Elapsed time:       0 days  0 hours  5 minutes 16.7 seconds.
 File lengths (MBytes):  RWF=    662 Int=      0 D2E=      0 Chk=     25 Scr=      1
 Normal termination of Gaussian 16 at Mon Aug  3 19:06:41 2020.
