 Entering Gaussian System, Link 0=g16
 Input=meso-TS_28_1_pcm.com
 Output=meso-TS_28_1_pcm.log
 Initial command:
 /scratch/scicomp/CentOS/7.3.1611/Haswell/software/Gaussian/g16/l1.exe "/scratch/bochen/cyclohexadiene-dimerization/wb97xd-def2tzvp/xp-pcm/meso/Gau-63317.inp" -scrdir="/scratch/bochen/cyclohexadiene-dimerization/wb97xd-def2tzvp/xp-pcm/meso/"
 Entering Link 1 = /scratch/scicomp/CentOS/7.3.1611/Haswell/software/Gaussian/g16/l1.exe PID=     63318.
  
 Copyright (c) 1988-2017, Gaussian, Inc.  All Rights Reserved.
  
 This is part of the Gaussian(R) 16 program.  It is based on
 the Gaussian(R) 09 system (copyright 2009, Gaussian, Inc.),
 the Gaussian(R) 03 system (copyright 2003, Gaussian, Inc.),
 the Gaussian(R) 98 system (copyright 1998, Gaussian, Inc.),
 the Gaussian(R) 94 system (copyright 1995, Gaussian, Inc.),
 the Gaussian 92(TM) system (copyright 1992, Gaussian, Inc.),
 the Gaussian 90(TM) system (copyright 1990, Gaussian, Inc.),
 the Gaussian 88(TM) system (copyright 1988, Gaussian, Inc.),
 the Gaussian 86(TM) system (copyright 1986, Carnegie Mellon
 University), and the Gaussian 82(TM) system (copyright 1983,
 Carnegie Mellon University). Gaussian is a federally registered
 trademark of Gaussian, Inc.
  
 This software contains proprietary and confidential information,
 including trade secrets, belonging to Gaussian, Inc.
  
 This software is provided under written license and may be
 used, copied, transmitted, or stored only in accord with that
 written license.
  
 The following legend is applicable only to US Government
 contracts under FAR:
  
                    RESTRICTED RIGHTS LEGEND
  
 Use, reproduction and disclosure by the US Government is
 subject to restrictions as set forth in subparagraphs (a)
 and (c) of the Commercial Computer Software - Restricted
 Rights clause in FAR 52.227-19.
  
 Gaussian, Inc.
 340 Quinnipiac St., Bldg. 40, Wallingford CT 06492
  
  
 ---------------------------------------------------------------
 Warning -- This program may not be used in any manner that
 competes with the business of Gaussian, Inc. or will provide
 assistance to any competitor of Gaussian, Inc.  The licensee
 of this program is prohibited from giving any competitor of
 Gaussian, Inc. access to this program.  By using this program,
 the user acknowledges that Gaussian, Inc. is engaged in the
 business of creating and licensing software in the field of
 computational chemistry and represents and warrants to the
 licensee that it is not a competitor of Gaussian, Inc. and that
 it will not use this program in any manner prohibited above.
 ---------------------------------------------------------------
  

 Cite this work as:
 Gaussian 16, Revision B.01,
 M. J. Frisch, G. W. Trucks, H. B. Schlegel, G. E. Scuseria, 
 M. A. Robb, J. R. Cheeseman, G. Scalmani, V. Barone, 
 G. A. Petersson, H. Nakatsuji, X. Li, M. Caricato, A. V. Marenich, 
 J. Bloino, B. G. Janesko, R. Gomperts, B. Mennucci, H. P. Hratchian, 
 J. V. Ortiz, A. F. Izmaylov, J. L. Sonnenberg, D. Williams-Young, 
 F. Ding, F. Lipparini, F. Egidi, J. Goings, B. Peng, A. Petrone, 
 T. Henderson, D. Ranasinghe, V. G. Zakrzewski, J. Gao, N. Rega, 
 G. Zheng, W. Liang, M. Hada, M. Ehara, K. Toyota, R. Fukuda, 
 J. Hasegawa, M. Ishida, T. Nakajima, Y. Honda, O. Kitao, H. Nakai, 
 T. Vreven, K. Throssell, J. A. Montgomery, Jr., J. E. Peralta, 
 F. Ogliaro, M. J. Bearpark, J. J. Heyd, E. N. Brothers, K. N. Kudin, 
 V. N. Staroverov, T. A. Keith, R. Kobayashi, J. Normand, 
 K. Raghavachari, A. P. Rendell, J. C. Burant, S. S. Iyengar, 
 J. Tomasi, M. Cossi, J. M. Millam, M. Klene, C. Adamo, R. Cammi, 
 J. W. Ochterski, R. L. Martin, K. Morokuma, O. Farkas, 
 J. B. Foresman, and D. J. Fox, Gaussian, Inc., Wallingford CT, 2016.
 
 ******************************************
 Gaussian 16:  ES64L-G16RevB.01 20-Dec-2017
                 3-Aug-2020 
 ******************************************
 %nproc=24
 Will use up to   24 processors via shared memory.
 %mem=48GB
 ----------------------------------------------------------------------
 #p uwb97xd guess=mix def2tzvp # scrf=(iefpcm,solvent=Cyclohexane,read)
  nosym 6d 10f
 ----------------------------------------------------------------------
 1/38=1,40=2,172=1/1;
 2/12=2,15=1,17=6,18=5,40=1/2;
 3/5=44,7=101,8=22,11=2,25=1,30=1,70=2203,72=17,74=-58,116=2/1,2,3;
 4/13=-1/1;
 5/5=2,38=5,53=17/2;
 6/7=2,8=2,9=2,10=2,28=1/1;
 99/5=1,9=1/99;
 Leave Link    1 at Mon Aug  3 17:07:16 2020, MaxMem=  6442450944 cpu:               1.7 elap:               0.1
 (Enter /scratch/scicomp/CentOS/7.3.1611/Haswell/software/Gaussian/g16/l101.exe)
 -----------------------
 endo-2 xp-pcm for eta=3
 -----------------------
 Symbolic Z-matrix:
 Charge =  0 Multiplicity = 1
 6                    -3.13093  -0.42393   0.23061 
 6                    -0.40267  -0.12519  -0.66171 
 1                    -4.12172  -0.5441    0.65102 
 1                     0.32493  -0.12603  -1.47787 
 6                     1.1047    1.44386   0.61466 
 6                     0.40267   0.12519   0.66171 
 1                     0.57031   2.34209   0.89702 
 1                    -0.32493   0.12603   1.47787 
 6                     1.42607  -0.98372   0.93657 
 1                     1.82768  -0.8303    1.94152 
 1                     0.94004  -1.96043   0.93466 
 6                     2.40205   1.5339    0.1426 
 1                     2.86056   2.51289   0.05474 
 6                     3.13093   0.42393  -0.23061 
 1                     4.12172   0.5441   -0.65102 
 6                     2.58456  -0.95794  -0.06035 
 1                     2.25812  -1.34829  -1.03374 
 1                     3.377    -1.63473   0.27045 
 6                    -1.1047   -1.44386  -0.61466 
 1                    -0.57031  -2.34209  -0.89702 
 6                    -2.40205  -1.5339   -0.1426 
 1                    -2.86056  -2.51289  -0.05474 
 6                    -1.42607   0.98372  -0.93657 
 1                    -0.94004   1.96043  -0.93466 
 1                    -1.82768   0.8303   -1.94152 
 6                    -2.58456   0.95794   0.06035 
 1                    -3.377     1.63473  -0.27045 
 1                    -2.25812   1.34829   1.03374 
 
 ITRead=  0  0  0  0  0  0  0  0  0  0  0  0  0  0  0  0  0  0  0  0
 ITRead=  0  0  0  0  0  0  0  0
 MicOpt= -1 -1 -1 -1 -1 -1 -1 -1 -1 -1 -1 -1 -1 -1 -1 -1 -1 -1 -1 -1
 MicOpt= -1 -1 -1 -1 -1 -1 -1 -1
 NAtoms=     28 NQM=       28 NQMF=       0 NMMI=      0 NMMIF=      0
                NMic=       0 NMicF=      0.
                    Isotopes and Nuclear Properties:
 (Nuclear quadrupole moments (NQMom) in fm**2, nuclear magnetic moments (NMagM)
  in nuclear magnetons)

  Atom         1           2           3           4           5           6           7           8           9          10
 IAtWgt=          12          12           1           1          12          12           1           1          12           1
 AtmWgt=  12.0000000  12.0000000   1.0078250   1.0078250  12.0000000  12.0000000   1.0078250   1.0078250  12.0000000   1.0078250
 NucSpn=           0           0           1           1           0           0           1           1           0           1
 AtZEff=  -0.0000000  -0.0000000  -0.0000000  -0.0000000  -0.0000000  -0.0000000  -0.0000000  -0.0000000  -0.0000000  -0.0000000
 NQMom=    0.0000000   0.0000000   0.0000000   0.0000000   0.0000000   0.0000000   0.0000000   0.0000000   0.0000000   0.0000000
 NMagM=    0.0000000   0.0000000   2.7928460   2.7928460   0.0000000   0.0000000   2.7928460   2.7928460   0.0000000   2.7928460
 AtZNuc=   6.0000000   6.0000000   1.0000000   1.0000000   6.0000000   6.0000000   1.0000000   1.0000000   6.0000000   1.0000000

  Atom        11          12          13          14          15          16          17          18          19          20
 IAtWgt=           1          12           1          12           1          12           1           1          12           1
 AtmWgt=   1.0078250  12.0000000   1.0078250  12.0000000   1.0078250  12.0000000   1.0078250   1.0078250  12.0000000   1.0078250
 NucSpn=           1           0           1           0           1           0           1           1           0           1
 AtZEff=  -0.0000000  -0.0000000  -0.0000000  -0.0000000  -0.0000000  -0.0000000  -0.0000000  -0.0000000  -0.0000000  -0.0000000
 NQMom=    0.0000000   0.0000000   0.0000000   0.0000000   0.0000000   0.0000000   0.0000000   0.0000000   0.0000000   0.0000000
 NMagM=    2.7928460   0.0000000   2.7928460   0.0000000   2.7928460   0.0000000   2.7928460   2.7928460   0.0000000   2.7928460
 AtZNuc=   1.0000000   6.0000000   1.0000000   6.0000000   1.0000000   6.0000000   1.0000000   1.0000000   6.0000000   1.0000000

  Atom        21          22          23          24          25          26          27          28
 IAtWgt=          12           1          12           1           1          12           1           1
 AtmWgt=  12.0000000   1.0078250  12.0000000   1.0078250   1.0078250  12.0000000   1.0078250   1.0078250
 NucSpn=           0           1           0           1           1           0           1           1
 AtZEff=  -0.0000000  -0.0000000  -0.0000000  -0.0000000  -0.0000000  -0.0000000  -0.0000000  -0.0000000
 NQMom=    0.0000000   0.0000000   0.0000000   0.0000000   0.0000000   0.0000000   0.0000000   0.0000000
 NMagM=    0.0000000   2.7928460   0.0000000   2.7928460   2.7928460   0.0000000   2.7928460   2.7928460
 AtZNuc=   6.0000000   1.0000000   6.0000000   1.0000000   1.0000000   6.0000000   1.0000000   1.0000000
 Leave Link  101 at Mon Aug  3 17:07:16 2020, MaxMem=  6442450944 cpu:               2.4 elap:               0.1
 (Enter /scratch/scicomp/CentOS/7.3.1611/Haswell/software/Gaussian/g16/l202.exe)
                          Input orientation:                          
 ---------------------------------------------------------------------
 Center     Atomic      Atomic             Coordinates (Angstroms)
 Number     Number       Type             X           Y           Z
 ---------------------------------------------------------------------
      1          6           0       -3.130926   -0.423925    0.230614
      2          6           0       -0.402668   -0.125188   -0.661714
      3          1           0       -4.121721   -0.544101    0.651020
      4          1           0        0.324925   -0.126026   -1.477873
      5          6           0        1.104701    1.443859    0.614659
      6          6           0        0.402668    0.125188    0.661714
      7          1           0        0.570306    2.342088    0.897018
      8          1           0       -0.324925    0.126026    1.477873
      9          6           0        1.426074   -0.983719    0.936566
     10          1           0        1.827679   -0.830304    1.941515
     11          1           0        0.940037   -1.960429    0.934664
     12          6           0        2.402045    1.533898    0.142597
     13          1           0        2.860563    2.512891    0.054740
     14          6           0        3.130926    0.423925   -0.230614
     15          1           0        4.121721    0.544101   -0.651020
     16          6           0        2.584558   -0.957939   -0.060346
     17          1           0        2.258123   -1.348285   -1.033742
     18          1           0        3.376997   -1.634728    0.270453
     19          6           0       -1.104701   -1.443859   -0.614659
     20          1           0       -0.570306   -2.342088   -0.897018
     21          6           0       -2.402045   -1.533898   -0.142597
     22          1           0       -2.860563   -2.512891   -0.054740
     23          6           0       -1.426074    0.983719   -0.936566
     24          1           0       -0.940037    1.960429   -0.934664
     25          1           0       -1.827679    0.830304   -1.941515
     26          6           0       -2.584558    0.957939    0.060346
     27          1           0       -3.376997    1.634728   -0.270453
     28          1           0       -2.258122    1.348285    1.033742
 ---------------------------------------------------------------------
                    Distance matrix (angstroms):
                    1          2          3          4          5
     1  C    0.000000
     2  C    2.885981   0.000000
     3  H    1.082986   3.966121   0.000000
     4  H    3.866598   1.093393   4.947690   0.000000
     5  C    4.645067   2.522538   5.591851   2.729703   0.000000
     6  C    3.601897   1.569304   4.573637   2.155687   1.494643
     7  H    4.668409   3.076325   5.514138   3.433934   1.082645
     8  H    3.119574   2.155687   3.943148   3.036819   2.127358
     9  C    4.645211   2.576019   5.572507   2.788850   2.469826
    10  H    5.261187   3.499777   6.094477   3.800854   2.730396
    11  H    4.407865   2.778379   5.263823   3.092528   3.423258
    12  C    5.869803   3.356471   6.865573   3.113792   1.383492
    13  H    6.674860   4.256929   7.645459   3.967650   2.130584
    14  C    6.335801   3.601897   7.369887   3.119574   2.420814
    15  H    7.369887   4.573637   8.416283   3.943148   3.393216
    16  C    5.747746   3.158898   6.756588   2.794173   2.900731
    17  H    5.612031   2.951979   6.647371   2.329898   3.441464
    18  H    6.619720   4.175346   7.587165   3.827267   3.841810
    19  C    2.420814   1.494643   3.393216   2.127358   3.838176
    20  H    3.392297   2.235647   4.271034   2.459626   4.407291
    21  C    1.379346   2.500291   2.137010   3.346854   4.662375
    22  H    2.125630   3.480056   2.442284   4.227265   5.641568
    23  C    2.500058   1.533812   3.481548   2.142556   3.003806
    24  H    3.441368   2.170960   4.348583   2.499700   2.616907
    25  H    2.826604   2.140447   3.724628   2.400674   3.938188
    26  C    1.495680   2.540704   2.228876   3.464995   3.762182
    27  H    2.132996   3.478077   2.480125   4.273446   4.572250
    28  H    2.132494   2.913486   2.683394   3.892805   3.390183
                    6          7          8          9         10
     6  C    0.000000
     7  H    2.235647   0.000000
     8  H    1.093393   2.459626   0.000000
     9  C    1.533812   3.434370   2.142556   0.000000
    10  H    2.140447   3.568758   2.400674   1.093044   0.000000
    11  H    2.170960   4.318538   2.499700   1.090962   1.754662
    12  C    2.500291   2.139530   3.346854   2.814481   3.025798
    13  H    3.480056   2.446198   4.227265   3.880935   3.975390
    14  C    2.885981   3.392297   3.866598   2.500058   2.826604
    15  H    3.966121   4.271034   4.947690   3.481548   3.724628
    16  C    2.540704   3.982956   3.464995   1.528589   2.143969
    17  H    2.913487   4.493931   3.892806   2.169638   3.050531
    18  H    3.478077   4.907664   4.273446   2.161856   2.416595
    19  C    2.522538   4.407291   2.729703   3.003806   3.938188
    20  H    3.076325   5.144032   3.433934   3.031951   4.011620
    21  C    3.356471   4.993890   3.113792   4.015194   4.767508
    22  H    4.256929   6.020592   3.967650   4.657930   5.366167
    23  C    2.576019   3.031951   2.788850   3.938805   4.707541
    24  H    2.778379   2.404550   3.092528   4.215209   4.870405
    25  H    3.499777   4.011620   3.800854   4.707541   5.585444
    26  C    3.158898   3.545286   2.794173   4.541252   5.119028
    27  H    4.175346   4.176667   3.827267   5.602022   6.169103
    28  H    2.951978   3.001057   2.329897   4.361306   4.718482
                   11         12         13         14         15
    11  H    0.000000
    12  C    3.869775   0.000000
    13  H    4.947047   1.084613   0.000000
    14  C    3.441368   1.379346   2.125630   0.000000
    15  H    4.348583   2.137010   2.442284   1.082986   0.000000
    16  C    2.167829   2.506741   3.483688   1.495680   2.228876
    17  H    2.446772   3.116322   4.056650   2.132493   2.683393
    18  H    2.546769   3.317690   4.185210   2.132996   2.480125
    19  C    2.616907   4.662375   5.641568   4.645067   5.591851
    20  H    2.404550   4.993890   6.020592   4.668409   5.514138
    21  C    3.537221   5.707187   6.641573   5.869803   6.865573
    22  H    3.965942   6.641573   7.615888   6.674860   7.645459
    23  C    4.215209   4.015194   4.657930   4.645211   5.572507
    24  H    4.733095   3.537221   3.965942   4.407865   5.263823
    25  H    4.870405   4.767508   5.366167   5.261187   6.094477
    26  C    4.658763   5.020429   5.662795   5.747746   6.756588
    27  H    5.745802   5.794662   6.307462   6.619720   7.587165
    28  H    4.602785   4.748236   5.340008   5.612030   6.647370
                   16         17         18         19         20
    16  C    0.000000
    17  H    1.098376   0.000000
    18  H    1.093358   1.742083   0.000000
    19  C    3.762182   3.390184   4.572250   0.000000
    20  H    3.545286   3.001058   4.176667   1.082645   0.000000
    21  C    5.020429   4.748237   5.794662   1.383492   2.139530
    22  H    5.662795   5.340009   6.307462   2.130584   2.446198
    23  C    4.541252   4.361306   5.602022   2.469826   3.434370
    24  H    4.658763   4.602785   5.745802   3.423258   4.318538
    25  H    5.119028   4.718483   6.169103   2.730396   3.568758
    26  C    5.514065   5.474236   6.504322   2.900731   3.982956
    27  H    6.504322   6.421492   7.523188   3.841810   4.907664
    28  H    5.474235   5.651765   6.421491   3.441464   4.493930
                   21         22         23         24         25
    21  C    0.000000
    22  H    1.084613   0.000000
    23  C    2.814481   3.880935   0.000000
    24  H    3.869775   4.947047   1.090962   0.000000
    25  H    3.025798   3.975390   1.093044   1.754662   0.000000
    26  C    2.506741   3.483688   1.528589   2.167829   2.143969
    27  H    3.317690   4.185210   2.161856   2.546769   2.416595
    28  H    3.116323   4.056650   2.169637   2.446771   3.050531
                   26         27         28
    26  C    0.000000
    27  H    1.093358   0.000000
    28  H    1.098376   1.742084   0.000000
 Symmetry turned off by external request.
 Stoichiometry    C12H16
 Framework group  CI[X(C12H16)]
 Deg. of freedom    39
 Full point group                 CI      NOp   2
 Rotational constants (GHZ):           2.0274357           0.6492368           0.5545682
 Leave Link  202 at Mon Aug  3 17:07:16 2020, MaxMem=  6442450944 cpu:               0.3 elap:               0.0
 (Enter /scratch/scicomp/CentOS/7.3.1611/Haswell/software/Gaussian/g16/l301.exe)
 Standard basis: def2TZVP (6D, 10F)
 Ernie: Thresh=  0.10000D-02 Tol=  0.10000D-05 Strict=F.
   528 basis functions,   740 primitive gaussians,   528 cartesian basis functions
    44 alpha electrons       44 beta electrons
       nuclear repulsion energy       697.6336556829 Hartrees.
 IExCor= 4639 DFT=T Ex+Corr=wB97XD ExCW=0 ScaHFX=  1.000000
 ScaDFX=  1.000000  1.000000  1.000000  1.000000 ScalE2=  1.000000  1.000000
 IRadAn=      5 IRanWt=     -1 IRanGd=            0 ICorTp=0 IEmpDi=121
 HFx  wShort=  0.000000 wLong=  0.200000 cFull=  0.222036 cShort=  0.000000 cLong=  0.777964
 DFx  wShort=  0.000000 wLong=  0.200000 cFull=  0.000000 cShort=  0.000000 cLong=  1.000000
 NAtoms=   28 NActive=   28 NUniq=   28 SFac= 1.00D+00 NAtFMM=   60 NAOKFM=F Big=F
 Integral buffers will be    131072 words long.
 Raffenetti 2 integral format.
 Two-electron integral symmetry is turned off.
 R6Disp:  Grimme-D2 Dispersion energy=       -0.0228815295 Hartrees.
 Nuclear repulsion after empirical dispersion term =      697.6107741534 Hartrees.
 Using the following non-standard input for PCM:
 norep pcmdoc geomview  nodis nocav g03defaults tsare=0.075
 Warning! Using old PCM defaults because the g03defaults keyword was found.
 These settings can be overridden by following keywords.
 nsfe=28
 NVESolv=36  SolvMW=84.1595   Rsolv=2.815
 eps=2.0165 RhoS=0.7781
 --- end of non-standard input.
 Reading user-defined spheres from input:
 ISph  on   Nord    Re0     Alpha      Xe            Ye            Ze
 --- end of user-defined spheres data.
 ------------------------------------------------------------------------------
 Polarizable Continuum Model (PCM)
 =================================
 Model                : PCM.
 Atomic radii         : UA0 (Simple United Atom Topological Model).
 Polarization charges : Total charges.
 Charge compensation  : None.
 Solution method      : On-the-fly selection.
 Cavity type          : SES (Solvent Excluding Surface) (Alpha=1.000).
 Cavity algorithm     : GePol (RMin=0.200 OFac=0.890).
                        User-defined sphere list used, NSphG=   28.
                        Tesserae with average area of 0.075 Ang**2.
                        Smoothing algorithm: None.
                        Polarization charges: point-like.
                        Self-potential: constant (ISelfS= 1).
                        Self-field    : global E.n sum rule (ISelfD= 3).
 Solvent              : CycloHexane, Eps=   2.016500 Eps(inf)=   2.035188
                        RSolv=   2.815000 Ang.
 ------------------------------------------------------------------------------
 GePol: Number of generator spheres                  =      28
 GePol: Total number of spheres                      =     159
 GePol: Number of exposed spheres                    =     116 ( 72.96%)
 GePol: Number of tesserae                           =    4590
 GePol: Average area of tesserae                     =       0.05 Ang**2
 GePol: Minimum area of tessera                      =   0.10D-02 Ang**2
 GePol: Maximum area of tessera                      =    0.12395 Ang**2
 GePol: Number of small tesserae                     =       0
 GePol: Fraction of small tesserae (<1% of avg)      =       0.00%
 GePol: Total count of vertices                      =   16199
 GePol: Maximum number of vertices in a tessera      =       7
 GePol: Cavity surface area                          =    218.134 Ang**2
 GePol: Cavity volume                                =    243.088 Ang**3
 Leave Link  301 at Mon Aug  3 17:07:16 2020, MaxMem=  6442450944 cpu:               7.1 elap:               0.3
 (Enter /scratch/scicomp/CentOS/7.3.1611/Haswell/software/Gaussian/g16/l302.exe)
 NPDir=0 NMtPBC=     1 NCelOv=     1 NCel=       1 NClECP=     1 NCelD=      1
         NCelK=      1 NCelE2=     1 NClLst=     1 CellRange=     0.0.
 One-electron integrals computed using PRISM.
   1 Symmetry operations used in ECPInt.
 ECPInt:  NShTT=   19306 NPrTT=   56928 LenC2=   18548 LenP2D=   42366.
 LDataN:  DoStor=T MaxTD1= 6 Len=  172
 NBasis=   528 RedAO= T EigKep=  2.40D-05  NBF=   528
 NBsUse=   528 1.00D-06 EigRej= -1.00D+00 NBFU=   528
 Precomputing XC quadrature grid using
 IXCGrd= 4 IRadAn=           5 IRanWt=          -1 IRanGd=           0 AccXCQ= 0.00D+00.
 Generated NRdTot=       0 NPtTot=           0 NUsed=           0 NTot=          32
 NSgBfM=   526   526   526   526   526 MxSgAt=    28 MxSgA2=    28.
 Leave Link  302 at Mon Aug  3 17:07:17 2020, MaxMem=  6442450944 cpu:              12.8 elap:               0.6
 (Enter /scratch/scicomp/CentOS/7.3.1611/Haswell/software/Gaussian/g16/l303.exe)
 DipDrv:  MaxL=1.
 Leave Link  303 at Mon Aug  3 17:07:17 2020, MaxMem=  6442450944 cpu:               1.5 elap:               0.1
 (Enter /scratch/scicomp/CentOS/7.3.1611/Haswell/software/Gaussian/g16/l401.exe)
 ExpMin= 9.52D-02 ExpMax= 1.36D+04 ExpMxC= 4.63D+02 IAcc=3 IRadAn=         5 AccDes= 0.00D+00
 Harris functional with IExCor= 4639 and IRadAn=       5 diagonalized for initial guess.
 HarFok:  IExCor= 4639 AccDes= 0.00D+00 IRadAn=         5 IDoV= 1 UseB2=F ITyADJ=14
 ICtDFT=  3500011 ScaDFX=  1.000000  1.000000  1.000000  1.000000
 FoFCou: FMM=F IPFlag=           0 FMFlag=      100000 FMFlg1=           0
         NFxFlg=           0 DoJE=T BraDBF=F KetDBF=T FulRan=T
         wScrn=  0.000000 ICntrl=       500 IOpCl=  0 I1Cent=   200000004 NGrid=           0
         NMat0=    1 NMatS0=      1 NMatT0=    0 NMatD0=    1 NMtDS0=    0 NMtDT0=    0
 Symmetry not used in FoFCou.
 Harris En= -444.598618547483    
 JPrj=0 DoOrth=F DoCkMO=T.
 Mixing orbitals, IMix= 1 IMixAn=  0 NRI=1 NE=   44 Coef=  7.07106781D-01  7.07106781D-01
 Mixing orbitals, IMix= 1 IMixAn=  0 NRI=1 NE=   44 Coef= -7.07106781D-01  7.07106781D-01
 Initial guess <Sx>= 0.0000 <Sy>= 0.0000 <Sz>= 0.0000 <S**2>= 1.0000 S= 0.6180
 Leave Link  401 at Mon Aug  3 17:07:19 2020, MaxMem=  6442450944 cpu:              49.5 elap:               2.1
 (Enter /scratch/scicomp/CentOS/7.3.1611/Haswell/software/Gaussian/g16/l502.exe)
 Two-electron integral symmetry not used.
 UHF open shell SCF:
 Using DIIS extrapolation, IDIIS=  1040.
 NGot=  6442450944 LenX=  6441877030 LenY=  6441597718
 Requested convergence on RMS density matrix=1.00D-08 within 128 cycles.
 Requested convergence on MAX density matrix=1.00D-06.
 Requested convergence on             energy=1.00D-06.
 No special actions if energy rises.
 Fock matrices will be formed incrementally for  20 cycles.

 Cycle   1  Pass 1  IDiag  1:
 FoFJK:  IHMeth= 1 ICntrl=       0 DoSepK=T KAlg= 0 I1Cent=           0 FoldK=F
 IRaf=         1 NMat=       1 IRICut=       1 DoRegI=T DoRafI=F ISym2E= 0 IDoP0=0 IntGTp=1.
 FoFCou: FMM=F IPFlag=           0 FMFlag=      100000 FMFlg1=           0
         NFxFlg=           0 DoJE=T BraDBF=F KetDBF=F FulRan=T
         wScrn=  0.000000 ICntrl=       500 IOpCl=  0 I1Cent=           0 NGrid=           0
         NMat0=    1 NMatS0=      1 NMatT0=    0 NMatD0=    1 NMtDS0=    0 NMtDT0=    0
 Symmetry not used in FoFCou.
 Inv3:  Mode=1 IEnd=    63204300.
 Iteration    1 A*A^-1 deviation from unit magnitude is 3.77D-15 for   2687.
 Iteration    1 A*A^-1 deviation from orthogonality  is 1.71D-15 for   3737   2805.
 Iteration    1 A^-1*A deviation from unit magnitude is 3.77D-15 for   3911.
 Iteration    1 A^-1*A deviation from orthogonality  is 2.07D-15 for   1954    579.
 E= -466.693875928572    
 DIIS: error= 6.21D-02 at cycle   1 NSaved=   1.
 NSaved= 1 IEnMin= 1 EnMin= -466.693875928572     IErMin= 1 ErrMin= 6.21D-02
 ErrMax= 6.21D-02  0.00D+00 EMaxC= 1.00D-01 BMatC= 4.10D+00 BMatP= 4.10D+00
 IDIUse=3 WtCom= 3.79D-01 WtEn= 6.21D-01
 Coeff-Com:  0.100D+01
 Coeff-En:   0.100D+01
 Coeff:      0.100D+01
 Gap=     0.234 Goal=   None    Shift=    0.000
 Gap=     0.234 Goal=   None    Shift=    0.000
 GapD=    0.234 DampG=1.000 DampE=0.500 DampFc=0.5000 IDamp=-1.
 Damping current iteration by 5.00D-01
 RMSDP=1.38D-03 MaxDP=9.19D-02              OVMax= 4.94D-02

 Cycle   2  Pass 1  IDiag  1:
 RMSU=  6.73D-04    CP:  9.76D-01
 E= -466.763902914695     Delta-E=       -0.070026986123 Rises=F Damp=T
 DIIS: error= 2.94D-02 at cycle   2 NSaved=   2.
 NSaved= 2 IEnMin= 2 EnMin= -466.763902914695     IErMin= 2 ErrMin= 2.94D-02
 ErrMax= 2.94D-02  0.00D+00 EMaxC= 1.00D-01 BMatC= 9.19D-01 BMatP= 4.10D+00
 IDIUse=3 WtCom= 7.06D-01 WtEn= 2.94D-01
 Coeff-Com: -0.862D+00 0.186D+01
 Coeff-En:   0.000D+00 0.100D+01
 Coeff:     -0.608D+00 0.161D+01
 Gap=     0.241 Goal=   None    Shift=    0.000
 Gap=     0.241 Goal=   None    Shift=    0.000
 RMSDP=8.34D-04 MaxDP=4.85D-02 DE=-7.00D-02 OVMax= 3.23D-02

 Cycle   3  Pass 1  IDiag  1:
 RMSU=  4.47D-04    CP:  9.49D-01  2.02D+00
 E= -466.831797264067     Delta-E=       -0.067894349372 Rises=F Damp=F
 DIIS: error= 2.86D-03 at cycle   3 NSaved=   3.
 NSaved= 3 IEnMin= 3 EnMin= -466.831797264067     IErMin= 3 ErrMin= 2.86D-03
 ErrMax= 2.86D-03  0.00D+00 EMaxC= 1.00D-01 BMatC= 1.77D-02 BMatP= 9.19D-01
 IDIUse=3 WtCom= 9.71D-01 WtEn= 2.86D-02
 Coeff-Com: -0.307D+00 0.664D+00 0.643D+00
 Coeff-En:   0.000D+00 0.000D+00 0.100D+01
 Coeff:     -0.298D+00 0.645D+00 0.653D+00
 Gap=     0.245 Goal=   None    Shift=    0.000
 Gap=     0.245 Goal=   None    Shift=    0.000
 RMSDP=1.12D-04 MaxDP=4.59D-03 DE=-6.79D-02 OVMax= 1.27D-02

 Cycle   4  Pass 1  IDiag  1:
 RMSU=  8.70D-05    CP:  9.47D-01  2.08D+00  8.85D-01
 E= -466.836346295911     Delta-E=       -0.004549031844 Rises=F Damp=F
 DIIS: error= 9.88D-04 at cycle   4 NSaved=   4.
 NSaved= 4 IEnMin= 4 EnMin= -466.836346295911     IErMin= 4 ErrMin= 9.88D-04
 ErrMax= 9.88D-04  0.00D+00 EMaxC= 1.00D-01 BMatC= 5.77D-04 BMatP= 1.77D-02
 IDIUse=3 WtCom= 9.90D-01 WtEn= 9.88D-03
 Coeff-Com:  0.973D-01-0.210D+00-0.108D+00 0.122D+01
 Coeff-En:   0.000D+00 0.000D+00 0.000D+00 0.100D+01
 Coeff:      0.963D-01-0.208D+00-0.107D+00 0.122D+01
 Gap=     0.250 Goal=   None    Shift=    0.000
 Gap=     0.250 Goal=   None    Shift=    0.000
 RMSDP=7.63D-05 MaxDP=4.99D-03 DE=-4.55D-03 OVMax= 1.17D-02

 Cycle   5  Pass 1  IDiag  1:
 RMSU=  3.39D-05    CP:  9.46D-01  2.12D+00  1.01D+00  1.40D+00
 E= -466.836963646234     Delta-E=       -0.000617350323 Rises=F Damp=F
 DIIS: error= 5.06D-04 at cycle   5 NSaved=   5.
 NSaved= 5 IEnMin= 5 EnMin= -466.836963646234     IErMin= 5 ErrMin= 5.06D-04
 ErrMax= 5.06D-04  0.00D+00 EMaxC= 1.00D-01 BMatC= 1.85D-04 BMatP= 5.77D-04
 IDIUse=3 WtCom= 9.95D-01 WtEn= 5.06D-03
 Coeff-Com:  0.661D-01-0.143D+00-0.113D+00 0.306D+00 0.884D+00
 Coeff-En:   0.000D+00 0.000D+00 0.000D+00 0.000D+00 0.100D+01
 Coeff:      0.658D-01-0.142D+00-0.112D+00 0.305D+00 0.885D+00
 Gap=     0.253 Goal=   None    Shift=    0.000
 Gap=     0.253 Goal=   None    Shift=    0.000
 RMSDP=2.70D-05 MaxDP=1.59D-03 DE=-6.17D-04 OVMax= 6.55D-03

 Cycle   6  Pass 1  IDiag  1:
 RMSU=  1.73D-05    CP:  9.45D-01  2.12D+00  1.03D+00  1.57D+00  1.31D+00
 E= -466.837117101707     Delta-E=       -0.000153455473 Rises=F Damp=F
 DIIS: error= 2.86D-04 at cycle   6 NSaved=   6.
 NSaved= 6 IEnMin= 6 EnMin= -466.837117101707     IErMin= 6 ErrMin= 2.86D-04
 ErrMax= 2.86D-04  0.00D+00 EMaxC= 1.00D-01 BMatC= 5.76D-05 BMatP= 1.85D-04
 IDIUse=3 WtCom= 9.97D-01 WtEn= 2.86D-03
 Coeff-Com: -0.213D-01 0.456D-01 0.119D-01-0.425D+00 0.296D+00 0.109D+01
 Coeff-En:   0.000D+00 0.000D+00 0.000D+00 0.000D+00 0.000D+00 0.100D+01
 Coeff:     -0.212D-01 0.455D-01 0.118D-01-0.424D+00 0.295D+00 0.109D+01
 Gap=     0.254 Goal=   None    Shift=    0.000
 Gap=     0.254 Goal=   None    Shift=    0.000
 RMSDP=2.04D-05 MaxDP=1.28D-03 DE=-1.53D-04 OVMax= 5.15D-03

 Cycle   7  Pass 1  IDiag  1:
 RMSU=  9.02D-06    CP:  9.45D-01  2.12D+00  1.04D+00  1.67D+00  1.74D+00
                    CP:  1.26D+00
 E= -466.837173544522     Delta-E=       -0.000056442814 Rises=F Damp=F
 DIIS: error= 5.92D-05 at cycle   7 NSaved=   7.
 NSaved= 7 IEnMin= 7 EnMin= -466.837173544522     IErMin= 7 ErrMin= 5.92D-05
 ErrMax= 5.92D-05  0.00D+00 EMaxC= 1.00D-01 BMatC= 3.28D-06 BMatP= 5.76D-05
 IDIUse=1 WtCom= 1.00D+00 WtEn= 0.00D+00
 Coeff-Com: -0.107D-01 0.232D-01 0.127D-01-0.113D+00-0.268D-01 0.211D+00
 Coeff-Com:  0.903D+00
 Coeff:     -0.107D-01 0.232D-01 0.127D-01-0.113D+00-0.268D-01 0.211D+00
 Coeff:      0.903D+00
 Gap=     0.255 Goal=   None    Shift=    0.000
 Gap=     0.255 Goal=   None    Shift=    0.000
 RMSDP=4.87D-06 MaxDP=2.90D-04 DE=-5.64D-05 OVMax= 1.16D-03

 Cycle   8  Pass 1  IDiag  1:
 RMSU=  2.21D-06    CP:  9.45D-01  2.12D+00  1.04D+00  1.66D+00  1.79D+00
                    CP:  1.40D+00  1.24D+00
 E= -466.837176228027     Delta-E=       -0.000002683505 Rises=F Damp=F
 DIIS: error= 2.65D-05 at cycle   8 NSaved=   8.
 NSaved= 8 IEnMin= 8 EnMin= -466.837176228027     IErMin= 8 ErrMin= 2.65D-05
 ErrMax= 2.65D-05  0.00D+00 EMaxC= 1.00D-01 BMatC= 5.40D-07 BMatP= 3.28D-06
 IDIUse=1 WtCom= 1.00D+00 WtEn= 0.00D+00
 Coeff-Com:  0.186D-04-0.119D-04 0.180D-02 0.290D-01-0.481D-01-0.973D-01
 Coeff-Com:  0.230D+00 0.885D+00
 Coeff:      0.186D-04-0.119D-04 0.180D-02 0.290D-01-0.481D-01-0.973D-01
 Coeff:      0.230D+00 0.885D+00
 Gap=     0.255 Goal=   None    Shift=    0.000
 Gap=     0.255 Goal=   None    Shift=    0.000
 RMSDP=2.10D-06 MaxDP=1.30D-04 DE=-2.68D-06 OVMax= 3.73D-04

 Cycle   9  Pass 1  IDiag  1:
 RMSU=  9.30D-07    CP:  9.45D-01  2.12D+00  1.03D+00  1.66D+00  1.80D+00
                    CP:  1.43D+00  1.39D+00  1.30D+00
 E= -466.837176579441     Delta-E=       -0.000000351415 Rises=F Damp=F
 DIIS: error= 1.08D-05 at cycle   9 NSaved=   9.
 NSaved= 9 IEnMin= 9 EnMin= -466.837176579441     IErMin= 9 ErrMin= 1.08D-05
 ErrMax= 1.08D-05  0.00D+00 EMaxC= 1.00D-01 BMatC= 5.83D-08 BMatP= 5.40D-07
 IDIUse=1 WtCom= 1.00D+00 WtEn= 0.00D+00
 Coeff-Com:  0.144D-02-0.312D-02-0.128D-02 0.217D-01-0.739D-02-0.513D-01
 Coeff-Com: -0.649D-01 0.213D+00 0.892D+00
 Coeff:      0.144D-02-0.312D-02-0.128D-02 0.217D-01-0.739D-02-0.513D-01
 Coeff:     -0.649D-01 0.213D+00 0.892D+00
 Gap=     0.255 Goal=   None    Shift=    0.000
 Gap=     0.255 Goal=   None    Shift=    0.000
 RMSDP=8.16D-07 MaxDP=4.68D-05 DE=-3.51D-07 OVMax= 1.59D-04

 Cycle  10  Pass 1  IDiag  1:
 RMSU=  3.23D-07    CP:  9.45D-01  2.12D+00  1.03D+00  1.66D+00  1.79D+00
                    CP:  1.43D+00  1.44D+00  1.49D+00  1.32D+00
 E= -466.837176621164     Delta-E=       -0.000000041723 Rises=F Damp=F
 DIIS: error= 3.29D-06 at cycle  10 NSaved=  10.
 NSaved=10 IEnMin=10 EnMin= -466.837176621164     IErMin=10 ErrMin= 3.29D-06
 ErrMax= 3.29D-06  0.00D+00 EMaxC= 1.00D-01 BMatC= 4.57D-09 BMatP= 5.83D-08
 IDIUse=1 WtCom= 1.00D+00 WtEn= 0.00D+00
 Coeff-Com: -0.471D-04 0.104D-03-0.128D-03-0.329D-02 0.414D-02 0.103D-01
 Coeff-Com: -0.160D-01-0.832D-01-0.306D-01 0.112D+01
 Coeff:     -0.471D-04 0.104D-03-0.128D-03-0.329D-02 0.414D-02 0.103D-01
 Coeff:     -0.160D-01-0.832D-01-0.306D-01 0.112D+01
 Gap=     0.255 Goal=   None    Shift=    0.000
 Gap=     0.255 Goal=   None    Shift=    0.000
 RMSDP=3.15D-07 MaxDP=2.55D-05 DE=-4.17D-08 OVMax= 6.08D-05

 Cycle  11  Pass 1  IDiag  1:
 RMSU=  1.10D-07    CP:  9.45D-01  2.12D+00  1.03D+00  1.65D+00  1.79D+00
                    CP:  1.42D+00  1.45D+00  1.55D+00  1.51D+00  1.40D+00
 E= -466.837176625777     Delta-E=       -0.000000004613 Rises=F Damp=F
 DIIS: error= 7.38D-07 at cycle  11 NSaved=  11.
 NSaved=11 IEnMin=11 EnMin= -466.837176625777     IErMin=11 ErrMin= 7.38D-07
 ErrMax= 7.38D-07  0.00D+00 EMaxC= 1.00D-01 BMatC= 1.26D-09 BMatP= 4.57D-09
 IDIUse=1 WtCom= 1.00D+00 WtEn= 0.00D+00
 Coeff-Com: -0.230D-03 0.498D-03 0.142D-03-0.433D-02 0.253D-02 0.113D-01
 Coeff-Com:  0.322D-02-0.612D-01-0.136D+00 0.406D+00 0.778D+00
 Coeff:     -0.230D-03 0.498D-03 0.142D-03-0.433D-02 0.253D-02 0.113D-01
 Coeff:      0.322D-02-0.612D-01-0.136D+00 0.406D+00 0.778D+00
 Gap=     0.255 Goal=   None    Shift=    0.000
 Gap=     0.255 Goal=   None    Shift=    0.000
 RMSDP=1.02D-07 MaxDP=7.73D-06 DE=-4.61D-09 OVMax= 1.72D-05

 Cycle  12  Pass 1  IDiag  1:
 RMSU=  4.05D-08    CP:  9.45D-01  2.12D+00  1.03D+00  1.65D+00  1.79D+00
                    CP:  1.42D+00  1.45D+00  1.57D+00  1.56D+00  1.54D+00
                    CP:  1.33D+00
 E= -466.837176626550     Delta-E=       -0.000000000774 Rises=F Damp=F
 DIIS: error= 3.28D-07 at cycle  12 NSaved=  12.
 NSaved=12 IEnMin=12 EnMin= -466.837176626550     IErMin=12 ErrMin= 3.28D-07
 ErrMax= 3.28D-07  0.00D+00 EMaxC= 1.00D-01 BMatC= 1.44D-10 BMatP= 1.26D-09
 IDIUse=1 WtCom= 1.00D+00 WtEn= 0.00D+00
 Coeff-Com:  0.235D-04-0.513D-04-0.194D-05 0.689D-03-0.702D-03-0.185D-02
 Coeff-Com:  0.181D-02 0.137D-01 0.127D-01-0.171D+00-0.204D-01 0.116D+01
 Coeff:      0.235D-04-0.513D-04-0.194D-05 0.689D-03-0.702D-03-0.185D-02
 Coeff:      0.181D-02 0.137D-01 0.127D-01-0.171D+00-0.204D-01 0.116D+01
 Gap=     0.255 Goal=   None    Shift=    0.000
 Gap=     0.255 Goal=   None    Shift=    0.000
 RMSDP=4.98D-08 MaxDP=2.61D-06 DE=-7.74D-10 OVMax= 9.86D-06

 Cycle  13  Pass 1  IDiag  1:
 RMSU=  1.98D-08    CP:  9.45D-01  2.12D+00  1.03D+00  1.65D+00  1.79D+00
                    CP:  1.42D+00  1.45D+00  1.56D+00  1.57D+00  1.58D+00
                    CP:  1.64D+00  1.48D+00
 E= -466.837176626770     Delta-E=       -0.000000000219 Rises=F Damp=F
 DIIS: error= 2.12D-07 at cycle  13 NSaved=  13.
 NSaved=13 IEnMin=13 EnMin= -466.837176626770     IErMin=13 ErrMin= 2.12D-07
 ErrMax= 2.12D-07  0.00D+00 EMaxC= 1.00D-01 BMatC= 3.90D-11 BMatP= 1.44D-10
 IDIUse=1 WtCom= 1.00D+00 WtEn= 0.00D+00
 Coeff-Com:  0.449D-04-0.971D-04-0.235D-04 0.892D-03-0.550D-03-0.237D-02
 Coeff-Com: -0.309D-03 0.129D-01 0.274D-01-0.981D-01-0.148D+00 0.116D+00
 Coeff-Com:  0.109D+01
 Coeff:      0.449D-04-0.971D-04-0.235D-04 0.892D-03-0.550D-03-0.237D-02
 Coeff:     -0.309D-03 0.129D-01 0.274D-01-0.981D-01-0.148D+00 0.116D+00
 Coeff:      0.109D+01
 Gap=     0.255 Goal=   None    Shift=    0.000
 Gap=     0.255 Goal=   None    Shift=    0.000
 RMSDP=2.41D-08 MaxDP=1.07D-06 DE=-2.19D-10 OVMax= 5.87D-06

 Cycle  14  Pass 1  IDiag  1:
 RMSU=  8.75D-09    CP:  9.45D-01  2.12D+00  1.03D+00  1.65D+00  1.79D+00
                    CP:  1.42D+00  1.45D+00  1.56D+00  1.57D+00  1.59D+00
                    CP:  1.76D+00  1.73D+00  1.63D+00
 E= -466.837176626844     Delta-E=       -0.000000000075 Rises=F Damp=F
 DIIS: error= 1.36D-07 at cycle  14 NSaved=  14.
 NSaved=14 IEnMin=14 EnMin= -466.837176626844     IErMin=14 ErrMin= 1.36D-07
 ErrMax= 1.36D-07  0.00D+00 EMaxC= 1.00D-01 BMatC= 1.36D-11 BMatP= 3.90D-11
 IDIUse=1 WtCom= 1.00D+00 WtEn= 0.00D+00
 Coeff-Com:  0.348D-05-0.729D-05-0.337D-05 0.946D-05 0.802D-04-0.555D-04
 Coeff-Com: -0.499D-03-0.991D-03 0.317D-02 0.251D-01-0.332D-01-0.327D+00
 Coeff-Com:  0.299D+00 0.103D+01
 Coeff:      0.348D-05-0.729D-05-0.337D-05 0.946D-05 0.802D-04-0.555D-04
 Coeff:     -0.499D-03-0.991D-03 0.317D-02 0.251D-01-0.332D-01-0.327D+00
 Coeff:      0.299D+00 0.103D+01
 Gap=     0.255 Goal=   None    Shift=    0.000
 Gap=     0.255 Goal=   None    Shift=    0.000
 RMSDP=1.44D-08 MaxDP=7.16D-07 DE=-7.48D-11 OVMax= 4.37D-06

 Cycle  15  Pass 1  IDiag  1:
 RMSU=  4.62D-09    CP:  9.45D-01  2.12D+00  1.03D+00  1.65D+00  1.79D+00
                    CP:  1.42D+00  1.45D+00  1.56D+00  1.57D+00  1.59D+00
                    CP:  1.81D+00  1.83D+00  2.11D+00  1.70D+00
 E= -466.837176626872     Delta-E=       -0.000000000028 Rises=F Damp=F
 DIIS: error= 5.70D-08 at cycle  15 NSaved=  15.
 NSaved=15 IEnMin=15 EnMin= -466.837176626872     IErMin=15 ErrMin= 5.70D-08
 ErrMax= 5.70D-08  0.00D+00 EMaxC= 1.00D-01 BMatC= 2.64D-12 BMatP= 1.36D-11
 IDIUse=1 WtCom= 1.00D+00 WtEn= 0.00D+00
 Coeff-Com: -0.128D-04 0.278D-04 0.636D-05-0.264D-03 0.183D-03 0.690D-03
 Coeff-Com:  0.256D-04-0.418D-02-0.779D-02 0.328D-01 0.418D-01-0.717D-01
 Coeff-Com: -0.306D+00 0.102D+00 0.121D+01
 Coeff:     -0.128D-04 0.278D-04 0.636D-05-0.264D-03 0.183D-03 0.690D-03
 Coeff:      0.256D-04-0.418D-02-0.779D-02 0.328D-01 0.418D-01-0.717D-01
 Coeff:     -0.306D+00 0.102D+00 0.121D+01
 Gap=     0.255 Goal=   None    Shift=    0.000
 Gap=     0.255 Goal=   None    Shift=    0.000
 RMSDP=8.71D-09 MaxDP=3.85D-07 DE=-2.79D-11 OVMax= 2.64D-06

 Error on total polarization charges =  0.01168
 SCF Done:  E(UwB97XD) =  -466.837176627     A.U. after   15 cycles
            NFock= 15  Conv=0.87D-08     -V/T= 2.0059
 <Sx>= 0.0000 <Sy>= 0.0000 <Sz>= 0.0000 <S**2>= 1.0569 S= 0.6432
 <L.S>=  0.00000000000    
 KE= 4.640922730220D+02 PE=-2.476844134804D+03 EE= 8.483039110014D+02
 --------------------------------------------------------------------
 Variational PCM results
 =======================
 <psi(f)|   H    |psi(f)>                     (a.u.) =    -466.835968
 <psi(f)|H+V(f)/2|psi(f)>                     (a.u.) =    -466.837177
 (Polarized solute)-Solvent               (kcal/mol) =      -0.76
 --------------------------------------------------------------------
 Partition over spheres:
 Sphere  on Atom  Surface  Charge   GEl     GCav    GDR
    1      C1       7.89   0.011   -0.04    0.00    0.00
    2      C2       0.03  -0.000   -0.00    0.00    0.00
    3      H3       7.51  -0.010   -0.04    0.00    0.00
    4      H4       3.78  -0.004   -0.01    0.00    0.00
    5      C5       4.11   0.007   -0.03    0.00    0.00
    6      C6       0.06  -0.000   -0.00    0.00    0.00
    7      H7       5.49  -0.008   -0.03    0.00    0.00
    8      H8       3.50  -0.003   -0.01    0.00    0.00
    9      C9       3.44   0.003   -0.00    0.00    0.00
   10      H10      6.19  -0.005   -0.01    0.00    0.00
   11      H11      4.99  -0.004   -0.01    0.00    0.00
   12      C12      7.07   0.012   -0.06    0.00    0.00
   13      H13      7.51  -0.010   -0.03    0.00    0.00
   14      C14      7.46   0.011   -0.04    0.00    0.00
   15      H15      7.51  -0.010   -0.04    0.00    0.00
   16      C16      3.62   0.002    0.00    0.00    0.00
   17      H17      4.57  -0.005   -0.02    0.00    0.00
   18      H18      7.61  -0.007   -0.03    0.00    0.00
   19      C19      4.20   0.007   -0.03    0.00    0.00
   20      H20      5.62  -0.008   -0.03    0.00    0.00
   21      C21      7.03   0.012   -0.06    0.00    0.00
   22      H22      7.51  -0.010   -0.03    0.00    0.00
   23      C23      3.18   0.002   -0.00    0.00    0.00
   24      H24      4.38  -0.003   -0.01    0.00    0.00
   25      H25      6.34  -0.005   -0.00    0.00    0.00
   26      C26      3.96   0.002    0.00    0.00    0.00
   27      H27      7.53  -0.008   -0.03    0.00    0.00
   28      H28      4.56  -0.005   -0.02    0.00    0.00
 Added spheres:    71.49   0.024   -0.17    0.00    0.00
 --------------------------------------------------------------------
 After PCM corrections, the energy is  -466.837176627     a.u.
 --------------------------------------------------------------------
 Annihilation of the first spin contaminant:
 S**2 before annihilation     1.0569,   after     0.5447
 Leave Link  502 at Mon Aug  3 17:11:50 2020, MaxMem=  6442450944 cpu:            6421.1 elap:             270.1
 (Enter /scratch/scicomp/CentOS/7.3.1611/Haswell/software/Gaussian/g16/l601.exe)
 Copying SCF densities to generalized density rwf, IOpCl= 1 IROHF=0.

 **********************************************************************

            Population analysis using the SCF Density.

 **********************************************************************

 Alpha  occ. eigenvalues --  -10.29011 -10.28888 -10.28866 -10.28570 -10.28410
 Alpha  occ. eigenvalues --  -10.28362 -10.28211 -10.28141 -10.27893 -10.27848
 Alpha  occ. eigenvalues --  -10.27746 -10.27729  -0.95665  -0.92722  -0.86122
 Alpha  occ. eigenvalues --   -0.84644  -0.83577  -0.80951  -0.71566  -0.70769
 Alpha  occ. eigenvalues --   -0.69187  -0.67559  -0.60238  -0.59379  -0.58771
 Alpha  occ. eigenvalues --   -0.56230  -0.53654  -0.52644  -0.51050  -0.49059
 Alpha  occ. eigenvalues --   -0.49045  -0.48667  -0.48346  -0.47434  -0.45884
 Alpha  occ. eigenvalues --   -0.44733  -0.41402  -0.40892  -0.40030  -0.38896
 Alpha  occ. eigenvalues --   -0.37754  -0.37432  -0.34755  -0.25308
 Alpha virt. eigenvalues --    0.00160   0.10594   0.10620   0.12320   0.13171
 Alpha virt. eigenvalues --    0.14032   0.14770   0.15380   0.16047   0.16279
 Alpha virt. eigenvalues --    0.17034   0.17162   0.18411   0.20009   0.20218
 Alpha virt. eigenvalues --    0.21345   0.22019   0.22461   0.23441   0.24637
 Alpha virt. eigenvalues --    0.25410   0.25790   0.26459   0.26584   0.26912
 Alpha virt. eigenvalues --    0.28351   0.28729   0.29969   0.30583   0.31566
 Alpha virt. eigenvalues --    0.31746   0.32110   0.32171   0.33939   0.34156
 Alpha virt. eigenvalues --    0.34533   0.35537   0.36121   0.36707   0.37146
 Alpha virt. eigenvalues --    0.38229   0.38348   0.40885   0.41109   0.41739
 Alpha virt. eigenvalues --    0.43454   0.43674   0.45337   0.45623   0.46166
 Alpha virt. eigenvalues --    0.46812   0.47519   0.47536   0.47951   0.48326
 Alpha virt. eigenvalues --    0.48819   0.49200   0.49362   0.49721   0.50730
 Alpha virt. eigenvalues --    0.50986   0.51122   0.51959   0.52368   0.52886
 Alpha virt. eigenvalues --    0.53085   0.54095   0.54122   0.54735   0.55425
 Alpha virt. eigenvalues --    0.56420   0.57117   0.57465   0.58348   0.58465
 Alpha virt. eigenvalues --    0.58694   0.61519   0.61668   0.64443   0.65160
 Alpha virt. eigenvalues --    0.66669   0.66897   0.67624   0.68929   0.69844
 Alpha virt. eigenvalues --    0.70714   0.71627   0.75213   0.75665   0.75984
 Alpha virt. eigenvalues --    0.78208   0.79502   0.80162   0.81369   0.82743
 Alpha virt. eigenvalues --    0.83218   0.84366   0.86953   0.87709   0.89367
 Alpha virt. eigenvalues --    0.90732   0.91110   0.92449   0.93510   0.94780
 Alpha virt. eigenvalues --    0.96688   0.97562   0.98724   0.99152   0.99663
 Alpha virt. eigenvalues --    1.01869   1.02034   1.04164   1.04885   1.05471
 Alpha virt. eigenvalues --    1.06414   1.08733   1.10129   1.10521   1.10877
 Alpha virt. eigenvalues --    1.11871   1.14801   1.15808   1.17136   1.17610
 Alpha virt. eigenvalues --    1.18385   1.18734   1.19629   1.20180   1.20651
 Alpha virt. eigenvalues --    1.22088   1.24489   1.25155   1.26086   1.26598
 Alpha virt. eigenvalues --    1.27448   1.27891   1.28792   1.29004   1.29990
 Alpha virt. eigenvalues --    1.30144   1.31490   1.33663   1.34110   1.34737
 Alpha virt. eigenvalues --    1.35070   1.36890   1.37242   1.38166   1.38490
 Alpha virt. eigenvalues --    1.39159   1.39559   1.39944   1.41350   1.42348
 Alpha virt. eigenvalues --    1.43205   1.43398   1.44300   1.45342   1.45796
 Alpha virt. eigenvalues --    1.46874   1.47628   1.48519   1.50782   1.51399
 Alpha virt. eigenvalues --    1.52510   1.54067   1.54743   1.56664   1.58111
 Alpha virt. eigenvalues --    1.58677   1.60385   1.62445   1.63161   1.64185
 Alpha virt. eigenvalues --    1.67961   1.68908   1.69213   1.69344   1.70190
 Alpha virt. eigenvalues --    1.73586   1.74478   1.77312   1.78598   1.78730
 Alpha virt. eigenvalues --    1.80645   1.81900   1.83217   1.84431   1.88632
 Alpha virt. eigenvalues --    1.89299   1.92035   1.92170   1.94402   1.95416
 Alpha virt. eigenvalues --    1.96189   1.99422   2.01264   2.06094   2.07241
 Alpha virt. eigenvalues --    2.07675   2.09519   2.10598   2.12609   2.13298
 Alpha virt. eigenvalues --    2.13788   2.16053   2.16546   2.17962   2.18918
 Alpha virt. eigenvalues --    2.20706   2.21017   2.21631   2.23424   2.24056
 Alpha virt. eigenvalues --    2.27487   2.28608   2.30693   2.32029   2.35553
 Alpha virt. eigenvalues --    2.35921   2.36925   2.38317   2.41005   2.41934
 Alpha virt. eigenvalues --    2.45568   2.45965   2.47328   2.50048   2.51143
 Alpha virt. eigenvalues --    2.51492   2.52935   2.56006   2.56926   2.57647
 Alpha virt. eigenvalues --    2.58982   2.61410   2.61941   2.62927   2.63105
 Alpha virt. eigenvalues --    2.65278   2.65911   2.67484   2.67753   2.68062
 Alpha virt. eigenvalues --    2.68527   2.70438   2.72693   2.72926   2.73231
 Alpha virt. eigenvalues --    2.74618   2.75929   2.76256   2.78103   2.79981
 Alpha virt. eigenvalues --    2.80295   2.82038   2.82304   2.82610   2.84335
 Alpha virt. eigenvalues --    2.84674   2.85081   2.86740   2.87009   2.88092
 Alpha virt. eigenvalues --    2.88359   2.89638   2.89904   2.90258   2.91421
 Alpha virt. eigenvalues --    2.93187   2.94462   2.95354   2.96061   2.97532
 Alpha virt. eigenvalues --    2.98334   3.02032   3.02206   3.02746   3.04513
 Alpha virt. eigenvalues --    3.06398   3.06549   3.06956   3.08198   3.08986
 Alpha virt. eigenvalues --    3.10553   3.11099   3.11770   3.12636   3.13542
 Alpha virt. eigenvalues --    3.13761   3.14604   3.15668   3.16020   3.16512
 Alpha virt. eigenvalues --    3.16648   3.17337   3.18310   3.19021   3.20300
 Alpha virt. eigenvalues --    3.20680   3.20853   3.22162   3.22850   3.24138
 Alpha virt. eigenvalues --    3.25007   3.25460   3.25550   3.26101   3.26491
 Alpha virt. eigenvalues --    3.26897   3.29644   3.30688   3.31352   3.31761
 Alpha virt. eigenvalues --    3.32416   3.33030   3.33361   3.34921   3.35800
 Alpha virt. eigenvalues --    3.37267   3.37759   3.38229   3.39465   3.39579
 Alpha virt. eigenvalues --    3.41072   3.41251   3.42205   3.43604   3.43836
 Alpha virt. eigenvalues --    3.44557   3.45943   3.46993   3.47159   3.48901
 Alpha virt. eigenvalues --    3.49525   3.50804   3.51339   3.51691   3.53073
 Alpha virt. eigenvalues --    3.53438   3.54101   3.55124   3.57389   3.57903
 Alpha virt. eigenvalues --    3.58870   3.59278   3.59632   3.61751   3.62684
 Alpha virt. eigenvalues --    3.63004   3.64232   3.64449   3.65563   3.67947
 Alpha virt. eigenvalues --    3.69371   3.69578   3.71964   3.72534   3.74171
 Alpha virt. eigenvalues --    3.75821   3.79153   3.79969   3.80477   3.81569
 Alpha virt. eigenvalues --    3.83978   3.84220   3.84834   3.85306   3.86959
 Alpha virt. eigenvalues --    3.88611   3.91674   3.92031   3.94623   3.94786
 Alpha virt. eigenvalues --    3.95901   3.98053   3.99796   4.02426   4.04897
 Alpha virt. eigenvalues --    4.05019   4.07578   4.08049   4.09287   4.09500
 Alpha virt. eigenvalues --    4.12638   4.13376   4.15132   4.16479   4.18403
 Alpha virt. eigenvalues --    4.20075   4.21635   4.23946   4.24448   4.25932
 Alpha virt. eigenvalues --    4.26752   4.28522   4.28846   4.29234   4.30493
 Alpha virt. eigenvalues --    4.33693   4.35444   4.40749   4.41285   4.42336
 Alpha virt. eigenvalues --    4.43217   4.44017   4.45239   4.47352   4.50854
 Alpha virt. eigenvalues --    4.52849   4.55098   4.56561   4.57909   4.59521
 Alpha virt. eigenvalues --    4.61606   4.63237   4.63522   4.66067   4.68360
 Alpha virt. eigenvalues --    4.71349   4.72415   4.75546   4.76345   4.78865
 Alpha virt. eigenvalues --    4.83767   4.85507   4.87911   4.90097   4.91588
 Alpha virt. eigenvalues --    4.92464   4.92852   4.95404   4.99324   5.01967
 Alpha virt. eigenvalues --    5.07680   5.09177   5.10731   5.14261   5.14719
 Alpha virt. eigenvalues --    5.20918   5.25215   5.26479   5.28434   5.32354
 Alpha virt. eigenvalues --    5.34671   5.36011   5.39336   5.39649   5.43351
 Alpha virt. eigenvalues --    5.47611   5.48246   5.53783   5.56118   5.59377
 Alpha virt. eigenvalues --    5.64430   5.72979   5.75131   5.80936   5.81925
 Alpha virt. eigenvalues --    7.94215   7.95139   8.03369   8.04640   8.08706
 Alpha virt. eigenvalues --    8.11034   8.12714   8.16198   8.19139   8.19588
 Alpha virt. eigenvalues --    8.32584   8.37797  34.74757  34.75490  34.82367
 Alpha virt. eigenvalues --   34.82537  34.85480  34.90276  34.99042  35.00277
 Alpha virt. eigenvalues --   35.02934  35.02972  35.15416  35.25702
  Beta  occ. eigenvalues --  -10.29011 -10.28888 -10.28867 -10.28570 -10.28409
  Beta  occ. eigenvalues --  -10.28362 -10.28211 -10.28140 -10.27893 -10.27848
  Beta  occ. eigenvalues --  -10.27745 -10.27729  -0.95665  -0.92722  -0.86122
  Beta  occ. eigenvalues --   -0.84644  -0.83577  -0.80951  -0.71566  -0.70769
  Beta  occ. eigenvalues --   -0.69187  -0.67559  -0.60238  -0.59379  -0.58771
  Beta  occ. eigenvalues --   -0.56230  -0.53654  -0.52644  -0.51050  -0.49059
  Beta  occ. eigenvalues --   -0.49045  -0.48667  -0.48346  -0.47434  -0.45884
  Beta  occ. eigenvalues --   -0.44733  -0.41402  -0.40892  -0.40030  -0.38896
  Beta  occ. eigenvalues --   -0.37754  -0.37433  -0.34754  -0.25308
  Beta virt. eigenvalues --    0.00160   0.10594   0.10621   0.12320   0.13171
  Beta virt. eigenvalues --    0.14032   0.14770   0.15380   0.16047   0.16279
  Beta virt. eigenvalues --    0.17035   0.17161   0.18411   0.20009   0.20218
  Beta virt. eigenvalues --    0.21345   0.22019   0.22461   0.23440   0.24637
  Beta virt. eigenvalues --    0.25410   0.25791   0.26459   0.26584   0.26912
  Beta virt. eigenvalues --    0.28351   0.28729   0.29969   0.30583   0.31565
  Beta virt. eigenvalues --    0.31746   0.32110   0.32171   0.33939   0.34156
  Beta virt. eigenvalues --    0.34533   0.35537   0.36121   0.36706   0.37146
  Beta virt. eigenvalues --    0.38229   0.38348   0.40886   0.41109   0.41739
  Beta virt. eigenvalues --    0.43455   0.43674   0.45337   0.45624   0.46165
  Beta virt. eigenvalues --    0.46812   0.47519   0.47536   0.47951   0.48326
  Beta virt. eigenvalues --    0.48818   0.49200   0.49362   0.49721   0.50730
  Beta virt. eigenvalues --    0.50986   0.51122   0.51959   0.52368   0.52886
  Beta virt. eigenvalues --    0.53085   0.54095   0.54121   0.54734   0.55425
  Beta virt. eigenvalues --    0.56420   0.57117   0.57465   0.58348   0.58465
  Beta virt. eigenvalues --    0.58694   0.61519   0.61668   0.64443   0.65160
  Beta virt. eigenvalues --    0.66669   0.66897   0.67624   0.68929   0.69844
  Beta virt. eigenvalues --    0.70714   0.71628   0.75213   0.75665   0.75983
  Beta virt. eigenvalues --    0.78208   0.79502   0.80162   0.81369   0.82743
  Beta virt. eigenvalues --    0.83218   0.84366   0.86953   0.87709   0.89367
  Beta virt. eigenvalues --    0.90732   0.91110   0.92449   0.93510   0.94780
  Beta virt. eigenvalues --    0.96688   0.97562   0.98724   0.99152   0.99663
  Beta virt. eigenvalues --    1.01868   1.02034   1.04164   1.04885   1.05471
  Beta virt. eigenvalues --    1.06414   1.08733   1.10129   1.10521   1.10877
  Beta virt. eigenvalues --    1.11871   1.14801   1.15808   1.17136   1.17610
  Beta virt. eigenvalues --    1.18385   1.18734   1.19629   1.20181   1.20651
  Beta virt. eigenvalues --    1.22088   1.24489   1.25155   1.26086   1.26598
  Beta virt. eigenvalues --    1.27448   1.27891   1.28792   1.29004   1.29990
  Beta virt. eigenvalues --    1.30144   1.31490   1.33663   1.34110   1.34737
  Beta virt. eigenvalues --    1.35070   1.36890   1.37242   1.38166   1.38490
  Beta virt. eigenvalues --    1.39159   1.39559   1.39944   1.41350   1.42348
  Beta virt. eigenvalues --    1.43204   1.43399   1.44300   1.45342   1.45796
  Beta virt. eigenvalues --    1.46874   1.47628   1.48519   1.50782   1.51399
  Beta virt. eigenvalues --    1.52510   1.54067   1.54743   1.56664   1.58111
  Beta virt. eigenvalues --    1.58677   1.60385   1.62444   1.63161   1.64185
  Beta virt. eigenvalues --    1.67961   1.68908   1.69213   1.69344   1.70190
  Beta virt. eigenvalues --    1.73586   1.74478   1.77312   1.78598   1.78730
  Beta virt. eigenvalues --    1.80645   1.81900   1.83217   1.84431   1.88632
  Beta virt. eigenvalues --    1.89299   1.92035   1.92170   1.94402   1.95416
  Beta virt. eigenvalues --    1.96189   1.99422   2.01264   2.06094   2.07241
  Beta virt. eigenvalues --    2.07674   2.09519   2.10598   2.12609   2.13299
  Beta virt. eigenvalues --    2.13788   2.16053   2.16546   2.17962   2.18918
  Beta virt. eigenvalues --    2.20706   2.21017   2.21631   2.23424   2.24056
  Beta virt. eigenvalues --    2.27487   2.28608   2.30693   2.32029   2.35553
  Beta virt. eigenvalues --    2.35921   2.36925   2.38317   2.41005   2.41934
  Beta virt. eigenvalues --    2.45568   2.45965   2.47328   2.50048   2.51143
  Beta virt. eigenvalues --    2.51492   2.52935   2.56006   2.56926   2.57647
  Beta virt. eigenvalues --    2.58982   2.61410   2.61941   2.62927   2.63105
  Beta virt. eigenvalues --    2.65278   2.65911   2.67484   2.67753   2.68063
  Beta virt. eigenvalues --    2.68527   2.70438   2.72693   2.72926   2.73231
  Beta virt. eigenvalues --    2.74618   2.75929   2.76256   2.78103   2.79981
  Beta virt. eigenvalues --    2.80295   2.82038   2.82304   2.82610   2.84335
  Beta virt. eigenvalues --    2.84674   2.85081   2.86739   2.87009   2.88093
  Beta virt. eigenvalues --    2.88359   2.89638   2.89904   2.90258   2.91421
  Beta virt. eigenvalues --    2.93187   2.94462   2.95354   2.96061   2.97532
  Beta virt. eigenvalues --    2.98334   3.02032   3.02206   3.02746   3.04513
  Beta virt. eigenvalues --    3.06398   3.06549   3.06956   3.08198   3.08986
  Beta virt. eigenvalues --    3.10553   3.11099   3.11770   3.12636   3.13542
  Beta virt. eigenvalues --    3.13761   3.14604   3.15668   3.16021   3.16512
  Beta virt. eigenvalues --    3.16648   3.17337   3.18310   3.19021   3.20300
  Beta virt. eigenvalues --    3.20680   3.20853   3.22162   3.22851   3.24138
  Beta virt. eigenvalues --    3.25007   3.25460   3.25550   3.26101   3.26491
  Beta virt. eigenvalues --    3.26897   3.29644   3.30688   3.31352   3.31761
  Beta virt. eigenvalues --    3.32416   3.33030   3.33362   3.34921   3.35800
  Beta virt. eigenvalues --    3.37266   3.37759   3.38229   3.39465   3.39579
  Beta virt. eigenvalues --    3.41072   3.41251   3.42205   3.43604   3.43836
  Beta virt. eigenvalues --    3.44558   3.45943   3.46993   3.47159   3.48901
  Beta virt. eigenvalues --    3.49525   3.50804   3.51339   3.51691   3.53073
  Beta virt. eigenvalues --    3.53438   3.54101   3.55124   3.57389   3.57903
  Beta virt. eigenvalues --    3.58870   3.59278   3.59632   3.61751   3.62684
  Beta virt. eigenvalues --    3.63004   3.64232   3.64449   3.65563   3.67947
  Beta virt. eigenvalues --    3.69371   3.69578   3.71964   3.72534   3.74171
  Beta virt. eigenvalues --    3.75821   3.79153   3.79969   3.80477   3.81569
  Beta virt. eigenvalues --    3.83978   3.84220   3.84834   3.85306   3.86959
  Beta virt. eigenvalues --    3.88611   3.91674   3.92032   3.94623   3.94786
  Beta virt. eigenvalues --    3.95902   3.98053   3.99796   4.02426   4.04897
  Beta virt. eigenvalues --    4.05019   4.07578   4.08049   4.09287   4.09500
  Beta virt. eigenvalues --    4.12638   4.13376   4.15132   4.16479   4.18403
  Beta virt. eigenvalues --    4.20075   4.21635   4.23946   4.24448   4.25932
  Beta virt. eigenvalues --    4.26752   4.28522   4.28846   4.29234   4.30493
  Beta virt. eigenvalues --    4.33693   4.35444   4.40749   4.41285   4.42336
  Beta virt. eigenvalues --    4.43217   4.44017   4.45239   4.47352   4.50854
  Beta virt. eigenvalues --    4.52849   4.55098   4.56561   4.57909   4.59521
  Beta virt. eigenvalues --    4.61606   4.63237   4.63522   4.66067   4.68360
  Beta virt. eigenvalues --    4.71349   4.72416   4.75546   4.76345   4.78865
  Beta virt. eigenvalues --    4.83767   4.85507   4.87911   4.90097   4.91588
  Beta virt. eigenvalues --    4.92464   4.92852   4.95404   4.99324   5.01967
  Beta virt. eigenvalues --    5.07680   5.09177   5.10731   5.14261   5.14719
  Beta virt. eigenvalues --    5.20918   5.25215   5.26479   5.28434   5.32354
  Beta virt. eigenvalues --    5.34671   5.36011   5.39336   5.39649   5.43351
  Beta virt. eigenvalues --    5.47611   5.48246   5.53783   5.56118   5.59377
  Beta virt. eigenvalues --    5.64430   5.72979   5.75131   5.80936   5.81926
  Beta virt. eigenvalues --    7.94214   7.95140   8.03369   8.04640   8.08706
  Beta virt. eigenvalues --    8.11034   8.12714   8.16198   8.19139   8.19588
  Beta virt. eigenvalues --    8.32584   8.37797  34.74756  34.75490  34.82367
  Beta virt. eigenvalues --   34.82537  34.85480  34.90276  34.99042  35.00277
  Beta virt. eigenvalues --   35.02934  35.02972  35.15416  35.25702
          Condensed to atoms (all electrons):
               1          2          3          4          5          6
     1  C    5.253607   0.032036   0.431384  -0.003097   0.000872  -0.011961
     2  C    0.032036   5.311836  -0.001685   0.422739  -0.111839   0.243232
     3  H    0.431384  -0.001685   0.491043   0.000042  -0.000000   0.000177
     4  H   -0.003097   0.422739   0.000042   0.543624  -0.001878  -0.012238
     5  C    0.000872  -0.111839  -0.000000  -0.001878   5.345607   0.275335
     6  C   -0.011961   0.243232   0.000177  -0.012238   0.275335   5.311779
     7  H    0.000004   0.001371   0.000004   0.000269   0.425165  -0.032338
     8  H   -0.001593  -0.012251  -0.000088   0.002964  -0.052066   0.422719
     9  C    0.001971  -0.069109   0.000001  -0.011130  -0.053274   0.266185
    10  H   -0.000043   0.008333  -0.000001  -0.000235  -0.001291  -0.048889
    11  H   -0.000342  -0.005734   0.000003   0.001158   0.011440  -0.048395
    12  C   -0.000086   0.014938  -0.000001   0.003520   0.443512  -0.079331
    13  H    0.000000  -0.000318   0.000000  -0.000056  -0.029538   0.004100
    14  C    0.000044  -0.011943  -0.000000  -0.001597  -0.060778   0.032007
    15  H   -0.000000   0.000177  -0.000000  -0.000088   0.004681  -0.001687
    16  C   -0.000280   0.021818   0.000000   0.002371  -0.006032  -0.082779
    17  H    0.000035   0.002765  -0.000000  -0.003395   0.005056  -0.010678
    18  H    0.000002  -0.000496   0.000000   0.000374  -0.001059   0.011870
    19  C   -0.060796   0.275397   0.004675  -0.052072   0.012541  -0.111835
    20  H    0.004089  -0.032298  -0.000151  -0.005674  -0.000625   0.001371
    21  C    0.460587  -0.079396  -0.035752   0.006472  -0.000714   0.014958
    22  H   -0.030673   0.004095  -0.005485  -0.000167   0.000056  -0.000317
    23  C   -0.105004   0.266220   0.005755  -0.021654   0.009962  -0.069105
    24  H    0.013067  -0.048402  -0.000076  -0.003134   0.004496  -0.005739
    25  H   -0.001996  -0.048859  -0.000168  -0.005985  -0.000027   0.008330
    26  C    0.285189  -0.082820  -0.030923   0.009867  -0.008686   0.021833
    27  H   -0.028774   0.011869  -0.003886  -0.000190   0.000104  -0.000496
    28  H   -0.039507  -0.010681   0.000455  -0.000158  -0.001010   0.002761
               7          8          9         10         11         12
     1  C    0.000004  -0.001593   0.001971  -0.000043  -0.000342  -0.000086
     2  C    0.001371  -0.012251  -0.069109   0.008333  -0.005734   0.014938
     3  H    0.000004  -0.000088   0.000001  -0.000001   0.000003  -0.000001
     4  H    0.000269   0.002964  -0.011130  -0.000235   0.001158   0.003520
     5  C    0.425165  -0.052066  -0.053274  -0.001291   0.011440   0.443512
     6  C   -0.032338   0.422719   0.266185  -0.048889  -0.048395  -0.079331
     7  H    0.477875  -0.005673   0.003092   0.000224  -0.000074  -0.028886
     8  H   -0.005673   0.543810  -0.021669  -0.005989  -0.003135   0.006474
     9  C    0.003092  -0.021669   5.025646   0.415855   0.446807   0.031384
    10  H    0.000224  -0.005989   0.415855   0.556129  -0.015054   0.002759
    11  H   -0.000074  -0.003135   0.446807  -0.015054   0.529247  -0.004977
    12  C   -0.028886   0.006474   0.031384   0.002759  -0.004977   4.979378
    13  H   -0.004856  -0.000167   0.000222  -0.000116   0.000038   0.420340
    14  C    0.004087  -0.003098  -0.105014  -0.001986   0.013066   0.460594
    15  H   -0.000151   0.000042   0.005755  -0.000168  -0.000076  -0.035796
    16  C   -0.001188   0.009870   0.339708  -0.027249  -0.054121  -0.047692
    17  H   -0.000043  -0.000158  -0.029109   0.005244  -0.003605  -0.004508
    18  H    0.000067  -0.000191  -0.039209  -0.006224  -0.003315   0.002887
    19  C   -0.000626  -0.001888   0.009947  -0.000027   0.004495  -0.000714
    20  H    0.000003   0.000269   0.002220   0.000315  -0.003695  -0.000029
    21  C   -0.000028   0.003517  -0.003628  -0.000007   0.000533   0.000071
    22  H   -0.000002  -0.000057  -0.000070  -0.000002  -0.000003  -0.000000
    23  C    0.002217  -0.011121   0.009671  -0.000265  -0.000005  -0.003625
    24  H   -0.003697   0.001158  -0.000004  -0.000019  -0.000010   0.000531
    25  H    0.000315  -0.000234  -0.000264   0.000019  -0.000019  -0.000007
    26  C   -0.000954   0.002368  -0.002287   0.000086   0.000067   0.000856
    27  H   -0.000029   0.000374   0.000041  -0.000002  -0.000004  -0.000005
    28  H    0.002094  -0.003395   0.000916   0.000012   0.000013  -0.000055
              13         14         15         16         17         18
     1  C    0.000000   0.000044  -0.000000  -0.000280   0.000035   0.000002
     2  C   -0.000318  -0.011943   0.000177   0.021818   0.002765  -0.000496
     3  H    0.000000  -0.000000  -0.000000   0.000000  -0.000000   0.000000
     4  H   -0.000056  -0.001597  -0.000088   0.002371  -0.003395   0.000374
     5  C   -0.029538  -0.060778   0.004681  -0.006032   0.005056  -0.001059
     6  C    0.004100   0.032007  -0.001687  -0.082779  -0.010678   0.011870
     7  H   -0.004856   0.004087  -0.000151  -0.001188  -0.000043   0.000067
     8  H   -0.000167  -0.003098   0.000042   0.009870  -0.000158  -0.000191
     9  C    0.000222  -0.105014   0.005755   0.339708  -0.029109  -0.039209
    10  H   -0.000116  -0.001986  -0.000168  -0.027249   0.005244  -0.006224
    11  H    0.000038   0.013066  -0.000076  -0.054121  -0.003605  -0.003315
    12  C    0.420340   0.460594  -0.035796  -0.047692  -0.004508   0.002887
    13  H    0.500758  -0.030685  -0.005485   0.004814  -0.000360  -0.000168
    14  C   -0.030685   5.253643   0.431411   0.285198  -0.039487  -0.028783
    15  H   -0.005485   0.431411   0.491052  -0.030915   0.000456  -0.003886
    16  C    0.004814   0.285198  -0.030915   4.959927   0.400761   0.415269
    17  H   -0.000360  -0.039487   0.000456   0.400761   0.582692  -0.023543
    18  H   -0.000168  -0.028783  -0.003886   0.415269  -0.023543   0.548856
    19  C    0.000056   0.000871  -0.000000  -0.008685  -0.001013   0.000104
    20  H   -0.000002   0.000005   0.000004  -0.000955   0.002093  -0.000029
    21  C   -0.000000  -0.000086  -0.000001   0.000856  -0.000055  -0.000005
    22  H    0.000000   0.000000   0.000000   0.000001  -0.000005  -0.000001
    23  C   -0.000070   0.001971   0.000001  -0.002285   0.000915   0.000041
    24  H   -0.000003  -0.000342   0.000003   0.000067   0.000013  -0.000004
    25  H   -0.000002  -0.000043  -0.000001   0.000086   0.000012  -0.000002
    26  C    0.000001  -0.000280   0.000000   0.000463  -0.000041  -0.000002
    27  H   -0.000001   0.000002   0.000000  -0.000002   0.000001  -0.000000
    28  H   -0.000005   0.000035  -0.000000  -0.000041  -0.000003   0.000001
              19         20         21         22         23         24
     1  C   -0.060796   0.004089   0.460587  -0.030673  -0.105004   0.013067
     2  C    0.275397  -0.032298  -0.079396   0.004095   0.266220  -0.048402
     3  H    0.004675  -0.000151  -0.035752  -0.005485   0.005755  -0.000076
     4  H   -0.052072  -0.005674   0.006472  -0.000167  -0.021654  -0.003134
     5  C    0.012541  -0.000625  -0.000714   0.000056   0.009962   0.004496
     6  C   -0.111835   0.001371   0.014958  -0.000317  -0.069105  -0.005739
     7  H   -0.000626   0.000003  -0.000028  -0.000002   0.002217  -0.003697
     8  H   -0.001888   0.000269   0.003517  -0.000057  -0.011121   0.001158
     9  C    0.009947   0.002220  -0.003628  -0.000070   0.009671  -0.000004
    10  H   -0.000027   0.000315  -0.000007  -0.000002  -0.000265  -0.000019
    11  H    0.004495  -0.003695   0.000533  -0.000003  -0.000005  -0.000010
    12  C   -0.000714  -0.000029   0.000071  -0.000000  -0.003625   0.000531
    13  H    0.000056  -0.000002  -0.000000   0.000000  -0.000070  -0.000003
    14  C    0.000871   0.000005  -0.000086   0.000000   0.001971  -0.000342
    15  H   -0.000000   0.000004  -0.000001   0.000000   0.000001   0.000003
    16  C   -0.008685  -0.000955   0.000856   0.000001  -0.002285   0.000067
    17  H   -0.001013   0.002093  -0.000055  -0.000005   0.000915   0.000013
    18  H    0.000104  -0.000029  -0.000005  -0.000001   0.000041  -0.000004
    19  C    5.345632   0.425182   0.443484  -0.029544  -0.053285   0.011443
    20  H    0.425182   0.477805  -0.028932  -0.004854   0.003091  -0.000074
    21  C    0.443484  -0.028932   4.979542   0.420350   0.031405  -0.004978
    22  H   -0.029544  -0.004854   0.420350   0.500743   0.000222   0.000038
    23  C   -0.053285   0.003091   0.031405   0.000222   5.025626   0.446803
    24  H    0.011443  -0.000074  -0.004978   0.000038   0.446803   0.529283
    25  H   -0.001300   0.000224   0.002763  -0.000115   0.415843  -0.015060
    26  C   -0.006032  -0.001189  -0.047697   0.004815   0.339724  -0.054128
    27  H   -0.001057   0.000067   0.002887  -0.000169  -0.039182  -0.003314
    28  H    0.005048  -0.000043  -0.004492  -0.000359  -0.029121  -0.003608
              25         26         27         28
     1  C   -0.001996   0.285189  -0.028774  -0.039507
     2  C   -0.048859  -0.082820   0.011869  -0.010681
     3  H   -0.000168  -0.030923  -0.003886   0.000455
     4  H   -0.005985   0.009867  -0.000190  -0.000158
     5  C   -0.000027  -0.008686   0.000104  -0.001010
     6  C    0.008330   0.021833  -0.000496   0.002761
     7  H    0.000315  -0.000954  -0.000029   0.002094
     8  H   -0.000234   0.002368   0.000374  -0.003395
     9  C   -0.000264  -0.002287   0.000041   0.000916
    10  H    0.000019   0.000086  -0.000002   0.000012
    11  H   -0.000019   0.000067  -0.000004   0.000013
    12  C   -0.000007   0.000856  -0.000005  -0.000055
    13  H   -0.000002   0.000001  -0.000001  -0.000005
    14  C   -0.000043  -0.000280   0.000002   0.000035
    15  H   -0.000001   0.000000   0.000000  -0.000000
    16  C    0.000086   0.000463  -0.000002  -0.000041
    17  H    0.000012  -0.000041   0.000001  -0.000003
    18  H   -0.000002  -0.000002  -0.000000   0.000001
    19  C   -0.001300  -0.006032  -0.001057   0.005048
    20  H    0.000224  -0.001189   0.000067  -0.000043
    21  C    0.002763  -0.047697   0.002887  -0.004492
    22  H   -0.000115   0.004815  -0.000169  -0.000359
    23  C    0.415843   0.339724  -0.039182  -0.029121
    24  H   -0.015060  -0.054128  -0.003314  -0.003608
    25  H    0.555998  -0.027215  -0.006223   0.005242
    26  C   -0.027215   4.959935   0.415239   0.400776
    27  H   -0.006223   0.415239   0.548844  -0.023544
    28  H    0.005242   0.400776  -0.023544   0.582716
          Atomic-Atomic Spin Densities.
               1          2          3          4          5          6
     1  C   -0.713601  -0.005640   0.001227  -0.000092   0.000180  -0.004731
     2  C   -0.005640   0.093447  -0.000203  -0.003912  -0.042365   0.000014
     3  H    0.001227  -0.000203   0.025816   0.000002   0.000002   0.000035
     4  H   -0.000092  -0.003912   0.000002  -0.010502   0.002319   0.008211
     5  C    0.000180  -0.042365   0.000002   0.002319   0.760716  -0.032393
     6  C   -0.004731   0.000014   0.000035   0.008211  -0.032393  -0.093393
     7  H    0.000000   0.000906   0.000000  -0.000005  -0.003880   0.000875
     8  H    0.001408  -0.008219   0.000007   0.000000  -0.001187   0.003904
     9  C   -0.000267  -0.011275   0.000000  -0.000868  -0.005952   0.011112
    10  H   -0.000003   0.000384  -0.000000  -0.000024  -0.001806   0.000312
    11  H    0.000243   0.000682  -0.000000   0.000010   0.000125   0.000851
    12  C    0.000078   0.006470  -0.000000  -0.001311  -0.003900   0.006091
    13  H    0.000000   0.000146  -0.000000  -0.000022  -0.000963   0.000235
    14  C   -0.000000   0.004737  -0.000000  -0.001409  -0.062140   0.005649
    15  H    0.000000  -0.000035  -0.000000  -0.000007  -0.000506   0.000203
    16  C    0.000030  -0.001025   0.000000   0.000960   0.007583  -0.002748
    17  H   -0.000013  -0.003222   0.000000   0.000441   0.003697  -0.002079
    18  H    0.000001   0.000259   0.000000  -0.000045  -0.000047   0.000637
    19  C    0.062124   0.032382   0.000505   0.001192  -0.000001   0.042323
    20  H    0.000350  -0.000873  -0.000006  -0.000199  -0.000083  -0.000907
    21  C   -0.008023  -0.006090  -0.000722   0.000843   0.000666  -0.006458
    22  H    0.000797  -0.000235  -0.000299   0.000023   0.000008  -0.000145
    23  C   -0.002313  -0.011133   0.000308  -0.003888  -0.005781   0.011269
    24  H   -0.000219  -0.000850  -0.000006   0.000142   0.001294  -0.000682
    25  H    0.000423  -0.000311   0.000010   0.000111   0.000181  -0.000384
    26  C    0.034189   0.002744  -0.001181  -0.000133   0.000659   0.001019
    27  H    0.007399  -0.000636  -0.000245   0.000050   0.000050  -0.000259
    28  H    0.022213   0.002076   0.000142  -0.000207  -0.000245   0.003220
               7          8          9         10         11         12
     1  C    0.000000   0.001408  -0.000267  -0.000003   0.000243   0.000078
     2  C    0.000906  -0.008219  -0.011275   0.000384   0.000682   0.006470
     3  H    0.000000   0.000007   0.000000  -0.000000  -0.000000  -0.000000
     4  H   -0.000005   0.000000  -0.000868  -0.000024   0.000010  -0.001311
     5  C   -0.003880  -0.001187  -0.005952  -0.001806   0.000125  -0.003900
     6  C    0.000875   0.003904   0.011112   0.000312   0.000851   0.006091
     7  H   -0.025924   0.000199  -0.000394  -0.000027   0.000009   0.002384
     8  H    0.000199   0.010507   0.003890  -0.000111  -0.000142  -0.000845
     9  C   -0.000394   0.003890   0.004260  -0.001024  -0.000773  -0.001847
    10  H   -0.000027  -0.000111  -0.001024   0.000787   0.000341   0.001192
    11  H    0.000009  -0.000142  -0.000773   0.000341  -0.000186  -0.000156
    12  C    0.002384  -0.000845  -0.001847   0.001192  -0.000156  -0.248176
    13  H    0.000344  -0.000023  -0.000099   0.000020  -0.000001   0.001359
    14  C   -0.000349   0.000092   0.002306  -0.000424   0.000219   0.008040
    15  H    0.000006  -0.000002  -0.000308  -0.000010   0.000006   0.000726
    16  C    0.000035   0.000134   0.006739   0.000638  -0.000154   0.003384
    17  H   -0.000037   0.000208  -0.003441   0.000248  -0.000347  -0.000048
    18  H    0.000005  -0.000050   0.003323  -0.000529   0.000201   0.000532
    19  C    0.000083  -0.002315   0.005794  -0.000181  -0.001294  -0.000667
    20  H    0.000000   0.000005   0.000163   0.000019  -0.000164   0.000032
    21  C   -0.000032   0.001309  -0.000841  -0.000001   0.000107  -0.000000
    22  H   -0.000000   0.000022  -0.000026   0.000000   0.000009  -0.000000
    23  C   -0.000163   0.000870   0.000002  -0.000018  -0.000128   0.000840
    24  H    0.000164  -0.000010   0.000128   0.000001   0.000000  -0.000107
    25  H   -0.000019   0.000024   0.000018  -0.000000  -0.000001   0.000001
    26  C    0.000164  -0.000960   0.000065   0.000002  -0.000041  -0.000244
    27  H    0.000004   0.000045   0.000007   0.000000   0.000002   0.000007
    28  H   -0.000085  -0.000441  -0.000054  -0.000004  -0.000038  -0.000120
              13         14         15         16         17         18
     1  C    0.000000  -0.000000   0.000000   0.000030  -0.000013   0.000001
     2  C    0.000146   0.004737  -0.000035  -0.001025  -0.003222   0.000259
     3  H   -0.000000  -0.000000  -0.000000   0.000000   0.000000   0.000000
     4  H   -0.000022  -0.001409  -0.000007   0.000960   0.000441  -0.000045
     5  C   -0.000963  -0.062140  -0.000506   0.007583   0.003697  -0.000047
     6  C    0.000235   0.005649   0.000203  -0.002748  -0.002079   0.000637
     7  H    0.000344  -0.000349   0.000006   0.000035  -0.000037   0.000005
     8  H   -0.000023   0.000092  -0.000002   0.000134   0.000208  -0.000050
     9  C   -0.000099   0.002306  -0.000308   0.006739  -0.003441   0.003323
    10  H    0.000020  -0.000424  -0.000010   0.000638   0.000248  -0.000529
    11  H   -0.000001   0.000219   0.000006  -0.000154  -0.000347   0.000201
    12  C    0.001359   0.008040   0.000726   0.003384  -0.000048   0.000532
    13  H    0.008720  -0.000796   0.000300   0.000039  -0.000041   0.000016
    14  C   -0.000796   0.713587  -0.001230  -0.034178  -0.022219  -0.007396
    15  H    0.000300  -0.001230  -0.025817   0.001180  -0.000142   0.000245
    16  C    0.000039  -0.034178   0.001180  -0.036333   0.012664   0.004636
    17  H   -0.000041  -0.022219  -0.000142   0.012664   0.056041  -0.008778
    18  H    0.000016  -0.007396   0.000245   0.004636  -0.008778   0.021143
    19  C   -0.000008  -0.000179  -0.000002  -0.000661   0.000245  -0.000050
    20  H    0.000000  -0.000000  -0.000000  -0.000164   0.000085  -0.000004
    21  C    0.000000  -0.000078   0.000000   0.000244   0.000120  -0.000007
    22  H   -0.000000  -0.000000   0.000000   0.000004   0.000002  -0.000000
    23  C    0.000026   0.000266  -0.000000  -0.000065   0.000055  -0.000007
    24  H   -0.000009  -0.000243   0.000000   0.000041   0.000038  -0.000002
    25  H   -0.000000   0.000003   0.000000  -0.000002   0.000004  -0.000000
    26  C   -0.000004  -0.000030  -0.000000  -0.000000   0.000018  -0.000001
    27  H    0.000000  -0.000001  -0.000000   0.000001   0.000000  -0.000000
    28  H   -0.000002   0.000013  -0.000000  -0.000018   0.000000  -0.000000
              19         20         21         22         23         24
     1  C    0.062124   0.000350  -0.008023   0.000797  -0.002313  -0.000219
     2  C    0.032382  -0.000873  -0.006090  -0.000235  -0.011133  -0.000850
     3  H    0.000505  -0.000006  -0.000722  -0.000299   0.000308  -0.000006
     4  H    0.001192  -0.000199   0.000843   0.000023  -0.003888   0.000142
     5  C   -0.000001  -0.000083   0.000666   0.000008  -0.005781   0.001294
     6  C    0.042323  -0.000907  -0.006458  -0.000145   0.011269  -0.000682
     7  H    0.000083   0.000000  -0.000032  -0.000000  -0.000163   0.000164
     8  H   -0.002315   0.000005   0.001309   0.000022   0.000870  -0.000010
     9  C    0.005794   0.000163  -0.000841  -0.000026   0.000002   0.000128
    10  H   -0.000181   0.000019  -0.000001   0.000000  -0.000018   0.000001
    11  H   -0.001294  -0.000164   0.000107   0.000009  -0.000128   0.000000
    12  C   -0.000667   0.000032  -0.000000  -0.000000   0.000840  -0.000107
    13  H   -0.000008   0.000000   0.000000  -0.000000   0.000026  -0.000009
    14  C   -0.000179  -0.000000  -0.000078  -0.000000   0.000266  -0.000243
    15  H   -0.000002  -0.000000   0.000000   0.000000  -0.000000   0.000000
    16  C   -0.000661  -0.000164   0.000244   0.000004  -0.000065   0.000041
    17  H    0.000245   0.000085   0.000120   0.000002   0.000055   0.000038
    18  H   -0.000050  -0.000004  -0.000007  -0.000000  -0.000007  -0.000002
    19  C   -0.760663   0.003884   0.003878   0.000962   0.005955  -0.000125
    20  H    0.003884   0.025918  -0.002387  -0.000344   0.000394  -0.000009
    21  C    0.003878  -0.002387   0.248182  -0.001359   0.001854   0.000156
    22  H    0.000962  -0.000344  -0.001359  -0.008719   0.000099   0.000001
    23  C    0.005955   0.000394   0.001854   0.000099  -0.004251   0.000772
    24  H   -0.000125  -0.000009   0.000156   0.000001   0.000772   0.000186
    25  H    0.001806   0.000027  -0.001192  -0.000020   0.001023  -0.000341
    26  C   -0.007570  -0.000036  -0.003399  -0.000040  -0.006737   0.000154
    27  H    0.000045  -0.000005  -0.000530  -0.000015  -0.003322  -0.000201
    28  H   -0.003692   0.000037   0.000045   0.000041   0.003441   0.000348
              25         26         27         28
     1  C    0.000423   0.034189   0.007399   0.022213
     2  C   -0.000311   0.002744  -0.000636   0.002076
     3  H    0.000010  -0.001181  -0.000245   0.000142
     4  H    0.000111  -0.000133   0.000050  -0.000207
     5  C    0.000181   0.000659   0.000050  -0.000245
     6  C   -0.000384   0.001019  -0.000259   0.003220
     7  H   -0.000019   0.000164   0.000004  -0.000085
     8  H    0.000024  -0.000960   0.000045  -0.000441
     9  C    0.000018   0.000065   0.000007  -0.000054
    10  H   -0.000000   0.000002   0.000000  -0.000004
    11  H   -0.000001  -0.000041   0.000002  -0.000038
    12  C    0.000001  -0.000244   0.000007  -0.000120
    13  H   -0.000000  -0.000004   0.000000  -0.000002
    14  C    0.000003  -0.000030  -0.000001   0.000013
    15  H    0.000000  -0.000000  -0.000000  -0.000000
    16  C   -0.000002  -0.000000   0.000001  -0.000018
    17  H    0.000004   0.000018   0.000000   0.000000
    18  H   -0.000000  -0.000001  -0.000000  -0.000000
    19  C    0.001806  -0.007570   0.000045  -0.003692
    20  H    0.000027  -0.000036  -0.000005   0.000037
    21  C   -0.001192  -0.003399  -0.000530   0.000045
    22  H   -0.000020  -0.000040  -0.000015   0.000041
    23  C    0.001023  -0.006737  -0.003322   0.003441
    24  H   -0.000341   0.000154  -0.000201   0.000348
    25  H   -0.000787  -0.000637   0.000529  -0.000248
    26  C   -0.000637   0.036326  -0.004643  -0.012648
    27  H    0.000529  -0.004643  -0.021140   0.008778
    28  H   -0.000248  -0.012648   0.008778  -0.056050
 Mulliken charges and spin densities:
               1          2
     1  C   -0.198736  -0.604240
     2  C   -0.100996   0.048221
     3  H    0.144678   0.025392
     4  H    0.129347  -0.008319
     5  C   -0.210010   0.616230
     6  C   -0.100868  -0.048220
     7  H    0.161755  -0.025737
     8  H    0.129209   0.008320
     9  C   -0.224654   0.010638
    10  H    0.118590  -0.000217
    11  H    0.135697  -0.000623
    12  C   -0.161534  -0.226287
    13  H    0.141506   0.009237
    14  C   -0.198811   0.604239
    15  H    0.144673  -0.025392
    16  C   -0.178983  -0.037037
    17  H    0.115960   0.033497
    18  H    0.127445   0.014083
    19  C   -0.210002  -0.616230
    20  H    0.161813   0.025734
    21  C   -0.161652   0.226286
    22  H    0.141505  -0.009237
    23  C   -0.224747  -0.010633
    24  H    0.135691   0.000622
    25  H    0.118688   0.000217
    26  C   -0.178965   0.037036
    27  H    0.127450  -0.014083
    28  H    0.115953  -0.033499
 Sum of Mulliken charges =  -0.00000   0.00000
 Mulliken charges and spin densities with hydrogens summed into heavy atoms:
               1          2
     1  C   -0.054059  -0.578848
     2  C    0.028351   0.039903
     5  C   -0.048255   0.590493
     6  C    0.028342  -0.039901
     9  C    0.029633   0.009798
    12  C   -0.020028  -0.217050
    14  C   -0.054138   0.578846
    16  C    0.064422   0.010544
    19  C   -0.048190  -0.590496
    21  C   -0.020148   0.217049
    23  C    0.029631  -0.009794
    26  C    0.064438  -0.010545
 Electronic spatial extent (au):  <R**2>=           2165.8682
 Charge=              0.0000 electrons
 Dipole moment (field-independent basis, Debye):
    X=              0.0008    Y=             -0.0002    Z=             -0.0001  Tot=              0.0008
 Quadrupole moment (field-independent basis, Debye-Ang):
   XX=            -71.8505   YY=            -71.2070   ZZ=            -76.4105
   XY=             -2.3501   XZ=             -2.5353   YZ=              0.1999
 Traceless Quadrupole moment (field-independent basis, Debye-Ang):
   XX=              1.3055   YY=              1.9490   ZZ=             -3.2545
   XY=             -2.3501   XZ=             -2.5353   YZ=              0.1999
 Octapole moment (field-independent basis, Debye-Ang**2):
  XXX=              0.0098  YYY=             -0.0024  ZZZ=             -0.0026  XYY=              0.0001
  XXY=              0.0012  XXZ=              0.0017  XZZ=             -0.0005  YZZ=              0.0005
  YYZ=             -0.0001  XYZ=              0.0028
 Hexadecapole moment (field-independent basis, Debye-Ang**3):
 XXXX=          -2000.9732 YYYY=           -640.9450 ZZZZ=           -281.1594 XXXY=            -87.4966
 XXXZ=           -102.1152 YYYX=            -63.6240 YYYZ=              0.5910 ZZZX=            -58.2165
 ZZZY=             -7.8988 XXYY=           -439.6428 XXZZ=           -413.8296 YYZZ=           -168.2322
 XXYZ=            -17.1430 YYXZ=            -20.8518 ZZXY=            -41.4323
 N-N= 6.976107741534D+02 E-N=-2.476844137096D+03  KE= 4.640922730220D+02
                          Isotropic Fermi Contact Couplings
        Atom                 a.u.       MegaHertz       Gauss      10(-4) cm-1
     1  C(13)             -0.04639     -26.07493      -9.30418      -8.69766
     2  C(13)              0.05364      30.14986      10.75822      10.05691
     3  H(1)               0.00906      20.25415       7.22718       6.75606
     4  H(1)              -0.00439      -9.81149      -3.50099      -3.27276
     5  C(13)              0.04754      26.72000       9.53436       8.91283
     6  C(13)             -0.05364     -30.15062     -10.75849     -10.05716
     7  H(1)              -0.00935     -20.90041      -7.45779      -6.97163
     8  H(1)               0.00439       9.81126       3.50090       3.27268
     9  C(13)              0.00220       1.23510       0.44071       0.41199
    10  H(1)              -0.00025      -0.56481      -0.20154      -0.18840
    11  H(1)              -0.00040      -0.89735      -0.32020      -0.29932
    12  C(13)             -0.04390     -24.67861      -8.80594      -8.23190
    13  H(1)               0.00300       6.70226       2.39153       2.23563
    14  C(13)              0.04639      26.07488       9.30416       8.69764
    15  H(1)              -0.00906     -20.25426      -7.22722      -6.75609
    16  C(13)             -0.01877     -10.54860      -3.76400      -3.51863
    17  H(1)               0.01615      36.09819      12.88073      12.04106
    18  H(1)               0.00667      14.91775       5.32302       4.97602
    19  C(13)             -0.04753     -26.71896      -9.53399      -8.91249
    20  H(1)               0.00935      20.90043       7.45779       6.97163
    21  C(13)              0.04390      24.67803       8.80573       8.23170
    22  H(1)              -0.00300      -6.70199      -2.39144      -2.23554
    23  C(13)             -0.00220      -1.23468      -0.44056      -0.41184
    24  H(1)               0.00040       0.89730       0.32018       0.29931
    25  H(1)               0.00025       0.56482       0.20154       0.18840
    26  C(13)              0.01877      10.54855       3.76399       3.51862
    27  H(1)              -0.00667     -14.91790      -5.32308      -4.97608
    28  H(1)              -0.01615     -36.09859     -12.88087     -12.04119
 --------------------------------------------------------
       Center         ----  Spin Dipole Couplings  ----
                      3XX-RR        3YY-RR        3ZZ-RR
 --------------------------------------------------------
     1   Atom        0.173451      0.356766     -0.530216
     2   Atom        0.000497     -0.017933      0.017437
     3   Atom       -0.037127      0.045458     -0.008331
     4   Atom       -0.003372     -0.003844      0.007216
     5   Atom       -0.254251     -0.347840      0.602092
     6   Atom       -0.000497      0.017935     -0.017438
     7   Atom       -0.020072      0.017118      0.002954
     8   Atom        0.003372      0.003844     -0.007216
     9   Atom       -0.000576      0.007197     -0.006621
    10   Atom       -0.004176      0.003564      0.000612
    11   Atom       -0.006609      0.007428     -0.000819
    12   Atom        0.082890      0.098036     -0.180926
    13   Atom        0.007347     -0.001473     -0.005874
    14   Atom       -0.173452     -0.356767      0.530218
    15   Atom        0.037127     -0.045458      0.008331
    16   Atom       -0.005817      0.002926      0.002891
    17   Atom       -0.008319      0.009129     -0.000810
    18   Atom       -0.006537      0.011034     -0.004497
    19   Atom        0.254253      0.347835     -0.602088
    20   Atom        0.020071     -0.017118     -0.002954
    21   Atom       -0.082887     -0.098032      0.180919
    22   Atom       -0.007347      0.001473      0.005874
    23   Atom        0.000576     -0.007197      0.006621
    24   Atom        0.006609     -0.007428      0.000819
    25   Atom        0.004176     -0.003564     -0.000612
    26   Atom        0.005816     -0.002926     -0.002891
    27   Atom        0.006537     -0.011034      0.004497
    28   Atom        0.008319     -0.009129      0.000810
 --------------------------------------------------------
                        XY            XZ            YZ
 --------------------------------------------------------
     1   Atom        0.011519     -0.388202      0.029527
     2   Atom        0.007782      0.030290      0.014982
     3   Atom       -0.008306      0.016787      0.005435
     4   Atom       -0.005028      0.006155      0.009200
     5   Atom       -0.048282      0.323858     -0.109012
     6   Atom       -0.007783     -0.030292     -0.014982
     7   Atom       -0.042958      0.002376      0.014722
     8   Atom        0.005029     -0.006154     -0.009200
     9   Atom       -0.014288     -0.013010      0.002038
    10   Atom       -0.001170     -0.003915     -0.005871
    11   Atom        0.004591     -0.008596     -0.000015
    12   Atom       -0.006363     -0.115239      0.032179
    13   Atom       -0.007544     -0.007166      0.003163
    14   Atom       -0.011516      0.388202     -0.029520
    15   Atom        0.008306     -0.016788     -0.005434
    16   Atom        0.001630      0.006264     -0.000764
    17   Atom        0.004650      0.001901      0.005753
    18   Atom       -0.002331     -0.000845     -0.002624
    19   Atom        0.048280     -0.323845      0.109012
    20   Atom        0.042958     -0.002375     -0.014721
    21   Atom        0.006364      0.115235     -0.032178
    22   Atom        0.007544      0.007166     -0.003162
    23   Atom        0.014288      0.013011     -0.002038
    24   Atom       -0.004591      0.008596      0.000015
    25   Atom        0.001170      0.003916      0.005871
    26   Atom       -0.001631     -0.006264      0.000764
    27   Atom        0.002331      0.000845      0.002624
    28   Atom       -0.004650     -0.001901     -0.005753
 --------------------------------------------------------


 ---------------------------------------------------------------------------------
              Anisotropic Spin Dipole Couplings in Principal Axis System
 ---------------------------------------------------------------------------------

       Atom             a.u.   MegaHertz   Gauss  10(-4) cm-1        Axes

              Baa    -0.7032   -94.369   -33.673   -31.478  0.4050 -0.0299  0.9138
     1 C(13)  Bbb     0.3454    46.345    16.537    15.459  0.9095  0.1154 -0.3994
              Bcc     0.3579    48.024    17.136    16.019 -0.0935  0.9929  0.0739
 
              Baa    -0.0252    -3.379    -1.206    -1.127  0.4672  0.6761 -0.5697
     2 C(13)  Bbb    -0.0197    -2.638    -0.941    -0.880 -0.6712  0.6906  0.2692
              Bcc     0.0448     6.017     2.147     2.007  0.5755  0.2567  0.7765
 
              Baa    -0.0459   -24.490    -8.739    -8.169  0.9019  0.1069 -0.4185
     3 H(1)   Bbb    -0.0007    -0.351    -0.125    -0.117  0.4236 -0.0304  0.9053
              Bcc     0.0466    24.841     8.864     8.286 -0.0841  0.9938  0.0727
 
              Baa    -0.0142    -7.600    -2.712    -2.535  0.5731  0.6807 -0.4562
     4 H(1)   Bbb     0.0012     0.654     0.233     0.218  0.7941 -0.5989  0.1040
              Bcc     0.0130     6.945     2.478     2.317  0.2025  0.4218  0.8838
 
              Baa    -0.3730   -50.057   -17.862   -16.697  0.7226  0.6712 -0.1650
     5 C(13)  Bbb    -0.3509   -47.087   -16.802   -15.707 -0.6141  0.7330  0.2925
              Bcc     0.7239    97.144    34.663    32.404  0.3173 -0.1101  0.9419
 
              Baa    -0.0448    -6.017    -2.147    -2.007  0.5755  0.2567  0.7765
     6 C(13)  Bbb     0.0197     2.638     0.941     0.880 -0.6713  0.6906  0.2692
              Bcc     0.0252     3.379     1.206     1.127  0.4671  0.6762 -0.5697
 
              Baa    -0.0502   -26.805    -9.565    -8.941  0.8083  0.5571 -0.1903
     7 H(1)   Bbb     0.0022     1.153     0.411     0.384  0.2918 -0.0984  0.9514
              Bcc     0.0481    25.653     9.153     8.557 -0.5113  0.8246  0.2421
 
              Baa    -0.0130    -6.946    -2.478    -2.317  0.2024  0.4218  0.8838
     8 H(1)   Bbb    -0.0012    -0.654    -0.233    -0.218  0.7941 -0.5989  0.1040
              Bcc     0.0142     7.600     2.712     2.535  0.5731  0.6807 -0.4562
 
              Baa    -0.0194    -2.610    -0.931    -0.870  0.6900  0.3204  0.6490
     9 C(13)  Bbb    -0.0022    -0.294    -0.105    -0.098 -0.3336 -0.6550  0.6780
              Bcc     0.0216     2.903     1.036     0.968 -0.6423  0.6843  0.3451
 
              Baa    -0.0080    -4.242    -1.514    -1.415  0.7214  0.3713  0.5845
    10 H(1)   Bbb    -0.0004    -0.206    -0.074    -0.069  0.6802 -0.5382 -0.4976
              Bcc     0.0083     4.448     1.587     1.484  0.1298  0.7566 -0.6409
 
              Baa    -0.0135    -7.181    -2.562    -2.395  0.8137 -0.1785  0.5532
    11 H(1)   Bbb     0.0038     2.002     0.714     0.668 -0.4049  0.5087  0.7598
              Bcc     0.0097     5.179     1.848     1.728  0.4170  0.8422 -0.3417
 
              Baa    -0.2266   -30.404   -10.849   -10.142  0.3461 -0.0858  0.9343
    12 C(13)  Bbb     0.0918    12.321     4.396     4.110  0.4470  0.8906 -0.0838
              Bcc     0.1348    18.084     6.453     6.032  0.8248 -0.4466 -0.3466
 
              Baa    -0.0090    -4.811    -1.717    -1.605  0.4131  0.0316  0.9101
    13 H(1)   Bbb    -0.0056    -2.999    -1.070    -1.000  0.4007  0.8911 -0.2129
              Bcc     0.0146     7.810     2.787     2.605  0.8177 -0.4527 -0.3555
 
              Baa    -0.3579   -48.024   -17.136   -16.019 -0.0935  0.9929  0.0739
    14 C(13)  Bbb    -0.3454   -46.345   -16.537   -15.459  0.9095  0.1154 -0.3994
              Bcc     0.7032    94.369    33.673    31.478  0.4050 -0.0298  0.9138
 
              Baa    -0.0466   -24.841    -8.864    -8.286 -0.0841  0.9938  0.0727
    15 H(1)   Bbb     0.0007     0.351     0.125     0.117  0.4237 -0.0304  0.9053
              Bcc     0.0459    24.490     8.739     8.169  0.9019  0.1069 -0.4185
 
              Baa    -0.0094    -1.255    -0.448    -0.419  0.8772 -0.1449 -0.4577
    16 C(13)  Bbb     0.0032     0.428     0.153     0.143  0.1164  0.9891 -0.0902
              Bcc     0.0062     0.828     0.295     0.276  0.4658  0.0258  0.8845
 
              Baa    -0.0095    -5.074    -1.811    -1.693  0.9727 -0.2225 -0.0654
    17 H(1)   Bbb    -0.0034    -1.833    -0.654    -0.611 -0.0316 -0.4064  0.9131
              Bcc     0.0129     6.907     2.465     2.304  0.2298  0.8862  0.4023
 
              Baa    -0.0074    -3.939    -1.406    -1.314  0.8920  0.1724  0.4178
    18 H(1)   Bbb    -0.0043    -2.315    -0.826    -0.772 -0.4363  0.0867  0.8956
              Bcc     0.0117     6.255     2.232     2.086 -0.1182  0.9812 -0.1526
 
              Baa    -0.7239   -97.142   -34.663   -32.403  0.3173 -0.1101  0.9419
    19 C(13)  Bbb     0.3509    47.086    16.802    15.706 -0.6141  0.7330  0.2925
              Bcc     0.3730    50.056    17.861    16.697  0.7226  0.6713 -0.1650
 
              Baa    -0.0481   -25.652    -9.153    -8.557 -0.5113  0.8246  0.2421
    20 H(1)   Bbb    -0.0022    -1.152    -0.411    -0.384  0.2918 -0.0984  0.9514
              Bcc     0.0502    26.805     9.565     8.941  0.8083  0.5571 -0.1903
 
              Baa    -0.1348   -18.083    -6.453    -6.032  0.8249 -0.4466 -0.3466
    21 C(13)  Bbb    -0.0918   -12.320    -4.396    -4.110  0.4470  0.8906 -0.0838
              Bcc     0.2266    30.403    10.849    10.141  0.3461 -0.0858  0.9343
 
              Baa    -0.0146    -7.810    -2.787    -2.605  0.8178 -0.4527 -0.3555
    22 H(1)   Bbb     0.0056     2.999     1.070     1.000  0.4007  0.8911 -0.2129
              Bcc     0.0090     4.811     1.717     1.605  0.4132  0.0317  0.9101
 
              Baa    -0.0216    -2.903    -1.036    -0.968 -0.6423  0.6843  0.3451
    23 C(13)  Bbb     0.0022     0.294     0.105     0.098 -0.3336 -0.6550  0.6780
              Bcc     0.0194     2.610     0.931     0.871  0.6900  0.3204  0.6490
 
              Baa    -0.0097    -5.180    -1.848    -1.728  0.4170  0.8422 -0.3417
    24 H(1)   Bbb    -0.0038    -2.002    -0.714    -0.668 -0.4049  0.5088  0.7597
              Bcc     0.0135     7.181     2.562     2.395  0.8137 -0.1785  0.5532
 
              Baa    -0.0083    -4.448    -1.587    -1.484  0.1298  0.7566 -0.6409
    25 H(1)   Bbb     0.0004     0.206     0.074     0.069  0.6802 -0.5382 -0.4976
              Bcc     0.0080     4.242     1.514     1.415  0.7214  0.3713  0.5845
 
              Baa    -0.0062    -0.828    -0.295    -0.276  0.4659  0.0259  0.8845
    26 C(13)  Bbb    -0.0032    -0.428    -0.153    -0.143  0.1163  0.9891 -0.0903
              Bcc     0.0094     1.255     0.448     0.419  0.8772 -0.1449 -0.4578
 
              Baa    -0.0117    -6.255    -2.232    -2.086 -0.1182  0.9812 -0.1526
    27 H(1)   Bbb     0.0043     2.315     0.826     0.772 -0.4363  0.0867  0.8956
              Bcc     0.0074     3.939     1.406     1.314  0.8920  0.1724  0.4178
 
              Baa    -0.0129    -6.907    -2.465    -2.304  0.2298  0.8862  0.4023
    28 H(1)   Bbb     0.0034     1.833     0.654     0.611 -0.0316 -0.4064  0.9131
              Bcc     0.0095     5.074     1.811     1.693  0.9727 -0.2225 -0.0654
 

 ---------------------------------------------------------------------------------

 No NMR shielding tensors so no spin-rotation constants.
 Leave Link  601 at Mon Aug  3 17:11:50 2020, MaxMem=  6442450944 cpu:               8.2 elap:               0.4
 (Enter /scratch/scicomp/CentOS/7.3.1611/Haswell/software/Gaussian/g16/l9999.exe)
 1\1\GINC-ATLAS-205\SP\UwB97XD\def2TZVP\C12H16\BOCHEN\03-Aug-2020\0\\#p
  uwb97xd guess=mix def2tzvp # scrf=(iefpcm,solvent=Cyclohexane,read) n
 osym 6d 10f\\endo-2 xp-pcm for eta=3\\0,1\C,0,-3.130926,-0.423925,0.23
 0614\C,0,-0.402668,-0.125188,-0.661714\H,0,-4.121721,-0.544101,0.65102
 \H,0,0.324925,-0.126026,-1.477873\C,0,1.104701,1.443859,0.614659\C,0,0
 .402668,0.125188,0.661714\H,0,0.570306,2.342088,0.897018\H,0,-0.324925
 ,0.126026,1.477873\C,0,1.426074,-0.983719,0.936566\H,0,1.827679,-0.830
 304,1.941515\H,0,0.940037,-1.960429,0.934664\C,0,2.402045,1.533898,0.1
 42597\H,0,2.860563,2.512891,0.05474\C,0,3.130926,0.423925,-0.230614\H,
 0,4.121721,0.544101,-0.65102\C,0,2.584558,-0.957939,-0.060346\H,0,2.25
 8123,-1.348285,-1.033742\H,0,3.376997,-1.634728,0.270453\C,0,-1.104701
 ,-1.443859,-0.614659\H,0,-0.570306,-2.342088,-0.897018\C,0,-2.402045,-
 1.533898,-0.142597\H,0,-2.860563,-2.512891,-0.05474\C,0,-1.426074,0.98
 3719,-0.936566\H,0,-0.940037,1.960429,-0.934664\H,0,-1.827679,0.830304
 ,-1.941515\C,0,-2.584558,0.957939,0.060346\H,0,-3.376997,1.634728,-0.2
 70453\H,0,-2.258122,1.348285,1.033742\\Version=ES64L-G16RevB.01\HF=-46
 6.8371766\S2=1.056895\S2-1=0.\S2A=0.544659\RMSD=8.709e-09\Dipole=0.000
 3067,-0.0000724,-0.0000555\Quadrupole=0.9705986,1.4490536,-2.4196521,-
 1.7472777,-1.8849189,0.1486083\PG=CI [X(C12H16)]\\@


 TERRY FORSTER, PORTLY ATLANTA BRAVES RELIEVER,
 ANNOUNCING THAT HE WAS GOING TO A FAT FARM:
 "A WAIST IS A TERRIBLE THING TO MIND."
 Job cpu time:       0 days  1 hours 48 minutes 26.8 seconds.
 Elapsed time:       0 days  0 hours  4 minutes 34.1 seconds.
 File lengths (MBytes):  RWF=    624 Int=      0 D2E=      0 Chk=     23 Scr=      1
 Normal termination of Gaussian 16 at Mon Aug  3 17:11:50 2020.
