 Entering Gaussian System, Link 0=g16
 Input=meso-TS_7_2_pcm.com
 Output=meso-TS_7_2_pcm.log
 Initial command:
 /scratch/scicomp/CentOS/7.3.1611/Haswell/software/Gaussian/g16/l1.exe "/scratch/bochen/cyclohexadiene-dimerization/wb97xd-def2tzvp/xp-pcm/meso/Gau-45634.inp" -scrdir="/scratch/bochen/cyclohexadiene-dimerization/wb97xd-def2tzvp/xp-pcm/meso/"
 Entering Link 1 = /scratch/scicomp/CentOS/7.3.1611/Haswell/software/Gaussian/g16/l1.exe PID=     45635.
  
 Copyright (c) 1988-2017, Gaussian, Inc.  All Rights Reserved.
  
 This is part of the Gaussian(R) 16 program.  It is based on
 the Gaussian(R) 09 system (copyright 2009, Gaussian, Inc.),
 the Gaussian(R) 03 system (copyright 2003, Gaussian, Inc.),
 the Gaussian(R) 98 system (copyright 1998, Gaussian, Inc.),
 the Gaussian(R) 94 system (copyright 1995, Gaussian, Inc.),
 the Gaussian 92(TM) system (copyright 1992, Gaussian, Inc.),
 the Gaussian 90(TM) system (copyright 1990, Gaussian, Inc.),
 the Gaussian 88(TM) system (copyright 1988, Gaussian, Inc.),
 the Gaussian 86(TM) system (copyright 1986, Carnegie Mellon
 University), and the Gaussian 82(TM) system (copyright 1983,
 Carnegie Mellon University). Gaussian is a federally registered
 trademark of Gaussian, Inc.
  
 This software contains proprietary and confidential information,
 including trade secrets, belonging to Gaussian, Inc.
  
 This software is provided under written license and may be
 used, copied, transmitted, or stored only in accord with that
 written license.
  
 The following legend is applicable only to US Government
 contracts under FAR:
  
                    RESTRICTED RIGHTS LEGEND
  
 Use, reproduction and disclosure by the US Government is
 subject to restrictions as set forth in subparagraphs (a)
 and (c) of the Commercial Computer Software - Restricted
 Rights clause in FAR 52.227-19.
  
 Gaussian, Inc.
 340 Quinnipiac St., Bldg. 40, Wallingford CT 06492
  
  
 ---------------------------------------------------------------
 Warning -- This program may not be used in any manner that
 competes with the business of Gaussian, Inc. or will provide
 assistance to any competitor of Gaussian, Inc.  The licensee
 of this program is prohibited from giving any competitor of
 Gaussian, Inc. access to this program.  By using this program,
 the user acknowledges that Gaussian, Inc. is engaged in the
 business of creating and licensing software in the field of
 computational chemistry and represents and warrants to the
 licensee that it is not a competitor of Gaussian, Inc. and that
 it will not use this program in any manner prohibited above.
 ---------------------------------------------------------------
  

 Cite this work as:
 Gaussian 16, Revision B.01,
 M. J. Frisch, G. W. Trucks, H. B. Schlegel, G. E. Scuseria, 
 M. A. Robb, J. R. Cheeseman, G. Scalmani, V. Barone, 
 G. A. Petersson, H. Nakatsuji, X. Li, M. Caricato, A. V. Marenich, 
 J. Bloino, B. G. Janesko, R. Gomperts, B. Mennucci, H. P. Hratchian, 
 J. V. Ortiz, A. F. Izmaylov, J. L. Sonnenberg, D. Williams-Young, 
 F. Ding, F. Lipparini, F. Egidi, J. Goings, B. Peng, A. Petrone, 
 T. Henderson, D. Ranasinghe, V. G. Zakrzewski, J. Gao, N. Rega, 
 G. Zheng, W. Liang, M. Hada, M. Ehara, K. Toyota, R. Fukuda, 
 J. Hasegawa, M. Ishida, T. Nakajima, Y. Honda, O. Kitao, H. Nakai, 
 T. Vreven, K. Throssell, J. A. Montgomery, Jr., J. E. Peralta, 
 F. Ogliaro, M. J. Bearpark, J. J. Heyd, E. N. Brothers, K. N. Kudin, 
 V. N. Staroverov, T. A. Keith, R. Kobayashi, J. Normand, 
 K. Raghavachari, A. P. Rendell, J. C. Burant, S. S. Iyengar, 
 J. Tomasi, M. Cossi, J. M. Millam, M. Klene, C. Adamo, R. Cammi, 
 J. W. Ochterski, R. L. Martin, K. Morokuma, O. Farkas, 
 J. B. Foresman, and D. J. Fox, Gaussian, Inc., Wallingford CT, 2016.
 
 ******************************************
 Gaussian 16:  ES64L-G16RevB.01 20-Dec-2017
                 3-Aug-2020 
 ******************************************
 %nproc=24
 Will use up to   24 processors via shared memory.
 %mem=48GB
 ----------------------------------------------------------------------
 #p uwb97xd guess=mix def2tzvp # scrf=(iefpcm,solvent=Cyclohexane,read)
  nosym 6d 10f
 ----------------------------------------------------------------------
 1/38=1,40=2,172=1/1;
 2/12=2,15=1,17=6,18=5,40=1/2;
 3/5=44,7=101,8=22,11=2,25=1,30=1,70=2203,72=17,74=-58,116=2/1,2,3;
 4/13=-1/1;
 5/5=2,38=5,53=17/2;
 6/7=2,8=2,9=2,10=2,28=1/1;
 99/5=1,9=1/99;
 Leave Link    1 at Mon Aug  3 16:00:25 2020, MaxMem=  6442450944 cpu:               2.7 elap:               0.1
 (Enter /scratch/scicomp/CentOS/7.3.1611/Haswell/software/Gaussian/g16/l101.exe)
 -----------------------
 endo-2 xp-pcm for eta=3
 -----------------------
 Symbolic Z-matrix:
 Charge =  0 Multiplicity = 1
 6                    -3.11802  -0.43643   0.24681 
 6                    -0.5408   -0.18919  -0.90537 
 1                    -4.08249  -0.54987   0.72805 
 1                     0.3773   -0.11693  -1.47326 
 6                     1.09139   1.405     0.68721 
 6                     0.5408    0.18919   0.90537 
 1                     0.52776   2.31093   0.87163 
 1                    -0.3773    0.11693   1.47326 
 6                     1.46497  -0.99971   0.98811 
 1                     1.90533  -0.95608   1.99108 
 1                     0.91825  -1.94015   0.92832 
 6                     2.41606   1.5169    0.1135 
 1                     2.8264    2.50621  -0.05205 
 6                     3.11802   0.43643  -0.24681 
 1                     4.08249   0.54987  -0.72805 
 6                     2.59181  -0.95835  -0.04427 
 1                     2.25267  -1.3564   -1.00869 
 1                     3.40068  -1.62059   0.2722 
 6                    -1.09139  -1.405    -0.68721 
 1                    -0.52776  -2.31093  -0.87163 
 6                    -2.41606  -1.5169   -0.1135 
 1                    -2.8264   -2.50621   0.05205 
 6                    -1.46497   0.99971  -0.98811 
 1                    -0.91825   1.94015  -0.92832 
 1                    -1.90533   0.95608  -1.99108 
 6                    -2.59181   0.95835   0.04427 
 1                    -3.40068   1.62059  -0.2722 
 1                    -2.25267   1.3564    1.00869 
 
 ITRead=  0  0  0  0  0  0  0  0  0  0  0  0  0  0  0  0  0  0  0  0
 ITRead=  0  0  0  0  0  0  0  0
 MicOpt= -1 -1 -1 -1 -1 -1 -1 -1 -1 -1 -1 -1 -1 -1 -1 -1 -1 -1 -1 -1
 MicOpt= -1 -1 -1 -1 -1 -1 -1 -1
 NAtoms=     28 NQM=       28 NQMF=       0 NMMI=      0 NMMIF=      0
                NMic=       0 NMicF=      0.
                    Isotopes and Nuclear Properties:
 (Nuclear quadrupole moments (NQMom) in fm**2, nuclear magnetic moments (NMagM)
  in nuclear magnetons)

  Atom         1           2           3           4           5           6           7           8           9          10
 IAtWgt=          12          12           1           1          12          12           1           1          12           1
 AtmWgt=  12.0000000  12.0000000   1.0078250   1.0078250  12.0000000  12.0000000   1.0078250   1.0078250  12.0000000   1.0078250
 NucSpn=           0           0           1           1           0           0           1           1           0           1
 AtZEff=  -0.0000000  -0.0000000  -0.0000000  -0.0000000  -0.0000000  -0.0000000  -0.0000000  -0.0000000  -0.0000000  -0.0000000
 NQMom=    0.0000000   0.0000000   0.0000000   0.0000000   0.0000000   0.0000000   0.0000000   0.0000000   0.0000000   0.0000000
 NMagM=    0.0000000   0.0000000   2.7928460   2.7928460   0.0000000   0.0000000   2.7928460   2.7928460   0.0000000   2.7928460
 AtZNuc=   6.0000000   6.0000000   1.0000000   1.0000000   6.0000000   6.0000000   1.0000000   1.0000000   6.0000000   1.0000000

  Atom        11          12          13          14          15          16          17          18          19          20
 IAtWgt=           1          12           1          12           1          12           1           1          12           1
 AtmWgt=   1.0078250  12.0000000   1.0078250  12.0000000   1.0078250  12.0000000   1.0078250   1.0078250  12.0000000   1.0078250
 NucSpn=           1           0           1           0           1           0           1           1           0           1
 AtZEff=  -0.0000000  -0.0000000  -0.0000000  -0.0000000  -0.0000000  -0.0000000  -0.0000000  -0.0000000  -0.0000000  -0.0000000
 NQMom=    0.0000000   0.0000000   0.0000000   0.0000000   0.0000000   0.0000000   0.0000000   0.0000000   0.0000000   0.0000000
 NMagM=    2.7928460   0.0000000   2.7928460   0.0000000   2.7928460   0.0000000   2.7928460   2.7928460   0.0000000   2.7928460
 AtZNuc=   1.0000000   6.0000000   1.0000000   6.0000000   1.0000000   6.0000000   1.0000000   1.0000000   6.0000000   1.0000000

  Atom        21          22          23          24          25          26          27          28
 IAtWgt=          12           1          12           1           1          12           1           1
 AtmWgt=  12.0000000   1.0078250  12.0000000   1.0078250   1.0078250  12.0000000   1.0078250   1.0078250
 NucSpn=           0           1           0           1           1           0           1           1
 AtZEff=  -0.0000000  -0.0000000  -0.0000000  -0.0000000  -0.0000000  -0.0000000  -0.0000000  -0.0000000
 NQMom=    0.0000000   0.0000000   0.0000000   0.0000000   0.0000000   0.0000000   0.0000000   0.0000000
 NMagM=    0.0000000   2.7928460   0.0000000   2.7928460   2.7928460   0.0000000   2.7928460   2.7928460
 AtZNuc=   6.0000000   1.0000000   6.0000000   1.0000000   1.0000000   6.0000000   1.0000000   1.0000000
 Leave Link  101 at Mon Aug  3 16:00:26 2020, MaxMem=  6442450944 cpu:               2.8 elap:               0.2
 (Enter /scratch/scicomp/CentOS/7.3.1611/Haswell/software/Gaussian/g16/l202.exe)
                          Input orientation:                          
 ---------------------------------------------------------------------
 Center     Atomic      Atomic             Coordinates (Angstroms)
 Number     Number       Type             X           Y           Z
 ---------------------------------------------------------------------
      1          6           0       -3.118021   -0.436434    0.246814
      2          6           0       -0.540801   -0.189187   -0.905365
      3          1           0       -4.082489   -0.549871    0.728045
      4          1           0        0.377295   -0.116929   -1.473260
      5          6           0        1.091386    1.404996    0.687212
      6          6           0        0.540801    0.189187    0.905365
      7          1           0        0.527763    2.310929    0.871630
      8          1           0       -0.377295    0.116929    1.473260
      9          6           0        1.464971   -0.999714    0.988105
     10          1           0        1.905333   -0.956079    1.991084
     11          1           0        0.918248   -1.940154    0.928320
     12          6           0        2.416056    1.516900    0.113501
     13          1           0        2.826400    2.506211   -0.052048
     14          6           0        3.118021    0.436434   -0.246814
     15          1           0        4.082489    0.549871   -0.728045
     16          6           0        2.591807   -0.958352   -0.044272
     17          1           0        2.252673   -1.356402   -1.008685
     18          1           0        3.400675   -1.620592    0.272198
     19          6           0       -1.091386   -1.404996   -0.687212
     20          1           0       -0.527763   -2.310929   -0.871630
     21          6           0       -2.416056   -1.516900   -0.113501
     22          1           0       -2.826400   -2.506211    0.052048
     23          6           0       -1.464971    0.999714   -0.988105
     24          1           0       -0.918248    1.940154   -0.928320
     25          1           0       -1.905333    0.956079   -1.991084
     26          6           0       -2.591807    0.958352    0.044272
     27          1           0       -3.400675    1.620592   -0.272198
     28          1           0       -2.252673    1.356402    1.008685
 ---------------------------------------------------------------------
                    Distance matrix (angstroms):
                    1          2          3          4          5
     1  C    0.000000
     2  C    2.833851   0.000000
     3  H    1.083813   3.916845   0.000000
     4  H    3.908705   1.081955   4.992280   0.000000
     5  C    4.615617   2.782401   5.531018   2.737484   0.000000
     6  C    3.769890   2.142842   4.685345   2.403809   1.352378
     7  H    4.607618   3.248095   5.427635   3.378705   1.082772
     8  H    3.053188   2.403809   3.837764   3.050586   2.105709
     9  C    4.676603   2.874944   5.571741   2.832078   2.452087
    10  H    5.342901   3.867960   6.133049   3.878241   2.817316
    11  H    4.360859   2.925254   5.194263   3.063391   3.358294
    12  C    5.870204   3.562559   6.846919   3.056755   1.447901
    13  H    6.639625   4.396745   7.594796   3.859899   2.183908
    14  C    6.316153   3.769890   7.332837   3.053188   2.432646
    15  H    7.332837   4.685345   8.366391   3.837764   3.417731
    16  C    5.741016   3.338612   6.731237   2.766598   2.893397
    17  H    5.591688   3.029284   6.618232   2.295466   3.442379
    18  H    6.625426   4.355549   7.573109   3.801112   3.828738
    19  C    2.432646   1.352378   3.417731   2.105709   3.814392
    20  H    3.387342   2.122050   4.277425   2.448413   4.342779
    21  C    1.337905   2.430319   2.102461   3.407591   4.634735
    22  H    2.099275   3.392522   2.421156   4.277721   5.572255
    23  C    2.513985   1.508119   3.492533   2.208214   3.083164
    24  H    3.445013   2.162657   4.353871   2.491381   2.633432
    25  H    2.901360   2.086233   3.794938   2.574855   4.044146
    26  C    1.504444   2.534814   2.228097   3.503527   3.765471
    27  H    2.140239   3.443121   2.485209   4.328347   4.598430
    28  H    2.131557   2.997155   2.657228   3.904803   3.359827
                    6          7          8          9         10
     6  C    0.000000
     7  H    2.122050   0.000000
     8  H    1.081955   2.448413   0.000000
     9  C    1.508119   3.442714   2.208214   0.000000
    10  H    2.086233   3.718093   2.574855   1.096262   0.000000
    11  H    2.162657   4.269356   2.491381   1.089453   1.752771
    12  C    2.430319   2.184237   3.407591   2.828929   3.146710
    13  H    3.392522   2.484964   4.277721   3.902168   4.124343
    14  C    2.833851   3.387342   3.908705   2.513985   2.901360
    15  H    3.916845   4.277425   4.992280   3.492533   3.794938
    16  C    2.534814   3.973330   3.503527   1.528814   2.148005
    17  H    2.997155   4.467686   3.904803   2.175976   3.046230
    18  H    3.443121   4.906098   4.328347   2.155217   2.373224
    19  C    2.782401   4.342779   2.737484   3.083164   4.044146
    20  H    3.248095   5.051204   3.378705   3.024713   3.993834
    21  C    3.562559   4.928370   3.056755   4.067356   4.839236
    22  H    4.396745   5.926800   3.859899   4.643447   5.343413
    23  C    2.874944   3.024713   2.832078   4.060502   4.905063
    24  H    2.925254   2.338427   3.063391   4.242080   4.988356
    25  H    3.867960   3.993834   3.878241   4.905063   5.833968
    26  C    3.338612   3.499386   2.766598   4.602422   5.261121
    27  H    4.355549   4.149401   3.801112   5.668234   6.317864
    28  H    3.029284   2.942912   2.295466   4.401430   4.858157
                   11         12         13         14         15
    11  H    0.000000
    12  C    3.854683   0.000000
    13  H    4.936834   1.083755   0.000000
    14  C    3.445013   1.337905   2.099275   0.000000
    15  H    4.353871   2.102461   2.421156   1.083813   0.000000
    16  C    2.170408   2.486494   3.472505   1.504444   2.228097
    17  H    2.423519   3.088990   4.020460   2.131557   2.657228
    18  H    2.587481   3.292190   4.179166   2.140239   2.485209
    19  C    2.633432   4.634735   5.572255   4.615617   5.531018
    20  H    2.338427   4.928370   5.926800   4.607618   5.427635
    21  C    3.518823   5.710059   6.608521   5.870204   6.846919
    22  H    3.887243   6.608521   7.555750   6.639625   7.594796
    23  C    4.242080   4.067356   4.643447   4.676603   5.571741
    24  H    4.677245   3.518823   3.887243   4.360859   5.194263
    25  H    4.988356   4.839236   5.343413   5.342901   6.133049
    26  C    4.637172   5.039391   5.635789   5.741016   6.731237
    27  H    5.724793   5.830427   6.293588   6.625426   7.573109
    28  H    4.574766   4.756484   5.314527   5.591688   6.618232
                   16         17         18         19         20
    16  C    0.000000
    17  H    1.097063   0.000000
    18  H    1.092237   1.740220   0.000000
    19  C    3.765471   3.359827   4.598430   0.000000
    20  H    3.499386   2.942912   4.149401   1.082772   0.000000
    21  C    5.039391   4.756484   5.830427   1.447901   2.184237
    22  H    5.635789   5.314527   6.293588   2.183908   2.484964
    23  C    4.602422   4.401430   5.668234   2.452087   3.442714
    24  H    4.637172   4.574766   5.724793   3.358294   4.269356
    25  H    5.261121   4.858157   6.317864   2.817316   3.718093
    26  C    5.527336   5.471361   6.527844   2.893397   3.973330
    27  H    6.527844   6.431582   7.553807   3.828738   4.906098
    28  H    5.471361   5.632693   6.431582   3.442379   4.467686
                   21         22         23         24         25
    21  C    0.000000
    22  H    1.083755   0.000000
    23  C    2.828929   3.902168   0.000000
    24  H    3.854683   4.936834   1.089453   0.000000
    25  H    3.146710   4.124343   1.096262   1.752771   0.000000
    26  C    2.486494   3.472505   1.528814   2.170408   2.148005
    27  H    3.292190   4.179166   2.155217   2.587481   2.373224
    28  H    3.088990   4.020460   2.175976   2.423519   3.046230
                   26         27         28
    26  C    0.000000
    27  H    1.092237   0.000000
    28  H    1.097063   1.740220   0.000000
 Symmetry turned off by external request.
 Stoichiometry    C12H16
 Framework group  CI[X(C12H16)]
 Deg. of freedom    39
 Full point group                 CI      NOp   2
 Rotational constants (GHZ):           1.9392843           0.6339053           0.5521422
 Leave Link  202 at Mon Aug  3 16:00:26 2020, MaxMem=  6442450944 cpu:               0.4 elap:               0.1
 (Enter /scratch/scicomp/CentOS/7.3.1611/Haswell/software/Gaussian/g16/l301.exe)
 Standard basis: def2TZVP (6D, 10F)
 Ernie: Thresh=  0.10000D-02 Tol=  0.10000D-05 Strict=F.
   528 basis functions,   740 primitive gaussians,   528 cartesian basis functions
    44 alpha electrons       44 beta electrons
       nuclear repulsion energy       691.4450243144 Hartrees.
 IExCor= 4639 DFT=T Ex+Corr=wB97XD ExCW=0 ScaHFX=  1.000000
 ScaDFX=  1.000000  1.000000  1.000000  1.000000 ScalE2=  1.000000  1.000000
 IRadAn=      5 IRanWt=     -1 IRanGd=            0 ICorTp=0 IEmpDi=121
 HFx  wShort=  0.000000 wLong=  0.200000 cFull=  0.222036 cShort=  0.000000 cLong=  0.777964
 DFx  wShort=  0.000000 wLong=  0.200000 cFull=  0.000000 cShort=  0.000000 cLong=  1.000000
 NAtoms=   28 NActive=   28 NUniq=   28 SFac= 1.00D+00 NAtFMM=   60 NAOKFM=F Big=F
 Integral buffers will be    131072 words long.
 Raffenetti 2 integral format.
 Two-electron integral symmetry is turned off.
 R6Disp:  Grimme-D2 Dispersion energy=       -0.0229551667 Hartrees.
 Nuclear repulsion after empirical dispersion term =      691.4220691477 Hartrees.
 Using the following non-standard input for PCM:
 norep pcmdoc geomview  nodis nocav g03defaults tsare=0.075
 Warning! Using old PCM defaults because the g03defaults keyword was found.
 These settings can be overridden by following keywords.
 nsfe=28
 NVESolv=36  SolvMW=84.1595   Rsolv=2.815
 eps=2.0165 RhoS=0.7781
 --- end of non-standard input.
 Reading user-defined spheres from input:
 ISph  on   Nord    Re0     Alpha      Xe            Ye            Ze
 --- end of user-defined spheres data.
 ------------------------------------------------------------------------------
 Polarizable Continuum Model (PCM)
 =================================
 Model                : PCM.
 Atomic radii         : UA0 (Simple United Atom Topological Model).
 Polarization charges : Total charges.
 Charge compensation  : None.
 Solution method      : On-the-fly selection.
 Cavity type          : SES (Solvent Excluding Surface) (Alpha=1.000).
 Cavity algorithm     : GePol (RMin=0.200 OFac=0.890).
                        User-defined sphere list used, NSphG=   28.
                        Tesserae with average area of 0.075 Ang**2.
                        Smoothing algorithm: None.
                        Polarization charges: point-like.
                        Self-potential: constant (ISelfS= 1).
                        Self-field    : global E.n sum rule (ISelfD= 3).
 Solvent              : CycloHexane, Eps=   2.016500 Eps(inf)=   2.035188
                        RSolv=   2.815000 Ang.
 ------------------------------------------------------------------------------
 GePol: Number of generator spheres                  =      28
 GePol: Total number of spheres                      =     177
 GePol: Number of exposed spheres                    =     131 ( 74.01%)
 GePol: Number of tesserae                           =    4657
 GePol: Average area of tesserae                     =       0.05 Ang**2
 GePol: Minimum area of tessera                      =   0.10D-02 Ang**2
 GePol: Maximum area of tessera                      =    0.12654 Ang**2
 GePol: Number of small tesserae                     =       0
 GePol: Fraction of small tesserae (<1% of avg)      =       0.00%
 GePol: Total count of vertices                      =   16480
 GePol: Maximum number of vertices in a tessera      =       7
 GePol: Cavity surface area                          =    218.408 Ang**2
 GePol: Cavity volume                                =    245.840 Ang**3
 Leave Link  301 at Mon Aug  3 16:00:27 2020, MaxMem=  6442450944 cpu:              10.7 elap:               0.5
 (Enter /scratch/scicomp/CentOS/7.3.1611/Haswell/software/Gaussian/g16/l302.exe)
 NPDir=0 NMtPBC=     1 NCelOv=     1 NCel=       1 NClECP=     1 NCelD=      1
         NCelK=      1 NCelE2=     1 NClLst=     1 CellRange=     0.0.
 One-electron integrals computed using PRISM.
   1 Symmetry operations used in ECPInt.
 ECPInt:  NShTT=   19306 NPrTT=   56928 LenC2=   18522 LenP2D=   42271.
 LDataN:  DoStor=T MaxTD1= 6 Len=  172
 NBasis=   528 RedAO= T EigKep=  2.38D-05  NBF=   528
 NBsUse=   528 1.00D-06 EigRej= -1.00D+00 NBFU=   528
 Precomputing XC quadrature grid using
 IXCGrd= 4 IRadAn=           5 IRanWt=          -1 IRanGd=           0 AccXCQ= 0.00D+00.
 Generated NRdTot=       0 NPtTot=           0 NUsed=           0 NTot=          32
 NSgBfM=   526   526   526   526   526 MxSgAt=    28 MxSgA2=    28.
 Leave Link  302 at Mon Aug  3 16:00:28 2020, MaxMem=  6442450944 cpu:              12.9 elap:               0.6
 (Enter /scratch/scicomp/CentOS/7.3.1611/Haswell/software/Gaussian/g16/l303.exe)
 DipDrv:  MaxL=1.
 Leave Link  303 at Mon Aug  3 16:00:29 2020, MaxMem=  6442450944 cpu:               1.8 elap:               0.1
 (Enter /scratch/scicomp/CentOS/7.3.1611/Haswell/software/Gaussian/g16/l401.exe)
 ExpMin= 9.52D-02 ExpMax= 1.36D+04 ExpMxC= 4.63D+02 IAcc=3 IRadAn=         5 AccDes= 0.00D+00
 Harris functional with IExCor= 4639 and IRadAn=       5 diagonalized for initial guess.
 HarFok:  IExCor= 4639 AccDes= 0.00D+00 IRadAn=         5 IDoV= 1 UseB2=F ITyADJ=14
 ICtDFT=  3500011 ScaDFX=  1.000000  1.000000  1.000000  1.000000
 FoFCou: FMM=F IPFlag=           0 FMFlag=      100000 FMFlg1=           0
         NFxFlg=           0 DoJE=T BraDBF=F KetDBF=T FulRan=T
         wScrn=  0.000000 ICntrl=       500 IOpCl=  0 I1Cent=   200000004 NGrid=           0
         NMat0=    1 NMatS0=      1 NMatT0=    0 NMatD0=    1 NMtDS0=    0 NMtDT0=    0
 Symmetry not used in FoFCou.
 Harris En= -444.621851226579    
 JPrj=0 DoOrth=F DoCkMO=T.
 Mixing orbitals, IMix= 1 IMixAn=  0 NRI=1 NE=   44 Coef=  7.07106781D-01  7.07106781D-01
 Mixing orbitals, IMix= 1 IMixAn=  0 NRI=1 NE=   44 Coef= -7.07106781D-01  7.07106781D-01
 Initial guess <Sx>= 0.0000 <Sy>= 0.0000 <Sz>= 0.0000 <S**2>= 1.0000 S= 0.6180
 Leave Link  401 at Mon Aug  3 16:00:31 2020, MaxMem=  6442450944 cpu:              49.5 elap:               2.1
 (Enter /scratch/scicomp/CentOS/7.3.1611/Haswell/software/Gaussian/g16/l502.exe)
 Two-electron integral symmetry not used.
 UHF open shell SCF:
 Using DIIS extrapolation, IDIIS=  1040.
 NGot=  6442450944 LenX=  6441877030 LenY=  6441597718
 Requested convergence on RMS density matrix=1.00D-08 within 128 cycles.
 Requested convergence on MAX density matrix=1.00D-06.
 Requested convergence on             energy=1.00D-06.
 No special actions if energy rises.
 Fock matrices will be formed incrementally for  20 cycles.

 Cycle   1  Pass 1  IDiag  1:
 FoFJK:  IHMeth= 1 ICntrl=       0 DoSepK=T KAlg= 0 I1Cent=           0 FoldK=F
 IRaf=         1 NMat=       1 IRICut=       1 DoRegI=T DoRafI=F ISym2E= 0 IDoP0=0 IntGTp=1.
 FoFCou: FMM=F IPFlag=           0 FMFlag=      100000 FMFlg1=           0
         NFxFlg=           0 DoJE=T BraDBF=F KetDBF=F FulRan=T
         wScrn=  0.000000 ICntrl=       500 IOpCl=  0 I1Cent=           0 NGrid=           0
         NMat0=    1 NMatS0=      1 NMatT0=    0 NMatD0=    1 NMtDS0=    0 NMtDT0=    0
 Symmetry not used in FoFCou.
 Inv3:  Mode=1 IEnd=    65062947.
 Iteration    1 A*A^-1 deviation from unit magnitude is 3.77D-15 for    361.
 Iteration    1 A*A^-1 deviation from orthogonality  is 1.71D-15 for   3988   3706.
 Iteration    1 A^-1*A deviation from unit magnitude is 3.55D-15 for    361.
 Iteration    1 A^-1*A deviation from orthogonality  is 2.36D-15 for   2001   1018.
 E= -466.619400567718    
 DIIS: error= 5.23D-02 at cycle   1 NSaved=   1.
 NSaved= 1 IEnMin= 1 EnMin= -466.619400567718     IErMin= 1 ErrMin= 5.23D-02
 ErrMax= 5.23D-02  0.00D+00 EMaxC= 1.00D-01 BMatC= 4.10D+00 BMatP= 4.10D+00
 IDIUse=3 WtCom= 4.77D-01 WtEn= 5.23D-01
 Coeff-Com:  0.100D+01
 Coeff-En:   0.100D+01
 Coeff:      0.100D+01
 Gap=     0.202 Goal=   None    Shift=    0.000
 Gap=     0.202 Goal=   None    Shift=    0.000
 GapD=    0.202 DampG=1.000 DampE=0.500 DampFc=0.5000 IDamp=-1.
 Damping current iteration by 5.00D-01
 RMSDP=1.50D-03 MaxDP=9.17D-02              OVMax= 2.22D-01

 Cycle   2  Pass 1  IDiag  1:
 RMSU=  7.30D-04    CP:  9.73D-01
 E= -466.705781652835     Delta-E=       -0.086381085117 Rises=F Damp=T
 DIIS: error= 2.48D-02 at cycle   2 NSaved=   2.
 NSaved= 2 IEnMin= 2 EnMin= -466.705781652835     IErMin= 2 ErrMin= 2.48D-02
 ErrMax= 2.48D-02  0.00D+00 EMaxC= 1.00D-01 BMatC= 9.26D-01 BMatP= 4.10D+00
 IDIUse=3 WtCom= 7.52D-01 WtEn= 2.48D-01
 Coeff-Com: -0.866D+00 0.187D+01
 Coeff-En:   0.000D+00 0.100D+01
 Coeff:     -0.651D+00 0.165D+01
 Gap=     0.240 Goal=   None    Shift=    0.000
 Gap=     0.240 Goal=   None    Shift=    0.000
 RMSDP=1.00D-03 MaxDP=4.83D-02 DE=-8.64D-02 OVMax= 1.03D-01

 Cycle   3  Pass 1  IDiag  1:
 RMSU=  5.85D-04    CP:  9.35D-01  2.07D+00
 E= -466.805132931193     Delta-E=       -0.099351278358 Rises=F Damp=F
 DIIS: error= 5.85D-03 at cycle   3 NSaved=   3.
 NSaved= 3 IEnMin= 3 EnMin= -466.805132931193     IErMin= 3 ErrMin= 5.85D-03
 ErrMax= 5.85D-03  0.00D+00 EMaxC= 1.00D-01 BMatC= 2.18D-02 BMatP= 9.26D-01
 IDIUse=3 WtCom= 9.42D-01 WtEn= 5.85D-02
 Coeff-Com: -0.321D+00 0.691D+00 0.630D+00
 Coeff-En:   0.000D+00 0.000D+00 0.100D+01
 Coeff:     -0.302D+00 0.650D+00 0.652D+00
 Gap=     0.249 Goal=   None    Shift=    0.000
 Gap=     0.249 Goal=   None    Shift=    0.000
 RMSDP=2.03D-04 MaxDP=1.27D-02 DE=-9.94D-02 OVMax= 5.45D-02

 Cycle   4  Pass 1  IDiag  1:
 RMSU=  1.82D-04    CP:  9.29D-01  2.17D+00  9.63D-01
 E= -466.813811023347     Delta-E=       -0.008678092154 Rises=F Damp=F
 DIIS: error= 4.25D-03 at cycle   4 NSaved=   4.
 NSaved= 4 IEnMin= 4 EnMin= -466.813811023347     IErMin= 4 ErrMin= 4.25D-03
 ErrMax= 4.25D-03  0.00D+00 EMaxC= 1.00D-01 BMatC= 1.54D-03 BMatP= 2.18D-02
 IDIUse=3 WtCom= 9.57D-01 WtEn= 4.25D-02
 Coeff-Com:  0.904D-01-0.194D+00-0.401D-01 0.114D+01
 Coeff-En:   0.000D+00 0.000D+00 0.000D+00 0.100D+01
 Coeff:      0.866D-01-0.186D+00-0.384D-01 0.114D+01
 Gap=     0.255 Goal=   None    Shift=    0.000
 Gap=     0.255 Goal=   None    Shift=    0.000
 RMSDP=1.98D-04 MaxDP=9.60D-03 DE=-8.68D-03 OVMax= 6.94D-02

 Cycle   5  Pass 1  IDiag  1:
 RMSU=  7.82D-05    CP:  9.23D-01  2.22D+00  1.18D+00  1.65D+00
 E= -466.817531706381     Delta-E=       -0.003720683034 Rises=F Damp=F
 DIIS: error= 2.62D-03 at cycle   5 NSaved=   5.
 NSaved= 5 IEnMin= 5 EnMin= -466.817531706381     IErMin= 5 ErrMin= 2.62D-03
 ErrMax= 2.62D-03  0.00D+00 EMaxC= 1.00D-01 BMatC= 7.57D-04 BMatP= 1.54D-03
 IDIUse=3 WtCom= 9.74D-01 WtEn= 2.62D-02
 Coeff-Com:  0.821D-01-0.177D+00-0.116D+00 0.428D+00 0.783D+00
 Coeff-En:   0.000D+00 0.000D+00 0.000D+00 0.000D+00 0.100D+01
 Coeff:      0.799D-01-0.172D+00-0.113D+00 0.417D+00 0.788D+00
 Gap=     0.258 Goal=   None    Shift=    0.000
 Gap=     0.258 Goal=   None    Shift=    0.000
 RMSDP=1.05D-04 MaxDP=6.06D-03 DE=-3.72D-03 OVMax= 3.91D-02

 Cycle   6  Pass 1  IDiag  1:
 RMSU=  3.50D-05    CP:  9.20D-01  2.24D+00  1.25D+00  2.08D+00  1.51D+00
 E= -466.819040765879     Delta-E=       -0.001509059497 Rises=F Damp=F
 DIIS: error= 1.87D-03 at cycle   6 NSaved=   6.
 NSaved= 6 IEnMin= 6 EnMin= -466.819040765879     IErMin= 6 ErrMin= 1.87D-03
 ErrMax= 1.87D-03  0.00D+00 EMaxC= 1.00D-01 BMatC= 3.75D-04 BMatP= 7.57D-04
 IDIUse=3 WtCom= 9.81D-01 WtEn= 1.87D-02
 Coeff-Com: -0.500D-01 0.107D+00 0.411D-01-0.456D+00 0.115D+00 0.124D+01
 Coeff-En:   0.000D+00 0.000D+00 0.000D+00 0.000D+00 0.000D+00 0.100D+01
 Coeff:     -0.490D-01 0.105D+00 0.404D-01-0.448D+00 0.113D+00 0.124D+01
 Gap=     0.255 Goal=   None    Shift=    0.000
 Gap=     0.255 Goal=   None    Shift=    0.000
 RMSDP=1.11D-04 MaxDP=5.62D-03 DE=-1.51D-03 OVMax= 4.42D-02

 Cycle   7  Pass 1  IDiag  1:
 RMSU=  2.56D-05    CP:  9.17D-01  2.25D+00  1.31D+00  2.48D+00  2.32D+00
                    CP:  1.84D+00
 E= -466.820339029366     Delta-E=       -0.001298263487 Rises=F Damp=F
 DIIS: error= 1.28D-03 at cycle   7 NSaved=   7.
 NSaved= 7 IEnMin= 7 EnMin= -466.820339029366     IErMin= 7 ErrMin= 1.28D-03
 ErrMax= 1.28D-03  0.00D+00 EMaxC= 1.00D-01 BMatC= 2.07D-04 BMatP= 3.75D-04
 IDIUse=3 WtCom= 9.87D-01 WtEn= 1.28D-02
 Coeff-Com: -0.132D-01 0.288D-01 0.376D-01 0.120D+00-0.334D+00-0.709D+00
 Coeff-Com:  0.187D+01
 Coeff-En:   0.000D+00 0.000D+00 0.000D+00 0.000D+00 0.000D+00 0.000D+00
 Coeff-En:   0.100D+01
 Coeff:     -0.130D-01 0.284D-01 0.371D-01 0.119D+00-0.330D+00-0.700D+00
 Coeff:      0.186D+01
 Gap=     0.253 Goal=   None    Shift=    0.000
 Gap=     0.253 Goal=   None    Shift=    0.000
 RMSDP=1.05D-04 MaxDP=4.16D-03 DE=-1.30D-03 OVMax= 4.38D-02

 Cycle   8  Pass 1  IDiag  1:
 RMSU=  1.86D-05    CP:  9.15D-01  2.25D+00  1.35D+00  2.81D+00  3.00D+00
                    CP:  3.00D+00  2.55D+00
 E= -466.821372439728     Delta-E=       -0.001033410362 Rises=F Damp=F
 DIIS: error= 9.47D-04 at cycle   8 NSaved=   8.
 NSaved= 8 IEnMin= 8 EnMin= -466.821372439728     IErMin= 8 ErrMin= 9.47D-04
 ErrMax= 9.47D-04  0.00D+00 EMaxC= 1.00D-01 BMatC= 1.21D-04 BMatP= 2.07D-04
 IDIUse=3 WtCom= 9.91D-01 WtEn= 9.47D-03
 Coeff-Com:  0.442D-01-0.954D-01-0.314D-01 0.456D+00-0.407D-01-0.117D+01
 Coeff-Com: -0.506D-01 0.189D+01
 Coeff-En:   0.000D+00 0.000D+00 0.000D+00 0.000D+00 0.000D+00 0.000D+00
 Coeff-En:   0.000D+00 0.100D+01
 Coeff:      0.438D-01-0.945D-01-0.311D-01 0.452D+00-0.403D-01-0.116D+01
 Coeff:     -0.501D-01 0.188D+01
 Gap=     0.251 Goal=   None    Shift=    0.000
 Gap=     0.251 Goal=   None    Shift=    0.000
 RMSDP=1.32D-04 MaxDP=5.73D-03 DE=-1.03D-03 OVMax= 5.66D-02

 Cycle   9  Pass 1  IDiag  1:
 RMSU=  9.65D-05    CP:  9.12D-01  2.26D+00  1.40D+00  3.00D+00  3.00D+00
                    CP:  3.00D+00  3.00D+00  3.00D+00
 E= -466.822321230524     Delta-E=       -0.000948790796 Rises=F Damp=F
 DIIS: error= 6.56D-04 at cycle   9 NSaved=   9.
 NSaved= 9 IEnMin= 9 EnMin= -466.822321230524     IErMin= 9 ErrMin= 6.56D-04
 ErrMax= 6.56D-04  0.00D+00 EMaxC= 1.00D-01 BMatC= 5.78D-05 BMatP= 1.21D-04
 IDIUse=3 WtCom= 9.93D-01 WtEn= 6.56D-03
 Coeff-Com:  0.332D-01-0.716D-01-0.383D-01 0.201D+00 0.150D+00-0.267D+00
 Coeff-Com: -0.985D+00 0.845D+00 0.113D+01
 Coeff-En:   0.000D+00 0.000D+00 0.000D+00 0.000D+00 0.000D+00 0.000D+00
 Coeff-En:   0.000D+00 0.000D+00 0.100D+01
 Coeff:      0.330D-01-0.711D-01-0.380D-01 0.200D+00 0.149D+00-0.265D+00
 Coeff:     -0.979D+00 0.840D+00 0.113D+01
 Gap=     0.251 Goal=   None    Shift=    0.000
 Gap=     0.251 Goal=   None    Shift=    0.000
 RMSDP=1.03D-04 MaxDP=4.54D-03 DE=-9.49D-04 OVMax= 4.48D-02

 Cycle  10  Pass 1  IDiag  1:
 RMSU=  4.35D-05    CP:  9.10D-01  2.26D+00  1.44D+00  3.00D+00  3.00D+00
                    CP:  3.00D+00  3.00D+00  3.00D+00  1.92D+00
 E= -466.822805796011     Delta-E=       -0.000484565486 Rises=F Damp=F
 DIIS: error= 4.54D-04 at cycle  10 NSaved=  10.
 NSaved=10 IEnMin=10 EnMin= -466.822805796011     IErMin=10 ErrMin= 4.54D-04
 ErrMax= 4.54D-04  0.00D+00 EMaxC= 1.00D-01 BMatC= 2.35D-05 BMatP= 5.78D-05
 IDIUse=3 WtCom= 9.95D-01 WtEn= 4.54D-03
 Coeff-Com: -0.532D-02 0.116D-01-0.293D-02-0.117D+00 0.543D-01 0.444D+00
 Coeff-Com: -0.339D+00-0.709D+00 0.211D+00 0.145D+01
 Coeff-En:   0.000D+00 0.000D+00 0.000D+00 0.000D+00 0.000D+00 0.000D+00
 Coeff-En:   0.000D+00 0.000D+00 0.000D+00 0.100D+01
 Coeff:     -0.529D-02 0.115D-01-0.291D-02-0.116D+00 0.541D-01 0.442D+00
 Coeff:     -0.337D+00-0.706D+00 0.210D+00 0.145D+01
 Gap=     0.249 Goal=   None    Shift=    0.000
 Gap=     0.249 Goal=   None    Shift=    0.000
 RMSDP=1.16D-04 MaxDP=5.19D-03 DE=-4.85D-04 OVMax= 5.09D-02

 Cycle  11  Pass 1  IDiag  1:
 RMSU=  1.51D-05    CP:  9.07D-01  2.26D+00  1.49D+00  3.00D+00  3.00D+00
                    CP:  3.00D+00  3.00D+00  3.00D+00  2.93D+00  2.19D+00
 E= -466.823134648079     Delta-E=       -0.000328852068 Rises=F Damp=F
 DIIS: error= 2.48D-04 at cycle  11 NSaved=  11.
 NSaved=11 IEnMin=11 EnMin= -466.823134648079     IErMin=11 ErrMin= 2.48D-04
 ErrMax= 2.48D-04  0.00D+00 EMaxC= 1.00D-01 BMatC= 9.99D-06 BMatP= 2.35D-05
 IDIUse=3 WtCom= 9.98D-01 WtEn= 2.48D-03
 Coeff-Com: -0.682D-02 0.148D-01 0.408D-02-0.737D-01-0.213D-01 0.246D+00
 Coeff-Com:  0.732D-01-0.527D+00-0.255D+00 0.593D+00 0.952D+00
 Coeff-En:   0.000D+00 0.000D+00 0.000D+00 0.000D+00 0.000D+00 0.000D+00
 Coeff-En:   0.000D+00 0.000D+00 0.000D+00 0.000D+00 0.100D+01
 Coeff:     -0.680D-02 0.147D-01 0.407D-02-0.735D-01-0.212D-01 0.246D+00
 Coeff:      0.730D-01-0.525D+00-0.254D+00 0.591D+00 0.952D+00
 Gap=     0.248 Goal=   None    Shift=    0.000
 Gap=     0.248 Goal=   None    Shift=    0.000
 RMSDP=6.55D-05 MaxDP=2.94D-03 DE=-3.29D-04 OVMax= 2.87D-02

 Cycle  12  Pass 1  IDiag  1:
 RMSU=  4.71D-05    CP:  9.05D-01  2.26D+00  1.51D+00  3.00D+00  3.00D+00
                    CP:  3.00D+00  3.00D+00  3.00D+00  3.00D+00  2.88D+00
                    CP:  1.91D+00
 E= -466.823239280606     Delta-E=       -0.000104632527 Rises=F Damp=F
 DIIS: error= 1.45D-04 at cycle  12 NSaved=  12.
 NSaved=12 IEnMin=12 EnMin= -466.823239280606     IErMin=12 ErrMin= 1.45D-04
 ErrMax= 1.45D-04  0.00D+00 EMaxC= 1.00D-01 BMatC= 3.92D-06 BMatP= 9.99D-06
 IDIUse=3 WtCom= 9.99D-01 WtEn= 1.45D-03
 Coeff-Com:  0.951D-02-0.206D-01-0.616D-02 0.107D+00-0.296D-01-0.277D+00
 Coeff-Com:  0.120D+00 0.430D+00-0.122D+00-0.888D+00-0.636D-01 0.174D+01
 Coeff-En:   0.000D+00 0.000D+00 0.000D+00 0.000D+00 0.000D+00 0.000D+00
 Coeff-En:   0.000D+00 0.000D+00 0.000D+00 0.000D+00 0.000D+00 0.100D+01
 Coeff:      0.949D-02-0.205D-01-0.615D-02 0.107D+00-0.295D-01-0.276D+00
 Coeff:      0.120D+00 0.429D+00-0.122D+00-0.887D+00-0.635D-01 0.174D+01
 Gap=     0.247 Goal=   None    Shift=    0.000
 Gap=     0.247 Goal=   None    Shift=    0.000
 RMSDP=8.08D-05 MaxDP=3.70D-03 DE=-1.05D-04 OVMax= 3.54D-02

 Cycle  13  Pass 1  IDiag  1:
 RMSU=  3.23D-05    CP:  9.03D-01  2.26D+00  1.54D+00  3.00D+00  3.00D+00
                    CP:  3.00D+00  3.00D+00  3.00D+00  3.00D+00  3.00D+00
                    CP:  3.00D+00  2.39D+00
 E= -466.823298354832     Delta-E=       -0.000059074226 Rises=F Damp=F
 DIIS: error= 4.99D-05 at cycle  13 NSaved=  13.
 NSaved=13 IEnMin=13 EnMin= -466.823298354832     IErMin=13 ErrMin= 4.99D-05
 ErrMax= 4.99D-05  0.00D+00 EMaxC= 1.00D-01 BMatC= 7.25D-07 BMatP= 3.92D-06
 IDIUse=1 WtCom= 1.00D+00 WtEn= 0.00D+00
 Coeff-Com: -0.154D-02 0.338D-02 0.367D-04-0.288D-01 0.207D-01 0.853D-01
 Coeff-Com: -0.965D-01-0.105D+00 0.127D+00 0.305D+00-0.206D+00-0.651D+00
 Coeff-Com:  0.155D+01
 Coeff:     -0.154D-02 0.338D-02 0.367D-04-0.288D-01 0.207D-01 0.853D-01
 Coeff:     -0.965D-01-0.105D+00 0.127D+00 0.305D+00-0.206D+00-0.651D+00
 Coeff:      0.155D+01
 Gap=     0.247 Goal=   None    Shift=    0.000
 Gap=     0.247 Goal=   None    Shift=    0.000
 RMSDP=1.58D-05 MaxDP=7.86D-04 DE=-5.91D-05 OVMax= 6.73D-03

 Cycle  14  Pass 1  IDiag  1:
 RMSU=  4.80D-06    CP:  9.03D-01  2.26D+00  1.54D+00  3.00D+00  3.00D+00
                    CP:  3.00D+00  3.00D+00  3.00D+00  3.00D+00  3.00D+00
                    CP:  3.00D+00  2.64D+00  1.26D+00
 E= -466.823302136586     Delta-E=       -0.000003781754 Rises=F Damp=F
 DIIS: error= 2.23D-05 at cycle  14 NSaved=  14.
 NSaved=14 IEnMin=14 EnMin= -466.823302136586     IErMin=14 ErrMin= 2.23D-05
 ErrMax= 2.23D-05  0.00D+00 EMaxC= 1.00D-01 BMatC= 1.68D-07 BMatP= 7.25D-07
 IDIUse=1 WtCom= 1.00D+00 WtEn= 0.00D+00
 Coeff-Com: -0.193D-02 0.418D-02 0.849D-03-0.261D-01 0.874D-02 0.690D-01
 Coeff-Com: -0.393D-01-0.109D+00 0.387D-01 0.230D+00 0.108D-01-0.417D+00
 Coeff-Com:  0.743D-01 0.116D+01
 Coeff:     -0.193D-02 0.418D-02 0.849D-03-0.261D-01 0.874D-02 0.690D-01
 Coeff:     -0.393D-01-0.109D+00 0.387D-01 0.230D+00 0.108D-01-0.417D+00
 Coeff:      0.743D-01 0.116D+01
 Gap=     0.247 Goal=   None    Shift=    0.000
 Gap=     0.247 Goal=   None    Shift=    0.000
 RMSDP=3.29D-06 MaxDP=1.79D-04 DE=-3.78D-06 OVMax= 1.27D-03

 Cycle  15  Pass 1  IDiag  1:
 RMSU=  1.08D-06    CP:  9.02D-01  2.26D+00  1.54D+00  3.00D+00  3.00D+00
                    CP:  3.00D+00  3.00D+00  3.00D+00  3.00D+00  3.00D+00
                    CP:  3.00D+00  2.69D+00  1.31D+00  1.25D+00
 E= -466.823302653189     Delta-E=       -0.000000516603 Rises=F Damp=F
 DIIS: error= 1.16D-05 at cycle  15 NSaved=  15.
 NSaved=15 IEnMin=15 EnMin= -466.823302653189     IErMin=15 ErrMin= 1.16D-05
 ErrMax= 1.16D-05  0.00D+00 EMaxC= 1.00D-01 BMatC= 5.68D-08 BMatP= 1.68D-07
 IDIUse=1 WtCom= 1.00D+00 WtEn= 0.00D+00
 Coeff-Com:  0.174D-03-0.383D-03-0.200D-03 0.201D-02-0.137D-02-0.619D-02
 Coeff-Com:  0.779D-02 0.815D-02-0.138D-01-0.265D-01 0.175D-01 0.438D-01
 Coeff-Com: -0.199D+00-0.455D-01 0.121D+01
 Coeff:      0.174D-03-0.383D-03-0.200D-03 0.201D-02-0.137D-02-0.619D-02
 Coeff:      0.779D-02 0.815D-02-0.138D-01-0.265D-01 0.175D-01 0.438D-01
 Coeff:     -0.199D+00-0.455D-01 0.121D+01
 Gap=     0.247 Goal=   None    Shift=    0.000
 Gap=     0.247 Goal=   None    Shift=    0.000
 RMSDP=4.57D-06 MaxDP=2.29D-04 DE=-5.17D-07 OVMax= 1.91D-03

 Cycle  16  Pass 1  IDiag  1:
 RMSU=  9.08D-07    CP:  9.02D-01  2.26D+00  1.54D+00  3.00D+00  3.00D+00
                    CP:  3.00D+00  3.00D+00  3.00D+00  3.00D+00  3.00D+00
                    CP:  3.00D+00  2.77D+00  1.37D+00  1.43D+00  1.57D+00
 E= -466.823302903809     Delta-E=       -0.000000250619 Rises=F Damp=F
 DIIS: error= 5.46D-06 at cycle  16 NSaved=  16.
 NSaved=16 IEnMin=16 EnMin= -466.823302903809     IErMin=16 ErrMin= 5.46D-06
 ErrMax= 5.46D-06  0.00D+00 EMaxC= 1.00D-01 BMatC= 1.81D-08 BMatP= 5.68D-08
 IDIUse=1 WtCom= 1.00D+00 WtEn= 0.00D+00
 Coeff-Com:  0.490D-03-0.106D-02-0.181D-03 0.732D-02-0.274D-02-0.187D-01
 Coeff-Com:  0.126D-01 0.320D-01-0.139D-01-0.686D-01-0.787D-02 0.114D+00
 Coeff-Com: -0.473D-01-0.467D+00 0.291D+00 0.117D+01
 Coeff:      0.490D-03-0.106D-02-0.181D-03 0.732D-02-0.274D-02-0.187D-01
 Coeff:      0.126D-01 0.320D-01-0.139D-01-0.686D-01-0.787D-02 0.114D+00
 Coeff:     -0.473D-01-0.467D+00 0.291D+00 0.117D+01
 Gap=     0.247 Goal=   None    Shift=    0.000
 Gap=     0.247 Goal=   None    Shift=    0.000
 RMSDP=3.16D-06 MaxDP=1.59D-04 DE=-2.51D-07 OVMax= 1.30D-03

 Cycle  17  Pass 1  IDiag  1:
 RMSU=  2.35D-07    CP:  9.02D-01  2.26D+00  1.54D+00  3.00D+00  3.00D+00
                    CP:  3.00D+00  3.00D+00  3.00D+00  3.00D+00  3.00D+00
                    CP:  3.00D+00  2.82D+00  1.42D+00  1.59D+00  1.94D+00
                    CP:  1.64D+00
 E= -466.823302922753     Delta-E=       -0.000000018944 Rises=F Damp=F
 DIIS: error= 3.07D-06 at cycle  17 NSaved=  17.
 NSaved=17 IEnMin=17 EnMin= -466.823302922753     IErMin=17 ErrMin= 3.07D-06
 ErrMax= 3.07D-06  0.00D+00 EMaxC= 1.00D-01 BMatC= 3.12D-09 BMatP= 1.81D-08
 IDIUse=1 WtCom= 1.00D+00 WtEn= 0.00D+00
 Coeff-Com: -0.363D-04 0.785D-04 0.958D-04 0.109D-03-0.397D-03-0.146D-03
 Coeff-Com:  0.536D-03 0.105D-02-0.114D-02-0.316D-02 0.447D-02 0.202D-01
 Coeff-Com:  0.651D-03-0.700D-01-0.103D+00 0.235D+00 0.916D+00
 Coeff:     -0.363D-04 0.785D-04 0.958D-04 0.109D-03-0.397D-03-0.146D-03
 Coeff:      0.536D-03 0.105D-02-0.114D-02-0.316D-02 0.447D-02 0.202D-01
 Coeff:      0.651D-03-0.700D-01-0.103D+00 0.235D+00 0.916D+00
 Gap=     0.247 Goal=   None    Shift=    0.000
 Gap=     0.247 Goal=   None    Shift=    0.000
 RMSDP=1.51D-06 MaxDP=6.70D-05 DE=-1.89D-08 OVMax= 6.72D-04

 Cycle  18  Pass 1  IDiag  1:
 RMSU=  1.76D-07    CP:  9.02D-01  2.26D+00  1.54D+00  3.00D+00  3.00D+00
                    CP:  3.00D+00  3.00D+00  3.00D+00  3.00D+00  3.00D+00
                    CP:  3.00D+00  2.79D+00  1.40D+00  1.54D+00  2.03D+00
                    CP:  1.38D+00  1.48D+00
 E= -466.823302945168     Delta-E=       -0.000000022414 Rises=F Damp=F
 DIIS: error= 8.08D-07 at cycle  18 NSaved=  18.
 NSaved=18 IEnMin=18 EnMin= -466.823302945168     IErMin=18 ErrMin= 8.08D-07
 ErrMax= 8.08D-07  0.00D+00 EMaxC= 1.00D-01 BMatC= 3.86D-10 BMatP= 3.12D-09
 IDIUse=1 WtCom= 1.00D+00 WtEn= 0.00D+00
 Coeff-Com: -0.123D-04 0.262D-04 0.192D-04-0.901D-04-0.755D-06-0.867D-04
 Coeff-Com: -0.249D-03 0.153D-03 0.381D-03-0.197D-03 0.166D-02 0.349D-02
 Coeff-Com:  0.455D-02 0.134D-01-0.338D-01-0.698D-01 0.198D-01 0.106D+01
 Coeff:     -0.123D-04 0.262D-04 0.192D-04-0.901D-04-0.755D-06-0.867D-04
 Coeff:     -0.249D-03 0.153D-03 0.381D-03-0.197D-03 0.166D-02 0.349D-02
 Coeff:      0.455D-02 0.134D-01-0.338D-01-0.698D-01 0.198D-01 0.106D+01
 Gap=     0.247 Goal=   None    Shift=    0.000
 Gap=     0.247 Goal=   None    Shift=    0.000
 RMSDP=4.63D-07 MaxDP=2.16D-05 DE=-2.24D-08 OVMax= 2.05D-04

 Cycle  19  Pass 1  IDiag  1:
 RMSU=  3.66D-08    CP:  9.02D-01  2.26D+00  1.54D+00  3.00D+00  3.00D+00
                    CP:  3.00D+00  3.00D+00  3.00D+00  3.00D+00  3.00D+00
                    CP:  3.00D+00  2.79D+00  1.39D+00  1.53D+00  2.05D+00
                    CP:  1.32D+00  1.63D+00  1.31D+00
 E= -466.823302946538     Delta-E=       -0.000000001370 Rises=F Damp=F
 DIIS: error= 3.45D-07 at cycle  19 NSaved=  19.
 NSaved=19 IEnMin=19 EnMin= -466.823302946538     IErMin=19 ErrMin= 3.45D-07
 ErrMax= 3.45D-07  0.00D+00 EMaxC= 1.00D-01 BMatC= 1.39D-10 BMatP= 3.86D-10
 IDIUse=1 WtCom= 1.00D+00 WtEn= 0.00D+00
 Coeff-Com:  0.123D-04-0.266D-04-0.116D-04 0.118D-03 0.182D-04-0.506D-03
 Coeff-Com:  0.506D-04 0.807D-03 0.194D-03-0.126D-02-0.647D-03 0.104D-03
 Coeff-Com:  0.340D-02 0.108D-01 0.821D-03-0.600D-01-0.151D+00 0.502D+00
 Coeff-Com:  0.695D+00
 Coeff:      0.123D-04-0.266D-04-0.116D-04 0.118D-03 0.182D-04-0.506D-03
 Coeff:      0.506D-04 0.807D-03 0.194D-03-0.126D-02-0.647D-03 0.104D-03
 Coeff:      0.340D-02 0.108D-01 0.821D-03-0.600D-01-0.151D+00 0.502D+00
 Coeff:      0.695D+00
 Gap=     0.247 Goal=   None    Shift=    0.000
 Gap=     0.247 Goal=   None    Shift=    0.000
 RMSDP=2.82D-08 MaxDP=1.57D-06 DE=-1.37D-09 OVMax= 1.07D-05

 Cycle  20  Pass 1  IDiag  1:
 RMSU=  1.61D-08    CP:  9.02D-01  2.26D+00  1.54D+00  3.00D+00  3.00D+00
                    CP:  3.00D+00  3.00D+00  3.00D+00  3.00D+00  3.00D+00
                    CP:  3.00D+00  2.79D+00  1.39D+00  1.53D+00  2.05D+00
                    CP:  1.33D+00  1.65D+00  1.34D+00  1.13D+00
 E= -466.823302946600     Delta-E=       -0.000000000062 Rises=F Damp=F
 DIIS: error= 9.76D-08 at cycle  20 NSaved=  20.
 NSaved=20 IEnMin=20 EnMin= -466.823302946600     IErMin=20 ErrMin= 9.76D-08
 ErrMax= 9.76D-08  0.00D+00 EMaxC= 1.00D-01 BMatC= 1.33D-11 BMatP= 1.39D-10
 IDIUse=1 WtCom= 1.00D+00 WtEn= 0.00D+00
 Coeff-Com:  0.383D-05-0.822D-05-0.466D-05 0.351D-04 0.342D-05-0.903D-04
 Coeff-Com:  0.385D-04 0.192D-03 0.244D-04-0.224D-03-0.512D-03-0.877D-03
 Coeff-Com:  0.599D-03 0.275D-02 0.297D-02-0.992D-02-0.366D-01 0.692D-02
 Coeff-Com:  0.199D+00 0.836D+00
 Coeff:      0.383D-05-0.822D-05-0.466D-05 0.351D-04 0.342D-05-0.903D-04
 Coeff:      0.385D-04 0.192D-03 0.244D-04-0.224D-03-0.512D-03-0.877D-03
 Coeff:      0.599D-03 0.275D-02 0.297D-02-0.992D-02-0.366D-01 0.692D-02
 Coeff:      0.199D+00 0.836D+00
 Gap=     0.247 Goal=   None    Shift=    0.000
 Gap=     0.247 Goal=   None    Shift=    0.000
 RMSDP=3.41D-08 MaxDP=1.77D-06 DE=-6.21D-11 OVMax= 1.53D-05

 Cycle  21  Pass 1  IDiag  1:
 Restarting incremental Fock formation.
 E= -466.823302946613     Delta-E=       -0.000000000013 Rises=F Damp=F
 DIIS: error= 5.00D-08 at cycle  21 NSaved=  20.
 NSaved=20 IEnMin=20 EnMin= -466.823302946613     IErMin=20 ErrMin= 5.00D-08
 ErrMax= 5.00D-08  0.00D+00 EMaxC= 1.00D-01 BMatC= 1.96D-12 BMatP= 1.33D-11
 IDIUse=1 WtCom= 1.00D+00 WtEn= 0.00D+00
 Coeff-Com: -0.800D-08-0.408D-06-0.176D-05-0.663D-05 0.455D-04 0.431D-05
 Coeff-Com: -0.615D-04-0.270D-04 0.124D-03 0.228D-04-0.191D-03-0.754D-03
 Coeff-Com: -0.497D-03 0.178D-02 0.597D-02 0.124D-01-0.846D-01-0.657D-01
 Coeff-Com:  0.236D+00 0.895D+00
 Coeff:     -0.800D-08-0.408D-06-0.176D-05-0.663D-05 0.455D-04 0.431D-05
 Coeff:     -0.615D-04-0.270D-04 0.124D-03 0.228D-04-0.191D-03-0.754D-03
 Coeff:     -0.497D-03 0.178D-02 0.597D-02 0.124D-01-0.846D-01-0.657D-01
 Coeff:      0.236D+00 0.895D+00
 Gap=     0.247 Goal=   None    Shift=    0.000
 Gap=     0.247 Goal=   None    Shift=    0.000
 RMSDP=1.51D-08 MaxDP=6.85D-07 DE=-1.32D-11 OVMax= 6.14D-06

 Cycle  22  Pass 1  IDiag  1:
 RMSU=  1.51D-08    CP:  1.00D+00
 E= -466.823302946616     Delta-E=       -0.000000000002 Rises=F Damp=F
 DIIS: error= 1.61D-08 at cycle  22 NSaved=  20.
 NSaved=20 IEnMin=20 EnMin= -466.823302946616     IErMin=20 ErrMin= 1.61D-08
 ErrMax= 1.61D-08  0.00D+00 EMaxC= 1.00D-01 BMatC= 1.90D-13 BMatP= 1.96D-12
 IDIUse=1 WtCom= 1.00D+00 WtEn= 0.00D+00
 Coeff-Com:  0.105D-06 0.741D-06-0.204D-05 0.540D-05-0.171D-05-0.103D-04
 Coeff-Com:  0.287D-06 0.478D-06 0.513D-04 0.111D-03-0.125D-03-0.805D-03
 Coeff-Com:  0.266D-03 0.295D-02 0.447D-02-0.189D-01-0.260D-01-0.215D-01
 Coeff-Com:  0.127D+00 0.932D+00
 Coeff:      0.105D-06 0.741D-06-0.204D-05 0.540D-05-0.171D-05-0.103D-04
 Coeff:      0.287D-06 0.478D-06 0.513D-04 0.111D-03-0.125D-03-0.805D-03
 Coeff:      0.266D-03 0.295D-02 0.447D-02-0.189D-01-0.260D-01-0.215D-01
 Coeff:      0.127D+00 0.932D+00
 Gap=     0.247 Goal=   None    Shift=    0.000
 Gap=     0.247 Goal=   None    Shift=    0.000
 RMSDP=8.38D-09 MaxDP=3.82D-07 DE=-2.27D-12 OVMax= 3.58D-06

 Error on total polarization charges =  0.01175
 SCF Done:  E(UwB97XD) =  -466.823302947     A.U. after   22 cycles
            NFock= 22  Conv=0.84D-08     -V/T= 2.0056
 <Sx>= 0.0000 <Sy>= 0.0000 <Sz>= 0.0000 <S**2>=-0.0000 S=-0.0000
 <L.S>=  0.00000000000    
 KE= 4.642337795769D+02 PE=-2.464563138610D+03 EE= 8.420839869388D+02
 --------------------------------------------------------------------
 Variational PCM results
 =======================
 <psi(f)|   H    |psi(f)>                     (a.u.) =    -466.821839
 <psi(f)|H+V(f)/2|psi(f)>                     (a.u.) =    -466.823303
 (Polarized solute)-Solvent               (kcal/mol) =      -0.92
 --------------------------------------------------------------------
 Partition over spheres:
 Sphere  on Atom  Surface  Charge   GEl     GCav    GDR
    1      C1       7.33   0.011   -0.05    0.00    0.00
    2      C2       1.82   0.002   -0.01    0.00    0.00
    3      H3       7.52  -0.010   -0.03    0.00    0.00
    4      H4       2.83  -0.004   -0.01    0.00    0.00
    5      C5       4.64   0.009   -0.05    0.00    0.00
    6      C6       1.83   0.002   -0.01    0.00    0.00
    7      H7       4.80  -0.007   -0.03    0.00    0.00
    8      H8       3.00  -0.004   -0.01    0.00    0.00
    9      C9       3.06   0.002    0.00    0.00    0.00
   10      H10      6.67  -0.007   -0.01    0.00    0.00
   11      H11      3.58  -0.003   -0.01    0.00    0.00
   12      C12      6.83   0.011   -0.07    0.00    0.00
   13      H13      7.50  -0.010   -0.03    0.00    0.00
   14      C14      7.23   0.011   -0.05    0.00    0.00
   15      H15      7.52  -0.009   -0.03    0.00    0.00
   16      C16      3.38   0.001    0.00    0.00    0.00
   17      H17      4.00  -0.004   -0.02    0.00    0.00
   18      H18      7.45  -0.008   -0.03    0.00    0.00
   19      C19      4.73   0.009   -0.05    0.00    0.00
   20      H20      4.81  -0.006   -0.03    0.00    0.00
   21      C21      7.20   0.012   -0.07    0.00    0.00
   22      H22      7.52  -0.010   -0.03    0.00    0.00
   23      C23      2.98   0.002    0.00    0.00    0.00
   24      H24      3.52  -0.003   -0.01    0.00    0.00
   25      H25      6.86  -0.007   -0.01    0.00    0.00
   26      C26      3.27   0.001    0.00    0.00    0.00
   27      H27      7.38  -0.008   -0.03    0.00    0.00
   28      H28      4.11  -0.004   -0.02    0.00    0.00
 Added spheres:    75.04   0.018   -0.22    0.00    0.00
 --------------------------------------------------------------------
 After PCM corrections, the energy is  -466.823302947     a.u.
 --------------------------------------------------------------------
 Annihilation of the first spin contaminant:
 S**2 before annihilation    -0.0000,   after    -0.0000
 Leave Link  502 at Mon Aug  3 16:07:04 2020, MaxMem=  6442450944 cpu:            9351.0 elap:             392.6
 (Enter /scratch/scicomp/CentOS/7.3.1611/Haswell/software/Gaussian/g16/l601.exe)
 Copying SCF densities to generalized density rwf, IOpCl= 1 IROHF=0.

 **********************************************************************

            Population analysis using the SCF Density.

 **********************************************************************

 Alpha  occ. eigenvalues --  -10.28989 -10.28988 -10.28596 -10.28596 -10.28293
 Alpha  occ. eigenvalues --  -10.28293 -10.28219 -10.28218 -10.28015 -10.28015
 Alpha  occ. eigenvalues --  -10.27314 -10.27314  -0.95038  -0.93434  -0.85161
 Alpha  occ. eigenvalues --   -0.84439  -0.83659  -0.83113  -0.71609  -0.70709
 Alpha  occ. eigenvalues --   -0.68980  -0.67843  -0.60143  -0.59829  -0.58068
 Alpha  occ. eigenvalues --   -0.56364  -0.53401  -0.53233  -0.51117  -0.50559
 Alpha  occ. eigenvalues --   -0.49789  -0.48742  -0.47810  -0.47195  -0.46389
 Alpha  occ. eigenvalues --   -0.44764  -0.41583  -0.41075  -0.39911  -0.39435
 Alpha  occ. eigenvalues --   -0.39110  -0.38082  -0.31373  -0.24545
 Alpha virt. eigenvalues --    0.00143   0.07840   0.10439   0.12439   0.13315
 Alpha virt. eigenvalues --    0.14474   0.14538   0.15496   0.15914   0.16380
 Alpha virt. eigenvalues --    0.16394   0.17317   0.17930   0.19019   0.19948
 Alpha virt. eigenvalues --    0.20804   0.21355   0.22783   0.23265   0.23844
 Alpha virt. eigenvalues --    0.24531   0.25220   0.26338   0.26526   0.27426
 Alpha virt. eigenvalues --    0.28610   0.28863   0.29800   0.30201   0.30542
 Alpha virt. eigenvalues --    0.30981   0.31675   0.32202   0.33003   0.34001
 Alpha virt. eigenvalues --    0.34569   0.35328   0.35867   0.36332   0.37550
 Alpha virt. eigenvalues --    0.37582   0.38839   0.41241   0.41665   0.42262
 Alpha virt. eigenvalues --    0.43773   0.43901   0.44405   0.44833   0.45538
 Alpha virt. eigenvalues --    0.46561   0.47498   0.48235   0.48582   0.48644
 Alpha virt. eigenvalues --    0.48732   0.49004   0.49221   0.49939   0.50272
 Alpha virt. eigenvalues --    0.50279   0.50716   0.51963   0.51981   0.52914
 Alpha virt. eigenvalues --    0.52942   0.54193   0.54765   0.54904   0.55501
 Alpha virt. eigenvalues --    0.56718   0.57199   0.58247   0.59247   0.59894
 Alpha virt. eigenvalues --    0.60200   0.60481   0.61308   0.63418   0.64343
 Alpha virt. eigenvalues --    0.66846   0.66847   0.67890   0.68448   0.68731
 Alpha virt. eigenvalues --    0.70973   0.72592   0.72983   0.76356   0.76602
 Alpha virt. eigenvalues --    0.77163   0.78593   0.78971   0.81313   0.81874
 Alpha virt. eigenvalues --    0.83487   0.84381   0.85513   0.86348   0.87852
 Alpha virt. eigenvalues --    0.88645   0.89913   0.92808   0.93923   0.95221
 Alpha virt. eigenvalues --    0.95283   0.97983   0.98026   0.98548   0.99466
 Alpha virt. eigenvalues --    1.02312   1.02423   1.03889   1.04675   1.05596
 Alpha virt. eigenvalues --    1.07094   1.07846   1.08021   1.09620   1.10346
 Alpha virt. eigenvalues --    1.12553   1.13993   1.15433   1.16724   1.17053
 Alpha virt. eigenvalues --    1.18075   1.18485   1.19110   1.19632   1.19804
 Alpha virt. eigenvalues --    1.20652   1.22068   1.24054   1.25918   1.26070
 Alpha virt. eigenvalues --    1.26517   1.26831   1.28162   1.29034   1.29176
 Alpha virt. eigenvalues --    1.30415   1.30617   1.33303   1.33611   1.34114
 Alpha virt. eigenvalues --    1.34972   1.35483   1.36211   1.38243   1.39403
 Alpha virt. eigenvalues --    1.39675   1.39862   1.40174   1.42136   1.42681
 Alpha virt. eigenvalues --    1.42873   1.43620   1.43994   1.44509   1.45100
 Alpha virt. eigenvalues --    1.45480   1.45757   1.47930   1.48117   1.48977
 Alpha virt. eigenvalues --    1.50638   1.53485   1.54597   1.56949   1.57558
 Alpha virt. eigenvalues --    1.58431   1.59528   1.60109   1.60541   1.62727
 Alpha virt. eigenvalues --    1.64204   1.65169   1.65198   1.66494   1.68297
 Alpha virt. eigenvalues --    1.71179   1.72846   1.75674   1.77081   1.77776
 Alpha virt. eigenvalues --    1.79740   1.81338   1.82248   1.84740   1.85828
 Alpha virt. eigenvalues --    1.88477   1.90062   1.90723   1.93813   1.94123
 Alpha virt. eigenvalues --    1.96547   1.97361   1.99410   2.01237   2.02785
 Alpha virt. eigenvalues --    2.05784   2.06558   2.08428   2.11286   2.11454
 Alpha virt. eigenvalues --    2.12732   2.15955   2.16395   2.16613   2.18235
 Alpha virt. eigenvalues --    2.18807   2.20153   2.20673   2.22433   2.24203
 Alpha virt. eigenvalues --    2.25089   2.25345   2.27830   2.30209   2.31848
 Alpha virt. eigenvalues --    2.35698   2.36510   2.38920   2.39552   2.44395
 Alpha virt. eigenvalues --    2.44687   2.47697   2.47847   2.48822   2.50007
 Alpha virt. eigenvalues --    2.50738   2.53610   2.54044   2.56867   2.57192
 Alpha virt. eigenvalues --    2.60428   2.60744   2.61932   2.61973   2.62633
 Alpha virt. eigenvalues --    2.64475   2.65485   2.65934   2.67699   2.69049
 Alpha virt. eigenvalues --    2.69794   2.72263   2.72652   2.74003   2.74121
 Alpha virt. eigenvalues --    2.74593   2.76192   2.76341   2.77263   2.77604
 Alpha virt. eigenvalues --    2.79400   2.79815   2.80719   2.81927   2.83286
 Alpha virt. eigenvalues --    2.83309   2.83598   2.84592   2.85544   2.86260
 Alpha virt. eigenvalues --    2.86588   2.87859   2.89102   2.90161   2.92153
 Alpha virt. eigenvalues --    2.92874   2.94248   2.95202   2.95665   2.97007
 Alpha virt. eigenvalues --    2.97624   2.97787   2.98143   2.98772   3.02129
 Alpha virt. eigenvalues --    3.02234   3.03280   3.03996   3.04658   3.05663
 Alpha virt. eigenvalues --    3.07585   3.08469   3.09785   3.10366   3.11044
 Alpha virt. eigenvalues --    3.11912   3.12950   3.13013   3.14120   3.14578
 Alpha virt. eigenvalues --    3.16358   3.16487   3.17917   3.18098   3.19997
 Alpha virt. eigenvalues --    3.20244   3.20364   3.21005   3.21127   3.23070
 Alpha virt. eigenvalues --    3.23682   3.24143   3.24425   3.24820   3.26075
 Alpha virt. eigenvalues --    3.26903   3.26989   3.27792   3.28462   3.29799
 Alpha virt. eigenvalues --    3.30186   3.31106   3.32019   3.32220   3.34314
 Alpha virt. eigenvalues --    3.34696   3.35387   3.35843   3.36244   3.37234
 Alpha virt. eigenvalues --    3.37767   3.39476   3.39487   3.41220   3.42149
 Alpha virt. eigenvalues --    3.43002   3.44954   3.45250   3.46873   3.47008
 Alpha virt. eigenvalues --    3.47884   3.48251   3.48571   3.49638   3.51452
 Alpha virt. eigenvalues --    3.52287   3.53147   3.53426   3.54748   3.56560
 Alpha virt. eigenvalues --    3.56756   3.57098   3.58127   3.58678   3.60367
 Alpha virt. eigenvalues --    3.61797   3.62934   3.63978   3.65056   3.65998
 Alpha virt. eigenvalues --    3.66197   3.66477   3.68181   3.70265   3.71683
 Alpha virt. eigenvalues --    3.71794   3.73154   3.76570   3.80021   3.80193
 Alpha virt. eigenvalues --    3.80371   3.82078   3.82765   3.83115   3.83365
 Alpha virt. eigenvalues --    3.85524   3.87154   3.91007   3.91035   3.92310
 Alpha virt. eigenvalues --    3.93214   3.95869   3.96400   4.01234   4.01462
 Alpha virt. eigenvalues --    4.03205   4.04276   4.06883   4.08615   4.10323
 Alpha virt. eigenvalues --    4.10776   4.12848   4.13378   4.14545   4.15190
 Alpha virt. eigenvalues --    4.16426   4.18661   4.18976   4.20571   4.20824
 Alpha virt. eigenvalues --    4.21901   4.24224   4.25779   4.28540   4.29836
 Alpha virt. eigenvalues --    4.31852   4.32375   4.33709   4.35446   4.39275
 Alpha virt. eigenvalues --    4.39647   4.42598   4.43212   4.45790   4.47724
 Alpha virt. eigenvalues --    4.49029   4.50627   4.52162   4.54540   4.57023
 Alpha virt. eigenvalues --    4.57892   4.59813   4.61005   4.67114   4.67832
 Alpha virt. eigenvalues --    4.70423   4.73063   4.76295   4.76350   4.78549
 Alpha virt. eigenvalues --    4.79367   4.80042   4.85403   4.86846   4.87900
 Alpha virt. eigenvalues --    4.92188   4.92612   4.93616   4.94644   4.98095
 Alpha virt. eigenvalues --    4.99201   5.03610   5.07833   5.10514   5.11976
 Alpha virt. eigenvalues --    5.16796   5.20268   5.23053   5.24001   5.25661
 Alpha virt. eigenvalues --    5.29219   5.37315   5.37860   5.40115   5.41241
 Alpha virt. eigenvalues --    5.44950   5.45062   5.51724   5.55302   5.70121
 Alpha virt. eigenvalues --    5.70661   5.72190   5.75421   5.92029   6.00091
 Alpha virt. eigenvalues --    7.94946   7.95591   8.03432   8.03803   8.05380
 Alpha virt. eigenvalues --    8.10074   8.11018   8.14435   8.18711   8.20192
 Alpha virt. eigenvalues --    8.33934   8.40089  34.77320  34.77580  34.81200
 Alpha virt. eigenvalues --   34.81417  34.84406  34.91177  34.98164  34.99609
 Alpha virt. eigenvalues --   35.02537  35.02982  35.16419  35.22437
  Beta  occ. eigenvalues --  -10.28989 -10.28988 -10.28596 -10.28596 -10.28293
  Beta  occ. eigenvalues --  -10.28293 -10.28219 -10.28218 -10.28015 -10.28015
  Beta  occ. eigenvalues --  -10.27314 -10.27314  -0.95038  -0.93434  -0.85161
  Beta  occ. eigenvalues --   -0.84439  -0.83659  -0.83113  -0.71609  -0.70709
  Beta  occ. eigenvalues --   -0.68980  -0.67843  -0.60143  -0.59829  -0.58068
  Beta  occ. eigenvalues --   -0.56364  -0.53401  -0.53233  -0.51117  -0.50559
  Beta  occ. eigenvalues --   -0.49789  -0.48742  -0.47810  -0.47195  -0.46389
  Beta  occ. eigenvalues --   -0.44764  -0.41583  -0.41075  -0.39911  -0.39435
  Beta  occ. eigenvalues --   -0.39110  -0.38082  -0.31373  -0.24545
  Beta virt. eigenvalues --    0.00143   0.07840   0.10439   0.12439   0.13315
  Beta virt. eigenvalues --    0.14474   0.14538   0.15496   0.15914   0.16380
  Beta virt. eigenvalues --    0.16394   0.17317   0.17930   0.19019   0.19948
  Beta virt. eigenvalues --    0.20804   0.21355   0.22783   0.23265   0.23844
  Beta virt. eigenvalues --    0.24531   0.25220   0.26338   0.26526   0.27426
  Beta virt. eigenvalues --    0.28610   0.28863   0.29800   0.30201   0.30542
  Beta virt. eigenvalues --    0.30981   0.31675   0.32202   0.33003   0.34001
  Beta virt. eigenvalues --    0.34569   0.35328   0.35867   0.36332   0.37550
  Beta virt. eigenvalues --    0.37582   0.38839   0.41241   0.41665   0.42262
  Beta virt. eigenvalues --    0.43773   0.43901   0.44405   0.44833   0.45538
  Beta virt. eigenvalues --    0.46561   0.47498   0.48235   0.48582   0.48644
  Beta virt. eigenvalues --    0.48732   0.49004   0.49221   0.49939   0.50272
  Beta virt. eigenvalues --    0.50279   0.50716   0.51963   0.51981   0.52914
  Beta virt. eigenvalues --    0.52942   0.54193   0.54765   0.54904   0.55501
  Beta virt. eigenvalues --    0.56718   0.57199   0.58247   0.59247   0.59894
  Beta virt. eigenvalues --    0.60200   0.60481   0.61308   0.63418   0.64343
  Beta virt. eigenvalues --    0.66846   0.66847   0.67890   0.68448   0.68731
  Beta virt. eigenvalues --    0.70973   0.72592   0.72983   0.76356   0.76602
  Beta virt. eigenvalues --    0.77163   0.78593   0.78971   0.81313   0.81874
  Beta virt. eigenvalues --    0.83487   0.84381   0.85513   0.86348   0.87852
  Beta virt. eigenvalues --    0.88645   0.89913   0.92808   0.93923   0.95221
  Beta virt. eigenvalues --    0.95283   0.97983   0.98026   0.98548   0.99466
  Beta virt. eigenvalues --    1.02312   1.02423   1.03889   1.04675   1.05596
  Beta virt. eigenvalues --    1.07094   1.07846   1.08021   1.09620   1.10346
  Beta virt. eigenvalues --    1.12553   1.13993   1.15433   1.16724   1.17053
  Beta virt. eigenvalues --    1.18075   1.18485   1.19110   1.19632   1.19804
  Beta virt. eigenvalues --    1.20652   1.22068   1.24054   1.25918   1.26070
  Beta virt. eigenvalues --    1.26517   1.26831   1.28162   1.29034   1.29176
  Beta virt. eigenvalues --    1.30415   1.30617   1.33303   1.33611   1.34114
  Beta virt. eigenvalues --    1.34972   1.35483   1.36211   1.38243   1.39403
  Beta virt. eigenvalues --    1.39675   1.39862   1.40174   1.42136   1.42681
  Beta virt. eigenvalues --    1.42873   1.43620   1.43994   1.44509   1.45100
  Beta virt. eigenvalues --    1.45480   1.45757   1.47930   1.48117   1.48977
  Beta virt. eigenvalues --    1.50638   1.53485   1.54597   1.56949   1.57558
  Beta virt. eigenvalues --    1.58431   1.59528   1.60109   1.60541   1.62727
  Beta virt. eigenvalues --    1.64204   1.65169   1.65198   1.66494   1.68297
  Beta virt. eigenvalues --    1.71179   1.72846   1.75674   1.77081   1.77776
  Beta virt. eigenvalues --    1.79740   1.81338   1.82248   1.84740   1.85828
  Beta virt. eigenvalues --    1.88477   1.90062   1.90723   1.93813   1.94123
  Beta virt. eigenvalues --    1.96547   1.97361   1.99410   2.01237   2.02785
  Beta virt. eigenvalues --    2.05784   2.06558   2.08428   2.11286   2.11454
  Beta virt. eigenvalues --    2.12732   2.15955   2.16395   2.16613   2.18235
  Beta virt. eigenvalues --    2.18807   2.20153   2.20673   2.22433   2.24203
  Beta virt. eigenvalues --    2.25089   2.25345   2.27830   2.30209   2.31848
  Beta virt. eigenvalues --    2.35698   2.36510   2.38920   2.39552   2.44395
  Beta virt. eigenvalues --    2.44687   2.47697   2.47847   2.48822   2.50007
  Beta virt. eigenvalues --    2.50738   2.53610   2.54044   2.56867   2.57192
  Beta virt. eigenvalues --    2.60428   2.60744   2.61932   2.61973   2.62633
  Beta virt. eigenvalues --    2.64475   2.65485   2.65934   2.67699   2.69049
  Beta virt. eigenvalues --    2.69794   2.72263   2.72652   2.74003   2.74121
  Beta virt. eigenvalues --    2.74593   2.76192   2.76341   2.77263   2.77604
  Beta virt. eigenvalues --    2.79400   2.79815   2.80719   2.81927   2.83286
  Beta virt. eigenvalues --    2.83309   2.83598   2.84592   2.85544   2.86260
  Beta virt. eigenvalues --    2.86588   2.87859   2.89102   2.90161   2.92153
  Beta virt. eigenvalues --    2.92874   2.94248   2.95202   2.95665   2.97007
  Beta virt. eigenvalues --    2.97624   2.97787   2.98143   2.98772   3.02129
  Beta virt. eigenvalues --    3.02234   3.03280   3.03996   3.04658   3.05663
  Beta virt. eigenvalues --    3.07585   3.08469   3.09785   3.10366   3.11044
  Beta virt. eigenvalues --    3.11912   3.12950   3.13013   3.14120   3.14578
  Beta virt. eigenvalues --    3.16358   3.16487   3.17917   3.18098   3.19997
  Beta virt. eigenvalues --    3.20244   3.20364   3.21005   3.21127   3.23070
  Beta virt. eigenvalues --    3.23682   3.24143   3.24425   3.24820   3.26075
  Beta virt. eigenvalues --    3.26903   3.26989   3.27792   3.28462   3.29799
  Beta virt. eigenvalues --    3.30186   3.31106   3.32019   3.32220   3.34314
  Beta virt. eigenvalues --    3.34696   3.35387   3.35843   3.36244   3.37234
  Beta virt. eigenvalues --    3.37767   3.39476   3.39487   3.41220   3.42149
  Beta virt. eigenvalues --    3.43002   3.44954   3.45250   3.46873   3.47008
  Beta virt. eigenvalues --    3.47884   3.48251   3.48571   3.49638   3.51452
  Beta virt. eigenvalues --    3.52287   3.53147   3.53426   3.54748   3.56560
  Beta virt. eigenvalues --    3.56756   3.57098   3.58127   3.58678   3.60367
  Beta virt. eigenvalues --    3.61797   3.62934   3.63978   3.65056   3.65998
  Beta virt. eigenvalues --    3.66197   3.66477   3.68181   3.70265   3.71683
  Beta virt. eigenvalues --    3.71794   3.73154   3.76570   3.80021   3.80193
  Beta virt. eigenvalues --    3.80371   3.82078   3.82765   3.83115   3.83365
  Beta virt. eigenvalues --    3.85524   3.87154   3.91007   3.91035   3.92310
  Beta virt. eigenvalues --    3.93214   3.95869   3.96400   4.01234   4.01462
  Beta virt. eigenvalues --    4.03205   4.04276   4.06883   4.08615   4.10323
  Beta virt. eigenvalues --    4.10776   4.12848   4.13378   4.14545   4.15190
  Beta virt. eigenvalues --    4.16426   4.18661   4.18976   4.20571   4.20824
  Beta virt. eigenvalues --    4.21901   4.24224   4.25779   4.28540   4.29836
  Beta virt. eigenvalues --    4.31852   4.32375   4.33709   4.35446   4.39275
  Beta virt. eigenvalues --    4.39647   4.42598   4.43212   4.45790   4.47724
  Beta virt. eigenvalues --    4.49029   4.50627   4.52162   4.54540   4.57023
  Beta virt. eigenvalues --    4.57892   4.59813   4.61005   4.67114   4.67832
  Beta virt. eigenvalues --    4.70423   4.73063   4.76295   4.76350   4.78549
  Beta virt. eigenvalues --    4.79367   4.80042   4.85403   4.86846   4.87900
  Beta virt. eigenvalues --    4.92188   4.92612   4.93616   4.94644   4.98095
  Beta virt. eigenvalues --    4.99201   5.03610   5.07833   5.10514   5.11976
  Beta virt. eigenvalues --    5.16796   5.20268   5.23053   5.24001   5.25661
  Beta virt. eigenvalues --    5.29219   5.37315   5.37860   5.40115   5.41241
  Beta virt. eigenvalues --    5.44950   5.45062   5.51724   5.55302   5.70121
  Beta virt. eigenvalues --    5.70661   5.72190   5.75421   5.92029   6.00091
  Beta virt. eigenvalues --    7.94946   7.95591   8.03432   8.03803   8.05380
  Beta virt. eigenvalues --    8.10074   8.11018   8.14435   8.18711   8.20192
  Beta virt. eigenvalues --    8.33934   8.40089  34.77320  34.77580  34.81200
  Beta virt. eigenvalues --   34.81417  34.84406  34.91177  34.98164  34.99609
  Beta virt. eigenvalues --   35.02537  35.02982  35.16419  35.22437
          Condensed to atoms (all electrons):
               1          2          3          4          5          6
     1  C    5.163057  -0.004243   0.425422  -0.002734   0.001858  -0.009165
     2  C   -0.004243   5.376297  -0.002003   0.433168  -0.104242   0.007071
     3  H    0.425422  -0.002003   0.496752   0.000044  -0.000035   0.000093
     4  H   -0.002734   0.433168   0.000044   0.482269  -0.019968  -0.005236
     5  C    0.001858  -0.104242  -0.000035  -0.019968   5.224200   0.515478
     6  C   -0.009165   0.007071   0.000093  -0.005236   0.515478   5.376258
     7  H    0.000125  -0.002924   0.000003   0.000057   0.439419  -0.034272
     8  H    0.000941  -0.005232  -0.000130   0.000574  -0.038088   0.433169
     9  C    0.002940  -0.027738  -0.000009  -0.005475  -0.064773   0.251532
    10  H   -0.000045   0.004041  -0.000001  -0.000533  -0.007183  -0.050075
    11  H    0.000006  -0.006735   0.000004   0.000868   0.010228  -0.058929
    12  C   -0.000226   0.022567   0.000000   0.007800   0.286153  -0.067380
    13  H   -0.000001   0.000276   0.000000   0.000067  -0.037179   0.004522
    14  C    0.000120  -0.009172  -0.000000   0.000940  -0.045286  -0.004217
    15  H   -0.000000   0.000093  -0.000000  -0.000130   0.006082  -0.002007
    16  C   -0.000456   0.015889   0.000000  -0.000619  -0.000864  -0.071599
    17  H    0.000022   0.001263  -0.000000  -0.005868   0.010604  -0.003009
    18  H    0.000002   0.000082   0.000000   0.000517  -0.003265   0.012564
    19  C   -0.045316   0.515474   0.006077  -0.038075  -0.030510  -0.104209
    20  H    0.005169  -0.034318  -0.000147  -0.006227  -0.000101  -0.002919
    21  C    0.564345  -0.067390  -0.032483   0.006489   0.004374   0.022552
    22  H   -0.028826   0.004512  -0.006521  -0.000086   0.000064   0.000276
    23  C   -0.088525   0.251506   0.005514  -0.016608   0.007898  -0.027724
    24  H    0.013086  -0.058924  -0.000095  -0.004104   0.003742  -0.006736
    25  H    0.005397  -0.050052  -0.000019  -0.002660   0.000667   0.004040
    26  C    0.273634  -0.071606  -0.031459   0.006499  -0.010860   0.015883
    27  H   -0.032402   0.012566  -0.004315  -0.000089   0.000427   0.000082
    28  H   -0.033144  -0.003001   0.001144  -0.000222  -0.004859   0.001263
               7          8          9         10         11         12
     1  C    0.000125   0.000941   0.002940  -0.000045   0.000006  -0.000226
     2  C   -0.002924  -0.005232  -0.027738   0.004041  -0.006735   0.022567
     3  H    0.000003  -0.000130  -0.000009  -0.000001   0.000004   0.000000
     4  H    0.000057   0.000574  -0.005475  -0.000533   0.000868   0.007800
     5  C    0.439419  -0.038088  -0.064773  -0.007183   0.010228   0.286153
     6  C   -0.034272   0.433169   0.251532  -0.050075  -0.058929  -0.067380
     7  H    0.486194  -0.006230   0.003818  -0.000064  -0.000032  -0.038787
     8  H   -0.006230   0.482282  -0.016607  -0.002662  -0.004103   0.006491
     9  C    0.003818  -0.016607   4.963490   0.403287   0.460053   0.032433
    10  H   -0.000064  -0.002662   0.403287   0.574684  -0.021018   0.000568
    11  H   -0.000032  -0.004103   0.460053  -0.021018   0.531518  -0.004665
    12  C   -0.038787   0.006491   0.032433   0.000568  -0.004665   5.034577
    13  H   -0.003793  -0.000086   0.000270  -0.000123   0.000036   0.425928
    14  C    0.005173  -0.002735  -0.088537   0.005390   0.013087   0.564276
    15  H   -0.000147   0.000044   0.005514  -0.000020  -0.000094  -0.032522
    16  C   -0.001434   0.006500   0.343292  -0.025335  -0.054032  -0.052410
    17  H    0.000007  -0.000222  -0.030706   0.006767  -0.007141  -0.013667
    18  H    0.000043  -0.000089  -0.041641  -0.009568  -0.001138   0.005264
    19  C   -0.000101  -0.019967   0.007882   0.000667   0.003745   0.004375
    20  H    0.000003   0.000057   0.002964   0.000397  -0.002844  -0.000108
    21  C   -0.000108   0.007799  -0.002920  -0.000162  -0.000234  -0.000454
    22  H   -0.000001   0.000067  -0.000095  -0.000000  -0.000033  -0.000002
    23  C    0.002966  -0.005479   0.004039  -0.000156   0.000248  -0.002926
    24  H   -0.002846   0.000868   0.000249  -0.000032  -0.000012  -0.000234
    25  H    0.000397  -0.000533  -0.000156   0.000018  -0.000032  -0.000162
    26  C   -0.001640  -0.000623  -0.001708   0.000066  -0.000126   0.001305
    27  H   -0.000023   0.000518   0.000017  -0.000000  -0.000002  -0.000037
    28  H    0.002257  -0.005872   0.000473   0.000013   0.000013   0.000276
              13         14         15         16         17         18
     1  C   -0.000001   0.000120  -0.000000  -0.000456   0.000022   0.000002
     2  C    0.000276  -0.009172   0.000093   0.015889   0.001263   0.000082
     3  H    0.000000  -0.000000  -0.000000   0.000000  -0.000000   0.000000
     4  H    0.000067   0.000940  -0.000130  -0.000619  -0.005868   0.000517
     5  C   -0.037179  -0.045286   0.006082  -0.000864   0.010604  -0.003265
     6  C    0.004522  -0.004217  -0.002007  -0.071599  -0.003009   0.012564
     7  H   -0.003793   0.005173  -0.000147  -0.001434   0.000007   0.000043
     8  H   -0.000086  -0.002735   0.000044   0.006500  -0.000222  -0.000089
     9  C    0.000270  -0.088537   0.005514   0.343292  -0.030706  -0.041641
    10  H   -0.000123   0.005390  -0.000020  -0.025335   0.006767  -0.009568
    11  H    0.000036   0.013087  -0.000094  -0.054032  -0.007141  -0.001138
    12  C    0.425928   0.564276  -0.032522  -0.052410  -0.013667   0.005264
    13  H    0.496546  -0.028808  -0.006523   0.004858  -0.000459  -0.000125
    14  C   -0.028808   5.163161   0.425447   0.273616  -0.033160  -0.032390
    15  H   -0.006523   0.425447   0.496749  -0.031446   0.001143  -0.004314
    16  C    0.004858   0.273616  -0.031446   4.966797   0.398165   0.424313
    17  H   -0.000459  -0.033160   0.001143   0.398165   0.583863  -0.022846
    18  H   -0.000125  -0.032390  -0.004314   0.424313  -0.022846   0.544373
    19  C    0.000065   0.001859  -0.000035  -0.010865  -0.004861   0.000427
    20  H   -0.000001   0.000125   0.000003  -0.001639   0.002256  -0.000023
    21  C   -0.000002  -0.000226   0.000000   0.001304   0.000276  -0.000037
    22  H    0.000000  -0.000001   0.000000   0.000006  -0.000000  -0.000001
    23  C   -0.000095   0.002941  -0.000009  -0.001706   0.000474   0.000017
    24  H   -0.000033   0.000006   0.000004  -0.000127   0.000013  -0.000001
    25  H   -0.000000  -0.000045  -0.000001   0.000066   0.000013  -0.000000
    26  C    0.000006  -0.000456   0.000000   0.000490  -0.000016  -0.000002
    27  H   -0.000001   0.000002   0.000000  -0.000002   0.000001  -0.000000
    28  H   -0.000000   0.000022  -0.000000  -0.000016  -0.000013   0.000001
              19         20         21         22         23         24
     1  C   -0.045316   0.005169   0.564345  -0.028826  -0.088525   0.013086
     2  C    0.515474  -0.034318  -0.067390   0.004512   0.251506  -0.058924
     3  H    0.006077  -0.000147  -0.032483  -0.006521   0.005514  -0.000095
     4  H   -0.038075  -0.006227   0.006489  -0.000086  -0.016608  -0.004104
     5  C   -0.030510  -0.000101   0.004374   0.000064   0.007898   0.003742
     6  C   -0.104209  -0.002919   0.022552   0.000276  -0.027724  -0.006736
     7  H   -0.000101   0.000003  -0.000108  -0.000001   0.002966  -0.002846
     8  H   -0.019967   0.000057   0.007799   0.000067  -0.005479   0.000868
     9  C    0.007882   0.002964  -0.002920  -0.000095   0.004039   0.000249
    10  H    0.000667   0.000397  -0.000162  -0.000000  -0.000156  -0.000032
    11  H    0.003745  -0.002844  -0.000234  -0.000033   0.000248  -0.000012
    12  C    0.004375  -0.000108  -0.000454  -0.000002  -0.002926  -0.000234
    13  H    0.000065  -0.000001  -0.000002   0.000000  -0.000095  -0.000033
    14  C    0.001859   0.000125  -0.000226  -0.000001   0.002941   0.000006
    15  H   -0.000035   0.000003   0.000000   0.000000  -0.000009   0.000004
    16  C   -0.010865  -0.001639   0.001304   0.000006  -0.001706  -0.000127
    17  H   -0.004861   0.002256   0.000276  -0.000000   0.000474   0.000013
    18  H    0.000427  -0.000023  -0.000037  -0.000001   0.000017  -0.000001
    19  C    5.224165   0.439440   0.286257  -0.037147  -0.064752   0.010230
    20  H    0.439440   0.486172  -0.038758  -0.003793   0.003818  -0.000032
    21  C    0.286257  -0.038758   5.034533   0.425931   0.032430  -0.004667
    22  H   -0.037147  -0.003793   0.425931   0.496513   0.000269   0.000036
    23  C   -0.064752   0.003818   0.032430   0.000269   4.963436   0.460041
    24  H    0.010230  -0.000032  -0.004667   0.000036   0.460041   0.531552
    25  H   -0.007197  -0.000064   0.000568  -0.000123   0.403288  -0.021029
    26  C   -0.000852  -0.001432  -0.052425   0.004858   0.343296  -0.054030
    27  H   -0.003267   0.000043   0.005270  -0.000125  -0.041630  -0.001138
    28  H    0.010598   0.000007  -0.013668  -0.000459  -0.030709  -0.007144
              25         26         27         28
     1  C    0.005397   0.273634  -0.032402  -0.033144
     2  C   -0.050052  -0.071606   0.012566  -0.003001
     3  H   -0.000019  -0.031459  -0.004315   0.001144
     4  H   -0.002660   0.006499  -0.000089  -0.000222
     5  C    0.000667  -0.010860   0.000427  -0.004859
     6  C    0.004040   0.015883   0.000082   0.001263
     7  H    0.000397  -0.001640  -0.000023   0.002257
     8  H   -0.000533  -0.000623   0.000518  -0.005872
     9  C   -0.000156  -0.001708   0.000017   0.000473
    10  H    0.000018   0.000066  -0.000000   0.000013
    11  H   -0.000032  -0.000126  -0.000002   0.000013
    12  C   -0.000162   0.001305  -0.000037   0.000276
    13  H   -0.000000   0.000006  -0.000001  -0.000000
    14  C   -0.000045  -0.000456   0.000002   0.000022
    15  H   -0.000001   0.000000   0.000000  -0.000000
    16  C    0.000066   0.000490  -0.000002  -0.000016
    17  H    0.000013  -0.000016   0.000001  -0.000013
    18  H   -0.000000  -0.000002  -0.000000   0.000001
    19  C   -0.007197  -0.000852  -0.003267   0.010598
    20  H   -0.000064  -0.001432   0.000043   0.000007
    21  C    0.000568  -0.052425   0.005270  -0.013668
    22  H   -0.000123   0.004858  -0.000125  -0.000459
    23  C    0.403288   0.343296  -0.041630  -0.030709
    24  H   -0.021029  -0.054030  -0.001138  -0.007144
    25  H    0.574624  -0.025332  -0.009566   0.006767
    26  C   -0.025332   4.966808   0.424308   0.398157
    27  H   -0.009566   0.424308   0.544371  -0.022856
    28  H    0.006767   0.398157  -0.022856   0.583874
          Atomic-Atomic Spin Densities.
               1          2          3          4          5          6
     1  C   -0.000000  -0.000000  -0.000000  -0.000000   0.000000  -0.000000
     2  C   -0.000000   0.000000  -0.000000  -0.000000  -0.000000  -0.000000
     3  H   -0.000000  -0.000000   0.000000  -0.000000  -0.000000   0.000000
     4  H   -0.000000  -0.000000  -0.000000  -0.000000   0.000000   0.000000
     5  C    0.000000  -0.000000  -0.000000   0.000000   0.000000  -0.000000
     6  C   -0.000000  -0.000000   0.000000   0.000000  -0.000000  -0.000000
     7  H   -0.000000   0.000000   0.000000  -0.000000  -0.000000   0.000000
     8  H    0.000000  -0.000000  -0.000000   0.000000   0.000000   0.000000
     9  C   -0.000000  -0.000000  -0.000000  -0.000000   0.000000   0.000000
    10  H   -0.000000   0.000000  -0.000000  -0.000000  -0.000000  -0.000000
    11  H    0.000000  -0.000000   0.000000  -0.000000   0.000000  -0.000000
    12  C    0.000000   0.000000   0.000000  -0.000000  -0.000000   0.000000
    13  H   -0.000000   0.000000   0.000000   0.000000  -0.000000   0.000000
    14  C   -0.000000   0.000000  -0.000000  -0.000000  -0.000000   0.000000
    15  H    0.000000  -0.000000  -0.000000   0.000000   0.000000   0.000000
    16  C    0.000000   0.000000   0.000000   0.000000   0.000000  -0.000000
    17  H   -0.000000  -0.000000  -0.000000   0.000000   0.000000  -0.000000
    18  H    0.000000   0.000000   0.000000  -0.000000   0.000000  -0.000000
    19  C    0.000000   0.000000  -0.000000  -0.000000  -0.000000   0.000000
    20  H    0.000000  -0.000000  -0.000000  -0.000000  -0.000000  -0.000000
    21  C   -0.000000  -0.000000   0.000000   0.000000   0.000000  -0.000000
    22  H    0.000000  -0.000000   0.000000   0.000000  -0.000000  -0.000000
    23  C   -0.000000  -0.000000   0.000000  -0.000000  -0.000000   0.000000
    24  H   -0.000000   0.000000  -0.000000  -0.000000   0.000000   0.000000
    25  H   -0.000000   0.000000   0.000000  -0.000000  -0.000000  -0.000000
[...]
     2  C    0.000000   0.000000   0.000000   0.000000
     3  H    0.000000  -0.000000  -0.000000   0.000000
     4  H   -0.000000  -0.000000   0.000000  -0.000000
     5  C   -0.000000   0.000000   0.000000  -0.000000
     6  C   -0.000000  -0.000000  -0.000000   0.000000
     7  H   -0.000000   0.000000  -0.000000   0.000000
     8  H    0.000000  -0.000000   0.000000  -0.000000
     9  C    0.000000   0.000000  -0.000000   0.000000
    10  H    0.000000   0.000000  -0.000000   0.000000
    11  H   -0.000000  -0.000000   0.000000  -0.000000
    12  C    0.000000  -0.000000  -0.000000   0.000000
    13  H   -0.000000  -0.000000  -0.000000   0.000000
    14  C    0.000000  -0.000000  -0.000000   0.000000
    15  H    0.000000  -0.000000  -0.000000   0.000000
    16  C   -0.000000  -0.000000   0.000000  -0.000000
    17  H   -0.000000   0.000000   0.000000  -0.000000
    18  H    0.000000  -0.000000   0.000000  -0.000000
    19  C    0.000000  -0.000000  -0.000000  -0.000000
    20  H   -0.000000  -0.000000   0.000000   0.000000
    21  C    0.000000   0.000000   0.000000  -0.000000
    22  H    0.000000  -0.000000   0.000000   0.000000
    23  C    0.000000  -0.000000  -0.000000  -0.000000
    24  H    0.000000   0.000000   0.000000  -0.000000
    25  H   -0.000000   0.000000   0.000000  -0.000000
    26  C    0.000000  -0.000000   0.000000  -0.000000
    27  H    0.000000   0.000000   0.000000  -0.000000
    28  H   -0.000000  -0.000000  -0.000000   0.000000
 Mulliken charges and spin densities:
               1          2
     1  C   -0.211040  -0.000000
     2  C   -0.197228   0.000000
     3  H    0.142166   0.000000
     4  H    0.169340  -0.000000
     5  C   -0.143979   0.000000
     6  C   -0.197303  -0.000000
     7  H    0.151940  -0.000000
     8  H    0.169346   0.000000
     9  C   -0.201889  -0.000000
    10  H    0.121082   0.000000
    11  H    0.141363   0.000000
    12  C   -0.178433  -0.000000
    13  H    0.144654   0.000000
    14  C   -0.211131   0.000000
    15  H    0.142169  -0.000000
    16  C   -0.182749   0.000000
    17  H    0.117101  -0.000000
    18  H    0.127837  -0.000000
    19  C   -0.144107  -0.000000
    20  H    0.151953   0.000000
    21  C   -0.178594   0.000000
    22  H    0.144678  -0.000000
    23  C   -0.201861   0.000000
    24  H    0.141356  -0.000000
    25  H    0.121128  -0.000000
    26  C   -0.182743  -0.000000
    27  H    0.127847   0.000000
    28  H    0.117097   0.000000
 Sum of Mulliken charges =  -0.00000   0.00000
 Mulliken charges and spin densities with hydrogens summed into heavy atoms:
               1          2
     1  C   -0.068874  -0.000000
     2  C   -0.027888   0.000000
     5  C    0.007961   0.000000
     6  C   -0.027957  -0.000000
     9  C    0.060555  -0.000000
    12  C   -0.033779  -0.000000
    14  C   -0.068962   0.000000
    16  C    0.062189   0.000000
    19  C    0.007846  -0.000000
    21  C   -0.033915   0.000000
    23  C    0.060623   0.000000
    26  C    0.062201  -0.000000
 Electronic spatial extent (au):  <R**2>=           2196.4326
 Charge=             -0.0000 electrons
 Dipole moment (field-independent basis, Debye):
    X=              0.0003    Y=             -0.0005    Z=             -0.0001  Tot=              0.0006
 Quadrupole moment (field-independent basis, Debye-Ang):
   XX=            -72.5511   YY=            -70.1626   ZZ=            -76.9071
   XY=             -3.2059   XZ=             -3.1517   YZ=             -1.1376
 Traceless Quadrupole moment (field-independent basis, Debye-Ang):
   XX=              0.6558   YY=              3.0444   ZZ=             -3.7002
   XY=             -3.2059   XZ=             -3.1517   YZ=             -1.1376
 Octapole moment (field-independent basis, Debye-Ang**2):
  XXX=              0.0094  YYY=             -0.0049  ZZZ=             -0.0007  XYY=             -0.0020
  XXY=             -0.0028  XXZ=             -0.0023  XZZ=             -0.0007  YZZ=              0.0005
  YYZ=             -0.0009  XYZ=              0.0001
 Hexadecapole moment (field-independent basis, Debye-Ang**3):
 XXXX=          -2037.6054 YYYY=           -625.7532 ZZZZ=           -323.6448 XXXY=           -100.2940
 XXXZ=           -117.2171 YYYX=            -57.4889 YYYZ=             -0.9663 ZZZX=            -66.8685
 ZZZY=            -10.1860 XXYY=           -441.4083 XXZZ=           -418.4200 YYZZ=           -173.3939
 XXYZ=            -19.8061 YYXZ=            -24.6083 ZZXY=            -41.7197
 N-N= 6.914220691477D+02 E-N=-2.464563138783D+03  KE= 4.642337795769D+02
                          Isotropic Fermi Contact Couplings
        Atom                 a.u.       MegaHertz       Gauss      10(-4) cm-1
     1  C(13)             -0.00000      -0.00000      -0.00000      -0.00000
     2  C(13)             -0.00000      -0.00000      -0.00000      -0.00000
     3  H(1)               0.00000       0.00001       0.00000       0.00000
     4  H(1)              -0.00000      -0.00001      -0.00000      -0.00000
     5  C(13)              0.00000       0.00005       0.00002       0.00002
     6  C(13)              0.00000       0.00001       0.00000       0.00000
     7  H(1)              -0.00000      -0.00004      -0.00001      -0.00001
     8  H(1)               0.00000       0.00001       0.00000       0.00000
     9  C(13)             -0.00000      -0.00008      -0.00003      -0.00003
    10  H(1)               0.00000       0.00005       0.00002       0.00002
    11  H(1)               0.00000       0.00006       0.00002       0.00002
    12  C(13)             -0.00000      -0.00004      -0.00002      -0.00001
    13  H(1)               0.00000       0.00005       0.00002       0.00002
    14  C(13)             -0.00000      -0.00000      -0.00000      -0.00000
    15  H(1)              -0.00000      -0.00001      -0.00000      -0.00000
    16  C(13)              0.00000       0.00005       0.00002       0.00002
    17  H(1)              -0.00000      -0.00001      -0.00000      -0.00000
    18  H(1)              -0.00000      -0.00000      -0.00000      -0.00000
    19  C(13)             -0.00000      -0.00005      -0.00002      -0.00002
    20  H(1)               0.00000       0.00004       0.00001       0.00001
    21  C(13)              0.00000       0.00005       0.00002       0.00002
    22  H(1)              -0.00000      -0.00005      -0.00002      -0.00002
    23  C(13)              0.00000       0.00008       0.00003       0.00003
    24  H(1)              -0.00000      -0.00006      -0.00002      -0.00002
    25  H(1)              -0.00000      -0.00005      -0.00002      -0.00002
    26  C(13)             -0.00000      -0.00004      -0.00002      -0.00001
    27  H(1)               0.00000       0.00000       0.00000       0.00000
    28  H(1)               0.00000       0.00000       0.00000       0.00000
 --------------------------------------------------------
       Center         ----  Spin Dipole Couplings  ----
                      3XX-RR        3YY-RR        3ZZ-RR
 --------------------------------------------------------
     1   Atom        0.000000      0.000000     -0.000000
     2   Atom       -0.000000     -0.000000      0.000000
     3   Atom       -0.000000      0.000000     -0.000000
     4   Atom        0.000000     -0.000000      0.000000
     5   Atom       -0.000000     -0.000000      0.000000
     6   Atom        0.000000      0.000000     -0.000000
     7   Atom       -0.000000      0.000000     -0.000000
     8   Atom       -0.000000      0.000000     -0.000000
     9   Atom        0.000000      0.000000     -0.000000
    10   Atom        0.000000      0.000000     -0.000000
    11   Atom        0.000000     -0.000000      0.000000
    12   Atom        0.000000     -0.000000     -0.000000
    13   Atom        0.000000     -0.000000      0.000000
    14   Atom       -0.000000     -0.000000      0.000000
    15   Atom        0.000000     -0.000000      0.000000
    16   Atom        0.000000     -0.000000      0.000000
    17   Atom       -0.000000     -0.000000      0.000000
    18   Atom        0.000000      0.000000     -0.000000
    19   Atom        0.000000      0.000000     -0.000000
    20   Atom        0.000000     -0.000000      0.000000
    21   Atom       -0.000000     -0.000000      0.000000
    22   Atom       -0.000000      0.000000     -0.000000
    23   Atom       -0.000000     -0.000000      0.000000
    24   Atom       -0.000000      0.000000     -0.000000
    25   Atom       -0.000000     -0.000000      0.000000
    26   Atom       -0.000000      0.000000     -0.000000
    27   Atom       -0.000000     -0.000000      0.000000
    28   Atom        0.000000      0.000000     -0.000000
 --------------------------------------------------------
                        XY            XZ            YZ
 --------------------------------------------------------
     1   Atom        0.000000     -0.000000      0.000000
     2   Atom        0.000000      0.000000      0.000000
     3   Atom       -0.000000      0.000000      0.000000
     4   Atom       -0.000000     -0.000000      0.000000
     5   Atom       -0.000000      0.000000      0.000000
     6   Atom       -0.000000     -0.000000     -0.000000
     7   Atom       -0.000000      0.000000      0.000000
     8   Atom        0.000000      0.000000     -0.000000
     9   Atom       -0.000000     -0.000000      0.000000
    10   Atom       -0.000000     -0.000000     -0.000000
    11   Atom       -0.000000     -0.000000     -0.000000
    12   Atom       -0.000000     -0.000000      0.000000
    13   Atom       -0.000000      0.000000      0.000000
    14   Atom       -0.000000      0.000000     -0.000000
    15   Atom        0.000000     -0.000000     -0.000000
    16   Atom        0.000000     -0.000000      0.000000
    17   Atom        0.000000      0.000000      0.000000
    18   Atom       -0.000000      0.000000     -0.000000
    19   Atom        0.000000     -0.000000     -0.000000
    20   Atom        0.000000     -0.000000     -0.000000
    21   Atom        0.000000      0.000000     -0.000000
    22   Atom        0.000000      0.000000     -0.000000
    23   Atom        0.000000      0.000000     -0.000000
    24   Atom        0.000000      0.000000      0.000000
    25   Atom        0.000000      0.000000      0.000000
    26   Atom       -0.000000      0.000000     -0.000000
    27   Atom        0.000000     -0.000000      0.000000
    28   Atom       -0.000000     -0.000000     -0.000000
 --------------------------------------------------------


 ---------------------------------------------------------------------------------
              Anisotropic Spin Dipole Couplings in Principal Axis System
 ---------------------------------------------------------------------------------

       Atom             a.u.   MegaHertz   Gauss  10(-4) cm-1        Axes

              Baa    -0.0000    -0.000    -0.000    -0.000  0.4737 -0.0882  0.8762
     1 C(13)  Bbb     0.0000     0.000     0.000     0.000  0.8772 -0.0402 -0.4783
              Bcc     0.0000     0.000     0.000     0.000  0.0774  0.9953  0.0583
 
              Baa    -0.0000    -0.000    -0.000    -0.000 -0.3815  0.9204  0.0856
     2 C(13)  Bbb    -0.0000    -0.000    -0.000    -0.000  0.8139  0.3783 -0.4410
              Bcc     0.0000     0.000     0.000     0.000  0.4383  0.0986  0.8934
 
              Baa    -0.0000    -0.000    -0.000    -0.000  0.8245  0.1314 -0.5503
     3 H(1)   Bbb    -0.0000    -0.000    -0.000    -0.000  0.5598 -0.0483  0.8272
              Bcc     0.0000     0.000     0.000     0.000 -0.0821  0.9902  0.1134
 
              Baa    -0.0000    -0.000    -0.000    -0.000 -0.0217  0.9861 -0.1647
     4 H(1)   Bbb     0.0000     0.000     0.000     0.000  0.5055  0.1529  0.8492
              Bcc     0.0000     0.000     0.000     0.000  0.8626 -0.0648 -0.5018
 
              Baa    -0.0000    -0.000    -0.000    -0.000  0.5605  0.7621 -0.3240
     5 C(13)  Bbb    -0.0000    -0.000    -0.000    -0.000  0.7434 -0.6355 -0.2087
              Bcc     0.0000     0.000     0.000     0.000  0.3650  0.1239  0.9227
 
              Baa    -0.0000    -0.000    -0.000    -0.000  0.4474  0.0808  0.8907
     6 C(13)  Bbb     0.0000     0.000     0.000     0.000  0.8064  0.3943 -0.4408
              Bcc     0.0000     0.000     0.000     0.000 -0.3868  0.9154  0.1113
 
              Baa    -0.0000    -0.000    -0.000    -0.000  0.7427  0.5548 -0.3750
     7 H(1)   Bbb    -0.0000    -0.000    -0.000    -0.000  0.3560  0.1472  0.9228
              Bcc     0.0000     0.000     0.000     0.000 -0.5672  0.8189  0.0882
 
              Baa    -0.0000    -0.000    -0.000    -0.000  0.9597 -0.0915 -0.2659
     8 H(1)   Bbb    -0.0000    -0.000    -0.000    -0.000  0.2794  0.2052  0.9380
              Bcc     0.0000     0.000     0.000     0.000  0.0313  0.9744 -0.2225
 
              Baa    -0.0000    -0.000    -0.000    -0.000  0.4731  0.1870  0.8609
     9 C(13)  Bbb    -0.0000    -0.000    -0.000    -0.000  0.5962  0.6515 -0.4691
              Bcc     0.0000     0.000     0.000     0.000 -0.6486  0.7352  0.1967
 
              Baa    -0.0000    -0.000    -0.000    -0.000  0.4195  0.0776  0.9044
    10 H(1)   Bbb     0.0000     0.000     0.000     0.000 -0.5987  0.7725  0.2114
              Bcc     0.0000     0.000     0.000     0.000  0.6823  0.6302 -0.3705
 
              Baa    -0.0000    -0.000    -0.000    -0.000  0.5001  0.8597  0.1044
    11 H(1)   Bbb     0.0000     0.000     0.000     0.000  0.6369 -0.4468  0.6283
              Bcc     0.0000     0.000     0.000     0.000 -0.5867  0.2477  0.7710
 
              Baa    -0.0000    -0.000    -0.000    -0.000  0.2595 -0.0183  0.9656
    12 C(13)  Bbb    -0.0000    -0.000    -0.000    -0.000  0.4762  0.8723 -0.1114
              Bcc     0.0000     0.000     0.000     0.000  0.8402 -0.4887 -0.2351
 
              Baa    -0.0000    -0.000    -0.000    -0.000  0.3761  0.9111 -0.1687
    13 H(1)   Bbb     0.0000     0.000     0.000     0.000  0.3159  0.0451  0.9477
              Bcc     0.0000     0.000     0.000     0.000  0.8711 -0.4097 -0.2708
 
              Baa    -0.0000    -0.000    -0.000    -0.000  0.1308  0.9897  0.0577
    14 C(13)  Bbb    -0.0000    -0.000    -0.000    -0.000  0.8646 -0.0854 -0.4952
              Bcc     0.0000     0.000     0.000     0.000  0.4852 -0.1147  0.8668
 
              Baa    -0.0000    -0.000    -0.000    -0.000 -0.0462  0.9914  0.1228
    15 H(1)   Bbb     0.0000     0.000     0.000     0.000  0.6226 -0.0675  0.7796
              Bcc     0.0000     0.000     0.000     0.000  0.7812  0.1125 -0.6141
 
              Baa    -0.0000    -0.000    -0.000    -0.000 -0.3681  0.8560 -0.3630
    16 C(13)  Bbb    -0.0000    -0.000    -0.000    -0.000  0.5149  0.5128  0.6870
              Bcc     0.0000     0.000     0.000     0.000  0.7741  0.0660 -0.6296
 
              Baa    -0.0000    -0.000    -0.000    -0.000  0.9523 -0.1739 -0.2507
    17 H(1)   Bbb    -0.0000    -0.000    -0.000    -0.000  0.0564  0.9078 -0.4155
              Bcc     0.0000     0.000     0.000     0.000  0.2999  0.3816  0.8744
 
              Baa    -0.0000    -0.000    -0.000    -0.000 -0.0738  0.4047  0.9115
    18 H(1)   Bbb    -0.0000    -0.000    -0.000    -0.000  0.7504  0.6245 -0.2165
              Bcc     0.0000     0.000     0.000     0.000 -0.6568  0.6680 -0.3498
 
              Baa    -0.0000    -0.000    -0.000    -0.000  0.3656  0.1051  0.9248
    19 C(13)  Bbb     0.0000     0.000     0.000     0.000  0.7442 -0.6298 -0.2226
              Bcc     0.0000     0.000     0.000     0.000  0.5591  0.7696 -0.3085
 
              Baa    -0.0000    -0.000    -0.000    -0.000 -0.5718  0.8152  0.0922
    20 H(1)   Bbb     0.0000     0.000     0.000     0.000  0.3421  0.1348  0.9299
              Bcc     0.0000     0.000     0.000     0.000  0.7457  0.5632 -0.3560
 
              Baa    -0.0000    -0.000    -0.000    -0.000  0.8073 -0.5056 -0.3045
    21 C(13)  Bbb    -0.0000    -0.000    -0.000    -0.000  0.4756  0.8627 -0.1717
              Bcc     0.0000     0.000     0.000     0.000  0.3495 -0.0062  0.9369
 
              Baa    -0.0000    -0.000    -0.000    -0.000  0.8446 -0.4288 -0.3205
    22 H(1)   Bbb    -0.0000    -0.000    -0.000    -0.000  0.3634  0.0197  0.9314
              Bcc     0.0000     0.000     0.000     0.000  0.3931  0.9032 -0.1725
 
              Baa    -0.0000    -0.000    -0.000    -0.000 -0.6484  0.7282  0.2220
    23 C(13)  Bbb     0.0000     0.000     0.000     0.000  0.6053  0.6700 -0.4299
              Bcc     0.0000     0.000     0.000     0.000  0.4618  0.1444  0.8752
 
              Baa    -0.0000    -0.000    -0.000    -0.000 -0.5808  0.2268  0.7818
    24 H(1)   Bbb    -0.0000    -0.000    -0.000    -0.000  0.6585 -0.4337  0.6150
              Bcc     0.0000     0.000     0.000     0.000  0.4785  0.8721  0.1025
 
              Baa    -0.0000    -0.000    -0.000    -0.000  0.7370  0.5475 -0.3963
    25 H(1)   Bbb    -0.0000    -0.000    -0.000    -0.000 -0.5211  0.8337  0.1827
              Bcc     0.0000     0.000     0.000     0.000  0.4305  0.0718  0.8997
 
              Baa    -0.0000    -0.000    -0.000    -0.000  0.7734  0.0767 -0.6292
    26 C(13)  Bbb     0.0000     0.000     0.000     0.000  0.5317  0.4619  0.7099
              Bcc     0.0000     0.000     0.000     0.000 -0.3451  0.8836 -0.3165
 
              Baa    -0.0000    -0.000    -0.000    -0.000 -0.6153  0.7036 -0.3555
    27 H(1)   Bbb     0.0000     0.000     0.000     0.000  0.7747  0.6231 -0.1076
              Bcc     0.0000     0.000     0.000     0.000 -0.1458  0.3416  0.9285
 
              Baa    -0.0000    -0.000    -0.000    -0.000  0.3159  0.4037  0.8586
    28 H(1)   Bbb     0.0000     0.000     0.000     0.000  0.1995  0.8565 -0.4761
              Bcc     0.0000     0.000     0.000     0.000  0.9276 -0.3217 -0.1900
 

 ---------------------------------------------------------------------------------

 No NMR shielding tensors so no spin-rotation constants.
 Leave Link  601 at Mon Aug  3 16:07:04 2020, MaxMem=  6442450944 cpu:               7.9 elap:               0.4
 (Enter /scratch/scicomp/CentOS/7.3.1611/Haswell/software/Gaussian/g16/l9999.exe)
 1\1\GINC-ATLAS-205\SP\UwB97XD\def2TZVP\C12H16\BOCHEN\03-Aug-2020\0\\#p
  uwb97xd guess=mix def2tzvp # scrf=(iefpcm,solvent=Cyclohexane,read) n
 osym 6d 10f\\endo-2 xp-pcm for eta=3\\0,1\C,0,-3.118021,-0.436434,0.24
 6814\C,0,-0.540801,-0.189187,-0.905365\H,0,-4.082489,-0.549871,0.72804
 5\H,0,0.377295,-0.116929,-1.47326\C,0,1.091386,1.404996,0.687212\C,0,0
 .540801,0.189187,0.905365\H,0,0.527763,2.310929,0.87163\H,0,-0.377295,
 0.116929,1.47326\C,0,1.464971,-0.999714,0.988105\H,0,1.905333,-0.95607
 9,1.991084\H,0,0.918248,-1.940154,0.92832\C,0,2.416056,1.5169,0.113501
 \H,0,2.8264,2.506211,-0.052048\C,0,3.118021,0.436434,-0.246814\H,0,4.0
 82489,0.549871,-0.728045\C,0,2.591807,-0.958352,-0.044272\H,0,2.252673
 ,-1.356402,-1.008685\H,0,3.400675,-1.620592,0.272198\C,0,-1.091386,-1.
 404996,-0.687212\H,0,-0.527763,-2.310929,-0.87163\C,0,-2.416056,-1.516
 9,-0.113501\H,0,-2.8264,-2.506211,0.052048\C,0,-1.464971,0.999714,-0.9
 88105\H,0,-0.918248,1.940154,-0.92832\H,0,-1.905333,0.956079,-1.991084
 \C,0,-2.591807,0.958352,0.044272\H,0,-3.400675,1.620592,-0.272198\H,0,
 -2.252673,1.356402,1.008685\\Version=ES64L-G16RevB.01\HF=-466.8233029\
 S2=0.\S2-1=0.\S2A=0.\RMSD=8.377e-09\Dipole=0.0001115,-0.0001844,-0.000
 0465\Quadrupole=0.4875833,2.2634011,-2.7509843,-2.3834816,-2.3432169,-
 0.8457921\PG=CI [X(C12H16)]\\@


 IF YOU DON'T HAVE THE LAW - ARGUE THE FACTS.
 IF YOU DON'T HAVE THE FACTS - ARGUE THE LAW.
 IF YOU DON'T HAVE EITHER - POUND THE TABLE.
 Job cpu time:       0 days  2 hours 37 minutes 21.7 seconds.
 Elapsed time:       0 days  0 hours  6 minutes 36.9 seconds.
 File lengths (MBytes):  RWF=    634 Int=      0 D2E=      0 Chk=     23 Scr=      1
 Normal termination of Gaussian 16 at Mon Aug  3 16:07:05 2020.
