 Entering Gaussian System, Link 0=g16
 Input=meso-TS_22_2_xp-Ger.com
 Output=meso-TS_22_2_xp-Ger.log
 Initial command:
 /scratch/scicomp/CentOS/7.3.1611/Haswell/software/Gaussian/g16/l1.exe "/scratch/bochen/cyclohexadiene-dimerization/wb97xd-def2tzvp/xp-pcm/meso/Gau-341426.inp" -scrdir="/scratch/bochen/cyclohexadiene-dimerization/wb97xd-def2tzvp/xp-pcm/meso/"
 Entering Link 1 = /scratch/scicomp/CentOS/7.3.1611/Haswell/software/Gaussian/g16/l1.exe PID=    341427.
  
 Copyright (c) 1988-2017, Gaussian, Inc.  All Rights Reserved.
  
 This is part of the Gaussian(R) 16 program.  It is based on
 the Gaussian(R) 09 system (copyright 2009, Gaussian, Inc.),
 the Gaussian(R) 03 system (copyright 2003, Gaussian, Inc.),
 the Gaussian(R) 98 system (copyright 1998, Gaussian, Inc.),
 the Gaussian(R) 94 system (copyright 1995, Gaussian, Inc.),
 the Gaussian 92(TM) system (copyright 1992, Gaussian, Inc.),
 the Gaussian 90(TM) system (copyright 1990, Gaussian, Inc.),
 the Gaussian 88(TM) system (copyright 1988, Gaussian, Inc.),
 the Gaussian 86(TM) system (copyright 1986, Carnegie Mellon
 University), and the Gaussian 82(TM) system (copyright 1983,
 Carnegie Mellon University). Gaussian is a federally registered
 trademark of Gaussian, Inc.
  
 This software contains proprietary and confidential information,
 including trade secrets, belonging to Gaussian, Inc.
  
 This software is provided under written license and may be
 used, copied, transmitted, or stored only in accord with that
 written license.
  
 The following legend is applicable only to US Government
 contracts under FAR:
  
                    RESTRICTED RIGHTS LEGEND
  
 Use, reproduction and disclosure by the US Government is
 subject to restrictions as set forth in subparagraphs (a)
 and (c) of the Commercial Computer Software - Restricted
 Rights clause in FAR 52.227-19.
  
 Gaussian, Inc.
 340 Quinnipiac St., Bldg. 40, Wallingford CT 06492
  
  
 ---------------------------------------------------------------
 Warning -- This program may not be used in any manner that
 competes with the business of Gaussian, Inc. or will provide
 assistance to any competitor of Gaussian, Inc.  The licensee
 of this program is prohibited from giving any competitor of
 Gaussian, Inc. access to this program.  By using this program,
 the user acknowledges that Gaussian, Inc. is engaged in the
 business of creating and licensing software in the field of
 computational chemistry and represents and warrants to the
 licensee that it is not a competitor of Gaussian, Inc. and that
 it will not use this program in any manner prohibited above.
 ---------------------------------------------------------------
  

 Cite this work as:
 Gaussian 16, Revision B.01,
 M. J. Frisch, G. W. Trucks, H. B. Schlegel, G. E. Scuseria, 
 M. A. Robb, J. R. Cheeseman, G. Scalmani, V. Barone, 
 G. A. Petersson, H. Nakatsuji, X. Li, M. Caricato, A. V. Marenich, 
 J. Bloino, B. G. Janesko, R. Gomperts, B. Mennucci, H. P. Hratchian, 
 J. V. Ortiz, A. F. Izmaylov, J. L. Sonnenberg, D. Williams-Young, 
 F. Ding, F. Lipparini, F. Egidi, J. Goings, B. Peng, A. Petrone, 
 T. Henderson, D. Ranasinghe, V. G. Zakrzewski, J. Gao, N. Rega, 
 G. Zheng, W. Liang, M. Hada, M. Ehara, K. Toyota, R. Fukuda, 
 J. Hasegawa, M. Ishida, T. Nakajima, Y. Honda, O. Kitao, H. Nakai, 
 T. Vreven, K. Throssell, J. A. Montgomery, Jr., J. E. Peralta, 
 F. Ogliaro, M. J. Bearpark, J. J. Heyd, E. N. Brothers, K. N. Kudin, 
 V. N. Staroverov, T. A. Keith, R. Kobayashi, J. Normand, 
 K. Raghavachari, A. P. Rendell, J. C. Burant, S. S. Iyengar, 
 J. Tomasi, M. Cossi, J. M. Millam, M. Klene, C. Adamo, R. Cammi, 
 J. W. Ochterski, R. L. Martin, K. Morokuma, O. Farkas, 
 J. B. Foresman, and D. J. Fox, Gaussian, Inc., Wallingford CT, 2016.
 
 ******************************************
 Gaussian 16:  ES64L-G16RevB.01 20-Dec-2017
                 4-Aug-2020 
 ******************************************
 %chk=meso-TS_22_2_xp-12.chk
 %nproc=24
 Will use up to   24 processors via shared memory.
 %mem=48GB
 ----------------------------------------------------------------------
 #p uwb97xd guess=mix def2tzvp # scrf=(iefpcm,solvent=Cyclohexane,read)
  nosym 6d 10f
 ----------------------------------------------------------------------
 1/38=1,40=2,172=1/1;
 2/12=2,15=1,17=6,18=5,40=1/2;
 3/5=44,7=101,8=22,11=2,25=1,30=1,70=2203,72=17,74=-58,116=2/1,2,3;
 4/13=-1/1;
 5/5=2,38=5,53=17/2;
 6/7=2,8=2,9=2,10=2,28=1/1;
 99/5=1,9=1/99;
 Leave Link    1 at Tue Aug  4 08:38:15 2020, MaxMem=  6442450944 cpu:               2.7 elap:               0.1
 (Enter /scratch/scicomp/CentOS/7.3.1611/Haswell/software/Gaussian/g16/l101.exe)
 -----------------------
 endo-2 xp-pcm for eta=3
 -----------------------
 Symbolic Z-matrix:
 Charge =  0 Multiplicity = 1
 6                    -3.12169  -0.43794   0.24848 
 6                    -0.60889  -0.21827  -1.03699 
 1                    -4.08505  -0.54816   0.73279 
 1                     0.36031  -0.12471  -1.50659 
 6                     1.0996    1.41098   0.7054 
 6                     0.60889   0.21827   1.03699 
 1                     0.51411   2.31109   0.84333 
 1                    -0.36031   0.12471   1.50659 
 6                     1.48341  -1.00069   1.0115 
 1                     1.95092  -1.04772   2.0031 
 1                     0.89193  -1.90928   0.91402 
 6                     2.4259    1.51795   0.10904 
 1                     2.8341    2.50596  -0.06791 
 6                     3.12169   0.43794  -0.24848 
 1                     4.08505   0.54816  -0.73279 
 6                     2.59025  -0.95486  -0.04578 
 1                     2.23599  -1.34484  -1.00803 
 1                     3.40096  -1.62171   0.25523 
 6                    -1.0996   -1.41098  -0.7054 
 1                    -0.51411  -2.31109  -0.84333 
 6                    -2.4259   -1.51795  -0.10904 
 1                    -2.8341   -2.50596   0.06791 
 6                    -1.48341   1.00069  -1.0115 
 1                    -0.89193   1.90928  -0.91402 
 1                    -1.95092   1.04772  -2.0031 
 6                    -2.59025   0.95486   0.04578 
 1                    -3.40096   1.62171  -0.25523 
 1                    -2.23599   1.34484   1.00803 
 
 ITRead=  0  0  0  0  0  0  0  0  0  0  0  0  0  0  0  0  0  0  0  0
 ITRead=  0  0  0  0  0  0  0  0
 MicOpt= -1 -1 -1 -1 -1 -1 -1 -1 -1 -1 -1 -1 -1 -1 -1 -1 -1 -1 -1 -1
 MicOpt= -1 -1 -1 -1 -1 -1 -1 -1
 NAtoms=     28 NQM=       28 NQMF=       0 NMMI=      0 NMMIF=      0
                NMic=       0 NMicF=      0.
                    Isotopes and Nuclear Properties:
 (Nuclear quadrupole moments (NQMom) in fm**2, nuclear magnetic moments (NMagM)
  in nuclear magnetons)

  Atom         1           2           3           4           5           6           7           8           9          10
 IAtWgt=          12          12           1           1          12          12           1           1          12           1
 AtmWgt=  12.0000000  12.0000000   1.0078250   1.0078250  12.0000000  12.0000000   1.0078250   1.0078250  12.0000000   1.0078250
 NucSpn=           0           0           1           1           0           0           1           1           0           1
 AtZEff=  -0.0000000  -0.0000000  -0.0000000  -0.0000000  -0.0000000  -0.0000000  -0.0000000  -0.0000000  -0.0000000  -0.0000000
 NQMom=    0.0000000   0.0000000   0.0000000   0.0000000   0.0000000   0.0000000   0.0000000   0.0000000   0.0000000   0.0000000
 NMagM=    0.0000000   0.0000000   2.7928460   2.7928460   0.0000000   0.0000000   2.7928460   2.7928460   0.0000000   2.7928460
 AtZNuc=   6.0000000   6.0000000   1.0000000   1.0000000   6.0000000   6.0000000   1.0000000   1.0000000   6.0000000   1.0000000

  Atom        11          12          13          14          15          16          17          18          19          20
 IAtWgt=           1          12           1          12           1          12           1           1          12           1
 AtmWgt=   1.0078250  12.0000000   1.0078250  12.0000000   1.0078250  12.0000000   1.0078250   1.0078250  12.0000000   1.0078250
 NucSpn=           1           0           1           0           1           0           1           1           0           1
 AtZEff=  -0.0000000  -0.0000000  -0.0000000  -0.0000000  -0.0000000  -0.0000000  -0.0000000  -0.0000000  -0.0000000  -0.0000000
 NQMom=    0.0000000   0.0000000   0.0000000   0.0000000   0.0000000   0.0000000   0.0000000   0.0000000   0.0000000   0.0000000
 NMagM=    2.7928460   0.0000000   2.7928460   0.0000000   2.7928460   0.0000000   2.7928460   2.7928460   0.0000000   2.7928460
 AtZNuc=   1.0000000   6.0000000   1.0000000   6.0000000   1.0000000   6.0000000   1.0000000   1.0000000   6.0000000   1.0000000

  Atom        21          22          23          24          25          26          27          28
 IAtWgt=          12           1          12           1           1          12           1           1
 AtmWgt=  12.0000000   1.0078250  12.0000000   1.0078250   1.0078250  12.0000000   1.0078250   1.0078250
 NucSpn=           0           1           0           1           1           0           1           1
 AtZEff=  -0.0000000  -0.0000000  -0.0000000  -0.0000000  -0.0000000  -0.0000000  -0.0000000  -0.0000000
 NQMom=    0.0000000   0.0000000   0.0000000   0.0000000   0.0000000   0.0000000   0.0000000   0.0000000
 NMagM=    0.0000000   2.7928460   0.0000000   2.7928460   2.7928460   0.0000000   2.7928460   2.7928460
 AtZNuc=   6.0000000   1.0000000   6.0000000   1.0000000   1.0000000   6.0000000   1.0000000   1.0000000
 Leave Link  101 at Tue Aug  4 08:38:15 2020, MaxMem=  6442450944 cpu:               2.4 elap:               0.1
 (Enter /scratch/scicomp/CentOS/7.3.1611/Haswell/software/Gaussian/g16/l202.exe)
                          Input orientation:                          
 ---------------------------------------------------------------------
 Center     Atomic      Atomic             Coordinates (Angstroms)
 Number     Number       Type             X           Y           Z
 ---------------------------------------------------------------------
      1          6           0       -3.121693   -0.437935    0.248475
      2          6           0       -0.608894   -0.218266   -1.036985
      3          1           0       -4.085054   -0.548156    0.732789
      4          1           0        0.360308   -0.124712   -1.506593
      5          6           0        1.099596    1.410984    0.705395
      6          6           0        0.608894    0.218266    1.036985
      7          1           0        0.514105    2.311092    0.843328
      8          1           0       -0.360308    0.124712    1.506593
      9          6           0        1.483411   -1.000688    1.011498
     10          1           0        1.950917   -1.047718    2.003099
     11          1           0        0.891930   -1.909281    0.914020
     12          6           0        2.425900    1.517947    0.109041
     13          1           0        2.834101    2.505963   -0.067907
     14          6           0        3.121693    0.437935   -0.248475
     15          1           0        4.085054    0.548156   -0.732789
     16          6           0        2.590248   -0.954860   -0.045775
     17          1           0        2.235992   -1.344838   -1.008028
     18          1           0        3.400959   -1.621706    0.255233
     19          6           0       -1.099596   -1.410984   -0.705395
     20          1           0       -0.514105   -2.311092   -0.843328
     21          6           0       -2.425900   -1.517947   -0.109041
     22          1           0       -2.834101   -2.505963    0.067907
     23          6           0       -1.483411    1.000688   -1.011498
     24          1           0       -0.891929    1.909281   -0.914020
     25          1           0       -1.950917    1.047718   -2.003099
     26          6           0       -2.590248    0.954860    0.045775
     27          1           0       -3.400959    1.621706   -0.255234
     28          1           0       -2.235992    1.344838    1.008028
 ---------------------------------------------------------------------
                    Distance matrix (angstroms):
                    1          2          3          4          5
     1  C    0.000000
     2  C    2.831046   0.000000
     3  H    1.083870   3.914667   0.000000
     4  H    3.911867   1.081035   4.995536   0.000000
     5  C    4.631043   2.934158   5.542524   2.792454   0.000000
     6  C    3.869060   2.444365   4.765825   2.578608   1.331659
     7  H    4.596741   3.345797   5.416621   3.388056   1.082599
     8  H    3.086208   2.578608   3.863322   3.108181   2.104218
     9  C    4.701689   3.030876   5.593770   2.893005   2.461133
    10  H    5.402029   4.059893   6.188392   3.962312   2.907576
    11  H    4.326312   2.986373   5.162933   3.053961   3.333288
    12  C    5.883936   3.679373   6.859327   3.094394   1.458136
    13  H    6.651174   4.496082   7.605489   3.887148   2.192141
    14  C    6.324079   3.869060   7.339786   3.086208   2.438354
    15  H    7.339786   4.765825   8.372603   3.863322   3.424296
    16  C    5.742827   3.429224   6.732847   2.792090   2.895430
    17  H    5.577281   3.059964   6.604602   2.292480   3.438280
    18  H    6.629204   4.440540   7.577662   3.819762   3.833553
    19  C    2.438354   1.331659   3.424296   2.104218   3.845813
    20  H    3.391204   2.103903   4.282962   2.446380   4.342398
    21  C    1.333556   2.419041   2.098086   3.414266   4.655219
    22  H    2.095723   3.377261   2.416601   4.284117   5.587740
    23  C    2.518161   1.500426   3.494281   2.216065   3.128576
    24  H    3.439864   2.149811   4.352818   2.460969   2.614761
    25  H    2.940658   2.082575   3.819220   2.638725   4.095550
    26  C    1.504460   2.544476   2.228338   3.504440   3.775989
    27  H    2.138652   3.433986   2.480419   4.331628   4.606757
    28  H    2.130649   3.045131   2.660491   3.901752   3.349942
                    6          7          8          9         10
     6  C    0.000000
     7  H    2.103903   0.000000
     8  H    1.081035   2.446380   0.000000
     9  C    1.500426   3.454811   2.216065   0.000000
    10  H    2.082575   3.832897   2.638725   1.097290   0.000000
    11  H    2.149811   4.237841   2.460969   1.088528   1.746378
    12  C    2.419041   2.196182   3.414266   2.836589   3.224237
    13  H    3.377261   2.500141   4.284117   3.909742   4.206867
    14  C    2.831046   3.391204   3.911867   2.518161   2.940658
    15  H    3.914667   4.282962   4.995536   3.494281   3.819220
    16  C    2.544476   3.970808   3.504440   1.531344   2.148314
    17  H    3.045131   4.445024   3.901752   2.182499   3.039150
    18  H    3.433986   4.913927   4.331629   2.152810   2.342460
    19  C    2.934158   4.342398   2.792454   3.128576   4.095550
    20  H    3.345797   5.026590   3.388056   3.024501   3.971724
    21  C    3.679373   4.920587   3.094394   4.099497   4.882497
    22  H    4.496082   5.917413   3.887148   4.668739   5.363566
    23  C    3.030876   3.024501   2.893005   4.110967   5.007831
    24  H    2.986373   2.286188   3.053960   4.221111   5.033408
    25  H    4.059893   3.971724   3.962312   5.007831   5.972000
    26  C    3.429224   3.480296   2.792090   4.620767   5.335130
    27  H    4.440540   4.124296   3.819762   5.686706   6.392845
    28  H    3.059964   2.919556   2.292480   4.397211   4.923890
                   11         12         13         14         15
    11  H    0.000000
    12  C    3.840175   0.000000
    13  H    4.922458   1.083566   0.000000
    14  C    3.439863   1.333556   2.095723   0.000000
    15  H    4.352817   2.098086   2.416601   1.083870   0.000000
    16  C    2.171730   2.483093   3.469474   1.504460   2.228338
    17  H    2.412336   3.078871   4.008769   2.130649   2.660491
    18  H    2.609967   3.290826   4.178923   2.138652   2.480418
    19  C    2.614762   4.655219   5.587740   4.631043   5.542524
    20  H    2.286189   4.920587   5.917413   4.596741   5.416621
    21  C    3.493965   5.727493   6.622775   5.883936   6.859327
    22  H    3.867201   6.622775   7.567454   6.651174   7.605489
    23  C    4.221112   4.099497   4.668739   4.701689   5.593770
    24  H    4.594050   3.493964   3.867200   4.326311   5.162932
    25  H    5.033409   4.882497   5.363566   5.402029   6.188392
    26  C    4.591592   5.048050   5.642908   5.742827   6.732847
    27  H    5.680134   5.839156   6.300236   6.629204   7.577662
    28  H    4.514646   4.750935   5.311468   5.577281   6.604602
                   16         17         18         19         20
    16  C    0.000000
    17  H    1.097046   0.000000
    18  H    1.092036   1.740584   0.000000
    19  C    3.775989   3.349942   4.606756   0.000000
    20  H    3.480296   2.919556   4.124296   1.082599   0.000000
    21  C    5.048050   4.750935   5.839156   1.458136   2.196182
    22  H    5.642908   5.311468   6.300236   2.192141   2.500141
    23  C    4.620767   4.397211   5.686706   2.461133   3.454811
    24  H    4.591591   4.514645   5.680133   3.333288   4.237841
    25  H    5.335130   4.923890   6.392845   2.907576   3.832897
    26  C    5.522042   5.449009   6.525115   2.895430   3.970808
    27  H    6.525115   6.414226   7.552906   3.833553   4.913927
    28  H    5.449009   5.594415   6.414226   3.438280   4.445024
                   21         22         23         24         25
    21  C    0.000000
    22  H    1.083566   0.000000
    23  C    2.836589   3.909742   0.000000
    24  H    3.840176   4.922458   1.088528   0.000000
    25  H    3.224237   4.206867   1.097290   1.746379   0.000000
    26  C    2.483093   3.469474   1.531344   2.171730   2.148314
    27  H    3.290826   4.178923   2.152810   2.609967   2.342459
    28  H    3.078871   4.008769   2.182499   2.412337   3.039150
                   26         27         28
    26  C    0.000000
    27  H    1.092036   0.000000
    28  H    1.097046   1.740585   0.000000
 Symmetry turned off by external request.
 Stoichiometry    C12H16
 Framework group  CI[X(C12H16)]
 Deg. of freedom    39
 Full point group                 CI      NOp   2
 Rotational constants (GHZ):           1.8833190           0.6233103           0.5480463
 Leave Link  202 at Tue Aug  4 08:38:16 2020, MaxMem=  6442450944 cpu:               0.3 elap:               0.0
 (Enter /scratch/scicomp/CentOS/7.3.1611/Haswell/software/Gaussian/g16/l301.exe)
 Standard basis: def2TZVP (6D, 10F)
 Ernie: Thresh=  0.10000D-02 Tol=  0.10000D-05 Strict=F.
   528 basis functions,   740 primitive gaussians,   528 cartesian basis functions
    44 alpha electrons       44 beta electrons
       nuclear repulsion energy       687.0344264793 Hartrees.
 IExCor= 4639 DFT=T Ex+Corr=wB97XD ExCW=0 ScaHFX=  1.000000
 ScaDFX=  1.000000  1.000000  1.000000  1.000000 ScalE2=  1.000000  1.000000
 IRadAn=      5 IRanWt=     -1 IRanGd=            0 ICorTp=0 IEmpDi=121
 HFx  wShort=  0.000000 wLong=  0.200000 cFull=  0.222036 cShort=  0.000000 cLong=  0.777964
 DFx  wShort=  0.000000 wLong=  0.200000 cFull=  0.000000 cShort=  0.000000 cLong=  1.000000
 NAtoms=   28 NActive=   28 NUniq=   28 SFac= 1.00D+00 NAtFMM=   60 NAOKFM=F Big=F
 Integral buffers will be    131072 words long.
 Raffenetti 2 integral format.
 Two-electron integral symmetry is turned off.
 R6Disp:  Grimme-D2 Dispersion energy=       -0.0229525597 Hartrees.
 Nuclear repulsion after empirical dispersion term =      687.0114739197 Hartrees.
 Using the following non-standard input for PCM:
 qrep pcmdoc geomview  nodis nocav g03defaults tsare=0.075
 Warning! Using old PCM defaults because the g03defaults keyword was found.
 These settings can be overridden by following keywords.
 nsfe=28
 NVESolv=36  SolvMW=84.1595   Rsolv=2.815
 eps=2.0165 RhoS=0.778099999999998
 --- end of non-standard input.
 Reading user-defined spheres from input:
 ISph  on   Nord    Re0     Alpha      Xe            Ye            Ze
 --- end of user-defined spheres data.
 ------------------------------------------------------------------------------
 Polarizable Continuum Model (PCM)
 =================================
 Model                : PCM.
 Atomic radii         : UA0 (Simple United Atom Topological Model).
 Polarization charges : Total charges.
 Charge compensation  : None.
 Solution method      : On-the-fly selection.
 Cavity type          : SES (Solvent Excluding Surface) (Alpha=1.000).
 Cavity algorithm     : GePol (RMin=0.200 OFac=0.890).
                        User-defined sphere list used, NSphG=   28.
                        Tesserae with average area of 0.075 Ang**2.
                        Smoothing algorithm: None.
                        Polarization charges: point-like.
                        Self-potential: constant (ISelfS= 1).
                        Self-field    : global E.n sum rule (ISelfD= 3).
 Solvent              : CycloHexane, Eps=   2.016500 Eps(inf)=   2.035188
                        RSolv=   2.815000 Ang.
 ------------------------------------------------------------------------------
 GePol: Number of generator spheres                  =      28
 GePol: Total number of spheres                      =     175
 GePol: Number of exposed spheres                    =     124 ( 70.86%)
 GePol: Number of tesserae                           =    4590
 GePol: Average area of tesserae                     =       0.05 Ang**2
 GePol: Minimum area of tessera                      =   0.10D-02 Ang**2
 GePol: Maximum area of tessera                      =    0.12395 Ang**2
 GePol: Number of small tesserae                     =       0
 GePol: Fraction of small tesserae (<1% of avg)      =       0.00%
 GePol: Total count of vertices                      =   16212
 GePol: Maximum number of vertices in a tessera      =       7
 GePol: Cavity surface area                          =    219.040 Ang**2
 GePol: Cavity volume                                =    246.877 Ang**3
 Leave Link  301 at Tue Aug  4 08:38:16 2020, MaxMem=  6442450944 cpu:               7.3 elap:               0.3
 (Enter /scratch/scicomp/CentOS/7.3.1611/Haswell/software/Gaussian/g16/l302.exe)
 NPDir=0 NMtPBC=     1 NCelOv=     1 NCel=       1 NClECP=     1 NCelD=      1
         NCelK=      1 NCelE2=     1 NClLst=     1 CellRange=     0.0.
 One-electron integrals computed using PRISM.
   1 Symmetry operations used in ECPInt.
 ECPInt:  NShTT=   19306 NPrTT=   56928 LenC2=   18510 LenP2D=   42170.
 LDataN:  DoStor=T MaxTD1= 6 Len=  172
 NBasis=   528 RedAO= T EigKep=  1.86D-05  NBF=   528
 NBsUse=   528 1.00D-06 EigRej= -1.00D+00 NBFU=   528
 Precomputing XC quadrature grid using
 IXCGrd= 4 IRadAn=           5 IRanWt=          -1 IRanGd=           0 AccXCQ= 0.00D+00.
 Generated NRdTot=       0 NPtTot=           0 NUsed=           0 NTot=          32
 NSgBfM=   526   526   526   526   526 MxSgAt=    28 MxSgA2=    28.
 Leave Link  302 at Tue Aug  4 08:38:17 2020, MaxMem=  6442450944 cpu:              12.8 elap:               0.6
 (Enter /scratch/scicomp/CentOS/7.3.1611/Haswell/software/Gaussian/g16/l303.exe)
 DipDrv:  MaxL=1.
 Leave Link  303 at Tue Aug  4 08:38:17 2020, MaxMem=  6442450944 cpu:               1.5 elap:               0.1
 (Enter /scratch/scicomp/CentOS/7.3.1611/Haswell/software/Gaussian/g16/l401.exe)
 ExpMin= 9.52D-02 ExpMax= 1.36D+04 ExpMxC= 4.63D+02 IAcc=3 IRadAn=         5 AccDes= 0.00D+00
 Harris functional with IExCor= 4639 and IRadAn=       5 diagonalized for initial guess.
 HarFok:  IExCor= 4639 AccDes= 0.00D+00 IRadAn=         5 IDoV= 1 UseB2=F ITyADJ=14
 ICtDFT=  3500011 ScaDFX=  1.000000  1.000000  1.000000  1.000000
 FoFCou: FMM=F IPFlag=           0 FMFlag=      100000 FMFlg1=           0
         NFxFlg=           0 DoJE=T BraDBF=F KetDBF=T FulRan=T
         wScrn=  0.000000 ICntrl=       500 IOpCl=  0 I1Cent=   200000004 NGrid=           0
         NMat0=    1 NMatS0=      1 NMatT0=    0 NMatD0=    1 NMtDS0=    0 NMtDT0=    0
 Symmetry not used in FoFCou.
 Harris En= -444.637476428046    
 JPrj=0 DoOrth=F DoCkMO=T.
 Mixing orbitals, IMix= 1 IMixAn=  0 NRI=1 NE=   44 Coef=  7.07106781D-01  7.07106781D-01
 Mixing orbitals, IMix= 1 IMixAn=  0 NRI=1 NE=   44 Coef= -7.07106781D-01  7.07106781D-01
 Initial guess <Sx>= 0.0000 <Sy>= 0.0000 <Sz>= 0.0000 <S**2>= 1.0000 S= 0.6180
 Leave Link  401 at Tue Aug  4 08:38:19 2020, MaxMem=  6442450944 cpu:              49.2 elap:               2.1
 (Enter /scratch/scicomp/CentOS/7.3.1611/Haswell/software/Gaussian/g16/l502.exe)
 Two-electron integral symmetry not used.
 UHF open shell SCF:
 Using DIIS extrapolation, IDIIS=  1040.
 NGot=  6442450944 LenX=  6441877030 LenY=  6441597718
 Requested convergence on RMS density matrix=1.00D-08 within 128 cycles.
 Requested convergence on MAX density matrix=1.00D-06.
 Requested convergence on             energy=1.00D-06.
 No special actions if energy rises.
 Fock matrices will be formed incrementally for  20 cycles.

 Cycle   1  Pass 1  IDiag  1:
 FoFJK:  IHMeth= 1 ICntrl=       0 DoSepK=T KAlg= 0 I1Cent=           0 FoldK=F
 IRaf=         1 NMat=       1 IRICut=       1 DoRegI=T DoRafI=F ISym2E= 0 IDoP0=0 IntGTp=1.
 FoFCou: FMM=F IPFlag=           0 FMFlag=      100000 FMFlg1=           0
         NFxFlg=           0 DoJE=T BraDBF=F KetDBF=F FulRan=T
         wScrn=  0.000000 ICntrl=       500 IOpCl=  0 I1Cent=           0 NGrid=           0
         NMat0=    1 NMatS0=      1 NMatT0=    0 NMatD0=    1 NMtDS0=    0 NMtDT0=    0
 Symmetry not used in FoFCou.
 Inv3:  Mode=1 IEnd=    63204300.
 Iteration    1 A*A^-1 deviation from unit magnitude is 4.00D-15 for   4344.
 Iteration    1 A*A^-1 deviation from orthogonality  is 3.00D-15 for   4203   1262.
 Iteration    1 A^-1*A deviation from unit magnitude is 3.77D-15 for   4344.
 Iteration    1 A^-1*A deviation from orthogonality  is 1.62D-15 for    724    707.
 E= -466.582865215306    
 DIIS: error= 5.79D-02 at cycle   1 NSaved=   1.
 NSaved= 1 IEnMin= 1 EnMin= -466.582865215306     IErMin= 1 ErrMin= 5.79D-02
 ErrMax= 5.79D-02  0.00D+00 EMaxC= 1.00D-01 BMatC= 4.11D+00 BMatP= 4.11D+00
 IDIUse=3 WtCom= 4.21D-01 WtEn= 5.79D-01
 Coeff-Com:  0.100D+01
 Coeff-En:   0.100D+01
 Coeff:      0.100D+01
 Gap=     0.189 Goal=   None    Shift=    0.000
 Gap=     0.189 Goal=   None    Shift=    0.000
 GapD=    0.189 DampG=1.000 DampE=0.500 DampFc=0.5000 IDamp=-1.
 Damping current iteration by 5.00D-01
 RMSDP=1.67D-03 MaxDP=9.21D-02              OVMax= 2.99D-01

 Cycle   2  Pass 1  IDiag  1:
 RMSU=  8.14D-04    CP:  9.69D-01
 E= -466.683152495748     Delta-E=       -0.100287280442 Rises=F Damp=T
 DIIS: error= 2.75D-02 at cycle   2 NSaved=   2.
 NSaved= 2 IEnMin= 2 EnMin= -466.683152495748     IErMin= 2 ErrMin= 2.75D-02
 ErrMax= 2.75D-02  0.00D+00 EMaxC= 1.00D-01 BMatC= 9.32D-01 BMatP= 4.11D+00
 IDIUse=3 WtCom= 7.25D-01 WtEn= 2.75D-01
 Coeff-Com: -0.867D+00 0.187D+01
 Coeff-En:   0.000D+00 0.100D+01
 Coeff:     -0.629D+00 0.163D+01
 Gap=     0.259 Goal=   None    Shift=    0.000
 Gap=     0.259 Goal=   None    Shift=    0.000
 RMSDP=1.19D-03 MaxDP=4.92D-02 DE=-1.00D-01 OVMax= 1.31D-01

 Cycle   3  Pass 1  IDiag  1:
 RMSU=  6.23D-04    CP:  9.25D-01  2.19D+00
 E= -466.810331078822     Delta-E=       -0.127178583073 Rises=F Damp=F
 DIIS: error= 7.45D-03 at cycle   3 NSaved=   3.
 NSaved= 3 IEnMin= 3 EnMin= -466.810331078822     IErMin= 3 ErrMin= 7.45D-03
 ErrMax= 7.45D-03  0.00D+00 EMaxC= 1.00D-01 BMatC= 2.28D-02 BMatP= 9.32D-01
 IDIUse=3 WtCom= 9.25D-01 WtEn= 7.45D-02
 Coeff-Com: -0.313D+00 0.673D+00 0.640D+00
 Coeff-En:   0.000D+00 0.000D+00 0.100D+01
 Coeff:     -0.290D+00 0.623D+00 0.667D+00
 Gap=     0.277 Goal=   None    Shift=    0.000
 Gap=     0.277 Goal=   None    Shift=    0.000
 RMSDP=2.42D-04 MaxDP=1.46D-02 DE=-1.27D-01 OVMax= 6.75D-02

 Cycle   4  Pass 1  IDiag  1:
 RMSU=  2.24D-04    CP:  9.16D-01  2.28D+00  9.96D-01
 E= -466.821110766816     Delta-E=       -0.010779687994 Rises=F Damp=F
 DIIS: error= 5.15D-03 at cycle   4 NSaved=   4.
 NSaved= 4 IEnMin= 4 EnMin= -466.821110766816     IErMin= 4 ErrMin= 5.15D-03
 ErrMax= 5.15D-03  0.00D+00 EMaxC= 1.00D-01 BMatC= 2.18D-03 BMatP= 2.28D-02
 IDIUse=3 WtCom= 9.49D-01 WtEn= 5.15D-02
 Coeff-Com:  0.113D+00-0.243D+00-0.433D-01 0.117D+01
 Coeff-En:   0.000D+00 0.000D+00 0.000D+00 0.100D+01
 Coeff:      0.107D+00-0.230D+00-0.411D-01 0.116D+01
 Gap=     0.287 Goal=   None    Shift=    0.000
 Gap=     0.287 Goal=   None    Shift=    0.000
 RMSDP=2.36D-04 MaxDP=1.07D-02 DE=-1.08D-02 OVMax= 8.06D-02

 Cycle   5  Pass 1  IDiag  1:
 RMSU=  9.62D-05    CP:  9.09D-01  2.33D+00  1.23D+00  1.64D+00
 E= -466.826175218971     Delta-E=       -0.005064452155 Rises=F Damp=F
 DIIS: error= 2.81D-03 at cycle   5 NSaved=   5.
 NSaved= 5 IEnMin= 5 EnMin= -466.826175218971     IErMin= 5 ErrMin= 2.81D-03
 ErrMax= 2.81D-03  0.00D+00 EMaxC= 1.00D-01 BMatC= 1.11D-03 BMatP= 2.18D-03
 IDIUse=3 WtCom= 9.72D-01 WtEn= 2.81D-02
 Coeff-Com:  0.869D-01-0.187D+00-0.109D+00 0.478D+00 0.731D+00
 Coeff-En:   0.000D+00 0.000D+00 0.000D+00 0.000D+00 0.100D+01
 Coeff:      0.845D-01-0.182D+00-0.106D+00 0.465D+00 0.738D+00
 Gap=     0.291 Goal=   None    Shift=    0.000
 Gap=     0.291 Goal=   None    Shift=    0.000
 RMSDP=1.06D-04 MaxDP=5.18D-03 DE=-5.06D-03 OVMax= 3.72D-02

 Cycle   6  Pass 1  IDiag  1:
 RMSU=  3.71D-05    CP:  9.06D-01  2.34D+00  1.29D+00  2.00D+00  1.43D+00
 E= -466.827939498438     Delta-E=       -0.001764279467 Rises=F Damp=F
 DIIS: error= 1.93D-03 at cycle   6 NSaved=   6.
 NSaved= 6 IEnMin= 6 EnMin= -466.827939498438     IErMin= 6 ErrMin= 1.93D-03
 ErrMax= 1.93D-03  0.00D+00 EMaxC= 1.00D-01 BMatC= 5.60D-04 BMatP= 1.11D-03
 IDIUse=3 WtCom= 9.81D-01 WtEn= 1.93D-02
 Coeff-Com: -0.637D-01 0.137D+00 0.558D-01-0.465D+00-0.471D-02 0.134D+01
 Coeff-En:   0.000D+00 0.000D+00 0.000D+00 0.000D+00 0.000D+00 0.100D+01
 Coeff:     -0.625D-01 0.134D+00 0.548D-01-0.456D+00-0.462D-02 0.133D+01
 Gap=     0.288 Goal=   None    Shift=    0.000
 Gap=     0.288 Goal=   None    Shift=    0.000
 RMSDP=1.17D-04 MaxDP=5.01D-03 DE=-1.76D-03 OVMax= 4.24D-02

 Cycle   7  Pass 1  IDiag  1:
 RMSU=  3.23D-05    CP:  9.03D-01  2.34D+00  1.34D+00  2.33D+00  2.13D+00
                    CP:  2.00D+00
 E= -466.829662427709     Delta-E=       -0.001722929271 Rises=F Damp=F
 DIIS: error= 1.33D-03 at cycle   7 NSaved=   7.
 NSaved= 7 IEnMin= 7 EnMin= -466.829662427709     IErMin= 7 ErrMin= 1.33D-03
 ErrMax= 1.33D-03  0.00D+00 EMaxC= 1.00D-01 BMatC= 3.23D-04 BMatP= 5.60D-04
 IDIUse=3 WtCom= 9.87D-01 WtEn= 1.33D-02
 Coeff-Com: -0.199D-01 0.432D-01 0.465D-01 0.743D-01-0.502D+00-0.959D+00
 Coeff-Com:  0.232D+01
 Coeff-En:   0.000D+00 0.000D+00 0.000D+00 0.000D+00 0.000D+00 0.000D+00
 Coeff-En:   0.100D+01
 Coeff:     -0.196D-01 0.427D-01 0.459D-01 0.733D-01-0.495D+00-0.946D+00
 Coeff:      0.230D+01
 Gap=     0.286 Goal=   None    Shift=    0.000
 Gap=     0.286 Goal=   None    Shift=    0.000
 RMSDP=1.60D-04 MaxDP=7.01D-03 DE=-1.72D-03 OVMax= 6.05D-02

 Cycle   8  Pass 1  IDiag  1:
 RMSU=  4.16D-05    CP:  9.00D-01  2.33D+00  1.39D+00  2.71D+00  3.00D+00
                    CP:  3.00D+00  2.88D+00
 E= -466.831442119655     Delta-E=       -0.001779691946 Rises=F Damp=F
 DIIS: error= 6.67D-04 at cycle   8 NSaved=   8.
 NSaved= 8 IEnMin= 8 EnMin= -466.831442119655     IErMin= 8 ErrMin= 6.67D-04
 ErrMax= 6.67D-04  0.00D+00 EMaxC= 1.00D-01 BMatC= 1.25D-04 BMatP= 3.23D-04
 IDIUse=3 WtCom= 9.93D-01 WtEn= 6.67D-03
 Coeff-Com:  0.363D-01-0.781D-01-0.180D-01 0.375D+00-0.147D+00-0.124D+01
 Coeff-Com:  0.777D+00 0.130D+01
 Coeff-En:   0.000D+00 0.000D+00 0.000D+00 0.000D+00 0.000D+00 0.000D+00
 Coeff-En:   0.000D+00 0.100D+01
 Coeff:      0.361D-01-0.776D-01-0.179D-01 0.372D+00-0.146D+00-0.123D+01
 Coeff:      0.771D+00 0.129D+01
 Gap=     0.288 Goal=   None    Shift=    0.000
 Gap=     0.288 Goal=   None    Shift=    0.000
 RMSDP=1.17D-04 MaxDP=5.35D-03 DE=-1.78D-03 OVMax= 4.54D-02

 Cycle   9  Pass 1  IDiag  1:
 RMSU=  7.35D-05    CP:  8.98D-01  2.32D+00  1.43D+00  2.94D+00  3.00D+00
                    CP:  3.00D+00  3.00D+00  2.61D+00
 E= -466.832123055863     Delta-E=       -0.000680936208 Rises=F Damp=F
 DIIS: error= 2.87D-04 at cycle   9 NSaved=   9.
 NSaved= 9 IEnMin= 9 EnMin= -466.832123055863     IErMin= 9 ErrMin= 2.87D-04
 ErrMax= 2.87D-04  0.00D+00 EMaxC= 1.00D-01 BMatC= 3.28D-05 BMatP= 1.25D-04
 IDIUse=3 WtCom= 9.97D-01 WtEn= 2.87D-03
 Coeff-Com:  0.251D-01-0.541D-01-0.217D-01 0.179D+00 0.558D-01-0.374D+00
 Coeff-Com: -0.205D+00 0.556D+00 0.839D+00
 Coeff-En:   0.000D+00 0.000D+00 0.000D+00 0.000D+00 0.000D+00 0.000D+00
 Coeff-En:   0.000D+00 0.000D+00 0.100D+01
 Coeff:      0.250D-01-0.539D-01-0.217D-01 0.179D+00 0.556D-01-0.373D+00
 Coeff:     -0.205D+00 0.554D+00 0.840D+00
 Gap=     0.288 Goal=   None    Shift=    0.000
 Gap=     0.288 Goal=   None    Shift=    0.000
 RMSDP=4.22D-05 MaxDP=2.04D-03 DE=-6.81D-04 OVMax= 1.66D-02

 Cycle  10  Pass 1  IDiag  1:
 RMSU=  1.32D-05    CP:  8.97D-01  2.32D+00  1.44D+00  3.00D+00  3.00D+00
                    CP:  3.00D+00  3.00D+00  3.00D+00  1.35D+00
 E= -466.832226761222     Delta-E=       -0.000103705359 Rises=F Damp=F
 DIIS: error= 1.43D-04 at cycle  10 NSaved=  10.
 NSaved=10 IEnMin=10 EnMin= -466.832226761222     IErMin=10 ErrMin= 1.43D-04
 ErrMax= 1.43D-04  0.00D+00 EMaxC= 1.00D-01 BMatC= 5.16D-06 BMatP= 3.28D-05
 IDIUse=3 WtCom= 9.99D-01 WtEn= 1.43D-03
 Coeff-Com: -0.197D-02 0.432D-02-0.981D-03-0.439D-01 0.354D-01 0.189D+00
 Coeff-Com: -0.174D+00-0.262D+00 0.702D-01 0.118D+01
 Coeff-En:   0.000D+00 0.000D+00 0.000D+00 0.000D+00 0.000D+00 0.000D+00
 Coeff-En:   0.000D+00 0.000D+00 0.000D+00 0.100D+01
 Coeff:     -0.197D-02 0.431D-02-0.980D-03-0.438D-01 0.353D-01 0.189D+00
 Coeff:     -0.174D+00-0.262D+00 0.701D-01 0.118D+01
 Gap=     0.287 Goal=   None    Shift=    0.000
 Gap=     0.287 Goal=   None    Shift=    0.000
 RMSDP=2.63D-05 MaxDP=1.12D-03 DE=-1.04D-04 OVMax= 1.03D-02

 Cycle  11  Pass 1  IDiag  1:
 RMSU=  9.59D-06    CP:  8.96D-01  2.32D+00  1.45D+00  3.00D+00  3.00D+00
                    CP:  3.00D+00  3.00D+00  3.00D+00  1.56D+00  2.36D+00
 E= -466.832249337158     Delta-E=       -0.000022575936 Rises=F Damp=F
 DIIS: error= 3.69D-05 at cycle  11 NSaved=  11.
 NSaved=11 IEnMin=11 EnMin= -466.832249337158     IErMin=11 ErrMin= 3.69D-05
 ErrMax= 3.69D-05  0.00D+00 EMaxC= 1.00D-01 BMatC= 1.04D-06 BMatP= 5.16D-06
 IDIUse=1 WtCom= 1.00D+00 WtEn= 0.00D+00
 Coeff-Com: -0.303D-02 0.655D-02 0.185D-02-0.322D-01 0.458D-02 0.951D-01
 Coeff-Com: -0.242D-01-0.159D+00-0.868D-01 0.450D+00 0.747D+00
 Coeff:     -0.303D-02 0.655D-02 0.185D-02-0.322D-01 0.458D-02 0.951D-01
 Coeff:     -0.242D-01-0.159D+00-0.868D-01 0.450D+00 0.747D+00
 Gap=     0.287 Goal=   None    Shift=    0.000
 Gap=     0.287 Goal=   None    Shift=    0.000
 RMSDP=5.41D-06 MaxDP=2.09D-04 DE=-2.26D-05 OVMax= 1.98D-03

 Cycle  12  Pass 1  IDiag  1:
 RMSU=  1.50D-06    CP:  8.96D-01  2.32D+00  1.45D+00  3.00D+00  3.00D+00
                    CP:  3.00D+00  3.00D+00  3.00D+00  1.60D+00  2.64D+00
                    CP:  1.18D+00
 E= -466.832250491475     Delta-E=       -0.000001154317 Rises=F Damp=F
 DIIS: error= 1.46D-05 at cycle  12 NSaved=  12.
 NSaved=12 IEnMin=12 EnMin= -466.832250491475     IErMin=12 ErrMin= 1.46D-05
 ErrMax= 1.46D-05  0.00D+00 EMaxC= 1.00D-01 BMatC= 1.09D-07 BMatP= 1.04D-06
 IDIUse=1 WtCom= 1.00D+00 WtEn= 0.00D+00
 Coeff-Com:  0.107D-02-0.232D-02-0.474D-03 0.124D-01-0.377D-02-0.439D-01
 Coeff-Com:  0.292D-01 0.549D-01 0.232D-02-0.211D+00 0.225D-02 0.116D+01
 Coeff:      0.107D-02-0.232D-02-0.474D-03 0.124D-01-0.377D-02-0.439D-01
 Coeff:      0.292D-01 0.549D-01 0.232D-02-0.211D+00 0.225D-02 0.116D+01
 Gap=     0.287 Goal=   None    Shift=    0.000
 Gap=     0.287 Goal=   None    Shift=    0.000
 RMSDP=1.43D-06 MaxDP=5.18D-05 DE=-1.15D-06 OVMax= 2.90D-04

 Cycle  13  Pass 1  IDiag  1:
 RMSU=  7.99D-07    CP:  8.96D-01  2.32D+00  1.45D+00  3.00D+00  3.00D+00
                    CP:  3.00D+00  3.00D+00  3.00D+00  1.61D+00  2.68D+00
                    CP:  1.22D+00  1.58D+00
 E= -466.832250637899     Delta-E=       -0.000000146424 Rises=F Damp=F
 DIIS: error= 7.63D-06 at cycle  13 NSaved=  13.
 NSaved=13 IEnMin=13 EnMin= -466.832250637899     IErMin=13 ErrMin= 7.63D-06
 ErrMax= 7.63D-06  0.00D+00 EMaxC= 1.00D-01 BMatC= 2.15D-08 BMatP= 1.09D-07
 IDIUse=1 WtCom= 1.00D+00 WtEn= 0.00D+00
 Coeff-Com:  0.139D-03-0.298D-03-0.316D-04 0.207D-02-0.855D-03-0.728D-02
 Coeff-Com:  0.405D-02 0.124D-01 0.273D-02-0.501D-01-0.657D-01 0.543D-01
 Coeff-Com:  0.105D+01
 Coeff:      0.139D-03-0.298D-03-0.316D-04 0.207D-02-0.855D-03-0.728D-02
 Coeff:      0.405D-02 0.124D-01 0.273D-02-0.501D-01-0.657D-01 0.543D-01
 Coeff:      0.105D+01
 Gap=     0.287 Goal=   None    Shift=    0.000
 Gap=     0.287 Goal=   None    Shift=    0.000
 RMSDP=5.21D-07 MaxDP=2.96D-05 DE=-1.46D-07 OVMax= 1.70D-04

 Cycle  14  Pass 1  IDiag  1:
 RMSU=  2.73D-07    CP:  8.96D-01  2.32D+00  1.45D+00  3.00D+00  3.00D+00
                    CP:  3.00D+00  3.00D+00  3.00D+00  1.61D+00  2.70D+00
                    CP:  1.23D+00  1.69D+00  1.27D+00
 E= -466.832250674089     Delta-E=       -0.000000036190 Rises=F Damp=F
 DIIS: error= 4.65D-06 at cycle  14 NSaved=  14.
 NSaved=14 IEnMin=14 EnMin= -466.832250674089     IErMin=14 ErrMin= 4.65D-06
 ErrMax= 4.65D-06  0.00D+00 EMaxC= 1.00D-01 BMatC= 7.86D-09 BMatP= 2.15D-08
 IDIUse=1 WtCom= 1.00D+00 WtEn= 0.00D+00
 Coeff-Com: -0.418D-03 0.904D-03 0.265D-03-0.421D-02 0.824D-03 0.139D-01
 Coeff-Com: -0.822D-02-0.175D-01-0.226D-02 0.656D-01 0.560D-02-0.341D+00
 Coeff-Com: -0.122D+00 0.141D+01
 Coeff:     -0.418D-03 0.904D-03 0.265D-03-0.421D-02 0.824D-03 0.139D-01
 Coeff:     -0.822D-02-0.175D-01-0.226D-02 0.656D-01 0.560D-02-0.341D+00
 Coeff:     -0.122D+00 0.141D+01
 Gap=     0.287 Goal=   None    Shift=    0.000
 Gap=     0.287 Goal=   None    Shift=    0.000
 RMSDP=3.63D-07 MaxDP=2.05D-05 DE=-3.62D-08 OVMax= 8.76D-05

 Cycle  15  Pass 1  IDiag  1:
 RMSU=  1.61D-07    CP:  8.96D-01  2.32D+00  1.45D+00  3.00D+00  3.00D+00
                    CP:  3.00D+00  3.00D+00  3.00D+00  1.61D+00  2.71D+00
                    CP:  1.23D+00  1.70D+00  1.43D+00  2.04D+00
 E= -466.832250691498     Delta-E=       -0.000000017409 Rises=F Damp=F
 DIIS: error= 2.32D-06 at cycle  15 NSaved=  15.
 NSaved=15 IEnMin=15 EnMin= -466.832250691498     IErMin=15 ErrMin= 2.32D-06
 ErrMax= 2.32D-06  0.00D+00 EMaxC= 1.00D-01 BMatC= 2.04D-09 BMatP= 7.86D-09
 IDIUse=1 WtCom= 1.00D+00 WtEn= 0.00D+00
 Coeff-Com: -0.728D-04 0.156D-03 0.130D-04-0.101D-02 0.558D-03 0.371D-02
 Coeff-Com: -0.313D-02-0.513D-02 0.116D-02 0.258D-01 0.172D-01-0.765D-01
 Coeff-Com: -0.335D+00 0.203D+00 0.117D+01
 Coeff:     -0.728D-04 0.156D-03 0.130D-04-0.101D-02 0.558D-03 0.371D-02
 Coeff:     -0.313D-02-0.513D-02 0.116D-02 0.258D-01 0.172D-01-0.765D-01
 Coeff:     -0.335D+00 0.203D+00 0.117D+01
 Gap=     0.287 Goal=   None    Shift=    0.000
 Gap=     0.287 Goal=   None    Shift=    0.000
 RMSDP=2.54D-07 MaxDP=1.13D-05 DE=-1.74D-08 OVMax= 6.28D-05

 Cycle  16  Pass 1  IDiag  1:
 RMSU=  7.34D-08    CP:  8.96D-01  2.32D+00  1.45D+00  3.00D+00  3.00D+00
                    CP:  3.00D+00  3.00D+00  3.00D+00  1.61D+00  2.70D+00
                    CP:  1.22D+00  1.68D+00  1.50D+00  2.64D+00  1.55D+00
 E= -466.832250695985     Delta-E=       -0.000000004487 Rises=F Damp=F
 DIIS: error= 8.11D-07 at cycle  16 NSaved=  16.
 NSaved=16 IEnMin=16 EnMin= -466.832250695985     IErMin=16 ErrMin= 8.11D-07
 ErrMax= 8.11D-07  0.00D+00 EMaxC= 1.00D-01 BMatC= 2.74D-10 BMatP= 2.04D-09
 IDIUse=1 WtCom= 1.00D+00 WtEn= 0.00D+00
 Coeff-Com:  0.126D-04-0.276D-04-0.112D-04 0.164D-03 0.373D-04-0.537D-03
 Coeff-Com:  0.200D-03 0.819D-03 0.425D-03-0.307D-02 0.314D-02 0.314D-01
 Coeff-Com: -0.509D-01-0.197D+00 0.250D+00 0.965D+00
 Coeff:      0.126D-04-0.276D-04-0.112D-04 0.164D-03 0.373D-04-0.537D-03
 Coeff:      0.200D-03 0.819D-03 0.425D-03-0.307D-02 0.314D-02 0.314D-01
 Coeff:     -0.509D-01-0.197D+00 0.250D+00 0.965D+00
 Gap=     0.287 Goal=   None    Shift=    0.000
 Gap=     0.287 Goal=   None    Shift=    0.000
 RMSDP=8.42D-08 MaxDP=3.89D-06 DE=-4.49D-09 OVMax= 2.14D-05

 Cycle  17  Pass 1  IDiag  1:
 RMSU=  3.32D-08    CP:  8.96D-01  2.32D+00  1.45D+00  3.00D+00  3.00D+00
                    CP:  3.00D+00  3.00D+00  3.00D+00  1.61D+00  2.70D+00
                    CP:  1.22D+00  1.68D+00  1.52D+00  2.79D+00  1.71D+00
                    CP:  1.55D+00
 E= -466.832250696388     Delta-E=       -0.000000000402 Rises=F Damp=F
 DIIS: error= 2.32D-07 at cycle  17 NSaved=  17.
 NSaved=17 IEnMin=17 EnMin= -466.832250696388     IErMin=17 ErrMin= 2.32D-07
 ErrMax= 2.32D-07  0.00D+00 EMaxC= 1.00D-01 BMatC= 3.24D-11 BMatP= 2.74D-10
 IDIUse=1 WtCom= 1.00D+00 WtEn= 0.00D+00
 Coeff-Com: -0.107D-05 0.245D-05 0.283D-05 0.244D-04-0.274D-04-0.107D-03
 Coeff-Com:  0.128D-03 0.329D-03-0.144D-03-0.239D-02-0.959D-03 0.114D-01
 Coeff-Com:  0.287D-01-0.566D-01-0.983D-01 0.213D+00 0.905D+00
 Coeff:     -0.107D-05 0.245D-05 0.283D-05 0.244D-04-0.274D-04-0.107D-03
 Coeff:      0.128D-03 0.329D-03-0.144D-03-0.239D-02-0.959D-03 0.114D-01
 Coeff:      0.287D-01-0.566D-01-0.983D-01 0.213D+00 0.905D+00
 Gap=     0.287 Goal=   None    Shift=    0.000
 Gap=     0.287 Goal=   None    Shift=    0.000
 RMSDP=1.97D-08 MaxDP=7.56D-07 DE=-4.02D-10 OVMax= 4.08D-06

 Cycle  18  Pass 1  IDiag  1:
 RMSU=  9.09D-09    CP:  8.96D-01  2.32D+00  1.45D+00  3.00D+00  3.00D+00
                    CP:  3.00D+00  3.00D+00  3.00D+00  1.61D+00  2.70D+00
                    CP:  1.22D+00  1.68D+00  1.52D+00  2.81D+00  1.76D+00
                    CP:  1.72D+00  1.16D+00
 E= -466.832250696408     Delta-E=       -0.000000000020 Rises=F Damp=F
 DIIS: error= 7.94D-08 at cycle  18 NSaved=  18.
 NSaved=18 IEnMin=18 EnMin= -466.832250696408     IErMin=18 ErrMin= 7.94D-08
 ErrMax= 7.94D-08  0.00D+00 EMaxC= 1.00D-01 BMatC= 4.96D-12 BMatP= 3.24D-11
 IDIUse=1 WtCom= 1.00D+00 WtEn= 0.00D+00
 Coeff-Com: -0.166D-05 0.362D-05 0.201D-05-0.127D-04-0.125D-04 0.407D-04
 Coeff-Com: -0.120D-04 0.282D-04-0.670D-04-0.396D-03-0.688D-03 0.226D-03
 Coeff-Com:  0.154D-01 0.319D-02-0.616D-01-0.367D-01 0.285D+00 0.795D+00
 Coeff:     -0.166D-05 0.362D-05 0.201D-05-0.127D-04-0.125D-04 0.407D-04
 Coeff:     -0.120D-04 0.282D-04-0.670D-04-0.396D-03-0.688D-03 0.226D-03
 Coeff:      0.154D-01 0.319D-02-0.616D-01-0.367D-01 0.285D+00 0.795D+00
 Gap=     0.287 Goal=   None    Shift=    0.000
 Gap=     0.287 Goal=   None    Shift=    0.000
 RMSDP=5.82D-09 MaxDP=2.41D-07 DE=-2.01D-11 OVMax= 1.08D-06

 Error on total polarization charges =  0.01122
 SCF Done:  E(UwB97XD) =  -466.832250696     A.U. after   18 cycles
            NFock= 18  Conv=0.58D-08     -V/T= 2.0054
 <Sx>= 0.0000 <Sy>= 0.0000 <Sz>= 0.0000 <S**2>= 0.0000 S= 0.0000
 <L.S>=  0.00000000000    
 KE= 4.643129962146D+02 PE=-2.456015116452D+03 EE= 8.378583956210D+02
 --------------------------------------------------------------------
 Variational PCM results
 =======================
 <psi(f)|   H    |psi(f)>                     (a.u.) =    -466.840191
 <psi(f)|H+V(f)/2|psi(f)>                     (a.u.) =    -466.841723
 Total free energy in solution:
 - with all non electrostatic terms           (a.u.) =    -466.832251
 --------------------------------------------------------------------
 (Polarized solute)-Solvent               (kcal/mol) =      -0.96
 --------------------------------------------------------------------
 Quantum repulsion energy                 (kcal/mol) =       5.94
 Total non electrostatic                  (kcal/mol) =       5.94
 --------------------------------------------------------------------
 Partition over spheres:
 Sphere  on Atom  Surface  Charge   GEl     GCav    GDR
    1               7.18   0.011   -0.05    0.00    0.00
    2               3.75   0.005   -0.03    0.00    0.00
    3               7.52  -0.010   -0.03    0.00    0.00
    4               2.26  -0.003   -0.01    0.00    0.00
    5               4.62   0.009   -0.06    0.00    0.00
    6               3.04   0.004   -0.02    0.00    0.00
    7               4.70  -0.006   -0.03    0.00    0.00
    8               2.27  -0.003   -0.01    0.00    0.00
    9               3.29   0.002    0.00    0.00    0.00
   10               6.57  -0.007   -0.01    0.00    0.00
   11               3.78  -0.003   -0.01    0.00    0.00
   12               6.77   0.011   -0.06    0.00    0.00
   13               7.50  -0.010   -0.03    0.00    0.00
   14               6.62   0.010   -0.05    0.00    0.00
   15               7.52  -0.010   -0.03    0.00    0.00
   16               3.55   0.001    0.00    0.00    0.00
   17               4.70  -0.005   -0.02    0.00    0.00
   18               7.05  -0.008   -0.03    0.00    0.00
   19               5.40   0.010   -0.07    0.00    0.00
   20               4.74  -0.006   -0.03    0.00    0.00
   21               7.09   0.011   -0.06    0.00    0.00
   22               7.52  -0.010   -0.03    0.00    0.00
   23               3.57   0.002    0.00    0.00    0.00
   24               4.18  -0.004   -0.01    0.00    0.00
   25               6.60  -0.007   -0.01    0.00    0.00
   26               3.30   0.001    0.00    0.00    0.00
   27               6.97  -0.008   -0.03    0.00    0.00
   28               4.67  -0.005   -0.02    0.00    0.00
 Added spheres:    72.32   0.016   -0.22    0.00    0.00
 --------------------------------------------------------------------
 After PCM corrections, the energy is  -466.832250696     a.u.
 --------------------------------------------------------------------
 Annihilation of the first spin contaminant:
 S**2 before annihilation     0.0000,   after     0.0000
 Leave Link  502 at Tue Aug  4 08:43:58 2020, MaxMem=  6442450944 cpu:            8077.4 elap:             339.3
 (Enter /scratch/scicomp/CentOS/7.3.1611/Haswell/software/Gaussian/g16/l601.exe)
 Copying SCF densities to generalized density rwf, IOpCl= 1 IROHF=0.

 **********************************************************************

            Population analysis using the SCF Density.

 **********************************************************************

 Alpha  occ. eigenvalues --  -10.28429 -10.28429 -10.28135 -10.28134 -10.28040
 Alpha  occ. eigenvalues --  -10.28039 -10.28018 -10.28016 -10.27795 -10.27794
 Alpha  occ. eigenvalues --  -10.27040 -10.27038  -0.94518  -0.93347  -0.84649
 Alpha  occ. eigenvalues --   -0.84244  -0.83525  -0.83341  -0.71574  -0.70860
 Alpha  occ. eigenvalues --   -0.68274  -0.67709  -0.59772  -0.59758  -0.57571
 Alpha  occ. eigenvalues --   -0.56304  -0.53530  -0.52891  -0.50928  -0.50761
 Alpha  occ. eigenvalues --   -0.49735  -0.48915  -0.47519  -0.46799  -0.45752
 Alpha  occ. eigenvalues --   -0.44714  -0.41369  -0.40849  -0.39794  -0.39085
 Alpha  occ. eigenvalues --   -0.39029  -0.38456  -0.30186  -0.26221
 Alpha virt. eigenvalues --    0.02488   0.06580   0.11391   0.13266   0.14478
 Alpha virt. eigenvalues --    0.15424   0.15618   0.16686   0.16772   0.16836
 Alpha virt. eigenvalues --    0.17446   0.17798   0.18373   0.19306   0.20903
 Alpha virt. eigenvalues --    0.22083   0.22291   0.23675   0.24224   0.24904
 Alpha virt. eigenvalues --    0.25376   0.26070   0.26826   0.27282   0.28335
 Alpha virt. eigenvalues --    0.29403   0.29807   0.30198   0.31147   0.31234
 Alpha virt. eigenvalues --    0.31526   0.32461   0.33076   0.33514   0.34764
 Alpha virt. eigenvalues --    0.34966   0.35518   0.36485   0.36866   0.38018
 Alpha virt. eigenvalues --    0.39007   0.39319   0.42036   0.42442   0.42945
 Alpha virt. eigenvalues --    0.43809   0.44780   0.44854   0.45641   0.46282
 Alpha virt. eigenvalues --    0.47432   0.48350   0.48992   0.49074   0.49454
 Alpha virt. eigenvalues --    0.49576   0.49733   0.49869   0.50747   0.50792
 Alpha virt. eigenvalues --    0.51283   0.51361   0.52864   0.52999   0.53630
 Alpha virt. eigenvalues --    0.53865   0.55064   0.55095   0.56100   0.56160
 Alpha virt. eigenvalues --    0.57549   0.57885   0.58453   0.60049   0.60889
 Alpha virt. eigenvalues --    0.61448   0.61977   0.63241   0.63402   0.64466
 Alpha virt. eigenvalues --    0.66581   0.66609   0.68350   0.68903   0.69465
 Alpha virt. eigenvalues --    0.69881   0.72579   0.74167   0.75587   0.76472
 Alpha virt. eigenvalues --    0.78310   0.78630   0.78990   0.80707   0.81803
 Alpha virt. eigenvalues --    0.82812   0.83815   0.84911   0.85365   0.88072
 Alpha virt. eigenvalues --    0.89775   0.91262   0.92050   0.94059   0.94127
 Alpha virt. eigenvalues --    0.95285   0.97501   0.97647   0.99121   1.00276
 Alpha virt. eigenvalues --    1.01972   1.03381   1.04698   1.05387   1.05630
 Alpha virt. eigenvalues --    1.07625   1.08141   1.08600   1.10332   1.12295
 Alpha virt. eigenvalues --    1.12781   1.12825   1.15041   1.16346   1.17188
 Alpha virt. eigenvalues --    1.17296   1.19193   1.19376   1.19569   1.20080
 Alpha virt. eigenvalues --    1.20418   1.21262   1.23781   1.25501   1.25978
 Alpha virt. eigenvalues --    1.26481   1.27210   1.28490   1.29322   1.29683
 Alpha virt. eigenvalues --    1.30956   1.31189   1.32418   1.32564   1.33626
 Alpha virt. eigenvalues --    1.34741   1.34981   1.37207   1.37987   1.38813
 Alpha virt. eigenvalues --    1.39576   1.39996   1.40952   1.41182   1.42691
 Alpha virt. eigenvalues --    1.42927   1.43141   1.43735   1.44860   1.45208
 Alpha virt. eigenvalues --    1.45448   1.46306   1.47962   1.49099   1.49496
 Alpha virt. eigenvalues --    1.50891   1.52481   1.53425   1.56157   1.56988
 Alpha virt. eigenvalues --    1.58339   1.59186   1.60310   1.61236   1.62067
 Alpha virt. eigenvalues --    1.63540   1.64527   1.64834   1.66062   1.67866
 Alpha virt. eigenvalues --    1.68515   1.71945   1.75855   1.76189   1.77523
 Alpha virt. eigenvalues --    1.80277   1.82167   1.82993   1.84728   1.85469
 Alpha virt. eigenvalues --    1.88972   1.89736   1.90753   1.92723   1.93530
 Alpha virt. eigenvalues --    1.94918   1.96414   1.97795   2.00757   2.01493
 Alpha virt. eigenvalues --    2.04634   2.05044   2.09289   2.11962   2.12102
 Alpha virt. eigenvalues --    2.12483   2.13980   2.15861   2.16893   2.18136
 Alpha virt. eigenvalues --    2.18241   2.19655   2.20060   2.23713   2.24245
 Alpha virt. eigenvalues --    2.25024   2.25120   2.25525   2.29445   2.32262
 Alpha virt. eigenvalues --    2.36315   2.36804   2.39019   2.41655   2.42283
 Alpha virt. eigenvalues --    2.44615   2.46710   2.47058   2.48425   2.49938
 Alpha virt. eigenvalues --    2.50366   2.51596   2.51847   2.54240   2.56709
 Alpha virt. eigenvalues --    2.58881   2.59946   2.61069   2.62979   2.63353
 Alpha virt. eigenvalues --    2.64078   2.64833   2.65563   2.66668   2.67109
 Alpha virt. eigenvalues --    2.69368   2.69826   2.70022   2.72969   2.74129
 Alpha virt. eigenvalues --    2.74653   2.74938   2.75455   2.75933   2.77297
 Alpha virt. eigenvalues --    2.79346   2.80343   2.81132   2.81466   2.81904
 Alpha virt. eigenvalues --    2.82069   2.83819   2.84030   2.84320   2.86264
 Alpha virt. eigenvalues --    2.86420   2.88293   2.88324   2.89912   2.90828
 Alpha virt. eigenvalues --    2.92826   2.92876   2.94248   2.94946   2.96784
 Alpha virt. eigenvalues --    2.97417   2.98481   2.99137   3.00007   3.01127
 Alpha virt. eigenvalues --    3.01737   3.02152   3.04135   3.04660   3.06735
 Alpha virt. eigenvalues --    3.07284   3.09252   3.10139   3.10475   3.11411
 Alpha virt. eigenvalues --    3.11680   3.13347   3.13672   3.14903   3.15370
 Alpha virt. eigenvalues --    3.16370   3.16806   3.17356   3.18079   3.19737
 Alpha virt. eigenvalues --    3.20415   3.20971   3.21062   3.21951   3.22099
 Alpha virt. eigenvalues --    3.23275   3.23364   3.23554   3.24921   3.25773
 Alpha virt. eigenvalues --    3.25858   3.27906   3.28267   3.28312   3.29565
 Alpha virt. eigenvalues --    3.29866   3.30921   3.31236   3.31265   3.33242
 Alpha virt. eigenvalues --    3.33242   3.33907   3.35419   3.36657   3.36724
 Alpha virt. eigenvalues --    3.37381   3.37594   3.39154   3.40717   3.42383
 Alpha virt. eigenvalues --    3.43221   3.44335   3.44909   3.45884   3.46334
 Alpha virt. eigenvalues --    3.47047   3.47537   3.47894   3.48299   3.48523
 Alpha virt. eigenvalues --    3.49389   3.51688   3.51734   3.52625   3.54701
 Alpha virt. eigenvalues --    3.54868   3.55702   3.56447   3.57619   3.59548
 Alpha virt. eigenvalues --    3.61286   3.61800   3.63114   3.63125   3.63759
 Alpha virt. eigenvalues --    3.65339   3.67572   3.69413   3.70199   3.70265
 Alpha virt. eigenvalues --    3.71215   3.72423   3.74254   3.78326   3.78806
 Alpha virt. eigenvalues --    3.80177   3.80864   3.81807   3.82837   3.83996
 Alpha virt. eigenvalues --    3.84355   3.86180   3.87717   3.89751   3.90429
 Alpha virt. eigenvalues --    3.91948   3.93615   3.96274   3.98271   4.00659
 Alpha virt. eigenvalues --    4.01250   4.04316   4.04371   4.05786   4.08850
 Alpha virt. eigenvalues --    4.09278   4.10154   4.10379   4.11623   4.13184
 Alpha virt. eigenvalues --    4.14087   4.14940   4.17416   4.18837   4.19236
 Alpha virt. eigenvalues --    4.20897   4.22775   4.23946   4.27220   4.27770
 Alpha virt. eigenvalues --    4.28892   4.31377   4.32494   4.32676   4.37218
 Alpha virt. eigenvalues --    4.38504   4.38866   4.40731   4.42892   4.47453
 Alpha virt. eigenvalues --    4.48363   4.49572   4.50575   4.52628   4.54401
 Alpha virt. eigenvalues --    4.56429   4.60986   4.62498   4.67909   4.68332
 Alpha virt. eigenvalues --    4.71364   4.72303   4.72942   4.76211   4.79048
 Alpha virt. eigenvalues --    4.79692   4.82015   4.83413   4.85664   4.86514
 Alpha virt. eigenvalues --    4.88453   4.90259   4.93891   4.94729   4.96985
 Alpha virt. eigenvalues --    4.99059   5.05764   5.06350   5.10933   5.11636
 Alpha virt. eigenvalues --    5.16230   5.19586   5.19658   5.22849   5.24842
 Alpha virt. eigenvalues --    5.27189   5.35724   5.37255   5.41090   5.42853
 Alpha virt. eigenvalues --    5.46253   5.46869   5.51526   5.56708   5.71801
 Alpha virt. eigenvalues --    5.72517   5.78158   5.78422   5.97444   6.02278
 Alpha virt. eigenvalues --    7.95534   7.95673   8.03281   8.04007   8.05530
 Alpha virt. eigenvalues --    8.09897   8.11494   8.14587   8.18578   8.20055
 Alpha virt. eigenvalues --    8.36114   8.37335  34.77576  34.78068  34.81681
 Alpha virt. eigenvalues --   34.81720  34.85169  34.91890  34.96807  35.00579
 Alpha virt. eigenvalues --   35.02007  35.03557  35.18069  35.19145
  Beta  occ. eigenvalues --  -10.28429 -10.28429 -10.28135 -10.28134 -10.28040
  Beta  occ. eigenvalues --  -10.28039 -10.28018 -10.28016 -10.27795 -10.27794
  Beta  occ. eigenvalues --  -10.27040 -10.27038  -0.94518  -0.93347  -0.84649
  Beta  occ. eigenvalues --   -0.84244  -0.83525  -0.83341  -0.71574  -0.70860
  Beta  occ. eigenvalues --   -0.68274  -0.67709  -0.59772  -0.59758  -0.57571
  Beta  occ. eigenvalues --   -0.56304  -0.53530  -0.52891  -0.50928  -0.50761
  Beta  occ. eigenvalues --   -0.49735  -0.48915  -0.47519  -0.46799  -0.45752
  Beta  occ. eigenvalues --   -0.44714  -0.41369  -0.40849  -0.39794  -0.39085
  Beta  occ. eigenvalues --   -0.39029  -0.38456  -0.30186  -0.26221
  Beta virt. eigenvalues --    0.02488   0.06580   0.11391   0.13266   0.14478
  Beta virt. eigenvalues --    0.15424   0.15618   0.16686   0.16772   0.16836
  Beta virt. eigenvalues --    0.17446   0.17798   0.18373   0.19306   0.20903
  Beta virt. eigenvalues --    0.22083   0.22291   0.23675   0.24224   0.24904
  Beta virt. eigenvalues --    0.25376   0.26070   0.26826   0.27282   0.28335
  Beta virt. eigenvalues --    0.29403   0.29807   0.30198   0.31147   0.31234
  Beta virt. eigenvalues --    0.31526   0.32461   0.33076   0.33514   0.34764
  Beta virt. eigenvalues --    0.34966   0.35518   0.36485   0.36866   0.38018
  Beta virt. eigenvalues --    0.39007   0.39319   0.42036   0.42442   0.42945
  Beta virt. eigenvalues --    0.43809   0.44780   0.44854   0.45641   0.46282
  Beta virt. eigenvalues --    0.47432   0.48350   0.48992   0.49074   0.49454
  Beta virt. eigenvalues --    0.49576   0.49733   0.49869   0.50747   0.50792
  Beta virt. eigenvalues --    0.51283   0.51361   0.52864   0.52999   0.53630
  Beta virt. eigenvalues --    0.53865   0.55064   0.55095   0.56100   0.56160
  Beta virt. eigenvalues --    0.57549   0.57885   0.58453   0.60049   0.60889
  Beta virt. eigenvalues --    0.61448   0.61977   0.63241   0.63402   0.64466
  Beta virt. eigenvalues --    0.66581   0.66609   0.68350   0.68903   0.69465
  Beta virt. eigenvalues --    0.69881   0.72579   0.74167   0.75587   0.76472
  Beta virt. eigenvalues --    0.78310   0.78630   0.78990   0.80707   0.81803
  Beta virt. eigenvalues --    0.82812   0.83815   0.84911   0.85365   0.88072
  Beta virt. eigenvalues --    0.89775   0.91262   0.92050   0.94059   0.94127
  Beta virt. eigenvalues --    0.95285   0.97501   0.97647   0.99121   1.00276
  Beta virt. eigenvalues --    1.01972   1.03381   1.04698   1.05387   1.05630
  Beta virt. eigenvalues --    1.07625   1.08141   1.08600   1.10332   1.12295
  Beta virt. eigenvalues --    1.12781   1.12825   1.15041   1.16346   1.17188
  Beta virt. eigenvalues --    1.17296   1.19193   1.19376   1.19569   1.20080
  Beta virt. eigenvalues --    1.20418   1.21262   1.23781   1.25501   1.25978
  Beta virt. eigenvalues --    1.26481   1.27210   1.28490   1.29322   1.29683
  Beta virt. eigenvalues --    1.30956   1.31189   1.32418   1.32564   1.33626
  Beta virt. eigenvalues --    1.34741   1.34981   1.37207   1.37987   1.38813
  Beta virt. eigenvalues --    1.39576   1.39996   1.40952   1.41182   1.42691
  Beta virt. eigenvalues --    1.42927   1.43141   1.43735   1.44860   1.45208
  Beta virt. eigenvalues --    1.45448   1.46306   1.47962   1.49099   1.49496
  Beta virt. eigenvalues --    1.50891   1.52481   1.53425   1.56157   1.56988
  Beta virt. eigenvalues --    1.58339   1.59186   1.60310   1.61236   1.62067
  Beta virt. eigenvalues --    1.63540   1.64527   1.64834   1.66062   1.67866
  Beta virt. eigenvalues --    1.68515   1.71945   1.75855   1.76189   1.77523
  Beta virt. eigenvalues --    1.80277   1.82167   1.82993   1.84728   1.85469
  Beta virt. eigenvalues --    1.88972   1.89736   1.90753   1.92723   1.93530
  Beta virt. eigenvalues --    1.94918   1.96414   1.97795   2.00757   2.01493
  Beta virt. eigenvalues --    2.04634   2.05044   2.09289   2.11962   2.12102
  Beta virt. eigenvalues --    2.12483   2.13980   2.15861   2.16893   2.18136
  Beta virt. eigenvalues --    2.18241   2.19655   2.20060   2.23713   2.24245
  Beta virt. eigenvalues --    2.25024   2.25120   2.25525   2.29445   2.32262
  Beta virt. eigenvalues --    2.36315   2.36804   2.39019   2.41655   2.42283
  Beta virt. eigenvalues --    2.44615   2.46710   2.47058   2.48425   2.49938
  Beta virt. eigenvalues --    2.50366   2.51596   2.51847   2.54240   2.56709
  Beta virt. eigenvalues --    2.58881   2.59946   2.61069   2.62979   2.63353
  Beta virt. eigenvalues --    2.64078   2.64833   2.65563   2.66668   2.67109
  Beta virt. eigenvalues --    2.69368   2.69826   2.70022   2.72969   2.74129
  Beta virt. eigenvalues --    2.74653   2.74938   2.75455   2.75933   2.77297
  Beta virt. eigenvalues --    2.79346   2.80343   2.81132   2.81466   2.81904
  Beta virt. eigenvalues --    2.82069   2.83819   2.84030   2.84320   2.86264
  Beta virt. eigenvalues --    2.86420   2.88293   2.88324   2.89912   2.90828
  Beta virt. eigenvalues --    2.92826   2.92876   2.94248   2.94946   2.96784
  Beta virt. eigenvalues --    2.97417   2.98481   2.99137   3.00007   3.01127
  Beta virt. eigenvalues --    3.01737   3.02152   3.04135   3.04660   3.06735
  Beta virt. eigenvalues --    3.07284   3.09252   3.10139   3.10475   3.11411
  Beta virt. eigenvalues --    3.11680   3.13347   3.13672   3.14903   3.15370
  Beta virt. eigenvalues --    3.16370   3.16806   3.17356   3.18079   3.19737
  Beta virt. eigenvalues --    3.20415   3.20971   3.21062   3.21951   3.22099
  Beta virt. eigenvalues --    3.23275   3.23364   3.23554   3.24921   3.25773
  Beta virt. eigenvalues --    3.25858   3.27906   3.28267   3.28312   3.29565
  Beta virt. eigenvalues --    3.29866   3.30921   3.31236   3.31265   3.33242
  Beta virt. eigenvalues --    3.33242   3.33907   3.35419   3.36657   3.36724
  Beta virt. eigenvalues --    3.37381   3.37594   3.39154   3.40717   3.42383
  Beta virt. eigenvalues --    3.43221   3.44335   3.44909   3.45884   3.46334
  Beta virt. eigenvalues --    3.47047   3.47537   3.47894   3.48299   3.48523
  Beta virt. eigenvalues --    3.49389   3.51688   3.51734   3.52625   3.54701
  Beta virt. eigenvalues --    3.54868   3.55702   3.56447   3.57619   3.59548
  Beta virt. eigenvalues --    3.61286   3.61800   3.63114   3.63125   3.63759
  Beta virt. eigenvalues --    3.65339   3.67572   3.69413   3.70199   3.70265
  Beta virt. eigenvalues --    3.71215   3.72423   3.74254   3.78326   3.78806
  Beta virt. eigenvalues --    3.80177   3.80864   3.81807   3.82837   3.83996
  Beta virt. eigenvalues --    3.84355   3.86180   3.87717   3.89751   3.90429
  Beta virt. eigenvalues --    3.91948   3.93615   3.96274   3.98271   4.00659
  Beta virt. eigenvalues --    4.01250   4.04316   4.04371   4.05786   4.08850
  Beta virt. eigenvalues --    4.09278   4.10154   4.10379   4.11623   4.13184
  Beta virt. eigenvalues --    4.14087   4.14940   4.17416   4.18837   4.19236
  Beta virt. eigenvalues --    4.20897   4.22775   4.23946   4.27220   4.27770
  Beta virt. eigenvalues --    4.28892   4.31377   4.32494   4.32676   4.37218
  Beta virt. eigenvalues --    4.38504   4.38866   4.40731   4.42892   4.47453
  Beta virt. eigenvalues --    4.48363   4.49572   4.50575   4.52628   4.54401
  Beta virt. eigenvalues --    4.56429   4.60986   4.62498   4.67909   4.68332
  Beta virt. eigenvalues --    4.71364   4.72303   4.72942   4.76211   4.79048
  Beta virt. eigenvalues --    4.79692   4.82015   4.83413   4.85664   4.86514
  Beta virt. eigenvalues --    4.88453   4.90259   4.93891   4.94729   4.96985
  Beta virt. eigenvalues --    4.99059   5.05764   5.06350   5.10933   5.11636
  Beta virt. eigenvalues --    5.16230   5.19586   5.19658   5.22849   5.24842
  Beta virt. eigenvalues --    5.27189   5.35724   5.37255   5.41090   5.42853
  Beta virt. eigenvalues --    5.46253   5.46869   5.51526   5.56708   5.71801
  Beta virt. eigenvalues --    5.72517   5.78158   5.78422   5.97444   6.02278
  Beta virt. eigenvalues --    7.95534   7.95673   8.03281   8.04007   8.05530
  Beta virt. eigenvalues --    8.09897   8.11494   8.14587   8.18578   8.20055
  Beta virt. eigenvalues --    8.36114   8.37335  34.77576  34.78068  34.81681
  Beta virt. eigenvalues --   34.81720  34.85169  34.91890  34.96807  35.00579
  Beta virt. eigenvalues --   35.02007  35.03557  35.18069  35.19145
          Condensed to atoms (all electrons):
               1          2          3          4          5          6
     1  C    5.158072  -0.007676   0.424389  -0.001883   0.001933  -0.009914
     2  C   -0.007676   5.426316  -0.002275   0.423477  -0.068606  -0.002724
     3  H    0.424389  -0.002275   0.491322   0.000028  -0.000047   0.000029
     4  H   -0.001883   0.423477   0.000028   0.457778  -0.014323   0.000796
     5  C    0.001933  -0.068606  -0.000047  -0.014323   5.233098   0.474708
     6  C   -0.009914  -0.002724   0.000029   0.000796   0.474708   5.425507
     7  H    0.000266  -0.003494   0.000001  -0.000015   0.431250  -0.028116
     8  H   -0.002114   0.000816  -0.000084   0.000242  -0.030961   0.423420
     9  C    0.002895  -0.019677  -0.000010  -0.003663  -0.057544   0.198055
    10  H   -0.000043   0.002225  -0.000001  -0.000390  -0.006683  -0.044115
    11  H    0.000127  -0.008934   0.000003   0.000598   0.010519  -0.061748
    12  C   -0.000209   0.018295   0.000002   0.004844   0.273896  -0.059807
    13  H   -0.000001   0.000164   0.000000   0.000046  -0.036405   0.005205
    14  C    0.000172  -0.009911  -0.000000  -0.002096  -0.039448  -0.007490
    15  H   -0.000000   0.000031  -0.000000  -0.000086   0.006837  -0.002304
    16  C   -0.000602   0.018390   0.000000   0.000813  -0.003995  -0.054943
    17  H   -0.000010   0.001281  -0.000000  -0.003902   0.009975  -0.004502
    18  H    0.000003   0.000194   0.000000   0.000437  -0.003448   0.012337
    19  C   -0.039645   0.474189   0.006788  -0.030979  -0.030654  -0.068610
    20  H    0.004002  -0.028706  -0.000091  -0.004080   0.000233  -0.003473
    21  C    0.567050  -0.059618  -0.031410   0.004317   0.003852   0.018281
    22  H   -0.025697   0.005112  -0.005730  -0.000050   0.000045   0.000167
    23  C   -0.082475   0.197670   0.005211  -0.010261   0.014052  -0.019596
    24  H    0.013587  -0.061617  -0.000066  -0.003935   0.000555  -0.008941
    25  H    0.004498  -0.044104  -0.000025  -0.001300   0.000804   0.002225
    26  C    0.269494  -0.055185  -0.028791   0.004067  -0.011242   0.018407
    27  H   -0.037676   0.012389  -0.004278  -0.000059   0.000346   0.000192
    28  H   -0.033037  -0.004520   0.000884  -0.000175  -0.004045   0.001287
               7          8          9         10         11         12
     1  C    0.000266  -0.002114   0.002895  -0.000043   0.000127  -0.000209
     2  C   -0.003494   0.000816  -0.019677   0.002225  -0.008934   0.018295
     3  H    0.000001  -0.000084  -0.000010  -0.000001   0.000003   0.000002
     4  H   -0.000015   0.000242  -0.003663  -0.000390   0.000598   0.004844
     5  C    0.431250  -0.030961  -0.057544  -0.006683   0.010519   0.273896
     6  C   -0.028116   0.423420   0.198055  -0.044115  -0.061748  -0.059807
     7  H    0.475064  -0.004086   0.002840  -0.000188  -0.000000  -0.031660
     8  H   -0.004086   0.457917  -0.010280  -0.001306  -0.003942   0.004328
     9  C    0.002840  -0.010280   5.014165   0.395198   0.469954   0.036735
    10  H   -0.000188  -0.001306   0.395198   0.568792  -0.020123   0.000888
    11  H   -0.000000  -0.003942   0.469954  -0.020123   0.524112  -0.005125
    12  C   -0.031660   0.004328   0.036735   0.000888  -0.005125   5.027610
    13  H   -0.003267  -0.000050  -0.000034  -0.000073   0.000024   0.424935
    14  C    0.004018  -0.001891  -0.082670   0.004442   0.013607   0.566498
    15  H   -0.000091   0.000028   0.005226  -0.000027  -0.000066  -0.031772
    16  C   -0.001120   0.004084   0.331575  -0.022403  -0.058046  -0.050802
    17  H    0.000014  -0.000175  -0.027512   0.006296  -0.007079  -0.013715
    18  H    0.000028  -0.000060  -0.045378  -0.009609  -0.000739   0.005897
    19  C    0.000237  -0.014342   0.014043   0.000808   0.000560   0.003831
    20  H    0.000008  -0.000017   0.003569   0.000362  -0.002639  -0.000135
    21  C   -0.000135   0.004874  -0.004172  -0.000123  -0.000011  -0.000446
    22  H   -0.000001   0.000045  -0.000098  -0.000001  -0.000018  -0.000001
    23  C    0.003590  -0.003697   0.002584  -0.000076   0.000387  -0.004175
    24  H   -0.002673   0.000600   0.000386  -0.000026  -0.000015  -0.000011
    25  H    0.000362  -0.000390  -0.000075   0.000011  -0.000026  -0.000123
    26  C   -0.002052   0.000833  -0.001373   0.000053  -0.000132   0.001320
    27  H   -0.000012   0.000439  -0.000001  -0.000000  -0.000000  -0.000040
    28  H    0.001753  -0.003892   0.000461   0.000010  -0.000003   0.000341
              13         14         15         16         17         18
     1  C   -0.000001   0.000172  -0.000000  -0.000602  -0.000010   0.000003
     2  C    0.000164  -0.009911   0.000031   0.018390   0.001281   0.000194
     3  H    0.000000  -0.000000  -0.000000   0.000000  -0.000000   0.000000
     4  H    0.000046  -0.002096  -0.000086   0.000813  -0.003902   0.000437
     5  C   -0.036405  -0.039448   0.006837  -0.003995   0.009975  -0.003448
     6  C    0.005205  -0.007490  -0.002304  -0.054943  -0.004502   0.012337
     7  H   -0.003267   0.004018  -0.000091  -0.001120   0.000014   0.000028
     8  H   -0.000050  -0.001891   0.000028   0.004084  -0.000175  -0.000060
     9  C   -0.000034  -0.082670   0.005226   0.331575  -0.027512  -0.045378
    10  H   -0.000073   0.004442  -0.000027  -0.022403   0.006296  -0.009609
    11  H    0.000024   0.013607  -0.000066  -0.058046  -0.007079  -0.000739
    12  C    0.424935   0.566498  -0.031772  -0.050802  -0.013715   0.005897
    13  H    0.489560  -0.025528  -0.005744   0.004133  -0.000383  -0.000089
    14  C   -0.025528   5.158637   0.424739   0.269499  -0.033123  -0.037534
    15  H   -0.005744   0.424739   0.491397  -0.028789   0.000878  -0.004258
    16  C    0.004133   0.269499  -0.028789   4.961861   0.398430   0.436377
    17  H   -0.000383  -0.033123   0.000878   0.398430   0.577348  -0.021934
    18  H   -0.000089  -0.037534  -0.004258   0.436377  -0.021934   0.537070
    19  C    0.000045   0.001937  -0.000047  -0.011244  -0.004028   0.000346
    20  H   -0.000001   0.000266   0.000001  -0.002046   0.001751  -0.000012
    21  C   -0.000001  -0.000209   0.000002   0.001319   0.000342  -0.000040
    22  H    0.000000  -0.000001   0.000000   0.000014   0.000000  -0.000001
    23  C   -0.000095   0.002895  -0.000010  -0.001368   0.000459  -0.000001
    24  H   -0.000020   0.000126   0.000003  -0.000132  -0.000003  -0.000000
    25  H   -0.000001  -0.000043  -0.000001   0.000053   0.000010  -0.000000
    26  C    0.000014  -0.000603   0.000000   0.000731   0.000011  -0.000004
    27  H   -0.000001   0.000003   0.000000  -0.000004   0.000001  -0.000000
    28  H    0.000000  -0.000010  -0.000000   0.000011  -0.000011   0.000001
              19         20         21         22         23         24
     1  C   -0.039645   0.004002   0.567050  -0.025697  -0.082475   0.013587
     2  C    0.474189  -0.028706  -0.059618   0.005112   0.197670  -0.061617
     3  H    0.006788  -0.000091  -0.031410  -0.005730   0.005211  -0.000066
     4  H   -0.030979  -0.004080   0.004317  -0.000050  -0.010261  -0.003935
     5  C   -0.030654   0.000233   0.003852   0.000045   0.014052   0.000555
     6  C   -0.068610  -0.003473   0.018281   0.000167  -0.019596  -0.008941
     7  H    0.000237   0.000008  -0.000135  -0.000001   0.003590  -0.002673
     8  H   -0.014342  -0.000017   0.004874   0.000045  -0.003697   0.000600
     9  C    0.014043   0.003569  -0.004172  -0.000098   0.002584   0.000386
    10  H    0.000808   0.000362  -0.000123  -0.000001  -0.000076  -0.000026
    11  H    0.000560  -0.002639  -0.000011  -0.000018   0.000387  -0.000015
    12  C    0.003831  -0.000135  -0.000446  -0.000001  -0.004175  -0.000011
    13  H    0.000045  -0.000001  -0.000001   0.000000  -0.000095  -0.000020
    14  C    0.001937   0.000266  -0.000209  -0.000001   0.002895   0.000126
    15  H   -0.000047   0.000001   0.000002   0.000000  -0.000010   0.000003
    16  C   -0.011244  -0.002046   0.001319   0.000014  -0.001368  -0.000132
    17  H   -0.004028   0.001751   0.000342   0.000000   0.000459  -0.000003
    18  H    0.000346  -0.000012  -0.000040  -0.000001  -0.000001  -0.000000
    19  C    5.232847   0.431720   0.274340  -0.036241  -0.057266   0.010456
    20  H    0.431720   0.475263  -0.031583  -0.003273   0.002846  -0.000000
    21  C    0.274340  -0.031583   5.026937   0.425051   0.036610  -0.005109
    22  H   -0.036241  -0.003273   0.425051   0.489546  -0.000033   0.000024
    23  C   -0.057266   0.002846   0.036610  -0.000033   5.014247   0.469851
    24  H    0.010456  -0.000000  -0.005109   0.000024   0.469851   0.523968
    25  H   -0.006662  -0.000187   0.000834  -0.000074   0.395207  -0.020125
    26  C   -0.003749  -0.001114  -0.050913   0.004129   0.331512  -0.057971
    27  H   -0.003490   0.000028   0.006014  -0.000088  -0.045413  -0.000747
    28  H    0.009999   0.000014  -0.013792  -0.000384  -0.027530  -0.007081
              25         26         27         28
     1  C    0.004498   0.269494  -0.037676  -0.033037
     2  C   -0.044104  -0.055185   0.012389  -0.004520
     3  H   -0.000025  -0.028791  -0.004278   0.000884
     4  H   -0.001300   0.004067  -0.000059  -0.000175
     5  C    0.000804  -0.011242   0.000346  -0.004045
     6  C    0.002225   0.018407   0.000192   0.001287
     7  H    0.000362  -0.002052  -0.000012   0.001753
     8  H   -0.000390   0.000833   0.000439  -0.003892
     9  C   -0.000075  -0.001373  -0.000001   0.000461
    10  H    0.000011   0.000053  -0.000000   0.000010
    11  H   -0.000026  -0.000132  -0.000000  -0.000003
    12  C   -0.000123   0.001320  -0.000040   0.000341
    13  H   -0.000001   0.000014  -0.000001   0.000000
    14  C   -0.000043  -0.000603   0.000003  -0.000010
    15  H   -0.000001   0.000000   0.000000  -0.000000
    16  C    0.000053   0.000731  -0.000004   0.000011
    17  H    0.000010   0.000011   0.000001  -0.000011
    18  H   -0.000000  -0.000004  -0.000000   0.000001
    19  C   -0.006662  -0.003749  -0.003490   0.009999
    20  H   -0.000187  -0.001114   0.000028   0.000014
    21  C    0.000834  -0.050913   0.006014  -0.013792
    22  H   -0.000074   0.004129  -0.000088  -0.000384
    23  C    0.395207   0.331512  -0.045413  -0.027530
    24  H   -0.020125  -0.057971  -0.000747  -0.007081
    25  H    0.568840  -0.022478  -0.009604   0.006301
    26  C   -0.022478   4.962437   0.436482   0.398387
    27  H   -0.009604   0.436482   0.536916  -0.021960
    28  H    0.006301   0.398387  -0.021960   0.577364
          Atomic-Atomic Spin Densities.
               1          2          3          4          5          6
     1  C    0.000000   0.000000  -0.000000  -0.000000  -0.000000  -0.000000
     2  C    0.000000   0.000000   0.000000  -0.000000  -0.000000   0.000000
     3  H   -0.000000   0.000000  -0.000000   0.000000   0.000000  -0.000000
     4  H   -0.000000  -0.000000   0.000000   0.000000   0.000000   0.000000
     5  C   -0.000000  -0.000000   0.000000   0.000000   0.000000  -0.000000
     6  C   -0.000000   0.000000  -0.000000   0.000000  -0.000000  -0.000000
     7  H    0.000000  -0.000000  -0.000000  -0.000000   0.000000  -0.000000
     8  H    0.000000  -0.000000   0.000000   0.000000   0.000000   0.000000
     9  C    0.000000  -0.000000   0.000000  -0.000000   0.000000  -0.000000
    10  H   -0.000000  -0.000000   0.000000  -0.000000  -0.000000   0.000000
    11  H   -0.000000   0.000000  -0.000000   0.000000  -0.000000   0.000000
    12  C    0.000000   0.000000  -0.000000  -0.000000   0.000000  -0.000000
    13  H   -0.000000  -0.000000  -0.000000  -0.000000   0.000000  -0.000000
    14  C   -0.000000   0.000000   0.000000  -0.000000   0.000000  -0.000000
    15  H   -0.000000   0.000000  -0.000000  -0.000000   0.000000  -0.000000
    16  C    0.000000   0.000000  -0.000000  -0.000000  -0.000000   0.000000
    17  H   -0.000000  -0.000000   0.000000   0.000000   0.000000  -0.000000
    18  H    0.000000   0.000000  -0.000000   0.000000  -0.000000   0.000000
    19  C   -0.000000   0.000000  -0.000000  -0.000000   0.000000   0.000000
    20  H   -0.000000   0.000000   0.000000   0.000000   0.000000   0.000000
    21  C    0.000000   0.000000   0.000000   0.000000  -0.000000  -0.000000
    22  H   -0.000000   0.000000   0.000000   0.000000   0.000000   0.000000
    23  C   -0.000000   0.000000  -0.000000  -0.000000   0.000000   0.000000
    24  H    0.000000  -0.000000   0.000000   0.000000  -0.000000  -0.000000
    25  H    0.000000  -0.000000  -0.000000  -0.000000  -0.000000   0.000000
    26  C   -0.000000  -0.000000   0.000000   0.000000  -0.000000  -0.000000
    27  H   -0.000000  -0.000000   0.000000   0.000000  -0.000000  -0.000000
    28  H    0.000000   0.000000  -0.000000  -0.000000   0.000000   0.000000
               7          8          9         10         11         12
     1  C    0.000000   0.000000   0.000000  -0.000000  -0.000000   0.000000
     2  C   -0.000000  -0.000000  -0.000000  -0.000000   0.000000   0.000000
     3  H   -0.000000   0.000000   0.000000   0.000000  -0.000000  -0.000000
     4  H   -0.000000   0.000000  -0.000000  -0.000000   0.000000  -0.000000
     5  C    0.000000   0.000000   0.000000  -0.000000  -0.000000   0.000000
     6  C   -0.000000   0.000000  -0.000000   0.000000   0.000000  -0.000000
     7  H    0.000000  -0.000000  -0.000000   0.000000  -0.000000  -0.000000
     8  H   -0.000000  -0.000000   0.000000   0.000000  -0.000000  -0.000000
     9  C   -0.000000   0.000000   0.000001   0.000000  -0.000000  -0.000000
    10  H    0.000000   0.000000   0.000000  -0.000000   0.000000   0.000000
    11  H   -0.000000  -0.000000  -0.000000   0.000000  -0.000000   0.000000
    12  C   -0.000000  -0.000000  -0.000000   0.000000   0.000000   0.000000
    13  H    0.000000  -0.000000  -0.000000   0.000000  -0.000000  -0.000000
    14  C    0.000000   0.000000   0.000000  -0.000000  -0.000000  -0.000000
    15  H   -0.000000  -0.000000   0.000000   0.000000  -0.000000  -0.000000
    16  C   -0.000000  -0.000000  -0.000000   0.000000   0.000000   0.000000
    17  H    0.000000   0.000000  -0.000000  -0.000000  -0.000000  -0.000000
    18  H   -0.000000  -0.000000  -0.000000   0.000000   0.000000   0.000000
    19  C   -0.000000  -0.000000  -0.000000   0.000000   0.000000   0.000000
    20  H   -0.000000   0.000000  -0.000000  -0.000000   0.000000  -0.000000
    21  C    0.000000   0.000000   0.000000  -0.000000  -0.000000  -0.000000
    22  H    0.000000   0.000000   0.000000  -0.000000   0.000000  -0.000000
    23  C    0.000000   0.000000   0.000000   0.000000  -0.000000  -0.000000
    24  H   -0.000000  -0.000000   0.000000  -0.000000  -0.000000   0.000000
    25  H    0.000000   0.000000  -0.000000   0.000000   0.000000   0.000000
    26  C   -0.000000   0.000000   0.000000  -0.000000   0.000000   0.000000
    27  H    0.000000  -0.000000   0.000000  -0.000000  -0.000000   0.000000
    28  H   -0.000000  -0.000000  -0.000000   0.000000   0.000000  -0.000000
              13         14         15         16         17         18
     1  C   -0.000000  -0.000000  -0.000000   0.000000  -0.000000   0.000000
     2  C   -0.000000   0.000000   0.000000   0.000000  -0.000000   0.000000
     3  H   -0.000000   0.000000  -0.000000  -0.000000   0.000000  -0.000000
     4  H   -0.000000  -0.000000  -0.000000  -0.000000   0.000000   0.000000
     5  C    0.000000   0.000000   0.000000  -0.000000   0.000000  -0.000000
     6  C   -0.000000  -0.000000  -0.000000   0.000000  -0.000000   0.000000
     7  H    0.000000   0.000000  -0.000000  -0.000000   0.000000  -0.000000
     8  H   -0.000000   0.000000  -0.000000  -0.000000   0.000000  -0.000000
     9  C   -0.000000   0.000000   0.000000  -0.000000  -0.000000  -0.000000
    10  H    0.000000  -0.000000   0.000000   0.000000  -0.000000   0.000000
    11  H   -0.000000  -0.000000  -0.000000   0.000000  -0.000000   0.000000
    12  C   -0.000000  -0.000000  -0.000000   0.000000  -0.000000   0.000000
    13  H   -0.000000   0.000000  -0.000000  -0.000000   0.000000   0.000000
    14  C    0.000000  -0.000000   0.000000   0.000000  -0.000000   0.000000
    15  H   -0.000000   0.000000   0.000000  -0.000000   0.000000  -0.000000
    16  C   -0.000000   0.000000  -0.000000  -0.000001   0.000000   0.000000
    17  H    0.000000  -0.000000   0.000000   0.000000   0.000000  -0.000000
    18  H    0.000000   0.000000  -0.000000   0.000000  -0.000000   0.000000
    19  C   -0.000000   0.000000  -0.000000   0.000000  -0.000000   0.000000
    20  H   -0.000000  -0.000000   0.000000   0.000000   0.000000  -0.000000
    21  C    0.000000  -0.000000   0.000000  -0.000000   0.000000  -0.000000
    22  H    0.000000   0.000000   0.000000  -0.000000   0.000000  -0.000000
    23  C   -0.000000  -0.000000  -0.000000  -0.000000   0.000000  -0.000000
    24  H   -0.000000   0.000000   0.000000  -0.000000  -0.000000   0.000000
    25  H    0.000000   0.000000  -0.000000   0.000000  -0.000000   0.000000
    26  C    0.000000  -0.000000   0.000000  -0.000000  -0.000000   0.000000
[...]
     4  H   -0.000000   0.000000   0.000000  -0.000000
     5  C    0.000000  -0.000000  -0.000000   0.000000
     6  C    0.000000  -0.000000  -0.000000   0.000000
     7  H    0.000000  -0.000000   0.000000  -0.000000
     8  H    0.000000   0.000000  -0.000000   0.000000
     9  C   -0.000000   0.000000   0.000000  -0.000000
    10  H   -0.000000  -0.000000  -0.000000   0.000000
    11  H    0.000000   0.000000  -0.000000   0.000000
    12  C   -0.000000   0.000000   0.000000  -0.000000
    13  H   -0.000000   0.000000   0.000000  -0.000000
    14  C   -0.000000  -0.000000  -0.000000   0.000000
    15  H    0.000000  -0.000000   0.000000   0.000000
    16  C    0.000000   0.000000  -0.000000  -0.000000
    17  H    0.000000  -0.000000   0.000000   0.000000
    18  H   -0.000000   0.000000  -0.000000  -0.000000
    19  C   -0.000000   0.000000  -0.000000  -0.000000
    20  H   -0.000000   0.000000   0.000000  -0.000000
    21  C   -0.000000  -0.000000   0.000000   0.000000
    22  H   -0.000000   0.000000  -0.000000  -0.000000
    23  C   -0.000000   0.000000   0.000000   0.000000
    24  H   -0.000000  -0.000000  -0.000000   0.000000
    25  H    0.000000  -0.000000  -0.000000   0.000000
    26  C   -0.000000   0.000000  -0.000000   0.000000
    27  H   -0.000000  -0.000000  -0.000000  -0.000000
    28  H    0.000000   0.000000  -0.000000  -0.000000
 Mulliken charges and spin densities:
               1          2
     1  C   -0.202654   0.000001
     2  C   -0.212457  -0.000001
     3  H    0.147808  -0.000000
     4  H    0.186665   0.000000
     5  C   -0.169065   0.000001
     6  C   -0.212815  -0.000001
     7  H    0.163585   0.000000
     8  H    0.185632  -0.000000
     9  C   -0.237613   0.000001
    10  H    0.133871  -0.000000
    11  H    0.153700  -0.000000
    12  C   -0.173102  -0.000001
    13  H    0.150799  -0.000000
    14  C   -0.202769   0.000001
    15  H    0.147907  -0.000000
    16  C   -0.199030  -0.000001
    17  H    0.124328   0.000000
    18  H    0.134777   0.000000
    19  C   -0.171242   0.000001
    20  H    0.164814  -0.000000
    21  C   -0.172288  -0.000001
    22  H    0.150621   0.000000
    23  C   -0.240302  -0.000000
    24  H    0.155160   0.000000
    25  H    0.133863   0.000000
    26  C   -0.199233   0.000000
    27  H    0.134784  -0.000000
    28  H    0.124256  -0.000000
 Sum of Mulliken charges =  -0.00000  -0.00000
 Mulliken charges and spin densities with hydrogens summed into heavy atoms:
               1          2
     1  C   -0.054846   0.000001
     2  C   -0.025792  -0.000001
     5  C   -0.005479   0.000001
     6  C   -0.027183  -0.000001
     9  C    0.049958   0.000000
    12  C   -0.022303  -0.000001
    14  C   -0.054862   0.000001
    16  C    0.060075  -0.000000
    19  C   -0.006428   0.000001
    21  C   -0.021666  -0.000001
    23  C    0.048720  -0.000000
    26  C    0.059807   0.000000
 Electronic spatial extent (au):  <R**2>=           2218.2159
 Charge=              0.0000 electrons
 Dipole moment (field-independent basis, Debye):
    X=              0.0007    Y=             -0.0005    Z=             -0.0039  Tot=              0.0040
 Quadrupole moment (field-independent basis, Debye-Ang):
   XX=            -70.2332   YY=            -68.2596   ZZ=            -75.6848
   XY=             -3.3982   XZ=             -3.3176   YZ=             -1.5212
 Traceless Quadrupole moment (field-independent basis, Debye-Ang):
   XX=              1.1593   YY=              3.1330   ZZ=             -4.2923
   XY=             -3.3982   XZ=             -3.3176   YZ=             -1.5212
 Octapole moment (field-independent basis, Debye-Ang**2):
  XXX=             -0.0204  YYY=              0.0006  ZZZ=             -0.0201  XYY=              0.0032
  XXY=             -0.0139  XXZ=             -0.0140  XZZ=             -0.0010  YZZ=             -0.0003
  YYZ=             -0.0099  XYZ=              0.0035
 Hexadecapole moment (field-independent basis, Debye-Ang**3):
 XXXX=          -1989.5903 YYYY=           -607.6254 ZZZZ=           -336.1152 XXXY=           -101.3134
 XXXZ=           -124.7111 YYYX=            -56.5867 YYYZ=             -2.5662 ZZZX=            -71.9558
 ZZZY=            -13.0624 XXYY=           -430.3875 XXZZ=           -413.3919 YYZZ=           -172.5424
 XXYZ=            -21.5486 YYXZ=            -26.6128 ZZXY=            -42.8201
 N-N= 6.870114739197D+02 E-N=-2.456699042824D+03  KE= 4.644267078073D+02
                          Isotropic Fermi Contact Couplings
        Atom                 a.u.       MegaHertz       Gauss      10(-4) cm-1
     1  C(13)              0.00000       0.00011       0.00004       0.00004
     2  C(13)             -0.00000      -0.00015      -0.00005      -0.00005
     3  H(1)              -0.00000      -0.00009      -0.00003      -0.00003
     4  H(1)               0.00000       0.00014       0.00005       0.00005
     5  C(13)              0.00000       0.00003       0.00001       0.00001
     6  C(13)             -0.00000      -0.00005      -0.00002      -0.00002
     7  H(1)              -0.00000      -0.00001      -0.00000      -0.00000
     8  H(1)              -0.00000      -0.00004      -0.00002      -0.00001
     9  C(13)              0.00000       0.00020       0.00007       0.00007
    10  H(1)              -0.00000      -0.00019      -0.00007      -0.00006
    11  H(1)              -0.00000      -0.00017      -0.00006      -0.00006
    12  C(13)             -0.00000      -0.00003      -0.00001      -0.00001
    13  H(1)              -0.00000      -0.00003      -0.00001      -0.00001
    14  C(13)              0.00000       0.00008       0.00003       0.00003
    15  H(1)              -0.00000      -0.00004      -0.00001      -0.00001
    16  C(13)             -0.00000      -0.00017      -0.00006      -0.00006
    17  H(1)               0.00000       0.00016       0.00006       0.00005
    18  H(1)               0.00000       0.00006       0.00002       0.00002
    19  C(13)              0.00000       0.00014       0.00005       0.00005
    20  H(1)              -0.00000      -0.00008      -0.00003      -0.00003
    21  C(13)             -0.00000      -0.00016      -0.00006      -0.00005
    22  H(1)               0.00000       0.00013       0.00005       0.00004
    23  C(13)             -0.00000      -0.00012      -0.00004      -0.00004
    24  H(1)               0.00000       0.00013       0.00005       0.00004
    25  H(1)               0.00000       0.00006       0.00002       0.00002
    26  C(13)              0.00000       0.00009       0.00003       0.00003
    27  H(1)               0.00000       0.00002       0.00001       0.00001
    28  H(1)              -0.00000      -0.00000      -0.00000      -0.00000
 --------------------------------------------------------
       Center         ----  Spin Dipole Couplings  ----
                      3XX-RR        3YY-RR        3ZZ-RR
 --------------------------------------------------------
     1   Atom       -0.000000     -0.000001      0.000001
     2   Atom        0.000000      0.000001     -0.000001
     3   Atom        0.000000     -0.000000      0.000000
     4   Atom       -0.000000      0.000000      0.000000
     5   Atom       -0.000000     -0.000001      0.000001
     6   Atom        0.000000      0.000001     -0.000001
     7   Atom       -0.000000     -0.000000      0.000000
     8   Atom       -0.000000      0.000000     -0.000000
     9   Atom        0.000000     -0.000000      0.000000
    10   Atom       -0.000000     -0.000000      0.000000
    11   Atom        0.000000      0.000000     -0.000000
    12   Atom        0.000000      0.000001     -0.000001
    13   Atom        0.000000     -0.000000     -0.000000
    14   Atom       -0.000000     -0.000001      0.000001
    15   Atom        0.000000     -0.000000      0.000000
    16   Atom       -0.000000      0.000000     -0.000000
    17   Atom        0.000000      0.000000     -0.000000
    18   Atom       -0.000000      0.000000      0.000000
    19   Atom       -0.000000     -0.000000      0.000000
    20   Atom       -0.000000      0.000000     -0.000000
    21   Atom        0.000000      0.000000     -0.000001
    22   Atom        0.000000     -0.000000      0.000000
    23   Atom        0.000000      0.000000     -0.000000
    24   Atom        0.000000     -0.000000      0.000000
    25   Atom        0.000000      0.000000     -0.000000
    26   Atom        0.000000     -0.000000      0.000000
    27   Atom       -0.000000      0.000000     -0.000000
    28   Atom       -0.000000     -0.000000      0.000000
 --------------------------------------------------------
                        XY            XZ            YZ
 --------------------------------------------------------
     1   Atom       -0.000000      0.000001     -0.000000
     2   Atom       -0.000000     -0.000000     -0.000000
     3   Atom        0.000000     -0.000000     -0.000000
     4   Atom       -0.000000      0.000000      0.000000
     5   Atom        0.000000      0.000001      0.000000
     6   Atom       -0.000000     -0.000001     -0.000001
     7   Atom       -0.000000      0.000000      0.000000
     8   Atom       -0.000000      0.000000     -0.000000
     9   Atom        0.000000     -0.000000      0.000000
    10   Atom        0.000000      0.000000     -0.000000
    11   Atom        0.000000      0.000000      0.000000
    12   Atom        0.000000     -0.000001      0.000000
    13   Atom       -0.000000     -0.000000      0.000000
    14   Atom        0.000000      0.000001      0.000000
    15   Atom        0.000000     -0.000000     -0.000000
    16   Atom        0.000000      0.000000     -0.000000
    17   Atom        0.000000     -0.000000     -0.000000
    18   Atom        0.000000     -0.000000      0.000000
    19   Atom       -0.000000      0.000000     -0.000000
    20   Atom       -0.000000     -0.000000      0.000000
    21   Atom       -0.000000     -0.000000      0.000000
    22   Atom       -0.000000     -0.000000      0.000000
    23   Atom       -0.000000     -0.000000     -0.000000
    24   Atom       -0.000000     -0.000000     -0.000000
    25   Atom        0.000000     -0.000000      0.000000
    26   Atom        0.000000     -0.000000      0.000000
    27   Atom       -0.000000      0.000000     -0.000000
    28   Atom        0.000000      0.000000      0.000000
 --------------------------------------------------------


 ---------------------------------------------------------------------------------
              Anisotropic Spin Dipole Couplings in Principal Axis System
 ---------------------------------------------------------------------------------

       Atom             a.u.   MegaHertz   Gauss  10(-4) cm-1        Axes

              Baa    -0.0000    -0.000    -0.000    -0.000 -0.1815  0.9651  0.1889
     1 C(13)  Bbb    -0.0000    -0.000    -0.000    -0.000  0.8471  0.2510 -0.4685
              Bcc     0.0000     0.000     0.000     0.000  0.4995 -0.0749  0.8631
 
              Baa    -0.0000    -0.000    -0.000    -0.000  0.3328  0.0819  0.9394
     2 C(13)  Bbb     0.0000     0.000     0.000     0.000  0.9423  0.0099 -0.3347
              Bcc     0.0000     0.000     0.000     0.000 -0.0367  0.9966 -0.0738
 
              Baa    -0.0000    -0.000    -0.000    -0.000 -0.1174  0.9860  0.1187
     3 H(1)   Bbb    -0.0000    -0.000    -0.000    -0.000  0.6305 -0.0183  0.7760
              Bcc     0.0000     0.000     0.000     0.000  0.7672  0.1659 -0.6195
 
              Baa    -0.0000    -0.000    -0.000    -0.000  0.9315  0.1052 -0.3482
     4 H(1)   Bbb     0.0000     0.000     0.000     0.000  0.3471  0.0289  0.9374
              Bcc     0.0000     0.000     0.000     0.000 -0.1087  0.9940  0.0096
 
              Baa    -0.0000    -0.000    -0.000    -0.000  0.7482  0.5283 -0.4014
     5 C(13)  Bbb    -0.0000    -0.000    -0.000    -0.000 -0.5367  0.8376  0.1021
              Bcc     0.0000     0.000     0.000     0.000  0.3901  0.1390  0.9102
 
              Baa    -0.0000    -0.000    -0.000    -0.000  0.4213  0.2187  0.8802
     6 C(13)  Bbb     0.0000     0.000     0.000     0.000 -0.3093  0.9469 -0.0872
              Bcc     0.0000     0.000     0.000     0.000  0.8526  0.2355 -0.4665
 
              Baa    -0.0000    -0.000    -0.000    -0.000  0.6765  0.6606 -0.3257
     7 H(1)   Bbb     0.0000     0.000     0.000     0.000  0.1857  0.2749  0.9434
              Bcc     0.0000     0.000     0.000     0.000  0.7127 -0.6986  0.0633
 
              Baa    -0.0000    -0.000    -0.000    -0.000 -0.3817  0.0865  0.9202
     8 H(1)   Bbb     0.0000     0.000     0.000     0.000  0.9171  0.1594  0.3654
              Bcc     0.0000     0.000     0.000     0.000 -0.1151  0.9834 -0.1402
 
              Baa    -0.0000    -0.000    -0.000    -0.000 -0.6004  0.7927 -0.1057
     9 C(13)  Bbb     0.0000     0.000     0.000     0.000 -0.0357  0.1055  0.9938
              Bcc     0.0000     0.000     0.000     0.000  0.7989  0.6004 -0.0351
 
              Baa    -0.0000    -0.000    -0.000    -0.000 -0.6065  0.7735  0.1837
    10 H(1)   Bbb    -0.0000    -0.000    -0.000    -0.000  0.7465  0.6336 -0.2031
              Bcc     0.0000     0.000     0.000     0.000  0.2735 -0.0140  0.9618
 
              Baa    -0.0000    -0.000    -0.000    -0.000  0.7434 -0.6347  0.2109
    11 H(1)   Bbb    -0.0000    -0.000    -0.000    -0.000 -0.2138  0.0733  0.9741
              Bcc     0.0000     0.000     0.000     0.000  0.6337  0.7693  0.0812
 
              Baa    -0.0000    -0.000    -0.000    -0.000  0.4569 -0.0357  0.8888
    12 C(13)  Bbb     0.0000     0.000     0.000     0.000  0.8089 -0.3989 -0.4318
              Bcc     0.0000     0.000     0.000     0.000  0.3700  0.9163 -0.1534
 
              Baa    -0.0000    -0.000    -0.000    -0.000  0.3355 -0.2243  0.9149
    13 H(1)   Bbb    -0.0000    -0.000    -0.000    -0.000  0.5509  0.8346  0.0025
              Bcc     0.0000     0.000     0.000     0.000  0.7641 -0.5032 -0.4036
 
              Baa    -0.0000    -0.000    -0.000    -0.000  0.8590 -0.3409 -0.3820
    14 C(13)  Bbb    -0.0000    -0.000    -0.000    -0.000  0.3055  0.9400 -0.1519
              Bcc     0.0000     0.000     0.000     0.000  0.4109  0.0138  0.9116
 
              Baa    -0.0000    -0.000    -0.000    -0.000 -0.1453  0.9874  0.0634
    15 H(1)   Bbb     0.0000     0.000     0.000     0.000  0.2809 -0.0203  0.9595
              Bcc     0.0000     0.000     0.000     0.000  0.9487  0.1572 -0.2744
 
              Baa    -0.0000    -0.000    -0.000    -0.000  0.7094 -0.1367 -0.6914
    16 C(13)  Bbb     0.0000     0.000     0.000     0.000  0.6994  0.2572  0.6668
              Bcc     0.0000     0.000     0.000     0.000 -0.0866  0.9566 -0.2781
 
              Baa    -0.0000    -0.000    -0.000    -0.000  0.1772  0.2382  0.9549
    17 H(1)   Bbb     0.0000     0.000     0.000     0.000  0.9400 -0.3284 -0.0926
              Bcc     0.0000     0.000     0.000     0.000  0.2915  0.9140 -0.2821
 
              Baa    -0.0000    -0.000    -0.000    -0.000  0.8522 -0.4505  0.2662
    18 H(1)   Bbb     0.0000     0.000     0.000     0.000 -0.2495  0.0974  0.9635
              Bcc     0.0000     0.000     0.000     0.000  0.4599  0.8875  0.0294
 
              Baa    -0.0000    -0.000    -0.000    -0.000  0.3565  0.9310 -0.0791
    19 C(13)  Bbb    -0.0000    -0.000    -0.000    -0.000  0.8616 -0.3603 -0.3576
              Bcc     0.0000     0.000     0.000     0.000  0.3614 -0.0594  0.9305
 
              Baa    -0.0000    -0.000    -0.000    -0.000  0.7516  0.6087 -0.2542
    20 H(1)   Bbb    -0.0000    -0.000    -0.000    -0.000  0.3484 -0.0389  0.9366
              Bcc     0.0000     0.000     0.000     0.000 -0.5602  0.7925  0.2413
 
              Baa    -0.0000    -0.000    -0.000    -0.000  0.3672 -0.0179  0.9300
    21 C(13)  Bbb     0.0000     0.000     0.000     0.000  0.6439  0.7264 -0.2403
              Bcc     0.0000     0.000     0.000     0.000 -0.6712  0.6870  0.2783
 
              Baa    -0.0000    -0.000    -0.000    -0.000  0.4595  0.8747 -0.1539
    22 H(1)   Bbb     0.0000     0.000     0.000     0.000  0.3663 -0.0288  0.9301
              Bcc     0.0000     0.000     0.000     0.000  0.8091 -0.4838 -0.3336
 
              Baa    -0.0000    -0.000    -0.000    -0.000  0.5194  0.3480  0.7805
    23 C(13)  Bbb    -0.0000    -0.000    -0.000    -0.000  0.6276  0.4646 -0.6248
              Bcc     0.0000     0.000     0.000     0.000 -0.5800  0.8143  0.0229
 
              Baa    -0.0000    -0.000    -0.000    -0.000  0.3667  0.9282  0.0632
    24 H(1)   Bbb     0.0000     0.000     0.000     0.000 -0.0710 -0.0399  0.9967
              Bcc     0.0000     0.000     0.000     0.000  0.9276 -0.3700  0.0513
 
              Baa    -0.0000    -0.000    -0.000    -0.000  0.4674 -0.1197  0.8759
    25 H(1)   Bbb     0.0000     0.000     0.000     0.000 -0.2986  0.9112  0.2839
              Bcc     0.0000     0.000     0.000     0.000  0.8321  0.3942 -0.3902
 
              Baa    -0.0000    -0.000    -0.000    -0.000 -0.0626  0.9843 -0.1653
    26 C(13)  Bbb     0.0000     0.000     0.000     0.000  0.7949  0.1493  0.5881
              Bcc     0.0000     0.000     0.000     0.000 -0.6035  0.0946  0.7917
 
              Baa    -0.0000    -0.000    -0.000    -0.000 -0.1437  0.3465  0.9270
    27 H(1)   Bbb    -0.0000    -0.000    -0.000    -0.000  0.8416  0.5356 -0.0698
              Bcc     0.0000     0.000     0.000     0.000 -0.5207  0.7701 -0.3686
 
              Baa    -0.0000    -0.000    -0.000    -0.000  0.7896 -0.6128 -0.0308
    28 H(1)   Bbb    -0.0000    -0.000    -0.000    -0.000  0.4922  0.6626 -0.5645
              Bcc     0.0000     0.000     0.000     0.000  0.3663  0.4306  0.8248
 

 ---------------------------------------------------------------------------------

 No NMR shielding tensors so no spin-rotation constants.
 Leave Link  601 at Tue Aug  4 09:18:33 2020, MaxMem=  6442450944 cpu:               7.9 elap:               0.4
 (Enter /scratch/scicomp/CentOS/7.3.1611/Haswell/software/Gaussian/g16/l9999.exe)
 1\1\GINC-ATLAS-205\SP\UwB97XD\def2TZVP\C12H16\BOCHEN\04-Aug-2020\0\\#p
  uwb97xd guess=mix def2tzvp # scrf=(iefpcm,solvent=Cyclohexane,read) n
 osym 6d 10f\\endo-2 xp-pcm for eta=3\\0,1\C,0,-3.121693,-0.437935,0.24
 8475\C,0,-0.608894,-0.218266,-1.036985\H,0,-4.085054,-0.548156,0.73278
 9\H,0,0.360308,-0.124712,-1.506593\C,0,1.099596,1.410984,0.705395\C,0,
 0.608894,0.218266,1.036985\H,0,0.514105,2.311092,0.843328\H,0,-0.36030
 8,0.124712,1.506593\C,0,1.483411,-1.000688,1.011498\H,0,1.950917,-1.04
 7718,2.003099\H,0,0.89193,-1.909281,0.91402\C,0,2.4259,1.517947,0.1090
 41\H,0,2.834101,2.505963,-0.067907\C,0,3.121693,0.437935,-0.248475\H,0
 ,4.085054,0.548156,-0.732789\C,0,2.590248,-0.95486,-0.045775\H,0,2.235
 992,-1.344838,-1.008028\H,0,3.400959,-1.621706,0.255233\C,0,-1.099596,
 -1.410984,-0.705395\H,0,-0.514105,-2.311092,-0.843328\C,0,-2.4259,-1.5
 17947,-0.109041\H,0,-2.834101,-2.505963,0.067907\C,0,-1.483411,1.00068
 8,-1.011498\H,0,-0.891929,1.909281,-0.91402\H,0,-1.950917,1.047718,-2.
 003099\C,0,-2.590248,0.95486,0.045775\H,0,-3.400959,1.621706,-0.255234
 \H,0,-2.235992,1.344838,1.008028\\Version=ES64L-G16RevB.01\HF=-466.791
 7867\S2=0.\S2-1=0.\S2A=0.\RMSD=4.975e-09\Dipole=0.0002853,-0.0001909,-
 0.0015202\Quadrupole=0.8619396,2.3292833,-3.191223,-2.5264871,-2.46652
 96,-1.1309435\PG=CI [X(C12H16)]\\@


 KNOWING HOW CONTENTED, FREE, AND JOYFUL IS LIFE IN
 THE REALMS OF SCIENCE, ONE FERVENTLY WISHES THAT
 MANY WOULD ENTER HER PORTALS.
   --  DMITRI IVANOVICH MENDELEEV
 "FIRST PRINCIPLES OF CHEMISTRY", LONGMANS, GREEN,
 AND CO.  LONDON, 1891
 Job cpu time:       0 days  2 hours 16 minutes  5.2 seconds.
 Elapsed time:       0 days  0 hours  5 minutes 43.4 seconds.
 File lengths (MBytes):  RWF=    621 Int=      0 D2E=      0 Chk=     24 Scr=      1
 Normal termination of Gaussian 16 at Tue Aug  4 09:18:33 2020.
