 Entering Gaussian System, Link 0=g16
 Input=meso-TS_34_2_pcm.com
 Output=meso-TS_34_2_pcm.log
 Initial command:
 /scratch/scicomp/CentOS/7.3.1611/Haswell/software/Gaussian/g16/l1.exe "/scratch/bochen/cyclohexadiene-dimerization/wb97xd-def2tzvp/xp-pcm/meso/Gau-33319.inp" -scrdir="/scratch/bochen/cyclohexadiene-dimerization/wb97xd-def2tzvp/xp-pcm/meso/"
 Entering Link 1 = /scratch/scicomp/CentOS/7.3.1611/Haswell/software/Gaussian/g16/l1.exe PID=     33323.
  
 Copyright (c) 1988-2017, Gaussian, Inc.  All Rights Reserved.
  
 This is part of the Gaussian(R) 16 program.  It is based on
 the Gaussian(R) 09 system (copyright 2009, Gaussian, Inc.),
 the Gaussian(R) 03 system (copyright 2003, Gaussian, Inc.),
 the Gaussian(R) 98 system (copyright 1998, Gaussian, Inc.),
 the Gaussian(R) 94 system (copyright 1995, Gaussian, Inc.),
 the Gaussian 92(TM) system (copyright 1992, Gaussian, Inc.),
 the Gaussian 90(TM) system (copyright 1990, Gaussian, Inc.),
 the Gaussian 88(TM) system (copyright 1988, Gaussian, Inc.),
 the Gaussian 86(TM) system (copyright 1986, Carnegie Mellon
 University), and the Gaussian 82(TM) system (copyright 1983,
 Carnegie Mellon University). Gaussian is a federally registered
 trademark of Gaussian, Inc.
  
 This software contains proprietary and confidential information,
 including trade secrets, belonging to Gaussian, Inc.
  
 This software is provided under written license and may be
 used, copied, transmitted, or stored only in accord with that
 written license.
  
 The following legend is applicable only to US Government
 contracts under FAR:
  
                    RESTRICTED RIGHTS LEGEND
  
 Use, reproduction and disclosure by the US Government is
 subject to restrictions as set forth in subparagraphs (a)
 and (c) of the Commercial Computer Software - Restricted
 Rights clause in FAR 52.227-19.
  
 Gaussian, Inc.
 340 Quinnipiac St., Bldg. 40, Wallingford CT 06492
  
  
 ---------------------------------------------------------------
 Warning -- This program may not be used in any manner that
 competes with the business of Gaussian, Inc. or will provide
 assistance to any competitor of Gaussian, Inc.  The licensee
 of this program is prohibited from giving any competitor of
 Gaussian, Inc. access to this program.  By using this program,
 the user acknowledges that Gaussian, Inc. is engaged in the
 business of creating and licensing software in the field of
 computational chemistry and represents and warrants to the
 licensee that it is not a competitor of Gaussian, Inc. and that
 it will not use this program in any manner prohibited above.
 ---------------------------------------------------------------
  

 Cite this work as:
 Gaussian 16, Revision B.01,
 M. J. Frisch, G. W. Trucks, H. B. Schlegel, G. E. Scuseria, 
 M. A. Robb, J. R. Cheeseman, G. Scalmani, V. Barone, 
 G. A. Petersson, H. Nakatsuji, X. Li, M. Caricato, A. V. Marenich, 
 J. Bloino, B. G. Janesko, R. Gomperts, B. Mennucci, H. P. Hratchian, 
 J. V. Ortiz, A. F. Izmaylov, J. L. Sonnenberg, D. Williams-Young, 
 F. Ding, F. Lipparini, F. Egidi, J. Goings, B. Peng, A. Petrone, 
 T. Henderson, D. Ranasinghe, V. G. Zakrzewski, J. Gao, N. Rega, 
 G. Zheng, W. Liang, M. Hada, M. Ehara, K. Toyota, R. Fukuda, 
 J. Hasegawa, M. Ishida, T. Nakajima, Y. Honda, O. Kitao, H. Nakai, 
 T. Vreven, K. Throssell, J. A. Montgomery, Jr., J. E. Peralta, 
 F. Ogliaro, M. J. Bearpark, J. J. Heyd, E. N. Brothers, K. N. Kudin, 
 V. N. Staroverov, T. A. Keith, R. Kobayashi, J. Normand, 
 K. Raghavachari, A. P. Rendell, J. C. Burant, S. S. Iyengar, 
 J. Tomasi, M. Cossi, J. M. Millam, M. Klene, C. Adamo, R. Cammi, 
 J. W. Ochterski, R. L. Martin, K. Morokuma, O. Farkas, 
 J. B. Foresman, and D. J. Fox, Gaussian, Inc., Wallingford CT, 2016.
 
 ******************************************
 Gaussian 16:  ES64L-G16RevB.01 20-Dec-2017
                 3-Aug-2020 
 ******************************************
 %nproc=24
 Will use up to   24 processors via shared memory.
 %mem=48GB
 ----------------------------------------------------------------------
 #p uwb97xd guess=mix def2tzvp # scrf=(iefpcm,solvent=Cyclohexane,read)
  nosym 6d 10f
 ----------------------------------------------------------------------
 1/38=1,40=2,172=1/1;
 2/12=2,15=1,17=6,18=5,40=1/2;
 3/5=44,7=101,8=22,11=2,25=1,30=1,70=2203,72=17,74=-58,116=2/1,2,3;
 4/13=-1/1;
 5/5=2,38=5,53=17/2;
 6/7=2,8=2,9=2,10=2,28=1/1;
 99/5=1,9=1/99;
 Leave Link    1 at Mon Aug  3 15:10:28 2020, MaxMem=  6442450944 cpu:               1.7 elap:               0.1
 (Enter /scratch/scicomp/CentOS/7.3.1611/Haswell/software/Gaussian/g16/l101.exe)
 -----------------------
 endo-2 xp-pcm for eta=3
 -----------------------
 Symbolic Z-matrix:
 Charge =  0 Multiplicity = 1
 6                    -3.1254   -0.44001   0.25208 
 6                    -0.65984  -0.23375  -1.12638 
 1                    -4.0842   -0.54329   0.74694 
 1                     0.30874  -0.14223  -1.59997 
 6                     1.12266   1.41712   0.73456 
 6                     0.65984   0.23375   1.12638 
 1                     0.53029   2.31465   0.8625 
 1                    -0.30874   0.14223   1.59997 
 6                     1.51058  -1.00068   1.04895 
 1                     1.99819  -1.10621   2.02633 
 1                     0.8883   -1.88631   0.92853 
 6                     2.43683   1.52333   0.10525 
 1                     2.84201   2.51025  -0.08409 
 6                     3.1254    0.44001  -0.25208 
 1                     4.0842    0.54329  -0.74694 
 6                     2.58587  -0.94855  -0.04222 
 1                     2.19129  -1.31899  -0.99644 
 1                     3.3991   -1.62877   0.21891 
 6                    -1.12266  -1.41712  -0.73456 
 1                    -0.53029  -2.31465  -0.8625 
 6                    -2.43683  -1.52333  -0.10525 
 1                    -2.84201  -2.51025   0.08409 
 6                    -1.51058   1.00068  -1.04895 
 1                    -0.8883    1.88631  -0.92853 
 1                    -1.99819   1.10621  -2.02633 
 6                    -2.58587   0.94855   0.04222 
 1                    -3.3991    1.62877  -0.21891 
 1                    -2.19129   1.31899   0.99644 
 
 ITRead=  0  0  0  0  0  0  0  0  0  0  0  0  0  0  0  0  0  0  0  0
 ITRead=  0  0  0  0  0  0  0  0
 MicOpt= -1 -1 -1 -1 -1 -1 -1 -1 -1 -1 -1 -1 -1 -1 -1 -1 -1 -1 -1 -1
 MicOpt= -1 -1 -1 -1 -1 -1 -1 -1
 NAtoms=     28 NQM=       28 NQMF=       0 NMMI=      0 NMMIF=      0
                NMic=       0 NMicF=      0.
                    Isotopes and Nuclear Properties:
 (Nuclear quadrupole moments (NQMom) in fm**2, nuclear magnetic moments (NMagM)
  in nuclear magnetons)

  Atom         1           2           3           4           5           6           7           8           9          10
 IAtWgt=          12          12           1           1          12          12           1           1          12           1
 AtmWgt=  12.0000000  12.0000000   1.0078250   1.0078250  12.0000000  12.0000000   1.0078250   1.0078250  12.0000000   1.0078250
 NucSpn=           0           0           1           1           0           0           1           1           0           1
 AtZEff=  -0.0000000  -0.0000000  -0.0000000  -0.0000000  -0.0000000  -0.0000000  -0.0000000  -0.0000000  -0.0000000  -0.0000000
 NQMom=    0.0000000   0.0000000   0.0000000   0.0000000   0.0000000   0.0000000   0.0000000   0.0000000   0.0000000   0.0000000
 NMagM=    0.0000000   0.0000000   2.7928460   2.7928460   0.0000000   0.0000000   2.7928460   2.7928460   0.0000000   2.7928460
 AtZNuc=   6.0000000   6.0000000   1.0000000   1.0000000   6.0000000   6.0000000   1.0000000   1.0000000   6.0000000   1.0000000

  Atom        11          12          13          14          15          16          17          18          19          20
 IAtWgt=           1          12           1          12           1          12           1           1          12           1
 AtmWgt=   1.0078250  12.0000000   1.0078250  12.0000000   1.0078250  12.0000000   1.0078250   1.0078250  12.0000000   1.0078250
 NucSpn=           1           0           1           0           1           0           1           1           0           1
 AtZEff=  -0.0000000  -0.0000000  -0.0000000  -0.0000000  -0.0000000  -0.0000000  -0.0000000  -0.0000000  -0.0000000  -0.0000000
 NQMom=    0.0000000   0.0000000   0.0000000   0.0000000   0.0000000   0.0000000   0.0000000   0.0000000   0.0000000   0.0000000
 NMagM=    2.7928460   0.0000000   2.7928460   0.0000000   2.7928460   0.0000000   2.7928460   2.7928460   0.0000000   2.7928460
 AtZNuc=   1.0000000   6.0000000   1.0000000   6.0000000   1.0000000   6.0000000   1.0000000   1.0000000   6.0000000   1.0000000

  Atom        21          22          23          24          25          26          27          28
 IAtWgt=          12           1          12           1           1          12           1           1
 AtmWgt=  12.0000000   1.0078250  12.0000000   1.0078250   1.0078250  12.0000000   1.0078250   1.0078250
 NucSpn=           0           1           0           1           1           0           1           1
 AtZEff=  -0.0000000  -0.0000000  -0.0000000  -0.0000000  -0.0000000  -0.0000000  -0.0000000  -0.0000000
 NQMom=    0.0000000   0.0000000   0.0000000   0.0000000   0.0000000   0.0000000   0.0000000   0.0000000
 NMagM=    0.0000000   2.7928460   0.0000000   2.7928460   2.7928460   0.0000000   2.7928460   2.7928460
 AtZNuc=   6.0000000   1.0000000   6.0000000   1.0000000   1.0000000   6.0000000   1.0000000   1.0000000
 Leave Link  101 at Mon Aug  3 15:10:29 2020, MaxMem=  6442450944 cpu:               2.4 elap:               0.1
 (Enter /scratch/scicomp/CentOS/7.3.1611/Haswell/software/Gaussian/g16/l202.exe)
                          Input orientation:                          
 ---------------------------------------------------------------------
 Center     Atomic      Atomic             Coordinates (Angstroms)
 Number     Number       Type             X           Y           Z
 ---------------------------------------------------------------------
      1          6           0       -3.125400   -0.440005    0.252083
      2          6           0       -0.659840   -0.233754   -1.126379
      3          1           0       -4.084200   -0.543289    0.746935
      4          1           0        0.308739   -0.142233   -1.599972
      5          6           0        1.122664    1.417123    0.734560
      6          6           0        0.659840    0.233754    1.126379
      7          1           0        0.530286    2.314651    0.862502
      8          1           0       -0.308739    0.142233    1.599972
      9          6           0        1.510582   -1.000676    1.048954
     10          1           0        1.998188   -1.106214    2.026331
     11          1           0        0.888300   -1.886305    0.928530
     12          6           0        2.436831    1.523333    0.105247
     13          1           0        2.842008    2.510246   -0.084086
     14          6           0        3.125400    0.440005   -0.252083
     15          1           0        4.084200    0.543289   -0.746935
     16          6           0        2.585867   -0.948552   -0.042215
     17          1           0        2.191291   -1.318993   -0.996443
     18          1           0        3.399102   -1.628770    0.218906
     19          6           0       -1.122664   -1.417123   -0.734560
     20          1           0       -0.530286   -2.314651   -0.862502
     21          6           0       -2.436831   -1.523333   -0.105247
     22          1           0       -2.842008   -2.510246    0.084086
     23          6           0       -1.510582    1.000676   -1.048954
     24          1           0       -0.888300    1.886305   -0.928530
     25          1           0       -1.998187    1.106214   -2.026331
     26          6           0       -2.585867    0.948552    0.042215
     27          1           0       -3.399102    1.628770   -0.218906
     28          1           0       -2.191291    1.318993    0.996443
 ---------------------------------------------------------------------
                    Distance matrix (angstroms):
                    1          2          3          4          5
     1  C    0.000000
     2  C    2.832258   0.000000
     3  H    1.083902   3.915528   0.000000
     4  H    3.913066   1.082041   4.996672   0.000000
     5  C    4.661304   3.060361   5.563704   2.923030   0.000000
     6  C    3.942891   2.652365   4.822208   2.774460   1.329696
     7  H    4.617876   3.444766   5.429057   3.485562   1.082976
     8  H    3.176379   2.774460   3.930867   3.271367   2.103140
     9  C    4.737266   3.167171   5.621566   3.032847   2.468821
    10  H    5.462870   4.214959   6.240928   4.115042   2.966891
    11  H    4.319624   3.057828   5.153875   3.125860   3.317407
    12  C    5.900396   3.767443   6.870701   3.195412   1.460942
    13  H    6.665354   4.569338   7.614921   3.968754   2.195733
    14  C    6.332543   3.942891   7.344606   3.176379   2.437042
    15  H    7.344606   4.822208   8.374668   3.930867   3.424779
    16  C    5.741411   3.495849   6.728803   2.874382   2.888038
    17  H    5.531604   3.053453   6.559182   2.300655   3.409496
    18  H    6.631997   4.497874   7.580032   3.881811   3.837386
    19  C    2.437042   1.329696   3.424779   2.103140   3.902917
    20  H    3.389869   2.101558   4.284660   2.442790   4.382806
    21  C    1.332446   2.421450   2.097743   3.417571   4.692714
    22  H    2.096290   3.377795   2.418952   4.286111   5.618360
    23  C    2.525054   1.501191   3.497507   2.218060   3.207543
    24  H    3.436594   2.141492   4.350159   2.449225   2.651410
    25  H    2.975327   2.096807   3.842306   2.657501   4.178384
    26  C    1.504404   2.544217   2.228726   3.502190   3.801592
    27  H    2.139293   3.434539   2.473873   4.334960   4.626041
    28  H    2.126195   3.043475   2.667106   3.889306   3.325734
                    6          7          8          9         10
     6  C    0.000000
     7  H    2.101558   0.000000
     8  H    1.082041   2.442790   0.000000
     9  C    1.501191   3.462245   2.218060   0.000000
    10  H    2.096808   3.900199   2.657501   1.097344   0.000000
    11  H    2.141492   4.216701   2.449225   1.089071   1.745153
    12  C    2.421450   2.198757   3.417571   2.849411   3.285953
    13  H    3.377795   2.505663   4.286111   3.922123   4.271379
    14  C    2.832258   3.389869   3.913066   2.525054   2.975327
    15  H    3.915528   4.284660   4.996672   3.497507   3.842305
    16  C    2.544217   3.961366   3.502190   1.532842   2.156179
    17  H    3.043475   4.406584   3.889306   2.179068   3.036400
    18  H    3.434539   4.918830   4.334960   2.156383   2.345722
    19  C    3.060361   4.382806   2.923030   3.207543   4.178385
    20  H    3.444766   5.052810   3.485562   3.089553   4.024780
    21  C    3.767443   4.946761   3.195412   4.145771   4.938320
    22  H    4.569338   5.937839   3.968754   4.706890   5.401029
    23  C    3.167171   3.089553   3.032847   4.187369   5.119358
    24  H    3.057828   2.324578   3.125860   4.242610   5.100803
    25  H    4.214958   4.024780   4.115042   5.119358   6.106547
    26  C    3.495849   3.499930   2.874382   4.646925   5.401142
    27  H    4.497874   4.132792   3.881811   5.711957   6.453833
    28  H    3.053453   2.901078   2.300655   4.368923   4.949145
                   11         12         13         14         15
    11  H    0.000000
    12  C    3.834237   0.000000
    13  H    4.916506   1.083519   0.000000
    14  C    3.436594   1.332446   2.096290   0.000000
    15  H    4.350159   2.097743   2.418952   1.083902   0.000000
    16  C    2.168746   2.480760   3.468522   1.504404   2.228726
    17  H    2.392728   3.058239   3.989850   2.126195   2.667106
    18  H    2.621835   3.297671   4.187316   2.139293   2.473873
    19  C    2.651410   4.692714   5.618360   4.661304   5.563704
    20  H    2.324578   4.946761   5.937839   4.617876   5.429057
    21  C    3.500991   5.751440   6.643519   5.900396   6.870701
    22  H    3.875253   6.643519   7.585622   6.665354   7.614921
    23  C    4.242610   4.145771   4.706890   4.737266   5.621566
    24  H    4.564818   3.500991   3.875253   4.319624   5.153875
    25  H    5.100802   4.938319   5.401029   5.462869   6.240927
    26  C    4.570755   5.055872   5.649484   5.741411   6.728803
    27  H    5.661641   5.845879   6.304493   6.631997   7.580032
    28  H    4.445495   4.717573   5.284007   5.531604   6.559182
                   16         17         18         19         20
    16  C    0.000000
    17  H    1.097027   0.000000
    18  H    1.091894   1.741219   0.000000
    19  C    3.801592   3.325734   4.626041   0.000000
    20  H    3.499930   2.901078   4.132792   1.082976   0.000000
    21  C    5.055872   4.717573   5.845879   1.460942   2.198757
    22  H    5.649484   5.284007   6.304493   2.195733   2.505663
    23  C    4.646925   4.368923   5.711957   2.468821   3.462245
    24  H    4.570755   4.445495   5.661641   3.317407   4.216701
    25  H    5.401142   4.949144   6.453833   2.966891   3.900199
    26  C    5.509352   5.389045   6.518716   2.888038   3.961366
    27  H    6.518716   6.367603   7.551081   3.837386   4.918830
    28  H    5.389045   5.489771   6.367603   3.409496   4.406584
                   21         22         23         24         25
    21  C    0.000000
    22  H    1.083519   0.000000
    23  C    2.849411   3.922123   0.000000
    24  H    3.834237   4.916506   1.089071   0.000000
    25  H    3.285953   4.271379   1.097343   1.745153   0.000000
    26  C    2.480760   3.468522   1.532842   2.168746   2.156179
    27  H    3.297671   4.187316   2.156383   2.621835   2.345722
    28  H    3.058239   3.989850   2.179068   2.392728   3.036400
                   26         27         28
    26  C    0.000000
    27  H    1.091894   0.000000
    28  H    1.097027   1.741219   0.000000
 Symmetry turned off by external request.
 Stoichiometry    C12H16
 Framework group  CI[X(C12H16)]
 Deg. of freedom    39
 Full point group                 CI      NOp   2
 Rotational constants (GHZ):           1.8309195           0.6121209           0.5434251
 Leave Link  202 at Mon Aug  3 15:10:29 2020, MaxMem=  6442450944 cpu:               0.3 elap:               0.0
 (Enter /scratch/scicomp/CentOS/7.3.1611/Haswell/software/Gaussian/g16/l301.exe)
 Standard basis: def2TZVP (6D, 10F)
 Ernie: Thresh=  0.10000D-02 Tol=  0.10000D-05 Strict=F.
   528 basis functions,   740 primitive gaussians,   528 cartesian basis functions
    44 alpha electrons       44 beta electrons
       nuclear repulsion energy       682.5226214968 Hartrees.
 IExCor= 4639 DFT=T Ex+Corr=wB97XD ExCW=0 ScaHFX=  1.000000
 ScaDFX=  1.000000  1.000000  1.000000  1.000000 ScalE2=  1.000000  1.000000
 IRadAn=      5 IRanWt=     -1 IRanGd=            0 ICorTp=0 IEmpDi=121
 HFx  wShort=  0.000000 wLong=  0.200000 cFull=  0.222036 cShort=  0.000000 cLong=  0.777964
 DFx  wShort=  0.000000 wLong=  0.200000 cFull=  0.000000 cShort=  0.000000 cLong=  1.000000
 NAtoms=   28 NActive=   28 NUniq=   28 SFac= 1.00D+00 NAtFMM=   60 NAOKFM=F Big=F
 Integral buffers will be    131072 words long.
 Raffenetti 2 integral format.
 Two-electron integral symmetry is turned off.
 R6Disp:  Grimme-D2 Dispersion energy=       -0.0227943531 Hartrees.
 Nuclear repulsion after empirical dispersion term =      682.4998271437 Hartrees.
 Using the following non-standard input for PCM:
 norep pcmdoc geomview  nodis nocav g03defaults tsare=0.075
 Warning! Using old PCM defaults because the g03defaults keyword was found.
 These settings can be overridden by following keywords.
 nsfe=28
 NVESolv=36  SolvMW=84.1595   Rsolv=2.815
 eps=2.0165 RhoS=0.7781
 --- end of non-standard input.
 Reading user-defined spheres from input:
 ISph  on   Nord    Re0     Alpha      Xe            Ye            Ze
 --- end of user-defined spheres data.
 ------------------------------------------------------------------------------
 Polarizable Continuum Model (PCM)
 =================================
 Model                : PCM.
 Atomic radii         : UA0 (Simple United Atom Topological Model).
 Polarization charges : Total charges.
 Charge compensation  : None.
 Solution method      : On-the-fly selection.
 Cavity type          : SES (Solvent Excluding Surface) (Alpha=1.000).
 Cavity algorithm     : GePol (RMin=0.200 OFac=0.890).
                        User-defined sphere list used, NSphG=   28.
                        Tesserae with average area of 0.075 Ang**2.
                        Smoothing algorithm: None.
                        Polarization charges: point-like.
                        Self-potential: constant (ISelfS= 1).
                        Self-field    : global E.n sum rule (ISelfD= 3).
 Solvent              : CycloHexane, Eps=   2.016500 Eps(inf)=   2.035188
                        RSolv=   2.815000 Ang.
 ------------------------------------------------------------------------------
 GePol: Number of generator spheres                  =      28
 GePol: Total number of spheres                      =     191
 GePol: Number of exposed spheres                    =     138 ( 72.25%)
 GePol: Number of tesserae                           =    4714
 GePol: Average area of tesserae                     =       0.05 Ang**2
 GePol: Minimum area of tessera                      =   0.10D-02 Ang**2
 GePol: Maximum area of tessera                      =    0.12395 Ang**2
 GePol: Number of small tesserae                     =       0
 GePol: Fraction of small tesserae (<1% of avg)      =       0.00%
 GePol: Total count of vertices                      =   16733
 GePol: Maximum number of vertices in a tessera      =       7
 GePol: Cavity surface area                          =    220.126 Ang**2
 GePol: Cavity volume                                =    249.097 Ang**3
 Leave Link  301 at Mon Aug  3 15:10:29 2020, MaxMem=  6442450944 cpu:               8.3 elap:               0.4
 (Enter /scratch/scicomp/CentOS/7.3.1611/Haswell/software/Gaussian/g16/l302.exe)
 NPDir=0 NMtPBC=     1 NCelOv=     1 NCel=       1 NClECP=     1 NCelD=      1
         NCelK=      1 NCelE2=     1 NClLst=     1 CellRange=     0.0.
 One-electron integrals computed using PRISM.
   1 Symmetry operations used in ECPInt.
 ECPInt:  NShTT=   19306 NPrTT=   56928 LenC2=   18500 LenP2D=   42068.
 LDataN:  DoStor=T MaxTD1= 6 Len=  172
 NBasis=   528 RedAO= T EigKep=  1.77D-05  NBF=   528
 NBsUse=   528 1.00D-06 EigRej= -1.00D+00 NBFU=   528
 Precomputing XC quadrature grid using
 IXCGrd= 4 IRadAn=           5 IRanWt=          -1 IRanGd=           0 AccXCQ= 0.00D+00.
 Generated NRdTot=       0 NPtTot=           0 NUsed=           0 NTot=          32
 NSgBfM=   526   526   526   526   526 MxSgAt=    28 MxSgA2=    28.
 Leave Link  302 at Mon Aug  3 15:10:30 2020, MaxMem=  6442450944 cpu:              12.7 elap:               0.6
 (Enter /scratch/scicomp/CentOS/7.3.1611/Haswell/software/Gaussian/g16/l303.exe)
 DipDrv:  MaxL=1.
 Leave Link  303 at Mon Aug  3 15:10:30 2020, MaxMem=  6442450944 cpu:               1.5 elap:               0.1
 (Enter /scratch/scicomp/CentOS/7.3.1611/Haswell/software/Gaussian/g16/l401.exe)
 ExpMin= 9.52D-02 ExpMax= 1.36D+04 ExpMxC= 4.63D+02 IAcc=3 IRadAn=         5 AccDes= 0.00D+00
 Harris functional with IExCor= 4639 and IRadAn=       5 diagonalized for initial guess.
 HarFok:  IExCor= 4639 AccDes= 0.00D+00 IRadAn=         5 IDoV= 1 UseB2=F ITyADJ=14
 ICtDFT=  3500011 ScaDFX=  1.000000  1.000000  1.000000  1.000000
 FoFCou: FMM=F IPFlag=           0 FMFlag=      100000 FMFlg1=           0
         NFxFlg=           0 DoJE=T BraDBF=F KetDBF=T FulRan=T
         wScrn=  0.000000 ICntrl=       500 IOpCl=  0 I1Cent=   200000004 NGrid=           0
         NMat0=    1 NMatS0=      1 NMatT0=    0 NMatD0=    1 NMtDS0=    0 NMtDT0=    0
 Symmetry not used in FoFCou.
 Harris En= -444.648011425704    
 JPrj=0 DoOrth=F DoCkMO=T.
 Mixing orbitals, IMix= 1 IMixAn=  0 NRI=1 NE=   44 Coef=  7.07106781D-01  7.07106781D-01
 Mixing orbitals, IMix= 1 IMixAn=  0 NRI=1 NE=   44 Coef= -7.07106781D-01  7.07106781D-01
 Initial guess <Sx>= 0.0000 <Sy>= 0.0000 <Sz>= 0.0000 <S**2>= 1.0000 S= 0.6180
 Leave Link  401 at Mon Aug  3 15:10:32 2020, MaxMem=  6442450944 cpu:              49.4 elap:               2.1
 (Enter /scratch/scicomp/CentOS/7.3.1611/Haswell/software/Gaussian/g16/l502.exe)
 Two-electron integral symmetry not used.
 UHF open shell SCF:
 Using DIIS extrapolation, IDIIS=  1040.
 NGot=  6442450944 LenX=  6441877030 LenY=  6441597718
 Requested convergence on RMS density matrix=1.00D-08 within 128 cycles.
 Requested convergence on MAX density matrix=1.00D-06.
 Requested convergence on             energy=1.00D-06.
 No special actions if energy rises.
 Fock matrices will be formed incrementally for  20 cycles.

 Cycle   1  Pass 1  IDiag  1:
 FoFJK:  IHMeth= 1 ICntrl=       0 DoSepK=T KAlg= 0 I1Cent=           0 FoldK=F
 IRaf=         1 NMat=       1 IRICut=       1 DoRegI=T DoRafI=F ISym2E= 0 IDoP0=0 IntGTp=1.
 FoFCou: FMM=F IPFlag=           0 FMFlag=      100000 FMFlg1=           0
         NFxFlg=           0 DoJE=T BraDBF=F KetDBF=F FulRan=T
         wScrn=  0.000000 ICntrl=       500 IOpCl=  0 I1Cent=           0 NGrid=           0
         NMat0=    1 NMatS0=      1 NMatT0=    0 NMatD0=    1 NMtDS0=    0 NMtDT0=    0
 Symmetry not used in FoFCou.
 Inv3:  Mode=1 IEnd=    66665388.
 Iteration    1 A*A^-1 deviation from unit magnitude is 1.95D-14 for     86.
 Iteration    1 A*A^-1 deviation from orthogonality  is 1.61D-14 for    296     86.
 Iteration    1 A^-1*A deviation from unit magnitude is 2.40D-14 for     86.
 Iteration    1 A^-1*A deviation from orthogonality  is 9.89D-15 for    296     86.
 E= -466.585012692757    
 DIIS: error= 5.48D-02 at cycle   1 NSaved=   1.
 NSaved= 1 IEnMin= 1 EnMin= -466.585012692757     IErMin= 1 ErrMin= 5.48D-02
 ErrMax= 5.48D-02  0.00D+00 EMaxC= 1.00D-01 BMatC= 4.11D+00 BMatP= 4.11D+00
 IDIUse=3 WtCom= 4.52D-01 WtEn= 5.48D-01
 Coeff-Com:  0.100D+01
 Coeff-En:   0.100D+01
 Coeff:      0.100D+01
 Gap=     0.185 Goal=   None    Shift=    0.000
 Gap=     0.185 Goal=   None    Shift=    0.000
 GapD=    0.185 DampG=1.000 DampE=0.500 DampFc=0.5000 IDamp=-1.
 Damping current iteration by 5.00D-01
 RMSDP=1.62D-03 MaxDP=9.22D-02              OVMax= 3.26D-01

 Cycle   2  Pass 1  IDiag  1:
 RMSU=  7.82D-04    CP:  9.66D-01
 E= -466.691446979874     Delta-E=       -0.106434287117 Rises=F Damp=T
 DIIS: error= 2.60D-02 at cycle   2 NSaved=   2.
 NSaved= 2 IEnMin= 2 EnMin= -466.691446979874     IErMin= 2 ErrMin= 2.60D-02
 ErrMax= 2.60D-02  0.00D+00 EMaxC= 1.00D-01 BMatC= 9.34D-01 BMatP= 4.11D+00
 IDIUse=3 WtCom= 7.40D-01 WtEn= 2.60D-01
 Coeff-Com: -0.867D+00 0.187D+01
 Coeff-En:   0.000D+00 0.100D+01
 Coeff:     -0.642D+00 0.164D+01
 Gap=     0.268 Goal=   None    Shift=    0.000
 Gap=     0.268 Goal=   None    Shift=    0.000
 RMSDP=1.15D-03 MaxDP=5.02D-02 DE=-1.06D-01 OVMax= 1.37D-01

 Cycle   3  Pass 1  IDiag  1:
 RMSU=  6.32D-04    CP:  9.16D-01  2.17D+00
 E= -466.828883813560     Delta-E=       -0.137436833686 Rises=F Damp=F
 DIIS: error= 7.69D-03 at cycle   3 NSaved=   3.
 NSaved= 3 IEnMin= 3 EnMin= -466.828883813560     IErMin= 3 ErrMin= 7.69D-03
 ErrMax= 7.69D-03  0.00D+00 EMaxC= 1.00D-01 BMatC= 2.41D-02 BMatP= 9.34D-01
 IDIUse=3 WtCom= 9.23D-01 WtEn= 7.69D-02
 Coeff-Com: -0.315D+00 0.677D+00 0.638D+00
 Coeff-En:   0.000D+00 0.000D+00 0.100D+01
 Coeff:     -0.291D+00 0.625D+00 0.666D+00
 Gap=     0.289 Goal=   None    Shift=    0.000
 Gap=     0.289 Goal=   None    Shift=    0.000
 RMSDP=2.37D-04 MaxDP=1.25D-02 DE=-1.37D-01 OVMax= 6.68D-02

 Cycle   4  Pass 1  IDiag  1:
 RMSU=  2.16D-04    CP:  9.08D-01  2.27D+00  9.88D-01
 E= -466.839986813039     Delta-E=       -0.011102999479 Rises=F Damp=F
 DIIS: error= 5.18D-03 at cycle   4 NSaved=   4.
 NSaved= 4 IEnMin= 4 EnMin= -466.839986813039     IErMin= 4 ErrMin= 5.18D-03
 ErrMax= 5.18D-03  0.00D+00 EMaxC= 1.00D-01 BMatC= 2.18D-03 BMatP= 2.41D-02
 IDIUse=3 WtCom= 9.48D-01 WtEn= 5.18D-02
 Coeff-Com:  0.129D+00-0.277D+00-0.584D-01 0.121D+01
 Coeff-En:   0.000D+00 0.000D+00 0.000D+00 0.100D+01
 Coeff:      0.123D+00-0.262D+00-0.554D-01 0.120D+01
 Gap=     0.300 Goal=   None    Shift=    0.000
 Gap=     0.300 Goal=   None    Shift=    0.000
 RMSDP=2.28D-04 MaxDP=1.16D-02 DE=-1.11D-02 OVMax= 8.01D-02

 Cycle   5  Pass 1  IDiag  1:
 RMSU=  9.41D-05    CP:  9.01D-01  2.33D+00  1.22D+00  1.63D+00
 E= -466.844972415594     Delta-E=       -0.004985602555 Rises=F Damp=F
 DIIS: error= 2.58D-03 at cycle   5 NSaved=   5.
 NSaved= 5 IEnMin= 5 EnMin= -466.844972415594     IErMin= 5 ErrMin= 2.58D-03
 ErrMax= 2.58D-03  0.00D+00 EMaxC= 1.00D-01 BMatC= 1.02D-03 BMatP= 2.18D-03
 IDIUse=3 WtCom= 9.74D-01 WtEn= 2.58D-02
 Coeff-Com:  0.810D-01-0.174D+00-0.929D-01 0.456D+00 0.730D+00
 Coeff-En:   0.000D+00 0.000D+00 0.000D+00 0.000D+00 0.100D+01
 Coeff:      0.789D-01-0.170D+00-0.905D-01 0.444D+00 0.737D+00
 Gap=     0.303 Goal=   None    Shift=    0.000
 Gap=     0.303 Goal=   None    Shift=    0.000
 RMSDP=8.91D-05 MaxDP=4.11D-03 DE=-4.99D-03 OVMax= 3.21D-02

 Cycle   6  Pass 1  IDiag  1:
 RMSU=  3.47D-05    CP:  8.99D-01  2.34D+00  1.26D+00  1.93D+00  1.38D+00
 E= -466.846520742130     Delta-E=       -0.001548326536 Rises=F Damp=F
 DIIS: error= 1.85D-03 at cycle   6 NSaved=   6.
 NSaved= 6 IEnMin= 6 EnMin= -466.846520742130     IErMin= 6 ErrMin= 1.85D-03
 ErrMax= 1.85D-03  0.00D+00 EMaxC= 1.00D-01 BMatC= 5.54D-04 BMatP= 1.02D-03
 IDIUse=3 WtCom= 9.81D-01 WtEn= 1.85D-02
 Coeff-Com: -0.717D-01 0.154D+00 0.578D-01-0.521D+00-0.269D-02 0.138D+01
 Coeff-En:   0.000D+00 0.000D+00 0.000D+00 0.000D+00 0.000D+00 0.100D+01
 Coeff:     -0.704D-01 0.151D+00 0.567D-01-0.512D+00-0.264D-02 0.138D+01
 Gap=     0.299 Goal=   None    Shift=    0.000
 Gap=     0.299 Goal=   None    Shift=    0.000
 RMSDP=1.08D-04 MaxDP=4.11D-03 DE=-1.55D-03 OVMax= 4.03D-02

 Cycle   7  Pass 1  IDiag  1:
 RMSU=  3.29D-05    CP:  8.96D-01  2.34D+00  1.30D+00  2.23D+00  2.06D+00
                    CP:  2.11D+00
 E= -466.848218231460     Delta-E=       -0.001697489330 Rises=F Damp=F
 DIIS: error= 1.23D-03 at cycle   7 NSaved=   7.
 NSaved= 7 IEnMin= 7 EnMin= -466.848218231460     IErMin= 7 ErrMin= 1.23D-03
 ErrMax= 1.23D-03  0.00D+00 EMaxC= 1.00D-01 BMatC= 3.01D-04 BMatP= 5.54D-04
 IDIUse=3 WtCom= 9.88D-01 WtEn= 1.23D-02
 Coeff-Com: -0.251D-01 0.544D-01 0.471D-01 0.204D-01-0.580D+00-0.780D+00
 Coeff-Com:  0.226D+01
 Coeff-En:   0.000D+00 0.000D+00 0.000D+00 0.000D+00 0.000D+00 0.000D+00
 Coeff-En:   0.100D+01
 Coeff:     -0.248D-01 0.537D-01 0.465D-01 0.201D-01-0.572D+00-0.770D+00
 Coeff:      0.225D+01
 Gap=     0.299 Goal=   None    Shift=    0.000
 Gap=     0.299 Goal=   None    Shift=    0.000
 RMSDP=1.50D-04 MaxDP=7.14D-03 DE=-1.70D-03 OVMax= 5.70D-02

 Cycle   8  Pass 1  IDiag  1:
 RMSU=  4.70D-05    CP:  8.93D-01  2.34D+00  1.34D+00  2.58D+00  2.95D+00
                    CP:  3.00D+00  2.81D+00
 E= -466.849848945309     Delta-E=       -0.001630713849 Rises=F Damp=F
 DIIS: error= 5.08D-04 at cycle   8 NSaved=   8.
 NSaved= 8 IEnMin= 8 EnMin= -466.849848945309     IErMin= 8 ErrMin= 5.08D-04
 ErrMax= 5.08D-04  0.00D+00 EMaxC= 1.00D-01 BMatC= 9.30D-05 BMatP= 3.01D-04
 IDIUse=3 WtCom= 9.95D-01 WtEn= 5.08D-03
 Coeff-Com:  0.288D-01-0.619D-01-0.110D-01 0.306D+00-0.178D+00-0.991D+00
 Coeff-Com:  0.728D+00 0.118D+01
 Coeff-En:   0.000D+00 0.000D+00 0.000D+00 0.000D+00 0.000D+00 0.000D+00
 Coeff-En:   0.000D+00 0.100D+01
 Coeff:      0.287D-01-0.616D-01-0.109D-01 0.304D+00-0.177D+00-0.986D+00
 Coeff:      0.724D+00 0.118D+01
 Gap=     0.301 Goal=   None    Shift=    0.000
 Gap=     0.301 Goal=   None    Shift=    0.000
 RMSDP=8.59D-05 MaxDP=4.27D-03 DE=-1.63D-03 OVMax= 3.32D-02

 Cycle   9  Pass 1  IDiag  1:
 RMSU=  5.29D-05    CP:  8.92D-01  2.34D+00  1.36D+00  2.73D+00  3.00D+00
                    CP:  3.00D+00  3.00D+00  2.03D+00
 E= -466.850270617614     Delta-E=       -0.000421672305 Rises=F Damp=F
 DIIS: error= 1.82D-04 at cycle   9 NSaved=   9.
 NSaved= 9 IEnMin= 9 EnMin= -466.850270617614     IErMin= 9 ErrMin= 1.82D-04
 ErrMax= 1.82D-04  0.00D+00 EMaxC= 1.00D-01 BMatC= 1.97D-05 BMatP= 9.30D-05
 IDIUse=3 WtCom= 9.98D-01 WtEn= 1.82D-03
 Coeff-Com:  0.189D-01-0.408D-01-0.143D-01 0.139D+00 0.370D-01-0.291D+00
 Coeff-Com: -0.127D+00 0.460D+00 0.818D+00
 Coeff-En:   0.000D+00 0.000D+00 0.000D+00 0.000D+00 0.000D+00 0.000D+00
 Coeff-En:   0.000D+00 0.000D+00 0.100D+01
 Coeff:      0.189D-01-0.407D-01-0.143D-01 0.138D+00 0.369D-01-0.290D+00
 Coeff:     -0.127D+00 0.459D+00 0.819D+00
 Gap=     0.301 Goal=   None    Shift=    0.000
 Gap=     0.301 Goal=   None    Shift=    0.000
 RMSDP=2.53D-05 MaxDP=1.29D-03 DE=-4.22D-04 OVMax= 9.90D-03

 Cycle  10  Pass 1  IDiag  1:
 RMSU=  6.66D-06    CP:  8.91D-01  2.34D+00  1.37D+00  2.76D+00  3.00D+00
                    CP:  3.00D+00  3.00D+00  2.34D+00  1.33D+00
 E= -466.850315593010     Delta-E=       -0.000044975396 Rises=F Damp=F
 DIIS: error= 8.53D-05 at cycle  10 NSaved=  10.
 NSaved=10 IEnMin=10 EnMin= -466.850315593010     IErMin=10 ErrMin= 8.53D-05
 ErrMax= 8.53D-05  0.00D+00 EMaxC= 1.00D-01 BMatC= 2.83D-06 BMatP= 1.97D-05
 IDIUse=1 WtCom= 1.00D+00 WtEn= 0.00D+00
 Coeff-Com: -0.126D-02 0.275D-02-0.910D-03-0.311D-01 0.372D-01 0.127D+00
 Coeff-Com: -0.143D+00-0.197D+00 0.118D+00 0.109D+01
 Coeff:     -0.126D-02 0.275D-02-0.910D-03-0.311D-01 0.372D-01 0.127D+00
 Coeff:     -0.143D+00-0.197D+00 0.118D+00 0.109D+01
 Gap=     0.300 Goal=   None    Shift=    0.000
 Gap=     0.300 Goal=   None    Shift=    0.000
 RMSDP=1.32D-05 MaxDP=5.86D-04 DE=-4.50D-05 OVMax= 5.18D-03

 Cycle  11  Pass 1  IDiag  1:
 RMSU=  3.50D-06    CP:  8.91D-01  2.34D+00  1.37D+00  2.78D+00  3.00D+00
                    CP:  3.00D+00  3.00D+00  2.49D+00  1.49D+00  1.56D+00
 E= -466.850323046511     Delta-E=       -0.000007453501 Rises=F Damp=F
 DIIS: error= 2.78D-05 at cycle  11 NSaved=  11.
 NSaved=11 IEnMin=11 EnMin= -466.850323046511     IErMin=11 ErrMin= 2.78D-05
 ErrMax= 2.78D-05  0.00D+00 EMaxC= 1.00D-01 BMatC= 6.27D-07 BMatP= 2.83D-06
 IDIUse=1 WtCom= 1.00D+00 WtEn= 0.00D+00
 Coeff-Com: -0.216D-02 0.466D-02 0.966D-03-0.242D-01 0.925D-02 0.704D-01
 Coeff-Com: -0.320D-01-0.124D+00-0.485D-01 0.435D+00 0.711D+00
 Coeff:     -0.216D-02 0.466D-02 0.966D-03-0.242D-01 0.925D-02 0.704D-01
 Coeff:     -0.320D-01-0.124D+00-0.485D-01 0.435D+00 0.711D+00
 Gap=     0.300 Goal=   None    Shift=    0.000
 Gap=     0.300 Goal=   None    Shift=    0.000
 RMSDP=2.38D-06 MaxDP=1.06D-04 DE=-7.45D-06 OVMax= 8.13D-04

 Cycle  12  Pass 1  IDiag  1:
 RMSU=  1.04D-06    CP:  8.91D-01  2.34D+00  1.38D+00  2.78D+00  3.00D+00
                    CP:  3.00D+00  3.00D+00  2.51D+00  1.51D+00  1.68D+00
                    CP:  1.19D+00
 E= -466.850323476437     Delta-E=       -0.000000429926 Rises=F Damp=F
 DIIS: error= 1.47D-05 at cycle  12 NSaved=  12.
 NSaved=12 IEnMin=12 EnMin= -466.850323476437     IErMin=12 ErrMin= 1.47D-05
 ErrMax= 1.47D-05  0.00D+00 EMaxC= 1.00D-01 BMatC= 7.87D-08 BMatP= 6.27D-07
 IDIUse=1 WtCom= 1.00D+00 WtEn= 0.00D+00
 Coeff-Com:  0.703D-03-0.153D-02-0.262D-03 0.900D-02-0.471D-02-0.304D-01
 Coeff-Com:  0.243D-01 0.459D-01-0.602D-02-0.221D+00-0.414D-01 0.122D+01
 Coeff:      0.703D-03-0.153D-02-0.262D-03 0.900D-02-0.471D-02-0.304D-01
 Coeff:      0.243D-01 0.459D-01-0.602D-02-0.221D+00-0.414D-01 0.122D+01
 Gap=     0.300 Goal=   None    Shift=    0.000
 Gap=     0.300 Goal=   None    Shift=    0.000
 RMSDP=1.00D-06 MaxDP=3.62D-05 DE=-4.30D-07 OVMax= 1.69D-04

 Cycle  13  Pass 1  IDiag  1:
 RMSU=  5.59D-07    CP:  8.91D-01  2.34D+00  1.37D+00  2.78D+00  3.00D+00
                    CP:  3.00D+00  3.00D+00  2.51D+00  1.52D+00  1.69D+00
                    CP:  1.32D+00  1.59D+00
 E= -466.850323593792     Delta-E=       -0.000000117356 Rises=F Damp=F
 DIIS: error= 7.79D-06 at cycle  13 NSaved=  13.
 NSaved=13 IEnMin=13 EnMin= -466.850323593792     IErMin=13 ErrMin= 7.79D-06
 ErrMax= 7.79D-06  0.00D+00 EMaxC= 1.00D-01 BMatC= 2.02D-08 BMatP= 7.87D-08
 IDIUse=1 WtCom= 1.00D+00 WtEn= 0.00D+00
 Coeff-Com: -0.803D-05 0.205D-04 0.665D-04 0.541D-03-0.690D-03-0.225D-02
 Coeff-Com:  0.119D-02 0.683D-02 0.120D-02-0.340D-01-0.875D-01-0.102D+00
 Coeff-Com:  0.122D+01
 Coeff:     -0.803D-05 0.205D-04 0.665D-04 0.541D-03-0.690D-03-0.225D-02
 Coeff:      0.119D-02 0.683D-02 0.120D-02-0.340D-01-0.875D-01-0.102D+00
 Coeff:      0.122D+01
 Gap=     0.300 Goal=   None    Shift=    0.000
 Gap=     0.300 Goal=   None    Shift=    0.000
 RMSDP=4.55D-07 MaxDP=2.75D-05 DE=-1.17D-07 OVMax= 1.18D-04

 Cycle  14  Pass 1  IDiag  1:
 RMSU=  3.01D-07    CP:  8.91D-01  2.34D+00  1.38D+00  2.78D+00  3.00D+00
                    CP:  3.00D+00  3.00D+00  2.51D+00  1.52D+00  1.71D+00
                    CP:  1.36D+00  1.73D+00  1.41D+00
 E= -466.850323633174     Delta-E=       -0.000000039382 Rises=F Damp=F
 DIIS: error= 4.50D-06 at cycle  14 NSaved=  14.
 NSaved=14 IEnMin=14 EnMin= -466.850323633174     IErMin=14 ErrMin= 4.50D-06
 ErrMax= 4.50D-06  0.00D+00 EMaxC= 1.00D-01 BMatC= 6.92D-09 BMatP= 2.02D-08
 IDIUse=1 WtCom= 1.00D+00 WtEn= 0.00D+00
 Coeff-Com: -0.319D-03 0.690D-03 0.192D-03-0.336D-02 0.125D-02 0.106D-01
 Coeff-Com: -0.790D-02-0.152D-01 0.135D-02 0.741D-01 0.106D-01-0.420D+00
 Coeff-Com: -0.148D-01 0.136D+01
 Coeff:     -0.319D-03 0.690D-03 0.192D-03-0.336D-02 0.125D-02 0.106D-01
 Coeff:     -0.790D-02-0.152D-01 0.135D-02 0.741D-01 0.106D-01-0.420D+00
 Coeff:     -0.148D-01 0.136D+01
 Gap=     0.300 Goal=   None    Shift=    0.000
 Gap=     0.300 Goal=   None    Shift=    0.000
 RMSDP=3.75D-07 MaxDP=1.83D-05 DE=-3.94D-08 OVMax= 8.70D-05

 Cycle  15  Pass 1  IDiag  1:
 RMSU=  1.33D-07    CP:  8.91D-01  2.34D+00  1.38D+00  2.78D+00  3.00D+00
                    CP:  3.00D+00  3.00D+00  2.51D+00  1.52D+00  1.72D+00
                    CP:  1.35D+00  1.75D+00  1.74D+00  1.96D+00
 E= -466.850323649324     Delta-E=       -0.000000016149 Rises=F Damp=F
 DIIS: error= 1.71D-06 at cycle  15 NSaved=  15.
 NSaved=15 IEnMin=15 EnMin= -466.850323649324     IErMin=15 ErrMin= 1.71D-06
 ErrMax= 1.71D-06  0.00D+00 EMaxC= 1.00D-01 BMatC= 1.23D-09 BMatP= 6.92D-09
 IDIUse=1 WtCom= 1.00D+00 WtEn= 0.00D+00
 Coeff-Com: -0.132D-04 0.278D-04-0.202D-04-0.383D-03 0.439D-03 0.164D-02
 Coeff-Com: -0.190D-02-0.279D-02 0.202D-02 0.197D-01 0.186D-01-0.523D-01
 Coeff-Com: -0.302D+00 0.224D+00 0.109D+01
 Coeff:     -0.132D-04 0.278D-04-0.202D-04-0.383D-03 0.439D-03 0.164D-02
 Coeff:     -0.190D-02-0.279D-02 0.202D-02 0.197D-01 0.186D-01-0.523D-01
 Coeff:     -0.302D+00 0.224D+00 0.109D+01
 Gap=     0.300 Goal=   None    Shift=    0.000
 Gap=     0.300 Goal=   None    Shift=    0.000
 RMSDP=1.88D-07 MaxDP=8.22D-06 DE=-1.61D-08 OVMax= 4.51D-05

 Cycle  16  Pass 1  IDiag  1:
 RMSU=  5.61D-08    CP:  8.91D-01  2.34D+00  1.38D+00  2.78D+00  3.00D+00
                    CP:  3.00D+00  3.00D+00  2.51D+00  1.52D+00  1.72D+00
                    CP:  1.35D+00  1.74D+00  1.86D+00  2.40D+00  1.45D+00
 E= -466.850323651703     Delta-E=       -0.000000002379 Rises=F Damp=F
 DIIS: error= 3.92D-07 at cycle  16 NSaved=  16.
 NSaved=16 IEnMin=16 EnMin= -466.850323651703     IErMin=16 ErrMin= 3.92D-07
 ErrMax= 3.92D-07  0.00D+00 EMaxC= 1.00D-01 BMatC= 1.20D-10 BMatP= 1.23D-09
 IDIUse=1 WtCom= 1.00D+00 WtEn= 0.00D+00
 Coeff-Com:  0.708D-05-0.155D-04-0.111D-04 0.652D-04 0.356D-04-0.119D-03
 Coeff-Com: -0.744D-05 0.228D-03 0.285D-03-0.111D-02 0.407D-02 0.238D-01
 Coeff-Com: -0.660D-01-0.917D-01 0.257D+00 0.873D+00
 Coeff:      0.708D-05-0.155D-04-0.111D-04 0.652D-04 0.356D-04-0.119D-03
 Coeff:     -0.744D-05 0.228D-03 0.285D-03-0.111D-02 0.407D-02 0.238D-01
 Coeff:     -0.660D-01-0.917D-01 0.257D+00 0.873D+00
 Gap=     0.300 Goal=   None    Shift=    0.000
 Gap=     0.300 Goal=   None    Shift=    0.000
 RMSDP=4.21D-08 MaxDP=2.01D-06 DE=-2.38D-09 OVMax= 8.81D-06

 Cycle  17  Pass 1  IDiag  1:
 RMSU=  1.72D-08    CP:  8.91D-01  2.34D+00  1.38D+00  2.78D+00  3.00D+00
                    CP:  3.00D+00  3.00D+00  2.51D+00  1.52D+00  1.72D+00
                    CP:  1.35D+00  1.73D+00  1.87D+00  2.46D+00  1.57D+00
                    CP:  1.36D+00
 E= -466.850323651808     Delta-E=       -0.000000000106 Rises=F Damp=F
 DIIS: error= 8.93D-08 at cycle  17 NSaved=  17.
 NSaved=17 IEnMin=17 EnMin= -466.850323651808     IErMin=17 ErrMin= 8.93D-08
 ErrMax= 8.93D-08  0.00D+00 EMaxC= 1.00D-01 BMatC= 1.24D-11 BMatP= 1.20D-10
 IDIUse=1 WtCom= 1.00D+00 WtEn= 0.00D+00
 Coeff-Com: -0.151D-05 0.334D-05 0.815D-06-0.378D-05-0.128D-04 0.174D-04
 Coeff-Com:  0.225D-04 0.957D-04-0.153D-03-0.141D-02-0.901D-03 0.628D-02
 Coeff-Com:  0.226D-01-0.359D-01-0.808D-01 0.158D+00 0.932D+00
 Coeff:     -0.151D-05 0.334D-05 0.815D-06-0.378D-05-0.128D-04 0.174D-04
 Coeff:      0.225D-04 0.957D-04-0.153D-03-0.141D-02-0.901D-03 0.628D-02
 Coeff:      0.226D-01-0.359D-01-0.808D-01 0.158D+00 0.932D+00
 Gap=     0.300 Goal=   None    Shift=    0.000
 Gap=     0.300 Goal=   None    Shift=    0.000
 RMSDP=1.30D-08 MaxDP=4.71D-07 DE=-1.06D-10 OVMax= 1.72D-06

 Cycle  18  Pass 1  IDiag  1:
 RMSU=  6.11D-09    CP:  8.91D-01  2.34D+00  1.38D+00  2.78D+00  3.00D+00
                    CP:  3.00D+00  3.00D+00  2.51D+00  1.52D+00  1.72D+00
                    CP:  1.35D+00  1.73D+00  1.87D+00  2.46D+00  1.61D+00
                    CP:  1.51D+00  1.21D+00
 E= -466.850323651817     Delta-E=       -0.000000000009 Rises=F Damp=F
 DIIS: error= 2.74D-08 at cycle  18 NSaved=  18.
 NSaved=18 IEnMin=18 EnMin= -466.850323651817     IErMin=18 ErrMin= 2.74D-08
 ErrMax= 2.74D-08  0.00D+00 EMaxC= 1.00D-01 BMatC= 1.01D-12 BMatP= 1.24D-11
 IDIUse=1 WtCom= 1.00D+00 WtEn= 0.00D+00
 Coeff-Com:  0.541D-06-0.118D-05 0.334D-06 0.452D-05-0.117D-04-0.951D-05
 Coeff-Com:  0.607D-05 0.373D-04-0.158D-04-0.153D-03-0.565D-03-0.143D-02
 Coeff-Com:  0.940D-02 0.475D-02-0.351D-01-0.760D-01 0.910D-01 0.101D+01
 Coeff:      0.541D-06-0.118D-05 0.334D-06 0.452D-05-0.117D-04-0.951D-05
 Coeff:      0.607D-05 0.373D-04-0.158D-04-0.153D-03-0.565D-03-0.143D-02
 Coeff:      0.940D-02 0.475D-02-0.351D-01-0.760D-01 0.910D-01 0.101D+01
 Gap=     0.300 Goal=   None    Shift=    0.000
 Gap=     0.300 Goal=   None    Shift=    0.000
 RMSDP=4.60D-09 MaxDP=2.01D-07 DE=-9.21D-12 OVMax= 4.46D-07

 Error on total polarization charges =  0.01183
 SCF Done:  E(UwB97XD) =  -466.850323652     A.U. after   18 cycles
            NFock= 18  Conv=0.46D-08     -V/T= 2.0056
 <Sx>= 0.0000 <Sy>= 0.0000 <Sz>= 0.0000 <S**2>= 0.0000 S= 0.0000
 <L.S>=  0.00000000000    
 KE= 4.642327561873D+02 PE=-2.446784577146D+03 EE= 8.332016701630D+02
 --------------------------------------------------------------------
 Variational PCM results
 =======================
 <psi(f)|   H    |psi(f)>                     (a.u.) =    -466.848775
 <psi(f)|H+V(f)/2|psi(f)>                     (a.u.) =    -466.850324
 (Polarized solute)-Solvent               (kcal/mol) =      -0.97
 --------------------------------------------------------------------
 Partition over spheres:
 Sphere  on Atom  Surface  Charge   GEl     GCav    GDR
    1      C1       7.21   0.011   -0.05    0.00    0.00
    2      C2       4.34   0.006   -0.04    0.00    0.00
    3      H3       7.52  -0.010   -0.04    0.00    0.00
    4      H4       2.20  -0.003   -0.01    0.00    0.00
    5      C5       4.61   0.009   -0.06    0.00    0.00
    6      C6       4.53   0.007   -0.04    0.00    0.00
    7      H7       4.59  -0.006   -0.03    0.00    0.00
    8      H8       3.05  -0.004   -0.01    0.00    0.00
    9      C9       3.09   0.002    0.00    0.00    0.00
   10      H10      6.84  -0.007   -0.01    0.00    0.00
   11      H11      2.56  -0.002   -0.01    0.00    0.00
   12      C12      6.45   0.010   -0.06    0.00    0.00
   13      H13      7.52  -0.010   -0.03    0.00    0.00
   14      C14      7.35   0.011   -0.05    0.00    0.00
   15      H15      7.52  -0.010   -0.04    0.00    0.00
   16      C16      3.65   0.001    0.00    0.00    0.00
   17      H17      3.71  -0.004   -0.01    0.00    0.00
   18      H18      6.94  -0.008   -0.03    0.00    0.00
   19      C19      5.45   0.010   -0.07    0.00    0.00
   20      H20      5.27  -0.007   -0.03    0.00    0.00
   21      C21      6.95   0.010   -0.06    0.00    0.00
   22      H22      7.51  -0.010   -0.03    0.00    0.00
   23      C23      3.57   0.002    0.00    0.00    0.00
   24      H24      3.91  -0.003   -0.01    0.00    0.00
   25      H25      6.78  -0.007   -0.01    0.00    0.00
   26      C26      3.26   0.001    0.00    0.00    0.00
   27      H27      6.94  -0.008   -0.03    0.00    0.00
   28      H28      3.70  -0.004   -0.01    0.00    0.00
 Added spheres:    73.08   0.010   -0.22    0.00    0.00
 --------------------------------------------------------------------
 After PCM corrections, the energy is  -466.850323652     a.u.
 --------------------------------------------------------------------
 Annihilation of the first spin contaminant:
 S**2 before annihilation     0.0000,   after    -0.0000
 Leave Link  502 at Mon Aug  3 15:15:53 2020, MaxMem=  6442450944 cpu:            7622.0 elap:             320.4
 (Enter /scratch/scicomp/CentOS/7.3.1611/Haswell/software/Gaussian/g16/l601.exe)
 Copying SCF densities to generalized density rwf, IOpCl= 1 IROHF=0.

 **********************************************************************

            Population analysis using the SCF Density.

 **********************************************************************

 Alpha  occ. eigenvalues --  -10.28609 -10.28608 -10.28286 -10.28285 -10.28261
 Alpha  occ. eigenvalues --  -10.28260 -10.28228 -10.28227 -10.28020 -10.28019
 Alpha  occ. eigenvalues --  -10.27413 -10.27412  -0.94449  -0.93557  -0.84584
 Alpha  occ. eigenvalues --   -0.84349  -0.83720  -0.83687  -0.71679  -0.71145
 Alpha  occ. eigenvalues --   -0.68228  -0.67937  -0.59894  -0.59776  -0.57554
 Alpha  occ. eigenvalues --   -0.56565  -0.53783  -0.52936  -0.51054  -0.51017
 Alpha  occ. eigenvalues --   -0.49913  -0.49252  -0.47587  -0.46927  -0.45622
 Alpha  occ. eigenvalues --   -0.44995  -0.41471  -0.41028  -0.39906  -0.39294
 Alpha  occ. eigenvalues --   -0.39241  -0.38844  -0.30068  -0.27082
 Alpha virt. eigenvalues --    0.02904   0.05601   0.10517   0.12336   0.13415
 Alpha virt. eigenvalues --    0.14559   0.14896   0.15707   0.15826   0.15855
 Alpha virt. eigenvalues --    0.16643   0.16981   0.17338   0.18240   0.19973
 Alpha virt. eigenvalues --    0.21171   0.21451   0.22867   0.23511   0.24146
 Alpha virt. eigenvalues --    0.24612   0.25324   0.25845   0.26612   0.27794
 Alpha virt. eigenvalues --    0.28423   0.29195   0.29412   0.30277   0.30595
 Alpha virt. eigenvalues --    0.31147   0.31591   0.32449   0.32829   0.33830
 Alpha virt. eigenvalues --    0.33993   0.34566   0.35724   0.36245   0.37350
 Alpha virt. eigenvalues --    0.38297   0.38497   0.41282   0.41717   0.41838
 Alpha virt. eigenvalues --    0.41897   0.44060   0.44072   0.45004   0.45615
 Alpha virt. eigenvalues --    0.46617   0.47287   0.47935   0.48023   0.48556
 Alpha virt. eigenvalues --    0.48861   0.48869   0.49136   0.49725   0.49989
 Alpha virt. eigenvalues --    0.50427   0.50462   0.52096   0.52193   0.52771
 Alpha virt. eigenvalues --    0.53170   0.54101   0.54328   0.55119   0.55130
 Alpha virt. eigenvalues --    0.56957   0.57223   0.57508   0.59221   0.60352
 Alpha virt. eigenvalues --    0.60742   0.60829   0.61854   0.62936   0.65468
 Alpha virt. eigenvalues --    0.65780   0.66037   0.67852   0.68299   0.68487
 Alpha virt. eigenvalues --    0.68940   0.72076   0.73518   0.74387   0.75250
 Alpha virt. eigenvalues --    0.78007   0.78057   0.78561   0.79957   0.80117
 Alpha virt. eigenvalues --    0.81555   0.82880   0.83856   0.85691   0.87446
 Alpha virt. eigenvalues --    0.89564   0.90608   0.90901   0.92729   0.93273
 Alpha virt. eigenvalues --    0.94474   0.96594   0.96655   0.98522   0.98847
 Alpha virt. eigenvalues --    1.01083   1.03357   1.04437   1.04999   1.05175
 Alpha virt. eigenvalues --    1.06941   1.07692   1.07733   1.10617   1.10746
 Alpha virt. eigenvalues --    1.12405   1.13026   1.14153   1.15117   1.16214
 Alpha virt. eigenvalues --    1.16819   1.17788   1.18514   1.18935   1.19817
 Alpha virt. eigenvalues --    1.20092   1.20608   1.23340   1.25091   1.25138
 Alpha virt. eigenvalues --    1.25932   1.26450   1.28018   1.28789   1.28930
 Alpha virt. eigenvalues --    1.29962   1.31420   1.31585   1.32021   1.32796
 Alpha virt. eigenvalues --    1.34076   1.34588   1.37039   1.37559   1.37916
 Alpha virt. eigenvalues --    1.38407   1.39491   1.40827   1.40879   1.42014
 Alpha virt. eigenvalues --    1.42656   1.42897   1.43469   1.44143   1.44695
 Alpha virt. eigenvalues --    1.45228   1.46039   1.47406   1.48664   1.48885
 Alpha virt. eigenvalues --    1.50007   1.51358   1.53270   1.54199   1.56405
 Alpha virt. eigenvalues --    1.58224   1.58329   1.59423   1.60886   1.61552
 Alpha virt. eigenvalues --    1.63093   1.63438   1.64176   1.66383   1.66433
 Alpha virt. eigenvalues --    1.68053   1.71029   1.74671   1.75091   1.78243
 Alpha virt. eigenvalues --    1.80419   1.81824   1.81942   1.83507   1.84915
 Alpha virt. eigenvalues --    1.87720   1.88527   1.90590   1.91519   1.92826
 Alpha virt. eigenvalues --    1.93397   1.96659   1.98265   1.99558   2.00957
 Alpha virt. eigenvalues --    2.03308   2.03598   2.09191   2.10126   2.10505
 Alpha virt. eigenvalues --    2.12336   2.12496   2.13668   2.15572   2.16168
 Alpha virt. eigenvalues --    2.17567   2.20136   2.20537   2.21804   2.23022
 Alpha virt. eigenvalues --    2.23906   2.24758   2.25416   2.28202   2.29817
 Alpha virt. eigenvalues --    2.34766   2.36289   2.38295   2.40535   2.42024
 Alpha virt. eigenvalues --    2.44267   2.45171   2.45638   2.49087   2.49229
 Alpha virt. eigenvalues --    2.49905   2.50595   2.51907   2.54826   2.55758
 Alpha virt. eigenvalues --    2.57712   2.58153   2.59586   2.62345   2.62926
 Alpha virt. eigenvalues --    2.62948   2.64378   2.65321   2.65641   2.65904
 Alpha virt. eigenvalues --    2.67310   2.68070   2.70577   2.72587   2.72828
 Alpha virt. eigenvalues --    2.73287   2.74415   2.75422   2.75650   2.76965
 Alpha virt. eigenvalues --    2.78694   2.78752   2.80495   2.80717   2.81292
 Alpha virt. eigenvalues --    2.82162   2.82731   2.83329   2.84249   2.85755
 Alpha virt. eigenvalues --    2.86136   2.87479   2.87485   2.88997   2.89805
 Alpha virt. eigenvalues --    2.91447   2.92534   2.92720   2.94118   2.95347
 Alpha virt. eigenvalues --    2.96167   2.96882   2.97266   2.98369   3.00982
 Alpha virt. eigenvalues --    3.01266   3.02489   3.03669   3.05402   3.05873
 Alpha virt. eigenvalues --    3.06753   3.08986   3.09704   3.11005   3.11150
 Alpha virt. eigenvalues --    3.11828   3.13276   3.13631   3.14579   3.15464
 Alpha virt. eigenvalues --    3.15776   3.16856   3.16893   3.18523   3.18940
 Alpha virt. eigenvalues --    3.20116   3.20751   3.20894   3.21130   3.21486
 Alpha virt. eigenvalues --    3.22420   3.22836   3.22912   3.24021   3.25318
 Alpha virt. eigenvalues --    3.25624   3.26388   3.27501   3.27643   3.28488
 Alpha virt. eigenvalues --    3.28650   3.30108   3.30796   3.31338   3.32442
 Alpha virt. eigenvalues --    3.32558   3.33214   3.33899   3.35470   3.36293
 Alpha virt. eigenvalues --    3.36648   3.36742   3.38137   3.38994   3.40283
 Alpha virt. eigenvalues --    3.42642   3.43272   3.43434   3.44934   3.44986
 Alpha virt. eigenvalues --    3.45899   3.46106   3.46909   3.47438   3.47525
 Alpha virt. eigenvalues --    3.48694   3.49906   3.50057   3.51444   3.53363
 Alpha virt. eigenvalues --    3.53861   3.54027   3.55259   3.55540   3.57208
 Alpha virt. eigenvalues --    3.58370   3.59759   3.60149   3.61862   3.65013
 Alpha virt. eigenvalues --    3.65576   3.66930   3.68601   3.68844   3.69800
 Alpha virt. eigenvalues --    3.70816   3.71394   3.73931   3.74532   3.75693
 Alpha virt. eigenvalues --    3.78879   3.79231   3.79931   3.81741   3.83881
 Alpha virt. eigenvalues --    3.84936   3.85561   3.85799   3.87923   3.89059
 Alpha virt. eigenvalues --    3.90736   3.91621   3.94412   3.94938   3.97332
 Alpha virt. eigenvalues --    3.99530   4.01794   4.02469   4.03548   4.06142
 Alpha virt. eigenvalues --    4.07624   4.09000   4.09110   4.09480   4.11519
 Alpha virt. eigenvalues --    4.13081   4.13382   4.15785   4.15959   4.18578
 Alpha virt. eigenvalues --    4.19426   4.22360   4.22475   4.23099   4.26472
 Alpha virt. eigenvalues --    4.26680   4.28186   4.31476   4.31709   4.36067
 Alpha virt. eigenvalues --    4.36790   4.37874   4.39404   4.41283   4.43550
 Alpha virt. eigenvalues --    4.46170   4.48267   4.49309   4.49857   4.53559
 Alpha virt. eigenvalues --    4.55332   4.59969   4.61905   4.66451   4.67692
 Alpha virt. eigenvalues --    4.69859   4.70054   4.72852   4.74977   4.76503
 Alpha virt. eigenvalues --    4.78330   4.80899   4.82691   4.84806   4.85562
 Alpha virt. eigenvalues --    4.85663   4.88381   4.93111   4.95514   4.96132
 Alpha virt. eigenvalues --    4.98479   5.03780   5.03850   5.07868   5.08526
 Alpha virt. eigenvalues --    5.14021   5.17310   5.18963   5.22404   5.23953
 Alpha virt. eigenvalues --    5.24124   5.34163   5.34926   5.41354   5.42673
 Alpha virt. eigenvalues --    5.45119   5.46100   5.50939   5.54449   5.71343
 Alpha virt. eigenvalues --    5.71494   5.77674   5.79146   5.96612   6.02313
 Alpha virt. eigenvalues --    7.94770   7.95296   8.01502   8.04035   8.05147
 Alpha virt. eigenvalues --    8.09416   8.10321   8.13502   8.16933   8.19751
 Alpha virt. eigenvalues --    8.35722   8.36496  34.76636  34.77733  34.81310
 Alpha virt. eigenvalues --   34.81592  34.84703  34.90745  34.95828  35.00179
 Alpha virt. eigenvalues --   35.01233  35.02432  35.17776  35.18054
  Beta  occ. eigenvalues --  -10.28609 -10.28608 -10.28286 -10.28285 -10.28261
  Beta  occ. eigenvalues --  -10.28260 -10.28228 -10.28227 -10.28020 -10.28019
  Beta  occ. eigenvalues --  -10.27413 -10.27412  -0.94449  -0.93557  -0.84584
  Beta  occ. eigenvalues --   -0.84349  -0.83720  -0.83687  -0.71679  -0.71145
  Beta  occ. eigenvalues --   -0.68228  -0.67937  -0.59894  -0.59776  -0.57554
  Beta  occ. eigenvalues --   -0.56565  -0.53783  -0.52936  -0.51054  -0.51017
  Beta  occ. eigenvalues --   -0.49913  -0.49252  -0.47587  -0.46927  -0.45622
  Beta  occ. eigenvalues --   -0.44995  -0.41471  -0.41028  -0.39906  -0.39294
  Beta  occ. eigenvalues --   -0.39241  -0.38844  -0.30068  -0.27082
  Beta virt. eigenvalues --    0.02904   0.05601   0.10517   0.12336   0.13415
  Beta virt. eigenvalues --    0.14559   0.14896   0.15707   0.15826   0.15855
  Beta virt. eigenvalues --    0.16643   0.16981   0.17338   0.18240   0.19973
  Beta virt. eigenvalues --    0.21171   0.21451   0.22867   0.23511   0.24146
  Beta virt. eigenvalues --    0.24612   0.25324   0.25845   0.26612   0.27794
  Beta virt. eigenvalues --    0.28423   0.29195   0.29412   0.30277   0.30595
  Beta virt. eigenvalues --    0.31147   0.31591   0.32449   0.32829   0.33830
  Beta virt. eigenvalues --    0.33993   0.34566   0.35724   0.36245   0.37350
  Beta virt. eigenvalues --    0.38297   0.38497   0.41282   0.41717   0.41838
  Beta virt. eigenvalues --    0.41897   0.44060   0.44072   0.45004   0.45615
  Beta virt. eigenvalues --    0.46617   0.47287   0.47935   0.48023   0.48556
  Beta virt. eigenvalues --    0.48861   0.48869   0.49136   0.49725   0.49989
  Beta virt. eigenvalues --    0.50427   0.50462   0.52096   0.52193   0.52771
  Beta virt. eigenvalues --    0.53170   0.54101   0.54328   0.55119   0.55130
  Beta virt. eigenvalues --    0.56957   0.57223   0.57508   0.59221   0.60352
  Beta virt. eigenvalues --    0.60742   0.60829   0.61854   0.62936   0.65468
  Beta virt. eigenvalues --    0.65780   0.66037   0.67852   0.68299   0.68487
  Beta virt. eigenvalues --    0.68940   0.72076   0.73518   0.74387   0.75250
  Beta virt. eigenvalues --    0.78007   0.78057   0.78561   0.79957   0.80117
  Beta virt. eigenvalues --    0.81555   0.82880   0.83856   0.85691   0.87446
  Beta virt. eigenvalues --    0.89564   0.90608   0.90901   0.92729   0.93273
  Beta virt. eigenvalues --    0.94474   0.96594   0.96655   0.98522   0.98847
  Beta virt. eigenvalues --    1.01083   1.03357   1.04437   1.04999   1.05175
  Beta virt. eigenvalues --    1.06941   1.07692   1.07733   1.10617   1.10746
  Beta virt. eigenvalues --    1.12405   1.13026   1.14153   1.15117   1.16214
  Beta virt. eigenvalues --    1.16819   1.17788   1.18514   1.18935   1.19817
  Beta virt. eigenvalues --    1.20092   1.20608   1.23340   1.25091   1.25138
  Beta virt. eigenvalues --    1.25932   1.26450   1.28018   1.28789   1.28930
  Beta virt. eigenvalues --    1.29962   1.31420   1.31585   1.32021   1.32796
  Beta virt. eigenvalues --    1.34076   1.34588   1.37039   1.37559   1.37916
  Beta virt. eigenvalues --    1.38407   1.39491   1.40827   1.40879   1.42014
  Beta virt. eigenvalues --    1.42656   1.42897   1.43469   1.44143   1.44695
  Beta virt. eigenvalues --    1.45228   1.46039   1.47406   1.48664   1.48885
  Beta virt. eigenvalues --    1.50007   1.51358   1.53270   1.54199   1.56405
  Beta virt. eigenvalues --    1.58224   1.58329   1.59423   1.60886   1.61552
  Beta virt. eigenvalues --    1.63093   1.63438   1.64176   1.66383   1.66433
  Beta virt. eigenvalues --    1.68053   1.71029   1.74671   1.75091   1.78243
  Beta virt. eigenvalues --    1.80419   1.81824   1.81942   1.83507   1.84915
  Beta virt. eigenvalues --    1.87720   1.88527   1.90590   1.91519   1.92826
  Beta virt. eigenvalues --    1.93397   1.96659   1.98265   1.99558   2.00957
  Beta virt. eigenvalues --    2.03308   2.03598   2.09191   2.10126   2.10505
  Beta virt. eigenvalues --    2.12336   2.12496   2.13668   2.15572   2.16168
  Beta virt. eigenvalues --    2.17567   2.20136   2.20537   2.21804   2.23022
  Beta virt. eigenvalues --    2.23906   2.24758   2.25416   2.28202   2.29817
  Beta virt. eigenvalues --    2.34766   2.36289   2.38295   2.40535   2.42024
  Beta virt. eigenvalues --    2.44267   2.45171   2.45638   2.49087   2.49229
  Beta virt. eigenvalues --    2.49905   2.50595   2.51907   2.54826   2.55758
  Beta virt. eigenvalues --    2.57712   2.58153   2.59586   2.62345   2.62926
  Beta virt. eigenvalues --    2.62948   2.64378   2.65321   2.65641   2.65904
  Beta virt. eigenvalues --    2.67310   2.68070   2.70577   2.72587   2.72828
  Beta virt. eigenvalues --    2.73287   2.74415   2.75422   2.75650   2.76965
  Beta virt. eigenvalues --    2.78694   2.78752   2.80495   2.80717   2.81292
  Beta virt. eigenvalues --    2.82162   2.82731   2.83329   2.84249   2.85755
  Beta virt. eigenvalues --    2.86136   2.87479   2.87485   2.88997   2.89805
  Beta virt. eigenvalues --    2.91447   2.92534   2.92720   2.94118   2.95347
  Beta virt. eigenvalues --    2.96167   2.96882   2.97266   2.98369   3.00982
  Beta virt. eigenvalues --    3.01266   3.02489   3.03669   3.05402   3.05873
  Beta virt. eigenvalues --    3.06753   3.08986   3.09704   3.11005   3.11150
  Beta virt. eigenvalues --    3.11828   3.13276   3.13631   3.14579   3.15464
  Beta virt. eigenvalues --    3.15776   3.16856   3.16893   3.18523   3.18940
  Beta virt. eigenvalues --    3.20116   3.20751   3.20894   3.21130   3.21486
  Beta virt. eigenvalues --    3.22420   3.22836   3.22912   3.24021   3.25318
  Beta virt. eigenvalues --    3.25624   3.26388   3.27501   3.27643   3.28488
  Beta virt. eigenvalues --    3.28650   3.30108   3.30796   3.31338   3.32442
  Beta virt. eigenvalues --    3.32558   3.33214   3.33899   3.35470   3.36293
  Beta virt. eigenvalues --    3.36648   3.36742   3.38137   3.38994   3.40283
  Beta virt. eigenvalues --    3.42642   3.43272   3.43434   3.44934   3.44986
  Beta virt. eigenvalues --    3.45899   3.46106   3.46909   3.47438   3.47525
  Beta virt. eigenvalues --    3.48694   3.49906   3.50057   3.51444   3.53363
  Beta virt. eigenvalues --    3.53861   3.54027   3.55259   3.55540   3.57208
  Beta virt. eigenvalues --    3.58370   3.59759   3.60149   3.61862   3.65013
  Beta virt. eigenvalues --    3.65576   3.66930   3.68601   3.68844   3.69800
  Beta virt. eigenvalues --    3.70816   3.71394   3.73931   3.74532   3.75693
  Beta virt. eigenvalues --    3.78879   3.79231   3.79931   3.81741   3.83881
  Beta virt. eigenvalues --    3.84936   3.85561   3.85799   3.87923   3.89059
  Beta virt. eigenvalues --    3.90736   3.91621   3.94412   3.94938   3.97332
  Beta virt. eigenvalues --    3.99530   4.01794   4.02469   4.03548   4.06142
  Beta virt. eigenvalues --    4.07624   4.09000   4.09110   4.09480   4.11519
  Beta virt. eigenvalues --    4.13081   4.13382   4.15785   4.15959   4.18578
  Beta virt. eigenvalues --    4.19426   4.22360   4.22475   4.23099   4.26472
  Beta virt. eigenvalues --    4.26680   4.28186   4.31476   4.31709   4.36067
  Beta virt. eigenvalues --    4.36790   4.37874   4.39404   4.41283   4.43550
  Beta virt. eigenvalues --    4.46170   4.48267   4.49309   4.49857   4.53559
  Beta virt. eigenvalues --    4.55332   4.59969   4.61905   4.66451   4.67692
  Beta virt. eigenvalues --    4.69859   4.70054   4.72852   4.74977   4.76503
  Beta virt. eigenvalues --    4.78330   4.80899   4.82691   4.84806   4.85562
  Beta virt. eigenvalues --    4.85663   4.88381   4.93111   4.95514   4.96132
  Beta virt. eigenvalues --    4.98479   5.03780   5.03850   5.07868   5.08526
  Beta virt. eigenvalues --    5.14021   5.17310   5.18963   5.22404   5.23953
  Beta virt. eigenvalues --    5.24124   5.34163   5.34926   5.41354   5.42673
  Beta virt. eigenvalues --    5.45119   5.46100   5.50939   5.54449   5.71343
  Beta virt. eigenvalues --    5.71494   5.77674   5.79146   5.96612   6.02313
  Beta virt. eigenvalues --    7.94770   7.95296   8.01502   8.04035   8.05147
  Beta virt. eigenvalues --    8.09416   8.10321   8.13502   8.16933   8.19751
  Beta virt. eigenvalues --    8.35722   8.36496  34.76636  34.77733  34.81310
  Beta virt. eigenvalues --   34.81592  34.84703  34.90745  34.95828  35.00179
  Beta virt. eigenvalues --   35.01233  35.02432  35.17776  35.18054
          Condensed to atoms (all electrons):
               1          2          3          4          5          6
     1  C    5.129252   0.001195   0.425897  -0.001808   0.001476  -0.007220
     2  C    0.001195   5.365781  -0.002505   0.425112  -0.050789  -0.034191
     3  H    0.425897  -0.002505   0.498451   0.000034  -0.000050   0.000024
     4  H   -0.001808   0.425112   0.000034   0.468589  -0.008565   0.003704
     5  C    0.001476  -0.050789  -0.000050  -0.008565   5.187301   0.506192
     6  C   -0.007220  -0.034191   0.000024   0.003704   0.506192   5.365615
     7  H    0.000354  -0.002615   0.000001  -0.000102   0.427843  -0.028124
     8  H   -0.002055   0.003703  -0.000052   0.000154  -0.038380   0.425103
     9  C    0.002613  -0.010570  -0.000007  -0.002017  -0.060846   0.222548
    10  H   -0.000048   0.001204  -0.000001  -0.000242  -0.006337  -0.036698
    11  H    0.000190  -0.007182   0.000002   0.000308   0.009193  -0.060650
    12  C   -0.000205   0.014080   0.000002   0.003510   0.291459  -0.076012
    13  H   -0.000001   0.000066   0.000000   0.000042  -0.041086   0.006042
    14  C    0.000170  -0.007215  -0.000000  -0.002056  -0.050459   0.001185
    15  H   -0.000000   0.000024  -0.000000  -0.000052   0.007886  -0.002505
    16  C   -0.000625   0.014024   0.000001   0.000319  -0.006299  -0.062588
    17  H   -0.000024   0.000287  -0.000000  -0.002636   0.009978  -0.001056
    18  H    0.000003   0.000387   0.000000   0.000320  -0.002613   0.011189
    19  C   -0.050444   0.506134   0.007886  -0.038405  -0.020196  -0.050780
    20  H    0.004268  -0.028099  -0.000107  -0.004853   0.000403  -0.002615
    21  C    0.592150  -0.076013  -0.034379   0.005069   0.002397   0.014078
    22  H   -0.029695   0.006038  -0.006799  -0.000065   0.000036   0.000066
    23  C   -0.089399   0.222546   0.005971  -0.013340   0.009923  -0.010575
    24  H    0.013208  -0.060656  -0.000117  -0.003902   0.000435  -0.007186
    25  H    0.005108  -0.036689  -0.000038  -0.000630   0.000777   0.001204
    26  C    0.282035  -0.062606  -0.032852   0.004202  -0.007987   0.014026
    27  H   -0.034782   0.011190  -0.004343  -0.000112   0.000277   0.000387
    28  H   -0.032254  -0.001051   0.001399  -0.000172  -0.003945   0.000285
               7          8          9         10         11         12
     1  C    0.000354  -0.002055   0.002613  -0.000048   0.000190  -0.000205
     2  C   -0.002615   0.003703  -0.010570   0.001204  -0.007182   0.014080
     3  H    0.000001  -0.000052  -0.000007  -0.000001   0.000002   0.000002
     4  H   -0.000102   0.000154  -0.002017  -0.000242   0.000308   0.003510
     5  C    0.427843  -0.038380  -0.060846  -0.006337   0.009193   0.291459
     6  C   -0.028124   0.425103   0.222548  -0.036698  -0.060650  -0.076012
     7  H    0.482207  -0.004857   0.003398  -0.000279  -0.000043  -0.032803
     8  H   -0.004857   0.468723  -0.013376  -0.000631  -0.003902   0.005071
     9  C    0.003398  -0.013376   4.977777   0.382932   0.463299   0.037079
    10  H   -0.000279  -0.000631   0.382932   0.580671  -0.022160   0.001622
    11  H   -0.000043  -0.003902   0.463299  -0.022160   0.536808  -0.004357
    12  C   -0.032803   0.005071   0.037079   0.001622  -0.004357   5.001667
    13  H   -0.003703  -0.000065  -0.000511  -0.000057   0.000035   0.429005
    14  C    0.004269  -0.001808  -0.089381   0.005104   0.013209   0.592155
    15  H   -0.000107   0.000034   0.005970  -0.000038  -0.000117  -0.034388
    16  C   -0.001106   0.004204   0.355497  -0.022759  -0.055850  -0.054253
    17  H    0.000011  -0.000173  -0.031322   0.007227  -0.008667  -0.015236
    18  H    0.000038  -0.000112  -0.041451  -0.010263  -0.000505   0.005164
    19  C    0.000403  -0.008572   0.009922   0.000778   0.000430   0.002396
    20  H    0.000010  -0.000103   0.003108   0.000323  -0.001715  -0.000196
    21  C   -0.000196   0.003514  -0.003107  -0.000059  -0.000017  -0.000305
    22  H   -0.000001   0.000042  -0.000091  -0.000000  -0.000004  -0.000000
    23  C    0.003107  -0.002017   0.002034  -0.000067   0.000391  -0.003103
    24  H   -0.001716   0.000308   0.000391  -0.000018  -0.000021  -0.000017
    25  H    0.000323  -0.000242  -0.000067   0.000007  -0.000018  -0.000059
    26  C   -0.002243   0.000324  -0.001275   0.000081  -0.000161   0.001101
    27  H   -0.000023   0.000320  -0.000020   0.000000  -0.000000  -0.000043
    28  H    0.001880  -0.002635   0.000496  -0.000002   0.000000   0.000384
              13         14         15         16         17         18
     1  C   -0.000001   0.000170  -0.000000  -0.000625  -0.000024   0.000003
     2  C    0.000066  -0.007215   0.000024   0.014024   0.000287   0.000387
     3  H    0.000000  -0.000000  -0.000000   0.000001  -0.000000   0.000000
     4  H    0.000042  -0.002056  -0.000052   0.000319  -0.002636   0.000320
     5  C   -0.041086  -0.050459   0.007886  -0.006299   0.009978  -0.002613
     6  C    0.006042   0.001185  -0.002505  -0.062588  -0.001056   0.011189
     7  H   -0.003703   0.004269  -0.000107  -0.001106   0.000011   0.000038
     8  H   -0.000065  -0.001808   0.000034   0.004204  -0.000173  -0.000112
     9  C   -0.000511  -0.089381   0.005970   0.355497  -0.031322  -0.041451
    10  H   -0.000057   0.005104  -0.000038  -0.022759   0.007227  -0.010263
    11  H    0.000035   0.013209  -0.000117  -0.055850  -0.008667  -0.000505
    12  C    0.429005   0.592155  -0.034388  -0.054253  -0.015236   0.005164
    13  H    0.496844  -0.029696  -0.006798   0.005534  -0.000433  -0.000139
    14  C   -0.029696   5.129289   0.425902   0.282027  -0.032251  -0.034780
    15  H   -0.006798   0.425902   0.498443  -0.032846   0.001400  -0.004343
    16  C    0.005534   0.282027  -0.032846   4.934237   0.395039   0.427931
    17  H   -0.000433  -0.032251   0.001400   0.395039   0.589118  -0.023145
    18  H   -0.000139  -0.034780  -0.004343   0.427931  -0.023145   0.546052
    19  C    0.000036   0.001474  -0.000050  -0.007986  -0.003944   0.000277
    20  H   -0.000001   0.000354   0.000001  -0.002243   0.001880  -0.000023
    21  C   -0.000000  -0.000205   0.000002   0.001101   0.000384  -0.000043
    22  H    0.000000  -0.000001   0.000000   0.000016  -0.000001  -0.000001
    23  C   -0.000091   0.002614  -0.000007  -0.001275   0.000495  -0.000020
    24  H   -0.000004   0.000190   0.000002  -0.000161   0.000000  -0.000000
    25  H   -0.000000  -0.000048  -0.000001   0.000081  -0.000002   0.000000
    26  C    0.000016  -0.000625   0.000001   0.000794   0.000043  -0.000004
    27  H   -0.000001   0.000003   0.000000  -0.000004   0.000002  -0.000000
    28  H   -0.000001  -0.000024  -0.000000   0.000043  -0.000016   0.000002
              19         20         21         22         23         24
     1  C   -0.050444   0.004268   0.592150  -0.029695  -0.089399   0.013208
     2  C    0.506134  -0.028099  -0.076013   0.006038   0.222546  -0.060656
     3  H    0.007886  -0.000107  -0.034379  -0.006799   0.005971  -0.000117
     4  H   -0.038405  -0.004853   0.005069  -0.000065  -0.013340  -0.003902
     5  C   -0.020196   0.000403   0.002397   0.000036   0.009923   0.000435
     6  C   -0.050780  -0.002615   0.014078   0.000066  -0.010575  -0.007186
     7  H    0.000403   0.000010  -0.000196  -0.000001   0.003107  -0.001716
     8  H   -0.008572  -0.000103   0.003514   0.000042  -0.002017   0.000308
     9  C    0.009922   0.003108  -0.003107  -0.000091   0.002034   0.000391
    10  H    0.000778   0.000323  -0.000059  -0.000000  -0.000067  -0.000018
    11  H    0.000430  -0.001715  -0.000017  -0.000004   0.000391  -0.000021
    12  C    0.002396  -0.000196  -0.000305  -0.000000  -0.003103  -0.000017
    13  H    0.000036  -0.000001  -0.000000   0.000000  -0.000091  -0.000004
    14  C    0.001474   0.000354  -0.000205  -0.000001   0.002614   0.000190
    15  H   -0.000050   0.000001   0.000002   0.000000  -0.000007   0.000002
    16  C   -0.007986  -0.002243   0.001101   0.000016  -0.001275  -0.000161
    17  H   -0.003944   0.001880   0.000384  -0.000001   0.000495   0.000000
    18  H    0.000277  -0.000023  -0.000043  -0.000001  -0.000020  -0.000000
    19  C    5.187421   0.427828   0.291425  -0.041083  -0.060870   0.009195
    20  H    0.427828   0.482115  -0.032804  -0.003702   0.003396  -0.000043
    21  C    0.291425  -0.032804   5.001664   0.429004   0.037099  -0.004357
    22  H   -0.041083  -0.003702   0.429004   0.496843  -0.000511   0.000035
    23  C   -0.060870   0.003396   0.037099  -0.000511   4.977841   0.463305
    24  H    0.009195  -0.000043  -0.004357   0.000035   0.463305   0.536748
    25  H   -0.006340  -0.000280   0.001623  -0.000057   0.382909  -0.022150
    26  C   -0.006298  -0.001106  -0.054251   0.005534   0.355505  -0.055844
    27  H   -0.002613   0.000038   0.005162  -0.000139  -0.041457  -0.000507
    28  H    0.009976   0.000011  -0.015235  -0.000433  -0.031327  -0.008665
              25         26         27         28
     1  C    0.005108   0.282035  -0.034782  -0.032254
     2  C   -0.036689  -0.062606   0.011190  -0.001051
     3  H   -0.000038  -0.032852  -0.004343   0.001399
     4  H   -0.000630   0.004202  -0.000112  -0.000172
     5  C    0.000777  -0.007987   0.000277  -0.003945
     6  C    0.001204   0.014026   0.000387   0.000285
     7  H    0.000323  -0.002243  -0.000023   0.001880
     8  H   -0.000242   0.000324   0.000320  -0.002635
     9  C   -0.000067  -0.001275  -0.000020   0.000496
    10  H    0.000007   0.000081   0.000000  -0.000002
    11  H   -0.000018  -0.000161  -0.000000   0.000000
    12  C   -0.000059   0.001101  -0.000043   0.000384
    13  H   -0.000000   0.000016  -0.000001  -0.000001
    14  C   -0.000048  -0.000625   0.000003  -0.000024
    15  H   -0.000001   0.000001   0.000000  -0.000000
    16  C    0.000081   0.000794  -0.000004   0.000043
    17  H   -0.000002   0.000043   0.000002  -0.000016
    18  H    0.000000  -0.000004  -0.000000   0.000002
    19  C   -0.006340  -0.006298  -0.002613   0.009976
    20  H   -0.000280  -0.001106   0.000038   0.000011
    21  C    0.001623  -0.054251   0.005162  -0.015235
    22  H   -0.000057   0.005534  -0.000139  -0.000433
    23  C    0.382909   0.355505  -0.041457  -0.031327
    24  H   -0.022150  -0.055844  -0.000507  -0.008665
    25  H    0.580713  -0.022769  -0.010262   0.007228
    26  C   -0.022769   4.934285   0.427945   0.395024
    27  H   -0.010262   0.427945   0.546033  -0.023140
    28  H    0.007228   0.395024  -0.023140   0.589141
          Atomic-Atomic Spin Densities.
               1          2          3          4          5          6
     1  C   -0.000000  -0.000000   0.000000   0.000000   0.000000   0.000000
     2  C   -0.000000   0.000000  -0.000000   0.000000  -0.000000  -0.000000
     3  H    0.000000  -0.000000   0.000000  -0.000000  -0.000000   0.000000
     4  H    0.000000   0.000000  -0.000000  -0.000000  -0.000000   0.000000
     5  C    0.000000  -0.000000  -0.000000  -0.000000   0.000000  -0.000000
     6  C    0.000000  -0.000000   0.000000   0.000000  -0.000000  -0.000000
     7  H   -0.000000   0.000000   0.000000  -0.000000  -0.000000  -0.000000
     8  H    0.000000  -0.000000  -0.000000   0.000000  -0.000000  -0.000000
     9  C   -0.000000   0.000000  -0.000000  -0.000000  -0.000000   0.000000
    10  H    0.000000   0.000000  -0.000000   0.000000  -0.000000   0.000000
    11  H    0.000000  -0.000000   0.000000  -0.000000   0.000000  -0.000000
    12  C   -0.000000   0.000000   0.000000   0.000000  -0.000000   0.000000
    13  H   -0.000000   0.000000   0.000000   0.000000  -0.000000  -0.000000
    14  C   -0.000000  -0.000000  -0.000000  -0.000000  -0.000000   0.000000
    15  H    0.000000  -0.000000  -0.000000   0.000000  -0.000000   0.000000
    16  C   -0.000000   0.000000   0.000000   0.000000   0.000000  -0.000000
    17  H    0.000000  -0.000000  -0.000000  -0.000000   0.000000  -0.000000
    18  H   -0.000000   0.000000   0.000000   0.000000  -0.000000  -0.000000
    19  C    0.000000   0.000000   0.000000   0.000000   0.000000   0.000000
    20  H    0.000000   0.000000   0.000000   0.000000  -0.000000  -0.000000
    21  C    0.000000  -0.000000  -0.000000  -0.000000   0.000000  -0.000000
    22  H   -0.000000   0.000000  -0.000000  -0.000000  -0.000000  -0.000000
    23  C   -0.000000  -0.000000   0.000000  -0.000000  -0.000000  -0.000000
    24  H   -0.000000   0.000000  -0.000000  -0.000000   0.000000   0.000000
    25  H   -0.000000  -0.000000   0.000000   0.000000   0.000000  -0.000000
    26  C    0.000000   0.000000  -0.000000  -0.000000   0.000000  -0.000000
    27  H    0.000000   0.000000  -0.000000   0.000000   0.000000  -0.000000
    28  H   -0.000000   0.000000   0.000000   0.000000  -0.000000   0.000000
               7          8          9         10         11         12
     1  C   -0.000000   0.000000  -0.000000   0.000000   0.000000  -0.000000
     2  C    0.000000  -0.000000   0.000000   0.000000  -0.000000   0.000000
     3  H    0.000000  -0.000000  -0.000000  -0.000000   0.000000   0.000000
     4  H   -0.000000   0.000000  -0.000000   0.000000  -0.000000   0.000000
     5  C   -0.000000  -0.000000  -0.000000  -0.000000   0.000000  -0.000000
     6  C   -0.000000  -0.000000   0.000000   0.000000  -0.000000   0.000000
     7  H    0.000000  -0.000000   0.000000  -0.000000  -0.000000   0.000000
     8  H   -0.000000   0.000000   0.000000  -0.000000   0.000000   0.000000
     9  C    0.000000   0.000000  -0.000001  -0.000000   0.000000  -0.000000
    10  H   -0.000000  -0.000000  -0.000000   0.000000  -0.000000   0.000000
    11  H   -0.000000   0.000000   0.000000  -0.000000   0.000000  -0.000000
    12  C    0.000000   0.000000  -0.000000   0.000000  -0.000000  -0.000000
    13  H    0.000000   0.000000   0.000000  -0.000000   0.000000   0.000000
    14  C   -0.000000  -0.000000   0.000000   0.000000   0.000000  -0.000000
    15  H   -0.000000   0.000000  -0.000000  -0.000000   0.000000  -0.000000
    16  C   -0.000000   0.000000   0.000000  -0.000000  -0.000000   0.000000
    17  H   -0.000000  -0.000000   0.000000   0.000000  -0.000000   0.000000
    18  H    0.000000  -0.000000   0.000000  -0.000000  -0.000000  -0.000000
    19  C    0.000000   0.000000   0.000000  -0.000000  -0.000000  -0.000000
    20  H    0.000000   0.000000   0.000000  -0.000000   0.000000   0.000000
    21  C   -0.000000  -0.000000  -0.000000  -0.000000   0.000000  -0.000000
    22  H   -0.000000  -0.000000  -0.000000   0.000000  -0.000000   0.000000
    23  C   -0.000000   0.000000  -0.000000  -0.000000   0.000000   0.000000
    24  H   -0.000000   0.000000  -0.000000   0.000000   0.000000  -0.000000
    25  H    0.000000  -0.000000   0.000000   0.000000  -0.000000   0.000000
    26  C    0.000000  -0.000000   0.000000   0.000000  -0.000000  -0.000000
    27  H   -0.000000  -0.000000  -0.000000   0.000000   0.000000  -0.000000
    28  H    0.000000   0.000000   0.000000  -0.000000  -0.000000   0.000000
              13         14         15         16         17         18
     1  C   -0.000000  -0.000000   0.000000  -0.000000   0.000000  -0.000000
     2  C    0.000000  -0.000000  -0.000000   0.000000  -0.000000   0.000000
     3  H    0.000000  -0.000000  -0.000000   0.000000  -0.000000   0.000000
     4  H    0.000000  -0.000000   0.000000   0.000000  -0.000000   0.000000
     5  C   -0.000000  -0.000000  -0.000000   0.000000   0.000000  -0.000000
     6  C   -0.000000   0.000000   0.000000  -0.000000  -0.000000  -0.000000
     7  H    0.000000  -0.000000  -0.000000  -0.000000  -0.000000   0.000000
     8  H    0.000000  -0.000000   0.000000   0.000000  -0.000000  -0.000000
     9  C    0.000000   0.000000  -0.000000   0.000000   0.000000   0.000000
    10  H   -0.000000   0.000000  -0.000000  -0.000000   0.000000  -0.000000
    11  H    0.000000   0.000000   0.000000  -0.000000  -0.000000  -0.000000
    12  C    0.000000  -0.000000  -0.000000   0.000000   0.000000  -0.000000
    13  H   -0.000000   0.000000   0.000000  -0.000000  -0.000000   0.000000
    14  C    0.000000   0.000000  -0.000000  -0.000000   0.000000  -0.000000
    15  H    0.000000  -0.000000  -0.000000   0.000000  -0.000000   0.000000
    16  C   -0.000000  -0.000000   0.000000   0.000000  -0.000000  -0.000000
    17  H   -0.000000   0.000000  -0.000000  -0.000000  -0.000000   0.000000
    18  H    0.000000  -0.000000   0.000000  -0.000000   0.000000  -0.000000
    19  C    0.000000  -0.000000   0.000000  -0.000000   0.000000  -0.000000
    20  H    0.000000   0.000000  -0.000000  -0.000000  -0.000000   0.000000
    21  C   -0.000000   0.000000  -0.000000   0.000000  -0.000000   0.000000
    22  H   -0.000000   0.000000  -0.000000   0.000000  -0.000000   0.000000
    23  C    0.000000   0.000000   0.000000  -0.000000  -0.000000   0.000000
    24  H    0.000000  -0.000000  -0.000000  -0.000000   0.000000  -0.000000
    25  H   -0.000000  -0.000000   0.000000  -0.000000   0.000000  -0.000000
    26  C   -0.000000   0.000000  -0.000000  -0.000000   0.000000   0.000000
    27  H   -0.000000   0.000000  -0.000000  -0.000000   0.000000   0.000000
    28  H    0.000000  -0.000000   0.000000  -0.000000  -0.000000  -0.000000
              19         20         21         22         23         24
     1  C    0.000000   0.000000   0.000000  -0.000000  -0.000000  -0.000000
     2  C    0.000000   0.000000  -0.000000   0.000000  -0.000000   0.000000
     3  H    0.000000   0.000000  -0.000000  -0.000000   0.000000  -0.000000
     4  H    0.000000   0.000000  -0.000000  -0.000000  -0.000000  -0.000000
[...]
     1  C   -0.000000   0.000000   0.000000  -0.000000
     2  C   -0.000000   0.000000   0.000000   0.000000
     3  H    0.000000  -0.000000  -0.000000   0.000000
     4  H    0.000000  -0.000000   0.000000   0.000000
     5  C    0.000000   0.000000   0.000000  -0.000000
     6  C   -0.000000  -0.000000  -0.000000   0.000000
     7  H    0.000000   0.000000  -0.000000   0.000000
     8  H   -0.000000  -0.000000  -0.000000   0.000000
     9  C    0.000000   0.000000  -0.000000   0.000000
    10  H    0.000000   0.000000   0.000000  -0.000000
    11  H   -0.000000  -0.000000   0.000000  -0.000000
    12  C    0.000000  -0.000000  -0.000000   0.000000
    13  H   -0.000000  -0.000000  -0.000000   0.000000
    14  C   -0.000000   0.000000   0.000000  -0.000000
    15  H    0.000000  -0.000000  -0.000000   0.000000
    16  C   -0.000000  -0.000000  -0.000000  -0.000000
    17  H    0.000000   0.000000   0.000000  -0.000000
    18  H   -0.000000   0.000000   0.000000  -0.000000
    19  C    0.000000  -0.000000   0.000000  -0.000000
    20  H    0.000000   0.000000  -0.000000   0.000000
    21  C   -0.000000  -0.000000   0.000000  -0.000000
    22  H    0.000000   0.000000  -0.000000   0.000000
    23  C    0.000000  -0.000000  -0.000000  -0.000000
    24  H    0.000000   0.000000   0.000000   0.000000
    25  H   -0.000000   0.000000   0.000000  -0.000000
    26  C    0.000000  -0.000000   0.000000   0.000000
    27  H    0.000000   0.000000   0.000000  -0.000000
    28  H   -0.000000   0.000000  -0.000000   0.000000
 Mulliken charges and spin densities:
               1          2
     1  C   -0.209359  -0.000000
     2  C   -0.191592   0.000000
     3  H    0.141582   0.000000
     4  H    0.167596  -0.000000
     5  C   -0.158025   0.000000
     6  C   -0.191449  -0.000000
     7  H    0.154073   0.000000
     8  H    0.167479   0.000000
     9  C   -0.213025  -0.000001
    10  H    0.119710   0.000000
    11  H    0.141504   0.000000
    12  C   -0.163717  -0.000000
    13  H    0.144969  -0.000000
    14  C   -0.209396   0.000000
    15  H    0.141590  -0.000000
    16  C   -0.172851   0.000000
    17  H    0.113040  -0.000000
    18  H    0.126080  -0.000000
    19  C   -0.158002  -0.000000
    20  H    0.154153  -0.000000
    21  C   -0.163700   0.000000
    22  H    0.144969   0.000000
    23  C   -0.213077   0.000001
    24  H    0.141545  -0.000000
    25  H    0.119677  -0.000000
    26  C   -0.172893  -0.000000
    27  H    0.126088   0.000000
    28  H    0.113031   0.000000
 Sum of Mulliken charges =  -0.00000  -0.00000
 Mulliken charges and spin densities with hydrogens summed into heavy atoms:
               1          2
     1  C   -0.067777  -0.000000
     2  C   -0.023997   0.000000
     5  C   -0.003952   0.000000
     6  C   -0.023970  -0.000000
     9  C    0.048189  -0.000000
    12  C   -0.018748  -0.000000
    14  C   -0.067807   0.000000
    16  C    0.066269   0.000000
    19  C   -0.003849  -0.000000
    21  C   -0.018730   0.000000
    23  C    0.048145   0.000000
    26  C    0.066226  -0.000000
 Electronic spatial extent (au):  <R**2>=           2250.6742
 Charge=             -0.0000 electrons
 Dipole moment (field-independent basis, Debye):
    X=              0.0002    Y=             -0.0005    Z=             -0.0001  Tot=              0.0005
 Quadrupole moment (field-independent basis, Debye-Ang):
   XX=            -72.2295   YY=            -69.8427   ZZ=            -77.2004
   XY=             -3.3348   XZ=             -3.4834   YZ=             -1.6594
 Traceless Quadrupole moment (field-independent basis, Debye-Ang):
   XX=              0.8614   YY=              3.2482   ZZ=             -4.1096
   XY=             -3.3348   XZ=             -3.4834   YZ=             -1.6594
 Octapole moment (field-independent basis, Debye-Ang**2):
  XXX=              0.0025  YYY=             -0.0029  ZZZ=             -0.0001  XYY=             -0.0007
  XXY=             -0.0018  XXZ=              0.0010  XZZ=              0.0007  YZZ=             -0.0010
  YYZ=             -0.0010  XYZ=             -0.0003
 Hexadecapole moment (field-independent basis, Debye-Ang**3):
 XXXX=          -2063.4295 YYYY=           -629.3562 ZZZZ=           -372.6804 XXXY=           -107.3357
 XXXZ=           -133.6326 YYYX=            -61.4433 YYYZ=             -3.9635 ZZZX=            -82.1935
 ZZZY=            -14.8677 XXYY=           -446.8667 XXZZ=           -429.6633 YYZZ=           -182.2807
 XXYZ=            -22.4430 YYXZ=            -30.2083 ZZXY=            -44.4520
 N-N= 6.824998271437D+02 E-N=-2.446784579419D+03  KE= 4.642327561873D+02
                          Isotropic Fermi Contact Couplings
        Atom                 a.u.       MegaHertz       Gauss      10(-4) cm-1
     1  C(13)             -0.00000      -0.00003      -0.00001      -0.00001
     2  C(13)              0.00000       0.00000       0.00000       0.00000
     3  H(1)               0.00000       0.00003       0.00001       0.00001
     4  H(1)              -0.00000      -0.00002      -0.00001      -0.00001
     5  C(13)             -0.00000      -0.00000      -0.00000      -0.00000
     6  C(13)              0.00000       0.00001       0.00000       0.00000
     7  H(1)               0.00000       0.00004       0.00001       0.00001
     8  H(1)               0.00000       0.00002       0.00001       0.00001
     9  C(13)             -0.00000      -0.00019      -0.00007      -0.00006
    10  H(1)               0.00000       0.00011       0.00004       0.00004
    11  H(1)               0.00000       0.00013       0.00005       0.00004
    12  C(13)              0.00000       0.00000       0.00000       0.00000
    13  H(1)              -0.00000      -0.00003      -0.00001      -0.00001
    14  C(13)              0.00000       0.00002       0.00001       0.00001
    15  H(1)              -0.00000      -0.00003      -0.00001      -0.00001
    16  C(13)              0.00000       0.00010       0.00003       0.00003
    17  H(1)              -0.00000      -0.00002      -0.00001      -0.00001
    18  H(1)              -0.00000      -0.00001      -0.00000      -0.00000
    19  C(13)             -0.00000      -0.00001      -0.00000      -0.00000
    20  H(1)              -0.00000      -0.00003      -0.00001      -0.00001
    21  C(13)              0.00000       0.00001       0.00000       0.00000
    22  H(1)               0.00000       0.00003       0.00001       0.00001
    23  C(13)              0.00000       0.00018       0.00007       0.00006
    24  H(1)              -0.00000      -0.00013      -0.00005      -0.00004
    25  H(1)              -0.00000      -0.00010      -0.00004      -0.00003
    26  C(13)             -0.00000      -0.00009      -0.00003      -0.00003
    27  H(1)               0.00000       0.00000       0.00000       0.00000
    28  H(1)               0.00000       0.00002       0.00001       0.00001
 --------------------------------------------------------
       Center         ----  Spin Dipole Couplings  ----
                      3XX-RR        3YY-RR        3ZZ-RR
 --------------------------------------------------------
     1   Atom       -0.000000      0.000000     -0.000000
     2   Atom        0.000000     -0.000000      0.000000
     3   Atom       -0.000000      0.000000     -0.000000
     4   Atom        0.000000     -0.000000      0.000000
     5   Atom       -0.000000     -0.000000      0.000000
     6   Atom       -0.000000      0.000000     -0.000000
     7   Atom        0.000000     -0.000000      0.000000
     8   Atom       -0.000000      0.000000     -0.000000
     9   Atom       -0.000000      0.000000     -0.000000
    10   Atom        0.000000      0.000000     -0.000000
    11   Atom        0.000000     -0.000000      0.000000
    12   Atom        0.000000      0.000000     -0.000000
    13   Atom        0.000000      0.000000     -0.000000
    14   Atom        0.000000     -0.000000      0.000000
    15   Atom        0.000000     -0.000000      0.000000
    16   Atom        0.000000     -0.000000      0.000000
    17   Atom       -0.000000     -0.000000      0.000000
    18   Atom        0.000000      0.000000     -0.000000
    19   Atom        0.000000      0.000000     -0.000000
    20   Atom        0.000000      0.000000     -0.000000
    21   Atom       -0.000000     -0.000000      0.000000
    22   Atom       -0.000000     -0.000000      0.000000
    23   Atom        0.000000     -0.000000      0.000000
    24   Atom       -0.000000      0.000000     -0.000000
    25   Atom       -0.000000     -0.000000      0.000000
    26   Atom       -0.000000      0.000000     -0.000000
    27   Atom       -0.000000     -0.000000      0.000000
    28   Atom        0.000000      0.000000     -0.000000
 --------------------------------------------------------
                        XY            XZ            YZ
 --------------------------------------------------------
     1   Atom        0.000000     -0.000000      0.000000
     2   Atom        0.000000      0.000000      0.000000
     3   Atom       -0.000000      0.000000      0.000000
     4   Atom        0.000000     -0.000000      0.000000
     5   Atom        0.000000      0.000000     -0.000000
     6   Atom       -0.000000     -0.000000     -0.000000
     7   Atom        0.000000      0.000000     -0.000000
     8   Atom       -0.000000      0.000000     -0.000000
     9   Atom       -0.000000     -0.000000     -0.000000
    10   Atom        0.000000     -0.000000      0.000000
    11   Atom       -0.000000     -0.000000     -0.000000
    12   Atom       -0.000000      0.000000     -0.000000
    13   Atom       -0.000000     -0.000000     -0.000000
    14   Atom       -0.000000      0.000000     -0.000000
    15   Atom        0.000000     -0.000000     -0.000000
    16   Atom       -0.000000     -0.000000     -0.000000
    17   Atom        0.000000      0.000000      0.000000
    18   Atom       -0.000000      0.000000     -0.000000
    19   Atom       -0.000000     -0.000000     -0.000000
    20   Atom        0.000000     -0.000000      0.000000
    21   Atom        0.000000      0.000000      0.000000
    22   Atom        0.000000      0.000000      0.000000
    23   Atom        0.000000      0.000000      0.000000
    24   Atom        0.000000      0.000000      0.000000
    25   Atom       -0.000000      0.000000     -0.000000
    26   Atom        0.000000      0.000000      0.000000
    27   Atom        0.000000     -0.000000      0.000000
    28   Atom       -0.000000     -0.000000     -0.000000
 --------------------------------------------------------


 ---------------------------------------------------------------------------------
              Anisotropic Spin Dipole Couplings in Principal Axis System
 ---------------------------------------------------------------------------------

       Atom             a.u.   MegaHertz   Gauss  10(-4) cm-1        Axes

              Baa    -0.0000    -0.000    -0.000    -0.000  0.6867 -0.1715  0.7064
     1 C(13)  Bbb     0.0000     0.000     0.000     0.000  0.6696  0.5275 -0.5228
              Bcc     0.0000     0.000     0.000     0.000 -0.2830  0.8321  0.4770
 
              Baa    -0.0000    -0.000    -0.000    -0.000 -0.4313  0.8911  0.1411
     2 C(13)  Bbb    -0.0000    -0.000    -0.000    -0.000  0.6993  0.4290 -0.5718
              Bcc     0.0000     0.000     0.000     0.000  0.5701  0.1480  0.8082
 
              Baa    -0.0000    -0.000    -0.000    -0.000 -0.5867 -0.1585  0.7942
     3 H(1)   Bbb     0.0000     0.000     0.000     0.000  0.8090 -0.1590  0.5659
              Bcc     0.0000     0.000     0.000     0.000  0.0366  0.9745  0.2215
 
              Baa    -0.0000    -0.000    -0.000    -0.000 -0.0888  0.9768 -0.1948
     4 H(1)   Bbb    -0.0000    -0.000    -0.000    -0.000  0.4991  0.2129  0.8400
              Bcc     0.0000     0.000     0.000     0.000  0.8620 -0.0226 -0.5064
 
              Baa    -0.0000    -0.000    -0.000    -0.000 -0.1292  0.9912  0.0295
     5 C(13)  Bbb    -0.0000    -0.000    -0.000    -0.000  0.9885  0.1311 -0.0755
              Bcc     0.0000     0.000     0.000     0.000  0.0787 -0.0194  0.9967
 
              Baa    -0.0000    -0.000    -0.000    -0.000  0.6268  0.1411  0.7663
     6 C(13)  Bbb     0.0000     0.000     0.000     0.000  0.6385  0.4707 -0.6089
              Bcc     0.0000     0.000     0.000     0.000 -0.4466  0.8709  0.2049
 
              Baa    -0.0000    -0.000    -0.000    -0.000 -0.3654  0.9074  0.2078
     7 H(1)   Bbb    -0.0000    -0.000    -0.000    -0.000  0.8089  0.4199 -0.4115
              Bcc     0.0000     0.000     0.000     0.000  0.4606 -0.0177  0.8874
 
              Baa    -0.0000    -0.000    -0.000    -0.000  0.8750 -0.0422 -0.4824
     8 H(1)   Bbb     0.0000     0.000     0.000     0.000  0.4766  0.2511  0.8425
              Bcc     0.0000     0.000     0.000     0.000 -0.0856  0.9671 -0.2398
 
              Baa    -0.0000    -0.000    -0.000    -0.000  0.7167  0.3947  0.5749
     9 C(13)  Bbb    -0.0000    -0.000    -0.000    -0.000 -0.5040 -0.2767  0.8182
              Bcc     0.0000     0.000     0.000     0.000 -0.4820  0.8762 -0.0006
 
              Baa    -0.0000    -0.000    -0.000    -0.000  0.4234 -0.1093  0.8993
    10 H(1)   Bbb     0.0000     0.000     0.000     0.000 -0.4046  0.8654  0.2957
              Bcc     0.0000     0.000     0.000     0.000  0.8106  0.4890 -0.3222
 
              Baa    -0.0000    -0.000    -0.000    -0.000  0.5544  0.8200  0.1423
    11 H(1)   Bbb     0.0000     0.000     0.000     0.000 -0.2819  0.0242  0.9591
              Bcc     0.0000     0.000     0.000     0.000  0.7831 -0.5718  0.2446
 
              Baa    -0.0000    -0.000    -0.000    -0.000 -0.0437  0.1409  0.9891
    12 C(13)  Bbb     0.0000     0.000     0.000     0.000  0.7055  0.7053 -0.0693
              Bcc     0.0000     0.000     0.000     0.000  0.7074 -0.6947  0.1303
 
              Baa    -0.0000    -0.000    -0.000    -0.000  0.1811  0.3608  0.9149
    13 H(1)   Bbb     0.0000     0.000     0.000     0.000  0.8366  0.4325 -0.3361
              Bcc     0.0000     0.000     0.000     0.000 -0.5170  0.8263 -0.2235
 
              Baa    -0.0000    -0.000    -0.000    -0.000 -0.3163  0.7209  0.6167
    14 C(13)  Bbb    -0.0000    -0.000    -0.000    -0.000  0.5841  0.6602 -0.4722
              Bcc     0.0000     0.000     0.000     0.000  0.7475 -0.2108  0.6299
 
              Baa    -0.0000    -0.000    -0.000    -0.000  0.2024  0.9281  0.3124
    15 H(1)   Bbb    -0.0000    -0.000    -0.000    -0.000  0.8209 -0.3348  0.4626
              Bcc     0.0000     0.000     0.000     0.000 -0.5339 -0.1628  0.8297
 
              Baa    -0.0000    -0.000    -0.000    -0.000  0.0680  0.9964  0.0512
    16 C(13)  Bbb    -0.0000    -0.000    -0.000    -0.000  0.6566 -0.0833  0.7496
              Bcc     0.0000     0.000     0.000     0.000  0.7512 -0.0174 -0.6599
 
              Baa    -0.0000    -0.000    -0.000    -0.000 -0.1937  0.9262 -0.3235
    17 H(1)   Bbb    -0.0000    -0.000    -0.000    -0.000  0.9049  0.0413 -0.4237
              Bcc     0.0000     0.000     0.000     0.000  0.3790  0.3748  0.8461
 
              Baa    -0.0000    -0.000    -0.000    -0.000  0.4951  0.7057  0.5069
    18 H(1)   Bbb    -0.0000    -0.000    -0.000    -0.000 -0.5929 -0.1521  0.7908
              Bcc     0.0000     0.000     0.000     0.000 -0.6351  0.6920 -0.3431
 
              Baa    -0.0000    -0.000    -0.000    -0.000  0.1640  0.0181  0.9863
    19 C(13)  Bbb     0.0000     0.000     0.000     0.000  0.9787  0.1225 -0.1650
              Bcc     0.0000     0.000     0.000     0.000 -0.1238  0.9923  0.0024
 
              Baa    -0.0000    -0.000    -0.000    -0.000  0.4967 -0.0448  0.8668
    20 H(1)   Bbb     0.0000     0.000     0.000     0.000  0.8216 -0.2976 -0.4862
              Bcc     0.0000     0.000     0.000     0.000  0.2797  0.9536 -0.1110
 
              Baa    -0.0000    -0.000    -0.000    -0.000 -0.5312  0.8461 -0.0442
    21 C(13)  Bbb    -0.0000    -0.000    -0.000    -0.000  0.8430  0.5226 -0.1275
              Bcc     0.0000     0.000     0.000     0.000  0.0848  0.1050  0.9909
 
              Baa    -0.0000    -0.000    -0.000    -0.000  0.7905 -0.6109 -0.0428
    22 H(1)   Bbb     0.0000     0.000     0.000     0.000  0.4632  0.6421 -0.6109
              Bcc     0.0000     0.000     0.000     0.000  0.4007  0.4631  0.7906
 
              Baa    -0.0000    -0.000    -0.000    -0.000 -0.4793  0.8776  0.0045
    23 C(13)  Bbb     0.0000     0.000     0.000     0.000 -0.5333 -0.2953  0.7927
              Bcc     0.0000     0.000     0.000     0.000  0.6970  0.3776  0.6096
 
              Baa    -0.0000    -0.000    -0.000    -0.000  0.7979 -0.5603  0.2222
    24 H(1)   Bbb    -0.0000    -0.000    -0.000    -0.000 -0.2633  0.0075  0.9647
              Bcc     0.0000     0.000     0.000     0.000  0.5422  0.8282  0.1416
 
              Baa    -0.0000    -0.000    -0.000    -0.000  0.7982  0.5112 -0.3187
    25 H(1)   Bbb    -0.0000    -0.000    -0.000    -0.000 -0.4208  0.8517  0.3123
              Bcc     0.0000     0.000     0.000     0.000  0.4311 -0.1151  0.8949
 
              Baa    -0.0000    -0.000    -0.000    -0.000  0.7512 -0.0147 -0.6600
    26 C(13)  Bbb     0.0000     0.000     0.000     0.000  0.6570 -0.0798  0.7496
              Bcc     0.0000     0.000     0.000     0.000  0.0637  0.9967  0.0503
 
              Baa    -0.0000    -0.000    -0.000    -0.000 -0.6110  0.7112 -0.3478
    27 H(1)   Bbb     0.0000     0.000     0.000     0.000 -0.6656 -0.2236  0.7120
              Bcc     0.0000     0.000     0.000     0.000  0.4286  0.6665  0.6100
 
              Baa    -0.0000    -0.000    -0.000    -0.000  0.3927  0.3953  0.8304
    28 H(1)   Bbb     0.0000     0.000     0.000     0.000  0.7288  0.4169 -0.5432
              Bcc     0.0000     0.000     0.000     0.000 -0.5609  0.8185 -0.1244
 

 ---------------------------------------------------------------------------------

 No NMR shielding tensors so no spin-rotation constants.
 Leave Link  601 at Mon Aug  3 15:15:53 2020, MaxMem=  6442450944 cpu:               7.9 elap:               0.4
 (Enter /scratch/scicomp/CentOS/7.3.1611/Haswell/software/Gaussian/g16/l9999.exe)
 1\1\GINC-ATLAS-205\SP\UwB97XD\def2TZVP\C12H16\BOCHEN\03-Aug-2020\0\\#p
  uwb97xd guess=mix def2tzvp # scrf=(iefpcm,solvent=Cyclohexane,read) n
 osym 6d 10f\\endo-2 xp-pcm for eta=3\\0,1\C,0,-3.1254,-0.440005,0.2520
 83\C,0,-0.65984,-0.233754,-1.126379\H,0,-4.0842,-0.543289,0.746935\H,0
 ,0.308739,-0.142233,-1.599972\C,0,1.122664,1.417123,0.73456\C,0,0.6598
 4,0.233754,1.126379\H,0,0.530286,2.314651,0.862502\H,0,-0.308739,0.142
 233,1.599972\C,0,1.510582,-1.000676,1.048954\H,0,1.998188,-1.106214,2.
 026331\H,0,0.8883,-1.886305,0.92853\C,0,2.436831,1.523333,0.105247\H,0
 ,2.842008,2.510246,-0.084086\C,0,3.1254,0.440005,-0.252083\H,0,4.0842,
 0.543289,-0.746935\C,0,2.585867,-0.948552,-0.042215\H,0,2.191291,-1.31
 8993,-0.996443\H,0,3.399102,-1.62877,0.218906\C,0,-1.122664,-1.417123,
 -0.73456\H,0,-0.530286,-2.314651,-0.862502\C,0,-2.436831,-1.523333,-0.
 105247\H,0,-2.842008,-2.510246,0.084086\C,0,-1.510582,1.000676,-1.0489
 54\H,0,-0.8883,1.886305,-0.92853\H,0,-1.998187,1.106214,-2.026331\C,0,
 -2.585867,0.948552,0.042215\H,0,-3.399102,1.62877,-0.218906\H,0,-2.191
 291,1.318993,0.996443\\Version=ES64L-G16RevB.01\HF=-466.8503237\S2=0.\
 S2-1=0.\S2A=0.\RMSD=4.601e-09\Dipole=0.0000624,-0.0001943,-0.0000555\Q
 uadrupole=0.6403981,2.4149621,-3.0553602,-2.4793627,-2.5898265,-1.2337
 388\PG=CI [X(C12H16)]\\@


 MAN IS THE MEASURE OF ALL THINGS.
  -- PROTAGORAS (5TH CENTURY B.C.)
 Job cpu time:       0 days  2 hours  8 minutes 28.2 seconds.
 Elapsed time:       0 days  0 hours  5 minutes 24.4 seconds.
 File lengths (MBytes):  RWF=    643 Int=      0 D2E=      0 Chk=     24 Scr=      1
 Normal termination of Gaussian 16 at Mon Aug  3 15:15:53 2020.
