 Entering Gaussian System, Link 0=g16
 Input=meso-TS_82_2_xp-Vc.com
 Output=meso-TS_82_2_xp-Vc.log
 Initial command:
 /scratch/scicomp/CentOS/7.3.1611/Haswell/software/Gaussian/g16/l1.exe "/scratch/bochen/cyclohexadiene-dimerization/wb97xd-def2tzvp/xp-pcm/meso/Gau-71499.inp" -scrdir="/scratch/bochen/cyclohexadiene-dimerization/wb97xd-def2tzvp/xp-pcm/meso/"
 Entering Link 1 = /scratch/scicomp/CentOS/7.3.1611/Haswell/software/Gaussian/g16/l1.exe PID=     71500.
  
 Copyright (c) 1988-2017, Gaussian, Inc.  All Rights Reserved.
  
 This is part of the Gaussian(R) 16 program.  It is based on
 the Gaussian(R) 09 system (copyright 2009, Gaussian, Inc.),
 the Gaussian(R) 03 system (copyright 2003, Gaussian, Inc.),
 the Gaussian(R) 98 system (copyright 1998, Gaussian, Inc.),
 the Gaussian(R) 94 system (copyright 1995, Gaussian, Inc.),
 the Gaussian 92(TM) system (copyright 1992, Gaussian, Inc.),
 the Gaussian 90(TM) system (copyright 1990, Gaussian, Inc.),
 the Gaussian 88(TM) system (copyright 1988, Gaussian, Inc.),
 the Gaussian 86(TM) system (copyright 1986, Carnegie Mellon
 University), and the Gaussian 82(TM) system (copyright 1983,
 Carnegie Mellon University). Gaussian is a federally registered
 trademark of Gaussian, Inc.
  
 This software contains proprietary and confidential information,
 including trade secrets, belonging to Gaussian, Inc.
  
 This software is provided under written license and may be
 used, copied, transmitted, or stored only in accord with that
 written license.
  
 The following legend is applicable only to US Government
 contracts under FAR:
  
                    RESTRICTED RIGHTS LEGEND
  
 Use, reproduction and disclosure by the US Government is
 subject to restrictions as set forth in subparagraphs (a)
 and (c) of the Commercial Computer Software - Restricted
 Rights clause in FAR 52.227-19.
  
 Gaussian, Inc.
 340 Quinnipiac St., Bldg. 40, Wallingford CT 06492
  
  
 ---------------------------------------------------------------
 Warning -- This program may not be used in any manner that
 competes with the business of Gaussian, Inc. or will provide
 assistance to any competitor of Gaussian, Inc.  The licensee
 of this program is prohibited from giving any competitor of
 Gaussian, Inc. access to this program.  By using this program,
 the user acknowledges that Gaussian, Inc. is engaged in the
 business of creating and licensing software in the field of
 computational chemistry and represents and warrants to the
 licensee that it is not a competitor of Gaussian, Inc. and that
 it will not use this program in any manner prohibited above.
 ---------------------------------------------------------------
  

 Cite this work as:
 Gaussian 16, Revision B.01,
 M. J. Frisch, G. W. Trucks, H. B. Schlegel, G. E. Scuseria, 
 M. A. Robb, J. R. Cheeseman, G. Scalmani, V. Barone, 
 G. A. Petersson, H. Nakatsuji, X. Li, M. Caricato, A. V. Marenich, 
 J. Bloino, B. G. Janesko, R. Gomperts, B. Mennucci, H. P. Hratchian, 
 J. V. Ortiz, A. F. Izmaylov, J. L. Sonnenberg, D. Williams-Young, 
 F. Ding, F. Lipparini, F. Egidi, J. Goings, B. Peng, A. Petrone, 
 T. Henderson, D. Ranasinghe, V. G. Zakrzewski, J. Gao, N. Rega, 
 G. Zheng, W. Liang, M. Hada, M. Ehara, K. Toyota, R. Fukuda, 
 J. Hasegawa, M. Ishida, T. Nakajima, Y. Honda, O. Kitao, H. Nakai, 
 T. Vreven, K. Throssell, J. A. Montgomery, Jr., J. E. Peralta, 
 F. Ogliaro, M. J. Bearpark, J. J. Heyd, E. N. Brothers, K. N. Kudin, 
 V. N. Staroverov, T. A. Keith, R. Kobayashi, J. Normand, 
 K. Raghavachari, A. P. Rendell, J. C. Burant, S. S. Iyengar, 
 J. Tomasi, M. Cossi, J. M. Millam, M. Klene, C. Adamo, R. Cammi, 
 J. W. Ochterski, R. L. Martin, K. Morokuma, O. Farkas, 
 J. B. Foresman, and D. J. Fox, Gaussian, Inc., Wallingford CT, 2016.
 
 ******************************************
 Gaussian 16:  ES64L-G16RevB.01 20-Dec-2017
                 3-Aug-2020 
 ******************************************
 %chk=meso-TS_82_2_xp-12.chk
 %nproc=24
 Will use up to   24 processors via shared memory.
 %mem=48GB
 ----------------------------------------------------------------------
 #p uwb97xd guess=mix def2tzvp # scrf=(iefpcm,solvent=Cyclohexane,read)
  nosym guess=only pop=none
 ----------------------------------------------------------------------
 1/38=1,40=2,172=1/1;
 2/12=2,15=1,17=6,18=5,40=1/2;
 3/5=44,7=101,11=2,25=1,30=1,70=2203,72=17,74=-58,89=1,116=2/1,2;
 4/13=-1/1;
 99/5=2/99;
 Leave Link    1 at Mon Aug  3 17:18:14 2020, MaxMem=  6442450944 cpu:               1.6 elap:               0.1
 (Enter /scratch/scicomp/CentOS/7.3.1611/Haswell/software/Gaussian/g16/l101.exe)
 -----------------------
 endo-2 xp-pcm for eta=3
 -----------------------
 Symbolic Z-matrix:
 Charge =  0 Multiplicity = 1
 6                    -3.11135  -0.43802   0.28848 
 6                    -0.83889  -0.28004  -1.39646 
 1                    -4.01885  -0.51218   0.87639 
 1                     0.07429  -0.21086  -1.9754 
 6                     1.24359   1.44575   0.89871 
 6                     0.83889   0.28004   1.39646 
 1                     0.66168   2.34598   1.05776 
 1                    -0.07429   0.21086   1.9754 
 6                     1.6632   -0.96411   1.22734 
 1                     2.29857  -1.0725    2.11632 
 1                     1.01584  -1.84232   1.20508 
 6                     2.49012   1.53696   0.13628 
 1                     2.89263   2.5174   -0.08862 
 6                     3.11135   0.43802  -0.28848 
 1                     4.01885   0.51218  -0.87639 
 6                     2.53443  -0.92699  -0.03016 
 1                     1.93625  -1.21723  -0.90259 
 1                     3.33118  -1.66882   0.04844 
 6                    -1.24359  -1.44575  -0.89871 
 1                    -0.66168  -2.34598  -1.05776 
 6                    -2.49012  -1.53696  -0.13628 
 1                    -2.89263  -2.5174    0.08862 
 6                    -1.6632    0.96411  -1.22734 
 1                    -1.01584   1.84232  -1.20508 
 1                    -2.29857   1.0725   -2.11632 
 6                    -2.53443   0.92699   0.03016 
 1                    -3.33118   1.66882  -0.04844 
 1                    -1.93625   1.21723   0.90259 
 
 ITRead=  0  0  0  0  0  0  0  0  0  0  0  0  0  0  0  0  0  0  0  0
 ITRead=  0  0  0  0  0  0  0  0
 MicOpt= -1 -1 -1 -1 -1 -1 -1 -1 -1 -1 -1 -1 -1 -1 -1 -1 -1 -1 -1 -1
 MicOpt= -1 -1 -1 -1 -1 -1 -1 -1
 NAtoms=     28 NQM=       28 NQMF=       0 NMMI=      0 NMMIF=      0
                NMic=       0 NMicF=      0.
                    Isotopes and Nuclear Properties:
 (Nuclear quadrupole moments (NQMom) in fm**2, nuclear magnetic moments (NMagM)
  in nuclear magnetons)

  Atom         1           2           3           4           5           6           7           8           9          10
 IAtWgt=          12          12           1           1          12          12           1           1          12           1
 AtmWgt=  12.0000000  12.0000000   1.0078250   1.0078250  12.0000000  12.0000000   1.0078250   1.0078250  12.0000000   1.0078250
 NucSpn=           0           0           1           1           0           0           1           1           0           1
 AtZEff=  -0.0000000  -0.0000000  -0.0000000  -0.0000000  -0.0000000  -0.0000000  -0.0000000  -0.0000000  -0.0000000  -0.0000000
 NQMom=    0.0000000   0.0000000   0.0000000   0.0000000   0.0000000   0.0000000   0.0000000   0.0000000   0.0000000   0.0000000
 NMagM=    0.0000000   0.0000000   2.7928460   2.7928460   0.0000000   0.0000000   2.7928460   2.7928460   0.0000000   2.7928460
 AtZNuc=   6.0000000   6.0000000   1.0000000   1.0000000   6.0000000   6.0000000   1.0000000   1.0000000   6.0000000   1.0000000

  Atom        11          12          13          14          15          16          17          18          19          20
 IAtWgt=           1          12           1          12           1          12           1           1          12           1
 AtmWgt=   1.0078250  12.0000000   1.0078250  12.0000000   1.0078250  12.0000000   1.0078250   1.0078250  12.0000000   1.0078250
 NucSpn=           1           0           1           0           1           0           1           1           0           1
 AtZEff=  -0.0000000  -0.0000000  -0.0000000  -0.0000000  -0.0000000  -0.0000000  -0.0000000  -0.0000000  -0.0000000  -0.0000000
 NQMom=    0.0000000   0.0000000   0.0000000   0.0000000   0.0000000   0.0000000   0.0000000   0.0000000   0.0000000   0.0000000
 NMagM=    2.7928460   0.0000000   2.7928460   0.0000000   2.7928460   0.0000000   2.7928460   2.7928460   0.0000000   2.7928460
 AtZNuc=   1.0000000   6.0000000   1.0000000   6.0000000   1.0000000   6.0000000   1.0000000   1.0000000   6.0000000   1.0000000

  Atom        21          22          23          24          25          26          27          28
 IAtWgt=          12           1          12           1           1          12           1           1
 AtmWgt=  12.0000000   1.0078250  12.0000000   1.0078250   1.0078250  12.0000000   1.0078250   1.0078250
 NucSpn=           0           1           0           1           1           0           1           1
 AtZEff=  -0.0000000  -0.0000000  -0.0000000  -0.0000000  -0.0000000  -0.0000000  -0.0000000  -0.0000000
 NQMom=    0.0000000   0.0000000   0.0000000   0.0000000   0.0000000   0.0000000   0.0000000   0.0000000
 NMagM=    0.0000000   2.7928460   0.0000000   2.7928460   2.7928460   0.0000000   2.7928460   2.7928460
 AtZNuc=   6.0000000   1.0000000   6.0000000   1.0000000   1.0000000   6.0000000   1.0000000   1.0000000
 Leave Link  101 at Mon Aug  3 17:18:15 2020, MaxMem=  6442450944 cpu:               2.4 elap:               0.1
 (Enter /scratch/scicomp/CentOS/7.3.1611/Haswell/software/Gaussian/g16/l202.exe)
                          Input orientation:                          
 ---------------------------------------------------------------------
 Center     Atomic      Atomic             Coordinates (Angstroms)
 Number     Number       Type             X           Y           Z
 ---------------------------------------------------------------------
      1          6           0       -3.111354   -0.438024    0.288476
      2          6           0       -0.838887   -0.280035   -1.396455
      3          1           0       -4.018848   -0.512178    0.876391
      4          1           0        0.074286   -0.210856   -1.975395
      5          6           0        1.243587    1.445746    0.898709
      6          6           0        0.838887    0.280035    1.396455
      7          1           0        0.661682    2.345979    1.057759
      8          1           0       -0.074286    0.210856    1.975395
      9          6           0        1.663200   -0.964107    1.227344
     10          1           0        2.298573   -1.072496    2.116318
     11          1           0        1.015835   -1.842319    1.205078
     12          6           0        2.490124    1.536957    0.136281
     13          1           0        2.892627    2.517404   -0.088621
     14          6           0        3.111354    0.438024   -0.288476
     15          1           0        4.018848    0.512178   -0.876391
     16          6           0        2.534434   -0.926987   -0.030159
     17          1           0        1.936253   -1.217234   -0.902586
     18          1           0        3.331183   -1.668816    0.048441
     19          6           0       -1.243587   -1.445746   -0.898709
     20          1           0       -0.661682   -2.345979   -1.057759
     21          6           0       -2.490124   -1.536957   -0.136281
     22          1           0       -2.892627   -2.517404    0.088621
     23          6           0       -1.663200    0.964107   -1.227344
     24          1           0       -1.015835    1.842319   -1.205078
     25          1           0       -2.298573    1.072496   -2.116318
     26          6           0       -2.534434    0.926987    0.030159
     27          1           0       -3.331183    1.668816   -0.048441
     28          1           0       -1.936253    1.217234    0.902586
 ---------------------------------------------------------------------
                    Distance matrix (angstroms):
                    1          2          3          4          5
     1  C    0.000000
     2  C    2.833383   0.000000
     3  H    1.083830   3.915593   0.000000
     4  H    3.914718   1.083440   4.997722   0.000000
     5  C    4.783982   3.547224   5.614908   3.517395   0.000000
     6  C    4.165049   3.305896   4.949309   3.492128   1.330570
     7  H    4.751660   3.894974   5.487196   4.010295   1.083665
     8  H    3.534193   3.492128   4.158143   3.976010   2.102616
     9  C    4.894344   3.689541   5.710786   3.653707   2.468090
    10  H    5.745509   4.776110   6.462289   4.736242   2.989500
    11  H    4.454873   3.556501   5.217791   3.696430   3.310152
    12  C    5.941403   4.090606   6.863923   3.653806   1.464060
    13  H    6.702577   4.843583   7.607766   4.352742   2.200592
    14  C    6.310501   4.165049   7.286946   3.534193   2.431762
    15  H    7.286946   4.949309   8.290121   4.158143   3.424121
    16  C    5.675873   3.696567   6.628680   3.217004   2.856386
    17  H    5.244438   2.970463   6.255005   2.372896   3.288755
    18  H    6.563440   4.626653   7.486406   4.102309   3.844673
    19  C    2.431762   1.330570   3.424121   2.102616   4.216334
    20  H    3.384307   2.101010   4.286528   2.437715   4.672793
    21  C    1.331916   2.427854   2.100636   3.423022   4.889613
    22  H    2.100382   3.380698   2.431026   4.287528   5.785418
    23  C    2.522069   1.501992   3.486287   2.226876   3.633385
    24  H    3.438294   2.138299   4.346752   2.448934   3.112584
    25  H    2.953865   2.116182   3.798269   2.701354   4.666541
    26  C    1.504267   2.523293   2.234007   3.481717   3.911129
    27  H    2.144904   3.438997   2.466766   4.340914   4.677112
    28  H    2.120819   2.954931   2.707167   3.790050   3.188043
                    6          7          8          9         10
     6  C    0.000000
     7  H    2.101010   0.000000
     8  H    1.083440   2.437715   0.000000
     9  C    1.501992   3.462437   2.226876   0.000000
    10  H    2.116182   3.935217   2.701354   1.098054   0.000000
    11  H    2.138299   4.205825   2.448934   1.091253   1.751686
    12  C    2.427854   2.201554   3.423022   2.851235   3.281232
    13  H    3.380698   2.514098   4.287528   3.919716   4.254649
    14  C    2.833383   3.384307   3.914718   2.522069   2.953865
    15  H    3.915593   4.286528   4.997722   3.486287   3.798269
    16  C    2.523293   3.924675   3.481717   1.530275   2.164294
    17  H    2.954931   4.261921   3.790050   2.162229   3.044012
    18  H    3.438997   4.925803   4.340914   2.160693   2.387048
    19  C    3.547224   4.672793   3.517395   3.633385   4.666541
    20  H    3.894974   5.314243   4.010295   3.540670   4.523233
    21  C    4.090606   5.141673   3.653806   4.408824   5.312395
    22  H    4.843583   6.101216   4.352742   4.946209   5.757419
    23  C    3.689541   3.540670   3.653707   4.561627   5.569872
    24  H    3.556501   2.861498   3.696430   4.579294   5.523868
    25  H    4.776110   4.523233   4.736242   5.569872   6.606811
    26  C    3.696567   3.644812   3.217004   4.757060   5.630981
    27  H    4.626653   4.198238   4.102309   5.788244   6.625340
    28  H    2.970463   2.836796   2.372896   4.221348   4.964852
                   11         12         13         14         15
    11  H    0.000000
    12  C    3.838667   0.000000
    13  H    4.919674   1.083451   0.000000
    14  C    3.438294   1.331916   2.100382   0.000000
    15  H    4.346752   2.100636   2.431026   1.083830   0.000000
    16  C    2.160969   2.469957   3.463459   1.504267   2.234007
    17  H    2.383306   2.995261   3.940141   2.120819   2.707167
    18  H    2.593983   3.315430   4.211360   2.144904   2.466766
    19  C    3.112584   4.889613   5.785418   4.783982   5.614908
    20  H    2.861498   5.141673   6.101216   4.751660   5.487196
    21  C    3.766197   5.858849   6.739000   5.941403   6.863923
    22  H    4.120472   6.739000   7.671367   6.702577   7.607766
    23  C    4.579294   4.408824   4.946209   4.894344   5.710786
    24  H    4.849030   3.766197   4.120472   4.454873   5.217791
    25  H    5.523868   5.312395   5.757419   5.745509   6.462289
    26  C    4.653375   5.062559   5.656547   5.675873   6.628680
    27  H    5.726774   5.825729   6.281523   6.563440   7.486406
    28  H    4.262299   4.503583   5.098138   5.244438   6.255005
                   16         17         18         19         20
    16  C    0.000000
    17  H    1.096901   0.000000
    18  H    1.091466   1.747629   0.000000
    19  C    3.911129   3.188043   4.677112   0.000000
    20  H    3.644812   2.836796   4.198238   1.083665   0.000000
    21  C    5.062559   4.503583   5.825729   1.464060   2.201554
    22  H    5.656547   5.098138   6.281523   2.200592   2.514098
    23  C    4.757060   4.221348   5.788244   2.468090   3.462437
    24  H    4.653375   4.262299   5.726774   3.310152   4.205825
    25  H    5.630981   4.964852   6.625340   2.989500   3.935217
    26  C    5.397618   5.045269   6.414358   2.856386   3.924675
    27  H    6.414358   6.066690   7.452268   3.844673   4.925803
    28  H    5.045269   4.917477   6.066690   3.288755   4.261921
                   21         22         23         24         25
    21  C    0.000000
    22  H    1.083451   0.000000
    23  C    2.851235   3.919716   0.000000
    24  H    3.838667   4.919674   1.091253   0.000000
    25  H    3.281232   4.254649   1.098054   1.751686   0.000000
    26  C    2.469957   3.463459   1.530275   2.160969   2.164294
    27  H    3.315430   4.211360   2.160693   2.593983   2.387048
    28  H    2.995261   3.940141   2.162229   2.383306   3.044012
                   26         27         28
    26  C    0.000000
    27  H    1.091466   0.000000
    28  H    1.096901   1.747629   0.000000
 Symmetry turned off by external request.
 Stoichiometry    C12H16
 Framework group  CI[X(C12H16)]
 Deg. of freedom    39
 Full point group                 CI      NOp   2
 Rotational constants (GHZ):           1.6560474           0.5684855           0.5262131
 Leave Link  202 at Mon Aug  3 17:18:15 2020, MaxMem=  6442450944 cpu:               0.3 elap:               0.0
 (Enter /scratch/scicomp/CentOS/7.3.1611/Haswell/software/Gaussian/g16/l301.exe)
 Standard basis: def2TZVP (5D, 7F)
 Ernie: Thresh=  0.10000D-02 Tol=  0.10000D-05 Strict=F.
   468 basis functions,   740 primitive gaussians,   528 cartesian basis functions
    44 alpha electrons       44 beta electrons
       nuclear repulsion energy       667.8831843297 Hartrees.
 IExCor= 4639 DFT=T Ex+Corr=wB97XD ExCW=0 ScaHFX=  1.000000
 ScaDFX=  1.000000  1.000000  1.000000  1.000000 ScalE2=  1.000000  1.000000
 IRadAn=      5 IRanWt=     -1 IRanGd=            0 ICorTp=0 IEmpDi=121
 HFx  wShort=  0.000000 wLong=  0.200000 cFull=  0.222036 cShort=  0.000000 cLong=  0.777964
 DFx  wShort=  0.000000 wLong=  0.200000 cFull=  0.000000 cShort=  0.000000 cLong=  1.000000
 NAtoms=   28 NActive=   28 NUniq=   28 SFac= 1.00D+00 NAtFMM=   60 NAOKFM=F Big=F
 Integral buffers will be    131072 words long.
 Raffenetti 2 integral format.
 Two-electron integral symmetry is turned off.
 R6Disp:  Grimme-D2 Dispersion energy=       -0.0207030569 Hartrees.
 Nuclear repulsion after empirical dispersion term =      667.8624812728 Hartrees.
 Using the following non-standard input for PCM:
 qrep pcmdoc geomview  nodis nocav g03defaults tsare=0.075
 Warning! Using old PCM defaults because the g03defaults keyword was found.
 These settings can be overridden by following keywords.
 nsfe=28
 NVESolv=36  SolvMW=84.1595   Rsolv=2.815
 eps=2.0165 RhoS=0.7781
 --- end of non-standard input.
 Reading user-defined spheres from input:
 ISph  on   Nord    Re0     Alpha      Xe            Ye            Ze
 --- end of user-defined spheres data.
 ------------------------------------------------------------------------------
 Polarizable Continuum Model (PCM)
 =================================
 Model                : PCM.
 Atomic radii         : UA0 (Simple United Atom Topological Model).
 Polarization charges : Total charges.
 Charge compensation  : None.
 Solution method      : On-the-fly selection.
 Cavity type          : SES (Solvent Excluding Surface) (Alpha=1.000).
 Cavity algorithm     : GePol (RMin=0.200 OFac=0.890).
                        User-defined sphere list used, NSphG=   28.
                        Tesserae with average area of 0.075 Ang**2.
                        Smoothing algorithm: None.
                        Polarization charges: point-like.
                        Self-potential: constant (ISelfS= 1).
                        Self-field    : global E.n sum rule (ISelfD= 3).
 Solvent              : CycloHexane, Eps=   2.016500 Eps(inf)=   2.035188
                        RSolv=   2.815000 Ang.
 ------------------------------------------------------------------------------
 GePol: Number of generator spheres                  =      28
 GePol: Total number of spheres                      =     191
 GePol: Number of exposed spheres                    =     129 ( 67.54%)
 GePol: Number of tesserae                           =    4764
 GePol: Average area of tesserae                     =       0.05 Ang**2
 GePol: Minimum area of tessera                      =   0.10D-02 Ang**2
 GePol: Maximum area of tessera                      =    0.12555 Ang**2
 GePol: Number of small tesserae                     =       0
 GePol: Fraction of small tesserae (<1% of avg)      =       0.00%
 GePol: Total count of vertices                      =   16856
 GePol: Maximum number of vertices in a tessera      =       8
 GePol: Cavity surface area                          =    225.602 Ang**2
 GePol: Cavity volume                                =    258.848 Ang**3
 Leave Link  301 at Mon Aug  3 17:18:15 2020, MaxMem=  6442450944 cpu:               8.6 elap:               0.4
 (Enter /scratch/scicomp/CentOS/7.3.1611/Haswell/software/Gaussian/g16/l302.exe)
 NPDir=0 NMtPBC=     1 NCelOv=     1 NCel=       1 NClECP=     1 NCelD=      1
         NCelK=      1 NCelE2=     1 NClLst=     1 CellRange=     0.0.
 One-electron integrals computed using PRISM.
   1 Symmetry operations used in ECPInt.
 ECPInt:  NShTT=   19306 NPrTT=   56928 LenC2=   18446 LenP2D=   41622.
 LDataN:  DoStor=T MaxTD1= 6 Len=  172
 NBasis=   468 RedAO= T EigKep=  2.77D-05  NBF=   468
 NBsUse=   468 1.00D-06 EigRej= -1.00D+00 NBFU=   468
 Precomputing XC quadrature grid using
 IXCGrd= 4 IRadAn=           5 IRanWt=          -1 IRanGd=           0 AccXCQ= 0.00D+00.
 Generated NRdTot=       0 NPtTot=           0 NUsed=           0 NTot=          32
 NSgBfM=   526   526   526   526   526 MxSgAt=    28 MxSgA2=    28.
 Leave Link  302 at Mon Aug  3 17:18:16 2020, MaxMem=  6442450944 cpu:              11.8 elap:               0.5
 (Enter /scratch/scicomp/CentOS/7.3.1611/Haswell/software/Gaussian/g16/l401.exe)
 ExpMin= 9.52D-02 ExpMax= 1.36D+04 ExpMxC= 4.63D+02 IAcc=3 IRadAn=         5 AccDes= 0.00D+00
 Harris functional with IExCor= 4639 and IRadAn=       5 diagonalized for initial guess.
 HarFok:  IExCor= 4639 AccDes= 0.00D+00 IRadAn=         5 IDoV= 1 UseB2=F ITyADJ=14
 ICtDFT=  3500011 ScaDFX=  1.000000  1.000000  1.000000  1.000000
 FoFCou: FMM=F IPFlag=           0 FMFlag=      100000 FMFlg1=           0
         NFxFlg=           0 DoJE=T BraDBF=F KetDBF=T FulRan=T
         wScrn=  0.000000 ICntrl=       500 IOpCl=  0 I1Cent=   200000004 NGrid=           0
         NMat0=    1 NMatS0=      1 NMatT0=    0 NMatD0=    1 NMtDS0=    0 NMtDT0=    0
 Symmetry not used in FoFCou.
 Harris En= -444.639067808091    
 JPrj=0 DoOrth=F DoCkMO=T.
 Mixing orbitals, IMix= 1 IMixAn=  0 NRI=1 NE=   44 Coef=  7.07106781D-01  7.07106781D-01
 Mixing orbitals, IMix= 1 IMixAn=  0 NRI=1 NE=   44 Coef= -7.07106781D-01  7.07106781D-01
 Initial guess <Sx>= 0.0000 <Sy>= 0.0000 <Sz>= 0.0000 <S**2>= 1.0000 S= 0.6180
 Leave Link  401 at Mon Aug  3 17:18:18 2020, MaxMem=  6442450944 cpu:              46.6 elap:               2.0
 (Enter /scratch/scicomp/CentOS/7.3.1611/Haswell/software/Gaussian/g16/l9999.exe)

 This type of calculation cannot be archived.


  ON THE CHOICE OF THE CORRECT LANGUAGE -
 I SPEAK SPANISH TO GOD, ITALIAN TO WOMEN,
 FRENCH TO MEN, AND GERMAN TO MY HORSE.
          -- CHARLES V
 Job cpu time:       0 days  0 hours  1 minutes 12.2 seconds.
 Elapsed time:       0 days  0 hours  0 minutes  3.3 seconds.
 File lengths (MBytes):  RWF=    415 Int=      0 D2E=      0 Chk=      1 Scr=      1
 Normal termination of Gaussian 16 at Mon Aug  3 17:18:18 2020.
 Initial command:
 /scratch/scicomp/CentOS/7.3.1611/Haswell/software/Gaussian/g16/l1.exe "/scratch/bochen/cyclohexadiene-dimerization/wb97xd-def2tzvp/xp-pcm/meso/Gau-71499.inp" -scrdir="/scratch/bochen/cyclohexadiene-dimerization/wb97xd-def2tzvp/xp-pcm/meso/"
 Entering Link 1 = /scratch/scicomp/CentOS/7.3.1611/Haswell/software/Gaussian/g16/l1.exe PID=     71663.
  
 Copyright (c) 1988-2017, Gaussian, Inc.  All Rights Reserved.
  
 This is part of the Gaussian(R) 16 program.  It is based on
 the Gaussian(R) 09 system (copyright 2009, Gaussian, Inc.),
 the Gaussian(R) 03 system (copyright 2003, Gaussian, Inc.),
 the Gaussian(R) 98 system (copyright 1998, Gaussian, Inc.),
 the Gaussian(R) 94 system (copyright 1995, Gaussian, Inc.),
 the Gaussian 92(TM) system (copyright 1992, Gaussian, Inc.),
 the Gaussian 90(TM) system (copyright 1990, Gaussian, Inc.),
 the Gaussian 88(TM) system (copyright 1988, Gaussian, Inc.),
 the Gaussian 86(TM) system (copyright 1986, Carnegie Mellon
 University), and the Gaussian 82(TM) system (copyright 1983,
 Carnegie Mellon University). Gaussian is a federally registered
 trademark of Gaussian, Inc.
  
 This software contains proprietary and confidential information,
 including trade secrets, belonging to Gaussian, Inc.
  
 This software is provided under written license and may be
 used, copied, transmitted, or stored only in accord with that
 written license.
  
 The following legend is applicable only to US Government
 contracts under FAR:
  
                    RESTRICTED RIGHTS LEGEND
  
 Use, reproduction and disclosure by the US Government is
 subject to restrictions as set forth in subparagraphs (a)
 and (c) of the Commercial Computer Software - Restricted
 Rights clause in FAR 52.227-19.
  
 Gaussian, Inc.
 340 Quinnipiac St., Bldg. 40, Wallingford CT 06492
  
  
 ---------------------------------------------------------------
 Warning -- This program may not be used in any manner that
 competes with the business of Gaussian, Inc. or will provide
 assistance to any competitor of Gaussian, Inc.  The licensee
 of this program is prohibited from giving any competitor of
 Gaussian, Inc. access to this program.  By using this program,
 the user acknowledges that Gaussian, Inc. is engaged in the
 business of creating and licensing software in the field of
 computational chemistry and represents and warrants to the
 licensee that it is not a competitor of Gaussian, Inc. and that
 it will not use this program in any manner prohibited above.
 ---------------------------------------------------------------
  

 Cite this work as:
 Gaussian 16, Revision B.01,
 M. J. Frisch, G. W. Trucks, H. B. Schlegel, G. E. Scuseria, 
 M. A. Robb, J. R. Cheeseman, G. Scalmani, V. Barone, 
 G. A. Petersson, H. Nakatsuji, X. Li, M. Caricato, A. V. Marenich, 
 J. Bloino, B. G. Janesko, R. Gomperts, B. Mennucci, H. P. Hratchian, 
 J. V. Ortiz, A. F. Izmaylov, J. L. Sonnenberg, D. Williams-Young, 
 F. Ding, F. Lipparini, F. Egidi, J. Goings, B. Peng, A. Petrone, 
 T. Henderson, D. Ranasinghe, V. G. Zakrzewski, J. Gao, N. Rega, 
 G. Zheng, W. Liang, M. Hada, M. Ehara, K. Toyota, R. Fukuda, 
 J. Hasegawa, M. Ishida, T. Nakajima, Y. Honda, O. Kitao, H. Nakai, 
 T. Vreven, K. Throssell, J. A. Montgomery, Jr., J. E. Peralta, 
 F. Ogliaro, M. J. Bearpark, J. J. Heyd, E. N. Brothers, K. N. Kudin, 
 V. N. Staroverov, T. A. Keith, R. Kobayashi, J. Normand, 
 K. Raghavachari, A. P. Rendell, J. C. Burant, S. S. Iyengar, 
 J. Tomasi, M. Cossi, J. M. Millam, M. Klene, C. Adamo, R. Cammi, 
 J. W. Ochterski, R. L. Martin, K. Morokuma, O. Farkas, 
 J. B. Foresman, and D. J. Fox, Gaussian, Inc., Wallingford CT, 2016.
 
 ******************************************
 Gaussian 16:  ES64L-G16RevB.01 20-Dec-2017
                 3-Aug-2020 
 ******************************************
 %chk=meso-TS_82_2_xp-115.chk
 %nproc=24
 Will use up to   24 processors via shared memory.
 %mem=48GB
 ----------------------------------------------------------------------
 #p uwb97xd guess=mix def2tzvp # scrf=(iefpcm,solvent=Cyclohexane,read)
  nosym guess=only pop=none
 ----------------------------------------------------------------------
 1/38=1,40=2,172=1/1;
 2/12=2,15=1,17=6,18=5,40=1/2;
 3/5=44,7=101,11=2,25=1,30=1,70=2203,72=17,74=-58,89=1,116=2/1,2;
 4/13=-1/1;
 99/5=2/99;
 Leave Link    1 at Mon Aug  3 17:18:18 2020, MaxMem=  6442450944 cpu:               1.5 elap:               0.1
 (Enter /scratch/scicomp/CentOS/7.3.1611/Haswell/software/Gaussian/g16/l101.exe)
 -----------------------
 endo-2 xp-pcm for eta=3
 -----------------------
 Symbolic Z-matrix:
 Charge =  0 Multiplicity = 1
 6                    -3.11135  -0.43802   0.28848 
 6                    -0.83889  -0.28004  -1.39646 
 1                    -4.01885  -0.51218   0.87639 
 1                     0.07429  -0.21086  -1.9754 
 6                     1.24359   1.44575   0.89871 
 6                     0.83889   0.28004   1.39646 
 1                     0.66168   2.34598   1.05776 
 1                    -0.07429   0.21086   1.9754 
 6                     1.6632   -0.96411   1.22734 
 1                     2.29857  -1.0725    2.11632 
 1                     1.01584  -1.84232   1.20508 
 6                     2.49012   1.53696   0.13628 
 1                     2.89263   2.5174   -0.08862 
 6                     3.11135   0.43802  -0.28848 
 1                     4.01885   0.51218  -0.87639 
 6                     2.53443  -0.92699  -0.03016 
 1                     1.93625  -1.21723  -0.90259 
 1                     3.33118  -1.66882   0.04844 
 6                    -1.24359  -1.44575  -0.89871 
 1                    -0.66168  -2.34598  -1.05776 
 6                    -2.49012  -1.53696  -0.13628 
 1                    -2.89263  -2.5174    0.08862 
 6                    -1.6632    0.96411  -1.22734 
 1                    -1.01584   1.84232  -1.20508 
 1                    -2.29857   1.0725   -2.11632 
 6                    -2.53443   0.92699   0.03016 
 1                    -3.33118   1.66882  -0.04844 
 1                    -1.93625   1.21723   0.90259 
 
 ITRead=  0  0  0  0  0  0  0  0  0  0  0  0  0  0  0  0  0  0  0  0
 ITRead=  0  0  0  0  0  0  0  0
 MicOpt= -1 -1 -1 -1 -1 -1 -1 -1 -1 -1 -1 -1 -1 -1 -1 -1 -1 -1 -1 -1
 MicOpt= -1 -1 -1 -1 -1 -1 -1 -1
 NAtoms=     28 NQM=       28 NQMF=       0 NMMI=      0 NMMIF=      0
                NMic=       0 NMicF=      0.
                    Isotopes and Nuclear Properties:
 (Nuclear quadrupole moments (NQMom) in fm**2, nuclear magnetic moments (NMagM)
  in nuclear magnetons)

  Atom         1           2           3           4           5           6           7           8           9          10
 IAtWgt=          12          12           1           1          12          12           1           1          12           1
 AtmWgt=  12.0000000  12.0000000   1.0078250   1.0078250  12.0000000  12.0000000   1.0078250   1.0078250  12.0000000   1.0078250
 NucSpn=           0           0           1           1           0           0           1           1           0           1
 AtZEff=  -0.0000000  -0.0000000  -0.0000000  -0.0000000  -0.0000000  -0.0000000  -0.0000000  -0.0000000  -0.0000000  -0.0000000
 NQMom=    0.0000000   0.0000000   0.0000000   0.0000000   0.0000000   0.0000000   0.0000000   0.0000000   0.0000000   0.0000000
 NMagM=    0.0000000   0.0000000   2.7928460   2.7928460   0.0000000   0.0000000   2.7928460   2.7928460   0.0000000   2.7928460
 AtZNuc=   6.0000000   6.0000000   1.0000000   1.0000000   6.0000000   6.0000000   1.0000000   1.0000000   6.0000000   1.0000000

  Atom        11          12          13          14          15          16          17          18          19          20
 IAtWgt=           1          12           1          12           1          12           1           1          12           1
 AtmWgt=   1.0078250  12.0000000   1.0078250  12.0000000   1.0078250  12.0000000   1.0078250   1.0078250  12.0000000   1.0078250
 NucSpn=           1           0           1           0           1           0           1           1           0           1
 AtZEff=  -0.0000000  -0.0000000  -0.0000000  -0.0000000  -0.0000000  -0.0000000  -0.0000000  -0.0000000  -0.0000000  -0.0000000
 NQMom=    0.0000000   0.0000000   0.0000000   0.0000000   0.0000000   0.0000000   0.0000000   0.0000000   0.0000000   0.0000000
 NMagM=    2.7928460   0.0000000   2.7928460   0.0000000   2.7928460   0.0000000   2.7928460   2.7928460   0.0000000   2.7928460
 AtZNuc=   1.0000000   6.0000000   1.0000000   6.0000000   1.0000000   6.0000000   1.0000000   1.0000000   6.0000000   1.0000000

  Atom        21          22          23          24          25          26          27          28
 IAtWgt=          12           1          12           1           1          12           1           1
 AtmWgt=  12.0000000   1.0078250  12.0000000   1.0078250   1.0078250  12.0000000   1.0078250   1.0078250
 NucSpn=           0           1           0           1           1           0           1           1
 AtZEff=  -0.0000000  -0.0000000  -0.0000000  -0.0000000  -0.0000000  -0.0000000  -0.0000000  -0.0000000
 NQMom=    0.0000000   0.0000000   0.0000000   0.0000000   0.0000000   0.0000000   0.0000000   0.0000000
 NMagM=    0.0000000   2.7928460   0.0000000   2.7928460   2.7928460   0.0000000   2.7928460   2.7928460
 AtZNuc=   6.0000000   1.0000000   6.0000000   1.0000000   1.0000000   6.0000000   1.0000000   1.0000000
 Leave Link  101 at Mon Aug  3 17:18:18 2020, MaxMem=  6442450944 cpu:               2.3 elap:               0.1
 (Enter /scratch/scicomp/CentOS/7.3.1611/Haswell/software/Gaussian/g16/l202.exe)
                          Input orientation:                          
 ---------------------------------------------------------------------
 Center     Atomic      Atomic             Coordinates (Angstroms)
 Number     Number       Type             X           Y           Z
 ---------------------------------------------------------------------
      1          6           0       -3.111354   -0.438024    0.288476
      2          6           0       -0.838887   -0.280035   -1.396455
      3          1           0       -4.018848   -0.512178    0.876391
      4          1           0        0.074286   -0.210856   -1.975395
      5          6           0        1.243587    1.445746    0.898709
      6          6           0        0.838887    0.280035    1.396455
      7          1           0        0.661682    2.345979    1.057759
      8          1           0       -0.074286    0.210856    1.975395
      9          6           0        1.663200   -0.964107    1.227344
     10          1           0        2.298573   -1.072496    2.116318
     11          1           0        1.015835   -1.842319    1.205078
     12          6           0        2.490124    1.536957    0.136281
     13          1           0        2.892627    2.517404   -0.088621
     14          6           0        3.111354    0.438024   -0.288476
     15          1           0        4.018848    0.512178   -0.876391
     16          6           0        2.534434   -0.926987   -0.030159
     17          1           0        1.936253   -1.217234   -0.902586
     18          1           0        3.331183   -1.668816    0.048441
     19          6           0       -1.243587   -1.445746   -0.898709
     20          1           0       -0.661682   -2.345979   -1.057759
     21          6           0       -2.490124   -1.536957   -0.136281
     22          1           0       -2.892627   -2.517404    0.088621
     23          6           0       -1.663200    0.964107   -1.227344
     24          1           0       -1.015835    1.842319   -1.205078
     25          1           0       -2.298573    1.072496   -2.116318
     26          6           0       -2.534434    0.926987    0.030159
     27          1           0       -3.331183    1.668816   -0.048441
     28          1           0       -1.936253    1.217234    0.902586
 ---------------------------------------------------------------------
                    Distance matrix (angstroms):
                    1          2          3          4          5
     1  C    0.000000
     2  C    2.833383   0.000000
     3  H    1.083830   3.915593   0.000000
     4  H    3.914718   1.083440   4.997722   0.000000
     5  C    4.783982   3.547224   5.614908   3.517395   0.000000
     6  C    4.165049   3.305896   4.949309   3.492128   1.330570
     7  H    4.751660   3.894974   5.487196   4.010295   1.083665
     8  H    3.534193   3.492128   4.158143   3.976010   2.102616
     9  C    4.894344   3.689541   5.710786   3.653707   2.468090
    10  H    5.745509   4.776110   6.462289   4.736242   2.989500
    11  H    4.454873   3.556501   5.217791   3.696430   3.310152
    12  C    5.941403   4.090606   6.863923   3.653806   1.464060
    13  H    6.702577   4.843583   7.607766   4.352742   2.200592
    14  C    6.310501   4.165049   7.286946   3.534193   2.431762
    15  H    7.286946   4.949309   8.290121   4.158143   3.424121
    16  C    5.675873   3.696567   6.628680   3.217004   2.856386
    17  H    5.244438   2.970463   6.255005   2.372896   3.288755
    18  H    6.563440   4.626653   7.486406   4.102309   3.844673
    19  C    2.431762   1.330570   3.424121   2.102616   4.216334
    20  H    3.384307   2.101010   4.286528   2.437715   4.672793
    21  C    1.331916   2.427854   2.100636   3.423022   4.889613
    22  H    2.100382   3.380698   2.431026   4.287528   5.785418
    23  C    2.522069   1.501992   3.486287   2.226876   3.633385
    24  H    3.438294   2.138299   4.346752   2.448934   3.112584
    25  H    2.953865   2.116182   3.798269   2.701354   4.666541
    26  C    1.504267   2.523293   2.234007   3.481717   3.911129
    27  H    2.144904   3.438997   2.466766   4.340914   4.677112
    28  H    2.120819   2.954931   2.707167   3.790050   3.188043
                    6          7          8          9         10
     6  C    0.000000
     7  H    2.101010   0.000000
     8  H    1.083440   2.437715   0.000000
     9  C    1.501992   3.462437   2.226876   0.000000
    10  H    2.116182   3.935217   2.701354   1.098054   0.000000
    11  H    2.138299   4.205825   2.448934   1.091253   1.751686
    12  C    2.427854   2.201554   3.423022   2.851235   3.281232
    13  H    3.380698   2.514098   4.287528   3.919716   4.254649
    14  C    2.833383   3.384307   3.914718   2.522069   2.953865
    15  H    3.915593   4.286528   4.997722   3.486287   3.798269
    16  C    2.523293   3.924675   3.481717   1.530275   2.164294
    17  H    2.954931   4.261921   3.790050   2.162229   3.044012
    18  H    3.438997   4.925803   4.340914   2.160693   2.387048
    19  C    3.547224   4.672793   3.517395   3.633385   4.666541
    20  H    3.894974   5.314243   4.010295   3.540670   4.523233
    21  C    4.090606   5.141673   3.653806   4.408824   5.312395
    22  H    4.843583   6.101216   4.352742   4.946209   5.757419
    23  C    3.689541   3.540670   3.653707   4.561627   5.569872
    24  H    3.556501   2.861498   3.696430   4.579294   5.523868
    25  H    4.776110   4.523233   4.736242   5.569872   6.606811
    26  C    3.696567   3.644812   3.217004   4.757060   5.630981
    27  H    4.626653   4.198238   4.102309   5.788244   6.625340
    28  H    2.970463   2.836796   2.372896   4.221348   4.964852
                   11         12         13         14         15
    11  H    0.000000
    12  C    3.838667   0.000000
    13  H    4.919674   1.083451   0.000000
    14  C    3.438294   1.331916   2.100382   0.000000
    15  H    4.346752   2.100636   2.431026   1.083830   0.000000
    16  C    2.160969   2.469957   3.463459   1.504267   2.234007
    17  H    2.383306   2.995261   3.940141   2.120819   2.707167
    18  H    2.593983   3.315430   4.211360   2.144904   2.466766
    19  C    3.112584   4.889613   5.785418   4.783982   5.614908
    20  H    2.861498   5.141673   6.101216   4.751660   5.487196
    21  C    3.766197   5.858849   6.739000   5.941403   6.863923
    22  H    4.120472   6.739000   7.671367   6.702577   7.607766
    23  C    4.579294   4.408824   4.946209   4.894344   5.710786
    24  H    4.849030   3.766197   4.120472   4.454873   5.217791
    25  H    5.523868   5.312395   5.757419   5.745509   6.462289
    26  C    4.653375   5.062559   5.656547   5.675873   6.628680
    27  H    5.726774   5.825729   6.281523   6.563440   7.486406
    28  H    4.262299   4.503583   5.098138   5.244438   6.255005
                   16         17         18         19         20
    16  C    0.000000
    17  H    1.096901   0.000000
    18  H    1.091466   1.747629   0.000000
    19  C    3.911129   3.188043   4.677112   0.000000
    20  H    3.644812   2.836796   4.198238   1.083665   0.000000
    21  C    5.062559   4.503583   5.825729   1.464060   2.201554
    22  H    5.656547   5.098138   6.281523   2.200592   2.514098
    23  C    4.757060   4.221348   5.788244   2.468090   3.462437
    24  H    4.653375   4.262299   5.726774   3.310152   4.205825
    25  H    5.630981   4.964852   6.625340   2.989500   3.935217
    26  C    5.397618   5.045269   6.414358   2.856386   3.924675
    27  H    6.414358   6.066690   7.452268   3.844673   4.925803
    28  H    5.045269   4.917477   6.066690   3.288755   4.261921
                   21         22         23         24         25
    21  C    0.000000
    22  H    1.083451   0.000000
    23  C    2.851235   3.919716   0.000000
    24  H    3.838667   4.919674   1.091253   0.000000
    25  H    3.281232   4.254649   1.098054   1.751686   0.000000
    26  C    2.469957   3.463459   1.530275   2.160969   2.164294
    27  H    3.315430   4.211360   2.160693   2.593983   2.387048
    28  H    2.995261   3.940141   2.162229   2.383306   3.044012
                   26         27         28
    26  C    0.000000
    27  H    1.091466   0.000000
    28  H    1.096901   1.747629   0.000000
 Symmetry turned off by external request.
 Stoichiometry    C12H16
 Framework group  CI[X(C12H16)]
 Deg. of freedom    39
 Full point group                 CI      NOp   2
 Rotational constants (GHZ):           1.6560474           0.5684855           0.5262131
 Leave Link  202 at Mon Aug  3 17:18:18 2020, MaxMem=  6442450944 cpu:               0.3 elap:               0.0
 (Enter /scratch/scicomp/CentOS/7.3.1611/Haswell/software/Gaussian/g16/l301.exe)
 Standard basis: def2TZVP (5D, 7F)
 Ernie: Thresh=  0.10000D-02 Tol=  0.10000D-05 Strict=F.
   468 basis functions,   740 primitive gaussians,   528 cartesian basis functions
    44 alpha electrons       44 beta electrons
       nuclear repulsion energy       667.8831843297 Hartrees.
 IExCor= 4639 DFT=T Ex+Corr=wB97XD ExCW=0 ScaHFX=  1.000000
 ScaDFX=  1.000000  1.000000  1.000000  1.000000 ScalE2=  1.000000  1.000000
 IRadAn=      5 IRanWt=     -1 IRanGd=            0 ICorTp=0 IEmpDi=121
 HFx  wShort=  0.000000 wLong=  0.200000 cFull=  0.222036 cShort=  0.000000 cLong=  0.777964
 DFx  wShort=  0.000000 wLong=  0.200000 cFull=  0.000000 cShort=  0.000000 cLong=  1.000000
 NAtoms=   28 NActive=   28 NUniq=   28 SFac= 1.00D+00 NAtFMM=   60 NAOKFM=F Big=F
 Integral buffers will be    131072 words long.
 Raffenetti 2 integral format.
 Two-electron integral symmetry is turned off.
 R6Disp:  Grimme-D2 Dispersion energy=       -0.0207030569 Hartrees.
 Nuclear repulsion after empirical dispersion term =      667.8624812728 Hartrees.
 Using the following non-standard input for PCM:
 qrep pcmdoc geomview  nodis nocav g03defaults tsare=0.075
 Warning! Using old PCM defaults because the g03defaults keyword was found.
 These settings can be overridden by following keywords.
 nsfe=28
 NVESolv=36  SolvMW=84.1595   Rsolv=2.815
 eps=2.0165 RhoS=0.7781
 --- end of non-standard input.
 Reading user-defined spheres from input:
 ISph  on   Nord    Re0     Alpha      Xe            Ye            Ze
 --- end of user-defined spheres data.
 ------------------------------------------------------------------------------
 Polarizable Continuum Model (PCM)
 =================================
 Model                : PCM.
 Atomic radii         : UA0 (Simple United Atom Topological Model).
 Polarization charges : Total charges.
 Charge compensation  : None.
 Solution method      : On-the-fly selection.
 Cavity type          : SES (Solvent Excluding Surface) (Alpha=1.000).
 Cavity algorithm     : GePol (RMin=0.200 OFac=0.890).
                        User-defined sphere list used, NSphG=   28.
                        Tesserae with average area of 0.075 Ang**2.
                        Smoothing algorithm: None.
                        Polarization charges: point-like.
                        Self-potential: constant (ISelfS= 1).
                        Self-field    : global E.n sum rule (ISelfD= 3).
 Solvent              : CycloHexane, Eps=   2.016500 Eps(inf)=   2.035188
                        RSolv=   2.815000 Ang.
 ------------------------------------------------------------------------------
 GePol: Number of generator spheres                  =      28
 GePol: Total number of spheres                      =     225
 GePol: Number of exposed spheres                    =     148 ( 65.78%)
 GePol: Number of tesserae                           =    4862
 GePol: Average area of tesserae                     =       0.04 Ang**2
 GePol: Minimum area of tessera                      =   0.10D-02 Ang**2
 GePol: Maximum area of tessera                      =    0.11479 Ang**2
 GePol: Number of small tesserae                     =       0
 GePol: Fraction of small tesserae (<1% of avg)      =       0.00%
 GePol: Total count of vertices                      =   17255
 GePol: Maximum number of vertices in a tessera      =       8
 GePol: Cavity surface area                          =    218.118 Ang**2
 GePol: Cavity volume                                =    243.786 Ang**3
 Leave Link  301 at Mon Aug  3 17:18:19 2020, MaxMem=  6442450944 cpu:               8.7 elap:               0.4
 (Enter /scratch/scicomp/CentOS/7.3.1611/Haswell/software/Gaussian/g16/l302.exe)
 NPDir=0 NMtPBC=     1 NCelOv=     1 NCel=       1 NClECP=     1 NCelD=      1
         NCelK=      1 NCelE2=     1 NClLst=     1 CellRange=     0.0.
 One-electron integrals computed using PRISM.
   1 Symmetry operations used in ECPInt.
 ECPInt:  NShTT=   19306 NPrTT=   56928 LenC2=   18446 LenP2D=   41622.
 LDataN:  DoStor=T MaxTD1= 6 Len=  172
 NBasis=   468 RedAO= T EigKep=  2.77D-05  NBF=   468
 NBsUse=   468 1.00D-06 EigRej= -1.00D+00 NBFU=   468
 Precomputing XC quadrature grid using
 IXCGrd= 4 IRadAn=           5 IRanWt=          -1 IRanGd=           0 AccXCQ= 0.00D+00.
 Generated NRdTot=       0 NPtTot=           0 NUsed=           0 NTot=          32
 NSgBfM=   526   526   526   526   526 MxSgAt=    28 MxSgA2=    28.
 Leave Link  302 at Mon Aug  3 17:18:20 2020, MaxMem=  6442450944 cpu:              11.7 elap:               0.5
 (Enter /scratch/scicomp/CentOS/7.3.1611/Haswell/software/Gaussian/g16/l401.exe)
 ExpMin= 9.52D-02 ExpMax= 1.36D+04 ExpMxC= 4.63D+02 IAcc=3 IRadAn=         5 AccDes= 0.00D+00
 Harris functional with IExCor= 4639 and IRadAn=       5 diagonalized for initial guess.
 HarFok:  IExCor= 4639 AccDes= 0.00D+00 IRadAn=         5 IDoV= 1 UseB2=F ITyADJ=14
 ICtDFT=  3500011 ScaDFX=  1.000000  1.000000  1.000000  1.000000
 FoFCou: FMM=F IPFlag=           0 FMFlag=      100000 FMFlg1=           0
         NFxFlg=           0 DoJE=T BraDBF=F KetDBF=T FulRan=T
         wScrn=  0.000000 ICntrl=       500 IOpCl=  0 I1Cent=   200000004 NGrid=           0
         NMat0=    1 NMatS0=      1 NMatT0=    0 NMatD0=    1 NMtDS0=    0 NMtDT0=    0
 Symmetry not used in FoFCou.
 Harris En= -444.639067808091    
 JPrj=0 DoOrth=F DoCkMO=T.
 Mixing orbitals, IMix= 1 IMixAn=  0 NRI=1 NE=   44 Coef=  7.07106781D-01  7.07106781D-01
 Mixing orbitals, IMix= 1 IMixAn=  0 NRI=1 NE=   44 Coef= -7.07106781D-01  7.07106781D-01
 Initial guess <Sx>= 0.0000 <Sy>= 0.0000 <Sz>= 0.0000 <S**2>= 1.0000 S= 0.6180
 Leave Link  401 at Mon Aug  3 17:18:22 2020, MaxMem=  6442450944 cpu:              47.1 elap:               2.0
 (Enter /scratch/scicomp/CentOS/7.3.1611/Haswell/software/Gaussian/g16/l9999.exe)

 This type of calculation cannot be archived.


 Age does not diminish the extreme disappointment of
 having a scoop of ice cream fall from the cone.
 -- Jim Fiebig
 Job cpu time:       0 days  0 hours  1 minutes 12.7 seconds.
 Elapsed time:       0 days  0 hours  0 minutes  3.3 seconds.
 File lengths (MBytes):  RWF=    431 Int=      0 D2E=      0 Chk=      1 Scr=      1
 Normal termination of Gaussian 16 at Mon Aug  3 17:18:22 2020.
 Initial command:
 /scratch/scicomp/CentOS/7.3.1611/Haswell/software/Gaussian/g16/l1.exe "/scratch/bochen/cyclohexadiene-dimerization/wb97xd-def2tzvp/xp-pcm/meso/Gau-71499.inp" -scrdir="/scratch/bochen/cyclohexadiene-dimerization/wb97xd-def2tzvp/xp-pcm/meso/"
 Entering Link 1 = /scratch/scicomp/CentOS/7.3.1611/Haswell/software/Gaussian/g16/l1.exe PID=     71825.
  
 Copyright (c) 1988-2017, Gaussian, Inc.  All Rights Reserved.
  
 This is part of the Gaussian(R) 16 program.  It is based on
 the Gaussian(R) 09 system (copyright 2009, Gaussian, Inc.),
 the Gaussian(R) 03 system (copyright 2003, Gaussian, Inc.),
 the Gaussian(R) 98 system (copyright 1998, Gaussian, Inc.),
 the Gaussian(R) 94 system (copyright 1995, Gaussian, Inc.),
 the Gaussian 92(TM) system (copyright 1992, Gaussian, Inc.),
 the Gaussian 90(TM) system (copyright 1990, Gaussian, Inc.),
 the Gaussian 88(TM) system (copyright 1988, Gaussian, Inc.),
 the Gaussian 86(TM) system (copyright 1986, Carnegie Mellon
 University), and the Gaussian 82(TM) system (copyright 1983,
 Carnegie Mellon University). Gaussian is a federally registered
 trademark of Gaussian, Inc.
  
 This software contains proprietary and confidential information,
 including trade secrets, belonging to Gaussian, Inc.
  
 This software is provided under written license and may be
 used, copied, transmitted, or stored only in accord with that
 written license.
  
 The following legend is applicable only to US Government
 contracts under FAR:
  
                    RESTRICTED RIGHTS LEGEND
  
 Use, reproduction and disclosure by the US Government is
 subject to restrictions as set forth in subparagraphs (a)
 and (c) of the Commercial Computer Software - Restricted
 Rights clause in FAR 52.227-19.
  
 Gaussian, Inc.
 340 Quinnipiac St., Bldg. 40, Wallingford CT 06492
  
  
 ---------------------------------------------------------------
 Warning -- This program may not be used in any manner that
 competes with the business of Gaussian, Inc. or will provide
 assistance to any competitor of Gaussian, Inc.  The licensee
 of this program is prohibited from giving any competitor of
 Gaussian, Inc. access to this program.  By using this program,
 the user acknowledges that Gaussian, Inc. is engaged in the
 business of creating and licensing software in the field of
 computational chemistry and represents and warrants to the
 licensee that it is not a competitor of Gaussian, Inc. and that
 it will not use this program in any manner prohibited above.
 ---------------------------------------------------------------
  

 Cite this work as:
 Gaussian 16, Revision B.01,
 M. J. Frisch, G. W. Trucks, H. B. Schlegel, G. E. Scuseria, 
 M. A. Robb, J. R. Cheeseman, G. Scalmani, V. Barone, 
 G. A. Petersson, H. Nakatsuji, X. Li, M. Caricato, A. V. Marenich, 
 J. Bloino, B. G. Janesko, R. Gomperts, B. Mennucci, H. P. Hratchian, 
 J. V. Ortiz, A. F. Izmaylov, J. L. Sonnenberg, D. Williams-Young, 
 F. Ding, F. Lipparini, F. Egidi, J. Goings, B. Peng, A. Petrone, 
 T. Henderson, D. Ranasinghe, V. G. Zakrzewski, J. Gao, N. Rega, 
 G. Zheng, W. Liang, M. Hada, M. Ehara, K. Toyota, R. Fukuda, 
 J. Hasegawa, M. Ishida, T. Nakajima, Y. Honda, O. Kitao, H. Nakai, 
 T. Vreven, K. Throssell, J. A. Montgomery, Jr., J. E. Peralta, 
 F. Ogliaro, M. J. Bearpark, J. J. Heyd, E. N. Brothers, K. N. Kudin, 
 V. N. Staroverov, T. A. Keith, R. Kobayashi, J. Normand, 
 K. Raghavachari, A. P. Rendell, J. C. Burant, S. S. Iyengar, 
 J. Tomasi, M. Cossi, J. M. Millam, M. Klene, C. Adamo, R. Cammi, 
 J. W. Ochterski, R. L. Martin, K. Morokuma, O. Farkas, 
 J. B. Foresman, and D. J. Fox, Gaussian, Inc., Wallingford CT, 2016.
 
 ******************************************
 Gaussian 16:  ES64L-G16RevB.01 20-Dec-2017
                 3-Aug-2020 
 ******************************************
 %chk=meso-TS_82_2_xp-110.chk
 %nproc=24
 Will use up to   24 processors via shared memory.
 %mem=48GB
 ----------------------------------------------------------------------
 #p uwb97xd guess=mix def2tzvp # scrf=(iefpcm,solvent=Cyclohexane,read)
  nosym guess=only pop=none
 ----------------------------------------------------------------------
 1/38=1,40=2,172=1/1;
 2/12=2,15=1,17=6,18=5,40=1/2;
 3/5=44,7=101,11=2,25=1,30=1,70=2203,72=17,74=-58,89=1,116=2/1,2;
 4/13=-1/1;
 99/5=2/99;
 Leave Link    1 at Mon Aug  3 17:18:22 2020, MaxMem=  6442450944 cpu:               2.6 elap:               0.1
 (Enter /scratch/scicomp/CentOS/7.3.1611/Haswell/software/Gaussian/g16/l101.exe)
 -----------------------
 endo-2 xp-pcm for eta=3
 -----------------------
 Symbolic Z-matrix:
 Charge =  0 Multiplicity = 1
 6                    -3.11135  -0.43802   0.28848 
 6                    -0.83889  -0.28004  -1.39646 
 1                    -4.01885  -0.51218   0.87639 
 1                     0.07429  -0.21086  -1.9754 
 6                     1.24359   1.44575   0.89871 
 6                     0.83889   0.28004   1.39646 
 1                     0.66168   2.34598   1.05776 
 1                    -0.07429   0.21086   1.9754 
 6                     1.6632   -0.96411   1.22734 
 1                     2.29857  -1.0725    2.11632 
 1                     1.01584  -1.84232   1.20508 
 6                     2.49012   1.53696   0.13628 
 1                     2.89263   2.5174   -0.08862 
 6                     3.11135   0.43802  -0.28848 
 1                     4.01885   0.51218  -0.87639 
 6                     2.53443  -0.92699  -0.03016 
 1                     1.93625  -1.21723  -0.90259 
 1                     3.33118  -1.66882   0.04844 
 6                    -1.24359  -1.44575  -0.89871 
 1                    -0.66168  -2.34598  -1.05776 
 6                    -2.49012  -1.53696  -0.13628 
 1                    -2.89263  -2.5174    0.08862 
 6                    -1.6632    0.96411  -1.22734 
 1                    -1.01584   1.84232  -1.20508 
 1                    -2.29857   1.0725   -2.11632 
 6                    -2.53443   0.92699   0.03016 
 1                    -3.33118   1.66882  -0.04844 
 1                    -1.93625   1.21723   0.90259 
 
 ITRead=  0  0  0  0  0  0  0  0  0  0  0  0  0  0  0  0  0  0  0  0
 ITRead=  0  0  0  0  0  0  0  0
 MicOpt= -1 -1 -1 -1 -1 -1 -1 -1 -1 -1 -1 -1 -1 -1 -1 -1 -1 -1 -1 -1
 MicOpt= -1 -1 -1 -1 -1 -1 -1 -1
 NAtoms=     28 NQM=       28 NQMF=       0 NMMI=      0 NMMIF=      0
                NMic=       0 NMicF=      0.
                    Isotopes and Nuclear Properties:
 (Nuclear quadrupole moments (NQMom) in fm**2, nuclear magnetic moments (NMagM)
  in nuclear magnetons)

  Atom         1           2           3           4           5           6           7           8           9          10
 IAtWgt=          12          12           1           1          12          12           1           1          12           1
 AtmWgt=  12.0000000  12.0000000   1.0078250   1.0078250  12.0000000  12.0000000   1.0078250   1.0078250  12.0000000   1.0078250
 NucSpn=           0           0           1           1           0           0           1           1           0           1
 AtZEff=  -0.0000000  -0.0000000  -0.0000000  -0.0000000  -0.0000000  -0.0000000  -0.0000000  -0.0000000  -0.0000000  -0.0000000
 NQMom=    0.0000000   0.0000000   0.0000000   0.0000000   0.0000000   0.0000000   0.0000000   0.0000000   0.0000000   0.0000000
 NMagM=    0.0000000   0.0000000   2.7928460   2.7928460   0.0000000   0.0000000   2.7928460   2.7928460   0.0000000   2.7928460
 AtZNuc=   6.0000000   6.0000000   1.0000000   1.0000000   6.0000000   6.0000000   1.0000000   1.0000000   6.0000000   1.0000000

  Atom        11          12          13          14          15          16          17          18          19          20
 IAtWgt=           1          12           1          12           1          12           1           1          12           1
 AtmWgt=   1.0078250  12.0000000   1.0078250  12.0000000   1.0078250  12.0000000   1.0078250   1.0078250  12.0000000   1.0078250
 NucSpn=           1           0           1           0           1           0           1           1           0           1
 AtZEff=  -0.0000000  -0.0000000  -0.0000000  -0.0000000  -0.0000000  -0.0000000  -0.0000000  -0.0000000  -0.0000000  -0.0000000
 NQMom=    0.0000000   0.0000000   0.0000000   0.0000000   0.0000000   0.0000000   0.0000000   0.0000000   0.0000000   0.0000000
 NMagM=    2.7928460   0.0000000   2.7928460   0.0000000   2.7928460   0.0000000   2.7928460   2.7928460   0.0000000   2.7928460
 AtZNuc=   1.0000000   6.0000000   1.0000000   6.0000000   1.0000000   6.0000000   1.0000000   1.0000000   6.0000000   1.0000000

  Atom        21          22          23          24          25          26          27          28
 IAtWgt=          12           1          12           1           1          12           1           1
 AtmWgt=  12.0000000   1.0078250  12.0000000   1.0078250   1.0078250  12.0000000   1.0078250   1.0078250
 NucSpn=           0           1           0           1           1           0           1           1
 AtZEff=  -0.0000000  -0.0000000  -0.0000000  -0.0000000  -0.0000000  -0.0000000  -0.0000000  -0.0000000
 NQMom=    0.0000000   0.0000000   0.0000000   0.0000000   0.0000000   0.0000000   0.0000000   0.0000000
 NMagM=    0.0000000   2.7928460   0.0000000   2.7928460   2.7928460   0.0000000   2.7928460   2.7928460
 AtZNuc=   6.0000000   1.0000000   6.0000000   1.0000000   1.0000000   6.0000000   1.0000000   1.0000000
 Leave Link  101 at Mon Aug  3 17:18:22 2020, MaxMem=  6442450944 cpu:               2.4 elap:               0.1
 (Enter /scratch/scicomp/CentOS/7.3.1611/Haswell/software/Gaussian/g16/l202.exe)
                          Input orientation:                          
 ---------------------------------------------------------------------
 Center     Atomic      Atomic             Coordinates (Angstroms)
 Number     Number       Type             X           Y           Z
 ---------------------------------------------------------------------
      1          6           0       -3.111354   -0.438024    0.288476
      2          6           0       -0.838887   -0.280035   -1.396455
      3          1           0       -4.018848   -0.512178    0.876391
      4          1           0        0.074286   -0.210856   -1.975395
      5          6           0        1.243587    1.445746    0.898709
      6          6           0        0.838887    0.280035    1.396455
      7          1           0        0.661682    2.345979    1.057759
      8          1           0       -0.074286    0.210856    1.975395
      9          6           0        1.663200   -0.964107    1.227344
     10          1           0        2.298573   -1.072496    2.116318
     11          1           0        1.015835   -1.842319    1.205078
     12          6           0        2.490124    1.536957    0.136281
     13          1           0        2.892627    2.517404   -0.088621
     14          6           0        3.111354    0.438024   -0.288476
     15          1           0        4.018848    0.512178   -0.876391
     16          6           0        2.534434   -0.926987   -0.030159
     17          1           0        1.936253   -1.217234   -0.902586
     18          1           0        3.331183   -1.668816    0.048441
     19          6           0       -1.243587   -1.445746   -0.898709
     20          1           0       -0.661682   -2.345979   -1.057759
     21          6           0       -2.490124   -1.536957   -0.136281
     22          1           0       -2.892627   -2.517404    0.088621
     23          6           0       -1.663200    0.964107   -1.227344
     24          1           0       -1.015835    1.842319   -1.205078
     25          1           0       -2.298573    1.072496   -2.116318
     26          6           0       -2.534434    0.926987    0.030159
     27          1           0       -3.331183    1.668816   -0.048441
     28          1           0       -1.936253    1.217234    0.902586
 ---------------------------------------------------------------------
                    Distance matrix (angstroms):
                    1          2          3          4          5
     1  C    0.000000
     2  C    2.833383   0.000000
     3  H    1.083830   3.915593   0.000000
     4  H    3.914718   1.083440   4.997722   0.000000
     5  C    4.783982   3.547224   5.614908   3.517395   0.000000
     6  C    4.165049   3.305896   4.949309   3.492128   1.330570
     7  H    4.751660   3.894974   5.487196   4.010295   1.083665
     8  H    3.534193   3.492128   4.158143   3.976010   2.102616
     9  C    4.894344   3.689541   5.710786   3.653707   2.468090
    10  H    5.745509   4.776110   6.462289   4.736242   2.989500
    11  H    4.454873   3.556501   5.217791   3.696430   3.310152
    12  C    5.941403   4.090606   6.863923   3.653806   1.464060
    13  H    6.702577   4.843583   7.607766   4.352742   2.200592
    14  C    6.310501   4.165049   7.286946   3.534193   2.431762
    15  H    7.286946   4.949309   8.290121   4.158143   3.424121
    16  C    5.675873   3.696567   6.628680   3.217004   2.856386
    17  H    5.244438   2.970463   6.255005   2.372896   3.288755
    18  H    6.563440   4.626653   7.486406   4.102309   3.844673
    19  C    2.431762   1.330570   3.424121   2.102616   4.216334
    20  H    3.384307   2.101010   4.286528   2.437715   4.672793
    21  C    1.331916   2.427854   2.100636   3.423022   4.889613
    22  H    2.100382   3.380698   2.431026   4.287528   5.785418
    23  C    2.522069   1.501992   3.486287   2.226876   3.633385
    24  H    3.438294   2.138299   4.346752   2.448934   3.112584
    25  H    2.953865   2.116182   3.798269   2.701354   4.666541
    26  C    1.504267   2.523293   2.234007   3.481717   3.911129
    27  H    2.144904   3.438997   2.466766   4.340914   4.677112
    28  H    2.120819   2.954931   2.707167   3.790050   3.188043
                    6          7          8          9         10
     6  C    0.000000
     7  H    2.101010   0.000000
     8  H    1.083440   2.437715   0.000000
     9  C    1.501992   3.462437   2.226876   0.000000
    10  H    2.116182   3.935217   2.701354   1.098054   0.000000
    11  H    2.138299   4.205825   2.448934   1.091253   1.751686
    12  C    2.427854   2.201554   3.423022   2.851235   3.281232
    13  H    3.380698   2.514098   4.287528   3.919716   4.254649
    14  C    2.833383   3.384307   3.914718   2.522069   2.953865
    15  H    3.915593   4.286528   4.997722   3.486287   3.798269
    16  C    2.523293   3.924675   3.481717   1.530275   2.164294
    17  H    2.954931   4.261921   3.790050   2.162229   3.044012
    18  H    3.438997   4.925803   4.340914   2.160693   2.387048
    19  C    3.547224   4.672793   3.517395   3.633385   4.666541
    20  H    3.894974   5.314243   4.010295   3.540670   4.523233
    21  C    4.090606   5.141673   3.653806   4.408824   5.312395
    22  H    4.843583   6.101216   4.352742   4.946209   5.757419
    23  C    3.689541   3.540670   3.653707   4.561627   5.569872
    24  H    3.556501   2.861498   3.696430   4.579294   5.523868
    25  H    4.776110   4.523233   4.736242   5.569872   6.606811
    26  C    3.696567   3.644812   3.217004   4.757060   5.630981
    27  H    4.626653   4.198238   4.102309   5.788244   6.625340
    28  H    2.970463   2.836796   2.372896   4.221348   4.964852
                   11         12         13         14         15
    11  H    0.000000
    12  C    3.838667   0.000000
    13  H    4.919674   1.083451   0.000000
    14  C    3.438294   1.331916   2.100382   0.000000
    15  H    4.346752   2.100636   2.431026   1.083830   0.000000
    16  C    2.160969   2.469957   3.463459   1.504267   2.234007
    17  H    2.383306   2.995261   3.940141   2.120819   2.707167
    18  H    2.593983   3.315430   4.211360   2.144904   2.466766
    19  C    3.112584   4.889613   5.785418   4.783982   5.614908
    20  H    2.861498   5.141673   6.101216   4.751660   5.487196
    21  C    3.766197   5.858849   6.739000   5.941403   6.863923
    22  H    4.120472   6.739000   7.671367   6.702577   7.607766
    23  C    4.579294   4.408824   4.946209   4.894344   5.710786
    24  H    4.849030   3.766197   4.120472   4.454873   5.217791
    25  H    5.523868   5.312395   5.757419   5.745509   6.462289
    26  C    4.653375   5.062559   5.656547   5.675873   6.628680
    27  H    5.726774   5.825729   6.281523   6.563440   7.486406
    28  H    4.262299   4.503583   5.098138   5.244438   6.255005
                   16         17         18         19         20
    16  C    0.000000
    17  H    1.096901   0.000000
    18  H    1.091466   1.747629   0.000000
    19  C    3.911129   3.188043   4.677112   0.000000
    20  H    3.644812   2.836796   4.198238   1.083665   0.000000
    21  C    5.062559   4.503583   5.825729   1.464060   2.201554
    22  H    5.656547   5.098138   6.281523   2.200592   2.514098
    23  C    4.757060   4.221348   5.788244   2.468090   3.462437
    24  H    4.653375   4.262299   5.726774   3.310152   4.205825
    25  H    5.630981   4.964852   6.625340   2.989500   3.935217
    26  C    5.397618   5.045269   6.414358   2.856386   3.924675
    27  H    6.414358   6.066690   7.452268   3.844673   4.925803
    28  H    5.045269   4.917477   6.066690   3.288755   4.261921
                   21         22         23         24         25
    21  C    0.000000
    22  H    1.083451   0.000000
    23  C    2.851235   3.919716   0.000000
    24  H    3.838667   4.919674   1.091253   0.000000
    25  H    3.281232   4.254649   1.098054   1.751686   0.000000
    26  C    2.469957   3.463459   1.530275   2.160969   2.164294
    27  H    3.315430   4.211360   2.160693   2.593983   2.387048
    28  H    2.995261   3.940141   2.162229   2.383306   3.044012
                   26         27         28
    26  C    0.000000
    27  H    1.091466   0.000000
    28  H    1.096901   1.747629   0.000000
 Symmetry turned off by external request.
 Stoichiometry    C12H16
 Framework group  CI[X(C12H16)]
 Deg. of freedom    39
 Full point group                 CI      NOp   2
 Rotational constants (GHZ):           1.6560474           0.5684855           0.5262131
 Leave Link  202 at Mon Aug  3 17:18:22 2020, MaxMem=  6442450944 cpu:               0.3 elap:               0.0
 (Enter /scratch/scicomp/CentOS/7.3.1611/Haswell/software/Gaussian/g16/l301.exe)
 Standard basis: def2TZVP (5D, 7F)
 Ernie: Thresh=  0.10000D-02 Tol=  0.10000D-05 Strict=F.
   468 basis functions,   740 primitive gaussians,   528 cartesian basis functions
    44 alpha electrons       44 beta electrons
       nuclear repulsion energy       667.8831843297 Hartrees.
 IExCor= 4639 DFT=T Ex+Corr=wB97XD ExCW=0 ScaHFX=  1.000000
 ScaDFX=  1.000000  1.000000  1.000000  1.000000 ScalE2=  1.000000  1.000000
 IRadAn=      5 IRanWt=     -1 IRanGd=            0 ICorTp=0 IEmpDi=121
 HFx  wShort=  0.000000 wLong=  0.200000 cFull=  0.222036 cShort=  0.000000 cLong=  0.777964
 DFx  wShort=  0.000000 wLong=  0.200000 cFull=  0.000000 cShort=  0.000000 cLong=  1.000000
 NAtoms=   28 NActive=   28 NUniq=   28 SFac= 1.00D+00 NAtFMM=   60 NAOKFM=F Big=F
 Integral buffers will be    131072 words long.
 Raffenetti 2 integral format.
 Two-electron integral symmetry is turned off.
 R6Disp:  Grimme-D2 Dispersion energy=       -0.0207030569 Hartrees.
 Nuclear repulsion after empirical dispersion term =      667.8624812728 Hartrees.
 Using the following non-standard input for PCM:
 qrep pcmdoc geomview  nodis nocav g03defaults tsare=0.075
 Warning! Using old PCM defaults because the g03defaults keyword was found.
 These settings can be overridden by following keywords.
 nsfe=28
 NVESolv=36  SolvMW=84.1595   Rsolv=2.815
 eps=2.0165 RhoS=0.7781
 --- end of non-standard input.
 Reading user-defined spheres from input:
 ISph  on   Nord    Re0     Alpha      Xe            Ye            Ze
 --- end of user-defined spheres data.
 ------------------------------------------------------------------------------
 Polarizable Continuum Model (PCM)
 =================================
 Model                : PCM.
 Atomic radii         : UA0 (Simple United Atom Topological Model).
 Polarization charges : Total charges.
 Charge compensation  : None.
 Solution method      : On-the-fly selection.
 Cavity type          : SES (Solvent Excluding Surface) (Alpha=1.000).
 Cavity algorithm     : GePol (RMin=0.200 OFac=0.890).
                        User-defined sphere list used, NSphG=   28.
                        Tesserae with average area of 0.075 Ang**2.
                        Smoothing algorithm: None.
                        Polarization charges: point-like.
                        Self-potential: constant (ISelfS= 1).
                        Self-field    : global E.n sum rule (ISelfD= 3).
 Solvent              : CycloHexane, Eps=   2.016500 Eps(inf)=   2.035188
                        RSolv=   2.815000 Ang.
 ------------------------------------------------------------------------------
 GePol: Number of generator spheres                  =      28
 GePol: Total number of spheres                      =     298
 GePol: Number of exposed spheres                    =     191 ( 64.09%)
 GePol: Number of tesserae                           =    4755
 GePol: Average area of tesserae                     =       0.04 Ang**2
 GePol: Minimum area of tessera                      =   0.10D-02 Ang**2
 GePol: Maximum area of tessera                      =    0.12251 Ang**2
 GePol: Number of small tesserae                     =       0
 GePol: Fraction of small tesserae (<1% of avg)      =       0.00%
 GePol: Total count of vertices                      =   17162
 GePol: Maximum number of vertices in a tessera      =       9
 GePol: Cavity surface area                          =    210.996 Ang**2
 GePol: Cavity volume                                =    230.120 Ang**3
 Leave Link  301 at Mon Aug  3 17:18:23 2020, MaxMem=  6442450944 cpu:               9.7 elap:               0.4
 (Enter /scratch/scicomp/CentOS/7.3.1611/Haswell/software/Gaussian/g16/l302.exe)
 NPDir=0 NMtPBC=     1 NCelOv=     1 NCel=       1 NClECP=     1 NCelD=      1
         NCelK=      1 NCelE2=     1 NClLst=     1 CellRange=     0.0.
 One-electron integrals computed using PRISM.
   1 Symmetry operations used in ECPInt.
 ECPInt:  NShTT=   19306 NPrTT=   56928 LenC2=   18446 LenP2D=   41622.
 LDataN:  DoStor=T MaxTD1= 6 Len=  172
 NBasis=   468 RedAO= T EigKep=  2.77D-05  NBF=   468
 NBsUse=   468 1.00D-06 EigRej= -1.00D+00 NBFU=   468
 Precomputing XC quadrature grid using
 IXCGrd= 4 IRadAn=           5 IRanWt=          -1 IRanGd=           0 AccXCQ= 0.00D+00.
 Generated NRdTot=       0 NPtTot=           0 NUsed=           0 NTot=          32
 NSgBfM=   526   526   526   526   526 MxSgAt=    28 MxSgA2=    28.
 Leave Link  302 at Mon Aug  3 17:18:23 2020, MaxMem=  6442450944 cpu:              11.8 elap:               0.5
 (Enter /scratch/scicomp/CentOS/7.3.1611/Haswell/software/Gaussian/g16/l401.exe)
 ExpMin= 9.52D-02 ExpMax= 1.36D+04 ExpMxC= 4.63D+02 IAcc=3 IRadAn=         5 AccDes= 0.00D+00
 Harris functional with IExCor= 4639 and IRadAn=       5 diagonalized for initial guess.
 HarFok:  IExCor= 4639 AccDes= 0.00D+00 IRadAn=         5 IDoV= 1 UseB2=F ITyADJ=14
 ICtDFT=  3500011 ScaDFX=  1.000000  1.000000  1.000000  1.000000
 FoFCou: FMM=F IPFlag=           0 FMFlag=      100000 FMFlg1=           0
         NFxFlg=           0 DoJE=T BraDBF=F KetDBF=T FulRan=T
         wScrn=  0.000000 ICntrl=       500 IOpCl=  0 I1Cent=   200000004 NGrid=           0
         NMat0=    1 NMatS0=      1 NMatT0=    0 NMatD0=    1 NMtDS0=    0 NMtDT0=    0
 Symmetry not used in FoFCou.
 Harris En= -444.639067808091    
 JPrj=0 DoOrth=F DoCkMO=T.
 Mixing orbitals, IMix= 1 IMixAn=  0 NRI=1 NE=   44 Coef=  7.07106781D-01  7.07106781D-01
 Mixing orbitals, IMix= 1 IMixAn=  0 NRI=1 NE=   44 Coef= -7.07106781D-01  7.07106781D-01
 Initial guess <Sx>= 0.0000 <Sy>= 0.0000 <Sz>= 0.0000 <S**2>= 1.0000 S= 0.6180
 Leave Link  401 at Mon Aug  3 17:18:25 2020, MaxMem=  6442450944 cpu:              46.5 elap:               2.0
 (Enter /scratch/scicomp/CentOS/7.3.1611/Haswell/software/Gaussian/g16/l9999.exe)

 This type of calculation cannot be archived.


 ...THE PHYSICISTS HAVE MADE THEIR UNIVERSE, AND IF YOU DO NOT LIKE
 IT, YOU MUST MAKE YOUR OWN.
                               -- E. R. HARRISON IN "COSMOLOGY" (1980)
 Job cpu time:       0 days  0 hours  1 minutes 14.2 seconds.
 Elapsed time:       0 days  0 hours  0 minutes  3.4 seconds.
 File lengths (MBytes):  RWF=    412 Int=      0 D2E=      0 Chk=      1 Scr=      1
 Normal termination of Gaussian 16 at Mon Aug  3 17:18:26 2020.
 Initial command:
 /scratch/scicomp/CentOS/7.3.1611/Haswell/software/Gaussian/g16/l1.exe "/scratch/bochen/cyclohexadiene-dimerization/wb97xd-def2tzvp/xp-pcm/meso/Gau-71499.inp" -scrdir="/scratch/bochen/cyclohexadiene-dimerization/wb97xd-def2tzvp/xp-pcm/meso/"
 Entering Link 1 = /scratch/scicomp/CentOS/7.3.1611/Haswell/software/Gaussian/g16/l1.exe PID=     71987.
  
 Copyright (c) 1988-2017, Gaussian, Inc.  All Rights Reserved.
  
 This is part of the Gaussian(R) 16 program.  It is based on
 the Gaussian(R) 09 system (copyright 2009, Gaussian, Inc.),
 the Gaussian(R) 03 system (copyright 2003, Gaussian, Inc.),
 the Gaussian(R) 98 system (copyright 1998, Gaussian, Inc.),
 the Gaussian(R) 94 system (copyright 1995, Gaussian, Inc.),
 the Gaussian 92(TM) system (copyright 1992, Gaussian, Inc.),
 the Gaussian 90(TM) system (copyright 1990, Gaussian, Inc.),
 the Gaussian 88(TM) system (copyright 1988, Gaussian, Inc.),
 the Gaussian 86(TM) system (copyright 1986, Carnegie Mellon
 University), and the Gaussian 82(TM) system (copyright 1983,
 Carnegie Mellon University). Gaussian is a federally registered
 trademark of Gaussian, Inc.
  
 This software contains proprietary and confidential information,
 including trade secrets, belonging to Gaussian, Inc.
  
 This software is provided under written license and may be
 used, copied, transmitted, or stored only in accord with that
 written license.
  
 The following legend is applicable only to US Government
 contracts under FAR:
  
                    RESTRICTED RIGHTS LEGEND
  
 Use, reproduction and disclosure by the US Government is
 subject to restrictions as set forth in subparagraphs (a)
 and (c) of the Commercial Computer Software - Restricted
 Rights clause in FAR 52.227-19.
  
 Gaussian, Inc.
 340 Quinnipiac St., Bldg. 40, Wallingford CT 06492
  
  
 ---------------------------------------------------------------
 Warning -- This program may not be used in any manner that
 competes with the business of Gaussian, Inc. or will provide
 assistance to any competitor of Gaussian, Inc.  The licensee
 of this program is prohibited from giving any competitor of
 Gaussian, Inc. access to this program.  By using this program,
 the user acknowledges that Gaussian, Inc. is engaged in the
 business of creating and licensing software in the field of
 computational chemistry and represents and warrants to the
 licensee that it is not a competitor of Gaussian, Inc. and that
 it will not use this program in any manner prohibited above.
 ---------------------------------------------------------------
  

 Cite this work as:
 Gaussian 16, Revision B.01,
 M. J. Frisch, G. W. Trucks, H. B. Schlegel, G. E. Scuseria, 
 M. A. Robb, J. R. Cheeseman, G. Scalmani, V. Barone, 
 G. A. Petersson, H. Nakatsuji, X. Li, M. Caricato, A. V. Marenich, 
 J. Bloino, B. G. Janesko, R. Gomperts, B. Mennucci, H. P. Hratchian, 
 J. V. Ortiz, A. F. Izmaylov, J. L. Sonnenberg, D. Williams-Young, 
 F. Ding, F. Lipparini, F. Egidi, J. Goings, B. Peng, A. Petrone, 
 T. Henderson, D. Ranasinghe, V. G. Zakrzewski, J. Gao, N. Rega, 
 G. Zheng, W. Liang, M. Hada, M. Ehara, K. Toyota, R. Fukuda, 
 J. Hasegawa, M. Ishida, T. Nakajima, Y. Honda, O. Kitao, H. Nakai, 
 T. Vreven, K. Throssell, J. A. Montgomery, Jr., J. E. Peralta, 
 F. Ogliaro, M. J. Bearpark, J. J. Heyd, E. N. Brothers, K. N. Kudin, 
 V. N. Staroverov, T. A. Keith, R. Kobayashi, J. Normand, 
 K. Raghavachari, A. P. Rendell, J. C. Burant, S. S. Iyengar, 
 J. Tomasi, M. Cossi, J. M. Millam, M. Klene, C. Adamo, R. Cammi, 
 J. W. Ochterski, R. L. Martin, K. Morokuma, O. Farkas, 
 J. B. Foresman, and D. J. Fox, Gaussian, Inc., Wallingford CT, 2016.
 
 ******************************************
 Gaussian 16:  ES64L-G16RevB.01 20-Dec-2017
                 3-Aug-2020 
 ******************************************
 %chk=meso-TS_82_2_xp-105.chk
 %nproc=24
 Will use up to   24 processors via shared memory.
 %mem=48GB
 ----------------------------------------------------------------------
 #p uwb97xd guess=mix def2tzvp # scrf=(iefpcm,solvent=Cyclohexane,read)
  nosym guess=only pop=none
 ----------------------------------------------------------------------
 1/38=1,40=2,172=1/1;
 2/12=2,15=1,17=6,18=5,40=1/2;
 3/5=44,7=101,11=2,25=1,30=1,70=2203,72=17,74=-58,89=1,116=2/1,2;
 4/13=-1/1;
 99/5=2/99;
 Leave Link    1 at Mon Aug  3 17:18:26 2020, MaxMem=  6442450944 cpu:               2.0 elap:               0.1
 (Enter /scratch/scicomp/CentOS/7.3.1611/Haswell/software/Gaussian/g16/l101.exe)
 -----------------------
 endo-2 xp-pcm for eta=3
 -----------------------
 Symbolic Z-matrix:
 Charge =  0 Multiplicity = 1
 6                    -3.11135  -0.43802   0.28848 
 6                    -0.83889  -0.28004  -1.39646 
 1                    -4.01885  -0.51218   0.87639 
 1                     0.07429  -0.21086  -1.9754 
 6                     1.24359   1.44575   0.89871 
 6                     0.83889   0.28004   1.39646 
 1                     0.66168   2.34598   1.05776 
 1                    -0.07429   0.21086   1.9754 
 6                     1.6632   -0.96411   1.22734 
 1                     2.29857  -1.0725    2.11632 
 1                     1.01584  -1.84232   1.20508 
 6                     2.49012   1.53696   0.13628 
 1                     2.89263   2.5174   -0.08862 
 6                     3.11135   0.43802  -0.28848 
 1                     4.01885   0.51218  -0.87639 
 6                     2.53443  -0.92699  -0.03016 
 1                     1.93625  -1.21723  -0.90259 
 1                     3.33118  -1.66882   0.04844 
 6                    -1.24359  -1.44575  -0.89871 
 1                    -0.66168  -2.34598  -1.05776 
 6                    -2.49012  -1.53696  -0.13628 
[...]
 1                     0.07429  -0.21086  -1.9754 
 6                     1.24359   1.44575   0.89871 
 6                     0.83889   0.28004   1.39646 
 1                     0.66168   2.34598   1.05776 
 1                    -0.07429   0.21086   1.9754 
 6                     1.6632   -0.96411   1.22734 
 1                     2.29857  -1.0725    2.11632 
 1                     1.01584  -1.84232   1.20508 
 6                     2.49012   1.53696   0.13628 
 1                     2.89263   2.5174   -0.08862 
 6                     3.11135   0.43802  -0.28848 
 1                     4.01885   0.51218  -0.87639 
 6                     2.53443  -0.92699  -0.03016 
 1                     1.93625  -1.21723  -0.90259 
 1                     3.33118  -1.66882   0.04844 
 6                    -1.24359  -1.44575  -0.89871 
 1                    -0.66168  -2.34598  -1.05776 
 6                    -2.49012  -1.53696  -0.13628 
 1                    -2.89263  -2.5174    0.08862 
 6                    -1.6632    0.96411  -1.22734 
 1                    -1.01584   1.84232  -1.20508 
 1                    -2.29857   1.0725   -2.11632 
 6                    -2.53443   0.92699   0.03016 
 1                    -3.33118   1.66882  -0.04844 
 1                    -1.93625   1.21723   0.90259 
 
 ITRead=  0  0  0  0  0  0  0  0  0  0  0  0  0  0  0  0  0  0  0  0
 ITRead=  0  0  0  0  0  0  0  0
 MicOpt= -1 -1 -1 -1 -1 -1 -1 -1 -1 -1 -1 -1 -1 -1 -1 -1 -1 -1 -1 -1
 MicOpt= -1 -1 -1 -1 -1 -1 -1 -1
 NAtoms=     28 NQM=       28 NQMF=       0 NMMI=      0 NMMIF=      0
                NMic=       0 NMicF=      0.
                    Isotopes and Nuclear Properties:
 (Nuclear quadrupole moments (NQMom) in fm**2, nuclear magnetic moments (NMagM)
  in nuclear magnetons)

  Atom         1           2           3           4           5           6           7           8           9          10
 IAtWgt=          12          12           1           1          12          12           1           1          12           1
 AtmWgt=  12.0000000  12.0000000   1.0078250   1.0078250  12.0000000  12.0000000   1.0078250   1.0078250  12.0000000   1.0078250
 NucSpn=           0           0           1           1           0           0           1           1           0           1
 AtZEff=  -0.0000000  -0.0000000  -0.0000000  -0.0000000  -0.0000000  -0.0000000  -0.0000000  -0.0000000  -0.0000000  -0.0000000
 NQMom=    0.0000000   0.0000000   0.0000000   0.0000000   0.0000000   0.0000000   0.0000000   0.0000000   0.0000000   0.0000000
 NMagM=    0.0000000   0.0000000   2.7928460   2.7928460   0.0000000   0.0000000   2.7928460   2.7928460   0.0000000   2.7928460
 AtZNuc=   6.0000000   6.0000000   1.0000000   1.0000000   6.0000000   6.0000000   1.0000000   1.0000000   6.0000000   1.0000000

  Atom        11          12          13          14          15          16          17          18          19          20
 IAtWgt=           1          12           1          12           1          12           1           1          12           1
 AtmWgt=   1.0078250  12.0000000   1.0078250  12.0000000   1.0078250  12.0000000   1.0078250   1.0078250  12.0000000   1.0078250
 NucSpn=           1           0           1           0           1           0           1           1           0           1
 AtZEff=  -0.0000000  -0.0000000  -0.0000000  -0.0000000  -0.0000000  -0.0000000  -0.0000000  -0.0000000  -0.0000000  -0.0000000
 NQMom=    0.0000000   0.0000000   0.0000000   0.0000000   0.0000000   0.0000000   0.0000000   0.0000000   0.0000000   0.0000000
 NMagM=    2.7928460   0.0000000   2.7928460   0.0000000   2.7928460   0.0000000   2.7928460   2.7928460   0.0000000   2.7928460
 AtZNuc=   1.0000000   6.0000000   1.0000000   6.0000000   1.0000000   6.0000000   1.0000000   1.0000000   6.0000000   1.0000000

  Atom        21          22          23          24          25          26          27          28
 IAtWgt=          12           1          12           1           1          12           1           1
 AtmWgt=  12.0000000   1.0078250  12.0000000   1.0078250   1.0078250  12.0000000   1.0078250   1.0078250
 NucSpn=           0           1           0           1           1           0           1           1
 AtZEff=  -0.0000000  -0.0000000  -0.0000000  -0.0000000  -0.0000000  -0.0000000  -0.0000000  -0.0000000
 NQMom=    0.0000000   0.0000000   0.0000000   0.0000000   0.0000000   0.0000000   0.0000000   0.0000000
 NMagM=    0.0000000   2.7928460   0.0000000   2.7928460   2.7928460   0.0000000   2.7928460   2.7928460
 AtZNuc=   6.0000000   1.0000000   6.0000000   1.0000000   1.0000000   6.0000000   1.0000000   1.0000000
 Leave Link  101 at Mon Aug  3 17:18:38 2020, MaxMem=  6442450944 cpu:               2.4 elap:               0.1
 (Enter /scratch/scicomp/CentOS/7.3.1611/Haswell/software/Gaussian/g16/l202.exe)
                          Input orientation:                          
 ---------------------------------------------------------------------
 Center     Atomic      Atomic             Coordinates (Angstroms)
 Number     Number       Type             X           Y           Z
 ---------------------------------------------------------------------
      1          6           0       -3.111354   -0.438024    0.288476
      2          6           0       -0.838887   -0.280035   -1.396455
      3          1           0       -4.018848   -0.512178    0.876391
      4          1           0        0.074286   -0.210856   -1.975395
      5          6           0        1.243587    1.445746    0.898709
      6          6           0        0.838887    0.280035    1.396455
      7          1           0        0.661682    2.345979    1.057759
      8          1           0       -0.074286    0.210856    1.975395
      9          6           0        1.663200   -0.964107    1.227344
     10          1           0        2.298573   -1.072496    2.116318
     11          1           0        1.015835   -1.842319    1.205078
     12          6           0        2.490124    1.536957    0.136281
     13          1           0        2.892627    2.517404   -0.088621
     14          6           0        3.111354    0.438024   -0.288476
     15          1           0        4.018848    0.512178   -0.876391
     16          6           0        2.534434   -0.926987   -0.030159
     17          1           0        1.936253   -1.217234   -0.902586
     18          1           0        3.331183   -1.668816    0.048441
     19          6           0       -1.243587   -1.445746   -0.898709
     20          1           0       -0.661682   -2.345979   -1.057759
     21          6           0       -2.490124   -1.536957   -0.136281
     22          1           0       -2.892627   -2.517404    0.088621
     23          6           0       -1.663200    0.964107   -1.227344
     24          1           0       -1.015835    1.842319   -1.205078
     25          1           0       -2.298573    1.072496   -2.116318
     26          6           0       -2.534434    0.926987    0.030159
     27          1           0       -3.331183    1.668816   -0.048441
     28          1           0       -1.936253    1.217234    0.902586
 ---------------------------------------------------------------------
                    Distance matrix (angstroms):
                    1          2          3          4          5
     1  C    0.000000
     2  C    2.833383   0.000000
     3  H    1.083830   3.915593   0.000000
     4  H    3.914718   1.083440   4.997722   0.000000
     5  C    4.783982   3.547224   5.614908   3.517395   0.000000
     6  C    4.165049   3.305896   4.949309   3.492128   1.330570
     7  H    4.751660   3.894974   5.487196   4.010295   1.083665
     8  H    3.534193   3.492128   4.158143   3.976010   2.102616
     9  C    4.894344   3.689541   5.710786   3.653707   2.468090
    10  H    5.745509   4.776110   6.462289   4.736242   2.989500
    11  H    4.454873   3.556501   5.217791   3.696430   3.310152
    12  C    5.941403   4.090606   6.863923   3.653806   1.464060
    13  H    6.702577   4.843583   7.607766   4.352742   2.200592
    14  C    6.310501   4.165049   7.286946   3.534193   2.431762
    15  H    7.286946   4.949309   8.290121   4.158143   3.424121
    16  C    5.675873   3.696567   6.628680   3.217004   2.856386
    17  H    5.244438   2.970463   6.255005   2.372896   3.288755
    18  H    6.563440   4.626653   7.486406   4.102309   3.844673
    19  C    2.431762   1.330570   3.424121   2.102616   4.216334
    20  H    3.384307   2.101010   4.286528   2.437715   4.672793
    21  C    1.331916   2.427854   2.100636   3.423022   4.889613
    22  H    2.100382   3.380698   2.431026   4.287528   5.785418
    23  C    2.522069   1.501992   3.486287   2.226876   3.633385
    24  H    3.438294   2.138299   4.346752   2.448934   3.112584
    25  H    2.953865   2.116182   3.798269   2.701354   4.666541
    26  C    1.504267   2.523293   2.234007   3.481717   3.911129
    27  H    2.144904   3.438997   2.466766   4.340914   4.677112
    28  H    2.120819   2.954931   2.707167   3.790050   3.188043
                    6          7          8          9         10
     6  C    0.000000
     7  H    2.101010   0.000000
     8  H    1.083440   2.437715   0.000000
     9  C    1.501992   3.462437   2.226876   0.000000
    10  H    2.116182   3.935217   2.701354   1.098054   0.000000
    11  H    2.138299   4.205825   2.448934   1.091253   1.751686
    12  C    2.427854   2.201554   3.423022   2.851235   3.281232
    13  H    3.380698   2.514098   4.287528   3.919716   4.254649
    14  C    2.833383   3.384307   3.914718   2.522069   2.953865
    15  H    3.915593   4.286528   4.997722   3.486287   3.798269
    16  C    2.523293   3.924675   3.481717   1.530275   2.164294
    17  H    2.954931   4.261921   3.790050   2.162229   3.044012
    18  H    3.438997   4.925803   4.340914   2.160693   2.387048
    19  C    3.547224   4.672793   3.517395   3.633385   4.666541
    20  H    3.894974   5.314243   4.010295   3.540670   4.523233
    21  C    4.090606   5.141673   3.653806   4.408824   5.312395
    22  H    4.843583   6.101216   4.352742   4.946209   5.757419
    23  C    3.689541   3.540670   3.653707   4.561627   5.569872
    24  H    3.556501   2.861498   3.696430   4.579294   5.523868
    25  H    4.776110   4.523233   4.736242   5.569872   6.606811
    26  C    3.696567   3.644812   3.217004   4.757060   5.630981
    27  H    4.626653   4.198238   4.102309   5.788244   6.625340
    28  H    2.970463   2.836796   2.372896   4.221348   4.964852
                   11         12         13         14         15
    11  H    0.000000
    12  C    3.838667   0.000000
    13  H    4.919674   1.083451   0.000000
    14  C    3.438294   1.331916   2.100382   0.000000
    15  H    4.346752   2.100636   2.431026   1.083830   0.000000
    16  C    2.160969   2.469957   3.463459   1.504267   2.234007
    17  H    2.383306   2.995261   3.940141   2.120819   2.707167
    18  H    2.593983   3.315430   4.211360   2.144904   2.466766
    19  C    3.112584   4.889613   5.785418   4.783982   5.614908
    20  H    2.861498   5.141673   6.101216   4.751660   5.487196
    21  C    3.766197   5.858849   6.739000   5.941403   6.863923
    22  H    4.120472   6.739000   7.671367   6.702577   7.607766
    23  C    4.579294   4.408824   4.946209   4.894344   5.710786
    24  H    4.849030   3.766197   4.120472   4.454873   5.217791
    25  H    5.523868   5.312395   5.757419   5.745509   6.462289
    26  C    4.653375   5.062559   5.656547   5.675873   6.628680
    27  H    5.726774   5.825729   6.281523   6.563440   7.486406
    28  H    4.262299   4.503583   5.098138   5.244438   6.255005
                   16         17         18         19         20
    16  C    0.000000
    17  H    1.096901   0.000000
    18  H    1.091466   1.747629   0.000000
    19  C    3.911129   3.188043   4.677112   0.000000
    20  H    3.644812   2.836796   4.198238   1.083665   0.000000
    21  C    5.062559   4.503583   5.825729   1.464060   2.201554
    22  H    5.656547   5.098138   6.281523   2.200592   2.514098
    23  C    4.757060   4.221348   5.788244   2.468090   3.462437
    24  H    4.653375   4.262299   5.726774   3.310152   4.205825
    25  H    5.630981   4.964852   6.625340   2.989500   3.935217
    26  C    5.397618   5.045269   6.414358   2.856386   3.924675
    27  H    6.414358   6.066690   7.452268   3.844673   4.925803
    28  H    5.045269   4.917477   6.066690   3.288755   4.261921
                   21         22         23         24         25
    21  C    0.000000
    22  H    1.083451   0.000000
    23  C    2.851235   3.919716   0.000000
    24  H    3.838667   4.919674   1.091253   0.000000
    25  H    3.281232   4.254649   1.098054   1.751686   0.000000
    26  C    2.469957   3.463459   1.530275   2.160969   2.164294
    27  H    3.315430   4.211360   2.160693   2.593983   2.387048
    28  H    2.995261   3.940141   2.162229   2.383306   3.044012
                   26         27         28
    26  C    0.000000
    27  H    1.091466   0.000000
    28  H    1.096901   1.747629   0.000000
 Symmetry turned off by external request.
 Stoichiometry    C12H16
 Framework group  CI[X(C12H16)]
 Deg. of freedom    39
 Full point group                 CI      NOp   2
 Rotational constants (GHZ):           1.6560474           0.5684855           0.5262131
 Leave Link  202 at Mon Aug  3 17:18:39 2020, MaxMem=  6442450944 cpu:               0.3 elap:               0.0
 (Enter /scratch/scicomp/CentOS/7.3.1611/Haswell/software/Gaussian/g16/l301.exe)
 Standard basis: def2TZVP (5D, 7F)
 Ernie: Thresh=  0.10000D-02 Tol=  0.10000D-05 Strict=F.
   468 basis functions,   740 primitive gaussians,   528 cartesian basis functions
    44 alpha electrons       44 beta electrons
       nuclear repulsion energy       667.8831843297 Hartrees.
 IExCor= 4639 DFT=T Ex+Corr=wB97XD ExCW=0 ScaHFX=  1.000000
 ScaDFX=  1.000000  1.000000  1.000000  1.000000 ScalE2=  1.000000  1.000000
 IRadAn=      5 IRanWt=     -1 IRanGd=            0 ICorTp=0 IEmpDi=121
 HFx  wShort=  0.000000 wLong=  0.200000 cFull=  0.222036 cShort=  0.000000 cLong=  0.777964
 DFx  wShort=  0.000000 wLong=  0.200000 cFull=  0.000000 cShort=  0.000000 cLong=  1.000000
 NAtoms=   28 NActive=   28 NUniq=   28 SFac= 1.00D+00 NAtFMM=   60 NAOKFM=F Big=F
 Integral buffers will be    131072 words long.
 Raffenetti 2 integral format.
 Two-electron integral symmetry is turned off.
 R6Disp:  Grimme-D2 Dispersion energy=       -0.0207030569 Hartrees.
 Nuclear repulsion after empirical dispersion term =      667.8624812728 Hartrees.
 Using the following non-standard input for PCM:
 qrep pcmdoc geomview  nodis nocav g03defaults tsare=0.075
 Warning! Using old PCM defaults because the g03defaults keyword was found.
 These settings can be overridden by following keywords.
 nsfe=28
 NVESolv=36  SolvMW=84.1595   Rsolv=2.815
 eps=2.0165 RhoS=0.7781
 --- end of non-standard input.
 Reading user-defined spheres from input:
 ISph  on   Nord    Re0     Alpha      Xe            Ye            Ze
 --- end of user-defined spheres data.
 ------------------------------------------------------------------------------
 Polarizable Continuum Model (PCM)
 =================================
 Model                : PCM.
 Atomic radii         : UA0 (Simple United Atom Topological Model).
 Polarization charges : Total charges.
 Charge compensation  : None.
 Solution method      : On-the-fly selection.
 Cavity type          : SES (Solvent Excluding Surface) (Alpha=1.000).
 Cavity algorithm     : GePol (RMin=0.200 OFac=0.890).
                        User-defined sphere list used, NSphG=   28.
                        Tesserae with average area of 0.075 Ang**2.
                        Smoothing algorithm: None.
                        Polarization charges: point-like.
                        Self-potential: constant (ISelfS= 1).
                        Self-field    : global E.n sum rule (ISelfD= 3).
 Solvent              : CycloHexane, Eps=   2.016500 Eps(inf)=   2.035188
                        RSolv=   2.815000 Ang.
 ------------------------------------------------------------------------------
 GePol: Number of generator spheres                  =      28
 GePol: Total number of spheres                      =     473
 GePol: Number of exposed spheres                    =     278 ( 58.77%)
 GePol: Number of tesserae                           =    4699
 GePol: Average area of tesserae                     =       0.04 Ang**2
 GePol: Minimum area of tessera                      =   0.10D-02 Ang**2
 GePol: Maximum area of tessera                      =    0.12513 Ang**2
 GePol: Number of small tesserae                     =       0
 GePol: Fraction of small tesserae (<1% of avg)      =       0.00%
 GePol: Total count of vertices                      =   17613
 GePol: Maximum number of vertices in a tessera      =       8
 GePol: Cavity surface area                          =    189.839 Ang**2
 GePol: Cavity volume                                =    190.457 Ang**3
 Leave Link  301 at Mon Aug  3 17:18:39 2020, MaxMem=  6442450944 cpu:              11.8 elap:               0.5
 (Enter /scratch/scicomp/CentOS/7.3.1611/Haswell/software/Gaussian/g16/l302.exe)
 NPDir=0 NMtPBC=     1 NCelOv=     1 NCel=       1 NClECP=     1 NCelD=      1
         NCelK=      1 NCelE2=     1 NClLst=     1 CellRange=     0.0.
 One-electron integrals computed using PRISM.
   1 Symmetry operations used in ECPInt.
 ECPInt:  NShTT=   19306 NPrTT=   56928 LenC2=   18446 LenP2D=   41622.
 LDataN:  DoStor=T MaxTD1= 6 Len=  172
 NBasis=   468 RedAO= T EigKep=  2.77D-05  NBF=   468
 NBsUse=   468 1.00D-06 EigRej= -1.00D+00 NBFU=   468
 Precomputing XC quadrature grid using
 IXCGrd= 4 IRadAn=           5 IRanWt=          -1 IRanGd=           0 AccXCQ= 0.00D+00.
 Generated NRdTot=       0 NPtTot=           0 NUsed=           0 NTot=          32
 NSgBfM=   526   526   526   526   526 MxSgAt=    28 MxSgA2=    28.
 Leave Link  302 at Mon Aug  3 17:18:40 2020, MaxMem=  6442450944 cpu:              11.7 elap:               0.5
 (Enter /scratch/scicomp/CentOS/7.3.1611/Haswell/software/Gaussian/g16/l401.exe)
 ExpMin= 9.52D-02 ExpMax= 1.36D+04 ExpMxC= 4.63D+02 IAcc=3 IRadAn=         5 AccDes= 0.00D+00
 Harris functional with IExCor= 4639 and IRadAn=       5 diagonalized for initial guess.
 HarFok:  IExCor= 4639 AccDes= 0.00D+00 IRadAn=         5 IDoV= 1 UseB2=F ITyADJ=14
 ICtDFT=  3500011 ScaDFX=  1.000000  1.000000  1.000000  1.000000
 FoFCou: FMM=F IPFlag=           0 FMFlag=      100000 FMFlg1=           0
         NFxFlg=           0 DoJE=T BraDBF=F KetDBF=T FulRan=T
         wScrn=  0.000000 ICntrl=       500 IOpCl=  0 I1Cent=   200000004 NGrid=           0
         NMat0=    1 NMatS0=      1 NMatT0=    0 NMatD0=    1 NMtDS0=    0 NMtDT0=    0
 Symmetry not used in FoFCou.
 Harris En= -444.639067808091    
 JPrj=0 DoOrth=F DoCkMO=T.
 Mixing orbitals, IMix= 1 IMixAn=  0 NRI=1 NE=   44 Coef=  7.07106781D-01  7.07106781D-01
 Mixing orbitals, IMix= 1 IMixAn=  0 NRI=1 NE=   44 Coef= -7.07106781D-01  7.07106781D-01
 Initial guess <Sx>= 0.0000 <Sy>= 0.0000 <Sz>= 0.0000 <S**2>= 1.0000 S= 0.6180
 Leave Link  401 at Mon Aug  3 17:18:42 2020, MaxMem=  6442450944 cpu:              47.2 elap:               2.0
 (Enter /scratch/scicomp/CentOS/7.3.1611/Haswell/software/Gaussian/g16/l9999.exe)

 This type of calculation cannot be archived.


 I FIND THAT THE THREE TRULY GREAT TIMES FOR THINKING THOUGHTS
 ARE WHEN I AM STANDING IN THE SHOWER, SITTING ON THE JOHN, OR WALKING.

                                    -- COLIN FLETCHER
 Job cpu time:       0 days  0 hours  1 minutes 16.2 seconds.
 Elapsed time:       0 days  0 hours  0 minutes  3.5 seconds.
 File lengths (MBytes):  RWF=    405 Int=      0 D2E=      0 Chk=      1 Scr=      1
 Normal termination of Gaussian 16 at Mon Aug  3 17:18:42 2020.
