 Entering Gaussian System, Link 0=g16
 Input=meso-TS_0_1_xp-Ger.com
 Output=meso-TS_0_1_xp-Ger.log
 Initial command:
 /scratch/scicomp/CentOS/7.3.1611/Haswell/software/Gaussian/g16/l1.exe "/scratch/bochen/cyclohexadiene-dimerization/wb97xd-def2tzvp/xp-pcm/meso/Gau-416852.inp" -scrdir="/scratch/bochen/cyclohexadiene-dimerization/wb97xd-def2tzvp/xp-pcm/meso/"
 Entering Link 1 = /scratch/scicomp/CentOS/7.3.1611/Haswell/software/Gaussian/g16/l1.exe PID=    416853.
  
 Copyright (c) 1988-2017, Gaussian, Inc.  All Rights Reserved.
  
 This is part of the Gaussian(R) 16 program.  It is based on
 the Gaussian(R) 09 system (copyright 2009, Gaussian, Inc.),
 the Gaussian(R) 03 system (copyright 2003, Gaussian, Inc.),
 the Gaussian(R) 98 system (copyright 1998, Gaussian, Inc.),
 the Gaussian(R) 94 system (copyright 1995, Gaussian, Inc.),
 the Gaussian 92(TM) system (copyright 1992, Gaussian, Inc.),
 the Gaussian 90(TM) system (copyright 1990, Gaussian, Inc.),
 the Gaussian 88(TM) system (copyright 1988, Gaussian, Inc.),
 the Gaussian 86(TM) system (copyright 1986, Carnegie Mellon
 University), and the Gaussian 82(TM) system (copyright 1983,
 Carnegie Mellon University). Gaussian is a federally registered
 trademark of Gaussian, Inc.
  
 This software contains proprietary and confidential information,
 including trade secrets, belonging to Gaussian, Inc.
  
 This software is provided under written license and may be
 used, copied, transmitted, or stored only in accord with that
 written license.
  
 The following legend is applicable only to US Government
 contracts under FAR:
  
                    RESTRICTED RIGHTS LEGEND
  
 Use, reproduction and disclosure by the US Government is
 subject to restrictions as set forth in subparagraphs (a)
 and (c) of the Commercial Computer Software - Restricted
 Rights clause in FAR 52.227-19.
  
 Gaussian, Inc.
 340 Quinnipiac St., Bldg. 40, Wallingford CT 06492
  
  
 ---------------------------------------------------------------
 Warning -- This program may not be used in any manner that
 competes with the business of Gaussian, Inc. or will provide
 assistance to any competitor of Gaussian, Inc.  The licensee
 of this program is prohibited from giving any competitor of
 Gaussian, Inc. access to this program.  By using this program,
 the user acknowledges that Gaussian, Inc. is engaged in the
 business of creating and licensing software in the field of
 computational chemistry and represents and warrants to the
 licensee that it is not a competitor of Gaussian, Inc. and that
 it will not use this program in any manner prohibited above.
 ---------------------------------------------------------------
  

 Cite this work as:
 Gaussian 16, Revision B.01,
 M. J. Frisch, G. W. Trucks, H. B. Schlegel, G. E. Scuseria, 
 M. A. Robb, J. R. Cheeseman, G. Scalmani, V. Barone, 
 G. A. Petersson, H. Nakatsuji, X. Li, M. Caricato, A. V. Marenich, 
 J. Bloino, B. G. Janesko, R. Gomperts, B. Mennucci, H. P. Hratchian, 
 J. V. Ortiz, A. F. Izmaylov, J. L. Sonnenberg, D. Williams-Young, 
 F. Ding, F. Lipparini, F. Egidi, J. Goings, B. Peng, A. Petrone, 
 T. Henderson, D. Ranasinghe, V. G. Zakrzewski, J. Gao, N. Rega, 
 G. Zheng, W. Liang, M. Hada, M. Ehara, K. Toyota, R. Fukuda, 
 J. Hasegawa, M. Ishida, T. Nakajima, Y. Honda, O. Kitao, H. Nakai, 
 T. Vreven, K. Throssell, J. A. Montgomery, Jr., J. E. Peralta, 
 F. Ogliaro, M. J. Bearpark, J. J. Heyd, E. N. Brothers, K. N. Kudin, 
 V. N. Staroverov, T. A. Keith, R. Kobayashi, J. Normand, 
 K. Raghavachari, A. P. Rendell, J. C. Burant, S. S. Iyengar, 
 J. Tomasi, M. Cossi, J. M. Millam, M. Klene, C. Adamo, R. Cammi, 
 J. W. Ochterski, R. L. Martin, K. Morokuma, O. Farkas, 
 J. B. Foresman, and D. J. Fox, Gaussian, Inc., Wallingford CT, 2016.
 
 ******************************************
 Gaussian 16:  ES64L-G16RevB.01 20-Dec-2017
                 4-Aug-2020 
 ******************************************
 %chk=meso-TS_0_1_xp-12.chk
 %nproc=24
 Will use up to   24 processors via shared memory.
 %mem=48GB
 ----------------------------------------------------------------------
 #p uwb97xd guess=mix def2tzvp # scrf=(iefpcm,solvent=Cyclohexane,read)
  nosym 6d 10f
 ----------------------------------------------------------------------
 1/38=1,40=2,172=1/1;
 2/12=2,15=1,17=6,18=5,40=1/2;
 3/5=44,7=101,8=22,11=2,25=1,30=1,70=2203,72=17,74=-58,116=2/1,2,3;
 4/13=-1/1;
 5/5=2,38=5,53=17/2;
 6/7=2,8=2,9=2,10=2,28=1/1;
 99/5=1,9=1/99;
 Leave Link    1 at Tue Aug  4 14:30:06 2020, MaxMem=  6442450944 cpu:               2.8 elap:               0.1
 (Enter /scratch/scicomp/CentOS/7.3.1611/Haswell/software/Gaussian/g16/l101.exe)
 -----------------------
 endo-2 xp-pcm for eta=3
 -----------------------
 Symbolic Z-matrix:
 Charge =  0 Multiplicity = 1
 6                    -3.11898  -0.43166   0.24744 
 6                    -0.49894  -0.16093  -0.8422 
 1                    -4.08399  -0.5488    0.72595 
 1                     0.35393  -0.11577  -1.5118 
 6                     1.10479   1.41914   0.68092 
 6                     0.49894   0.16093   0.8422 
 1                     0.54437   2.32226   0.88638 
 1                    -0.35393   0.11577   1.5118 
 6                     1.46264  -0.99981   0.98751 
 1                     1.8988   -0.93753   1.99037 
 1                     0.92959  -1.9497    0.93613 
 6                     2.40634   1.52255   0.11811 
 1                     2.82445   2.50921  -0.04557 
 6                     3.11898   0.43166  -0.24744 
 1                     4.08399   0.5488   -0.72595 
 6                     2.59228  -0.95858  -0.04339 
 1                     2.24859  -1.35703  -1.0065 
 1                     3.40126  -1.62252   0.27102 
 6                    -1.10479  -1.41914  -0.68092 
 1                    -0.54437  -2.32226  -0.88638 
 6                    -2.40634  -1.52255  -0.11811 
 1                    -2.82445  -2.50921   0.04557 
 6                    -1.46264   0.99981  -0.98751 
 1                    -0.92959   1.9497   -0.93613 
 1                    -1.8988    0.93753  -1.99037 
 6                    -2.59228   0.95858   0.04339 
 1                    -3.40126   1.62252  -0.27102 
 1                    -2.24859   1.35703   1.0065 
 
 ITRead=  0  0  0  0  0  0  0  0  0  0  0  0  0  0  0  0  0  0  0  0
 ITRead=  0  0  0  0  0  0  0  0
 MicOpt= -1 -1 -1 -1 -1 -1 -1 -1 -1 -1 -1 -1 -1 -1 -1 -1 -1 -1 -1 -1
 MicOpt= -1 -1 -1 -1 -1 -1 -1 -1
 NAtoms=     28 NQM=       28 NQMF=       0 NMMI=      0 NMMIF=      0
                NMic=       0 NMicF=      0.
                    Isotopes and Nuclear Properties:
 (Nuclear quadrupole moments (NQMom) in fm**2, nuclear magnetic moments (NMagM)
  in nuclear magnetons)

  Atom         1           2           3           4           5           6           7           8           9          10
 IAtWgt=          12          12           1           1          12          12           1           1          12           1
 AtmWgt=  12.0000000  12.0000000   1.0078250   1.0078250  12.0000000  12.0000000   1.0078250   1.0078250  12.0000000   1.0078250
 NucSpn=           0           0           1           1           0           0           1           1           0           1
 AtZEff=  -0.0000000  -0.0000000  -0.0000000  -0.0000000  -0.0000000  -0.0000000  -0.0000000  -0.0000000  -0.0000000  -0.0000000
 NQMom=    0.0000000   0.0000000   0.0000000   0.0000000   0.0000000   0.0000000   0.0000000   0.0000000   0.0000000   0.0000000
 NMagM=    0.0000000   0.0000000   2.7928460   2.7928460   0.0000000   0.0000000   2.7928460   2.7928460   0.0000000   2.7928460
 AtZNuc=   6.0000000   6.0000000   1.0000000   1.0000000   6.0000000   6.0000000   1.0000000   1.0000000   6.0000000   1.0000000

  Atom        11          12          13          14          15          16          17          18          19          20
 IAtWgt=           1          12           1          12           1          12           1           1          12           1
 AtmWgt=   1.0078250  12.0000000   1.0078250  12.0000000   1.0078250  12.0000000   1.0078250   1.0078250  12.0000000   1.0078250
 NucSpn=           1           0           1           0           1           0           1           1           0           1
 AtZEff=  -0.0000000  -0.0000000  -0.0000000  -0.0000000  -0.0000000  -0.0000000  -0.0000000  -0.0000000  -0.0000000  -0.0000000
 NQMom=    0.0000000   0.0000000   0.0000000   0.0000000   0.0000000   0.0000000   0.0000000   0.0000000   0.0000000   0.0000000
 NMagM=    2.7928460   0.0000000   2.7928460   0.0000000   2.7928460   0.0000000   2.7928460   2.7928460   0.0000000   2.7928460
 AtZNuc=   1.0000000   6.0000000   1.0000000   6.0000000   1.0000000   6.0000000   1.0000000   1.0000000   6.0000000   1.0000000

  Atom        21          22          23          24          25          26          27          28
 IAtWgt=          12           1          12           1           1          12           1           1
 AtmWgt=  12.0000000   1.0078250  12.0000000   1.0078250   1.0078250  12.0000000   1.0078250   1.0078250
 NucSpn=           0           1           0           1           1           0           1           1
 AtZEff=  -0.0000000  -0.0000000  -0.0000000  -0.0000000  -0.0000000  -0.0000000  -0.0000000  -0.0000000
 NQMom=    0.0000000   0.0000000   0.0000000   0.0000000   0.0000000   0.0000000   0.0000000   0.0000000
 NMagM=    0.0000000   2.7928460   0.0000000   2.7928460   2.7928460   0.0000000   2.7928460   2.7928460
 AtZNuc=   6.0000000   1.0000000   6.0000000   1.0000000   1.0000000   6.0000000   1.0000000   1.0000000
 Leave Link  101 at Tue Aug  4 14:30:06 2020, MaxMem=  6442450944 cpu:               2.4 elap:               0.1
 (Enter /scratch/scicomp/CentOS/7.3.1611/Haswell/software/Gaussian/g16/l202.exe)
                          Input orientation:                          
 ---------------------------------------------------------------------
 Center     Atomic      Atomic             Coordinates (Angstroms)
 Number     Number       Type             X           Y           Z
 ---------------------------------------------------------------------
      1          6           0       -3.118984   -0.431661    0.247435
      2          6           0       -0.498940   -0.160927   -0.842197
      3          1           0       -4.083986   -0.548798    0.725945
      4          1           0        0.353927   -0.115768   -1.511796
      5          6           0        1.104795    1.419144    0.680915
      6          6           0        0.498940    0.160927    0.842197
      7          1           0        0.544367    2.322264    0.886379
      8          1           0       -0.353927    0.115768    1.511797
      9          6           0        1.462637   -0.999808    0.987512
     10          1           0        1.898804   -0.937531    1.990366
     11          1           0        0.929588   -1.949702    0.936130
     12          6           0        2.406337    1.522553    0.118110
     13          1           0        2.824446    2.509213   -0.045570
     14          6           0        3.118984    0.431661   -0.247435
     15          1           0        4.083986    0.548798   -0.725945
     16          6           0        2.592283   -0.958575   -0.043388
     17          1           0        2.248595   -1.357032   -1.006499
     18          1           0        3.401257   -1.622519    0.271019
     19          6           0       -1.104795   -1.419144   -0.680915
     20          1           0       -0.544367   -2.322264   -0.886379
     21          6           0       -2.406337   -1.522553   -0.118110
     22          1           0       -2.824445   -2.509213    0.045570
     23          6           0       -1.462637    0.999808   -0.987512
     24          1           0       -0.929588    1.949702   -0.936130
     25          1           0       -1.898804    0.937531   -1.990366
     26          6           0       -2.592283    0.958575    0.043388
     27          1           0       -3.401256    1.622519   -0.271019
     28          1           0       -2.248595    1.357032    1.006498
 ---------------------------------------------------------------------
                    Distance matrix (angstroms):
                    1          2          3          4          5
     1  C    0.000000
     2  C    2.850478   0.000000
     3  H    1.083477   3.932184   0.000000
     4  H    3.905866   1.085258   4.988995   0.000000
     5  C    4.631813   2.718172   5.549619   2.779881   0.000000
     6  C    3.714065   1.984071   4.639012   2.374631   1.405767
     7  H    4.627363   3.200422   5.448889   3.425129   1.082553
     8  H    3.089309   2.374632   3.869438   3.113965   2.125329
     9  C    4.675656   2.810577   5.571073   2.873553   2.464423
    10  H    5.335908   3.791530   6.127287   3.914981   2.810521
    11  H    4.378320   2.898768   5.209859   3.112401   3.383039
    12  C    5.862154   3.492410   6.839901   3.090805   1.421779
    13  H    6.637692   4.336952   7.594281   3.891505   2.161766
    14  C    6.316840   3.714065   7.334272   3.089309   2.427738
    15  H    7.334272   4.639012   8.368301   3.869438   3.407688
    16  C    5.742890   3.290896   6.732931   2.806561   2.896685
    17  H    5.589237   3.001102   6.614846   2.320739   3.444241
    18  H    6.628140   4.311269   7.575533   3.838613   3.833206
    19  C    2.427738   1.405767   3.407688   2.125329   3.846134
    20  H    3.389479   2.162266   4.274772   2.463068   4.378845
    21  C    1.353342   2.452854   2.115451   3.397126   4.649739
    22  H    2.108014   3.422068   2.427464   4.272706   5.592368
    23  C    2.513500   1.515630   3.493649   2.195288   3.090501
    24  H    3.444586   2.156162   4.353760   2.498993   2.652365
    25  H    2.893316   2.117669   3.789794   2.532442   4.048370
    26  C    1.500602   2.533699   2.227832   3.500423   3.779808
    27  H    2.137318   3.454036   2.484889   4.320020   4.609993
    28  H    2.129126   2.963641   2.660744   3.909484   3.369731
                    6          7          8          9         10
     6  C    0.000000
     7  H    2.162266   0.000000
     8  H    1.085258   2.463068   0.000000
     9  C    1.515630   3.448131   2.195288   0.000000
    10  H    2.117669   3.698588   2.532442   1.095370   0.000000
    11  H    2.156162   4.289588   2.498994   1.090449   1.753649
    12  C    2.452854   2.167189   3.397126   2.829971   3.132881
    13  H    3.422069   2.470271   4.272707   3.903205   4.108758
    14  C    2.850478   3.389479   3.905867   2.513500   2.893316
    15  H    3.932184   4.274772   4.988995   3.493649   3.789794
    16  C    2.533699   3.977729   3.500424   1.529887   2.148840
    17  H    2.963641   4.474885   3.909485   2.172883   3.046233
    18  H    3.454036   4.909359   4.320021   2.158559   2.383847
    19  C    2.718172   4.378845   2.779882   3.090501   4.048370
    20  H    3.200422   5.089170   3.425130   3.047691   4.020228
    21  C    3.492410   4.949573   3.090806   4.057662   4.829302
    22  H    4.336952   5.949708   3.891504   4.641619   5.344296
    23  C    2.810577   3.047691   2.873554   4.056650   4.890841
    24  H    2.898768   2.373370   3.112402   4.257082   4.990019
    25  H    3.791530   4.020228   3.914982   4.890841   5.812393
    26  C    3.290896   3.522620   2.806561   4.600979   5.249362
    27  H    4.311268   4.170990   3.838612   5.667270   6.305423
    28  H    3.001102   2.957488   2.320739   4.396396   4.840861
                   11         12         13         14         15
    11  H    0.000000
    12  C    3.860894   0.000000
    13  H    4.943293   1.084022   0.000000
    14  C    3.444586   1.353342   2.108014   0.000000
    15  H    4.353760   2.115451   2.427463   1.083477   0.000000
    16  C    2.169411   2.493322   3.475551   1.500602   2.227832
    17  H    2.421744   3.095422   4.025275   2.129126   2.660744
    18  H    2.580420   3.302230   4.183796   2.137318   2.484889
    19  C    2.652365   4.649739   5.592369   4.631813   5.549619
    20  H    2.373370   4.949573   5.949708   4.627363   5.448889
    21  C    3.524525   5.700026   6.604657   5.862154   6.839901
    22  H    3.898578   6.604656   7.556644   6.637691   7.594280
    23  C    4.257082   4.057662   4.641620   4.675656   5.571073
    24  H    4.708210   3.524525   3.898579   4.378320   5.209859
    25  H    4.990019   4.829302   5.344297   5.335908   6.127287
    26  C    4.653884   5.030890   5.635011   5.742890   6.732931
    27  H    5.742315   5.821473   6.292569   6.628139   7.575532
    28  H    4.586969   4.741837   5.307552   5.589236   6.614846
                   16         17         18         19         20
    16  C    0.000000
    17  H    1.097484   0.000000
    18  H    1.092754   1.741024   0.000000
    19  C    3.779808   3.369731   4.609994   0.000000
    20  H    3.522620   2.957489   4.170991   1.082553   0.000000
    21  C    5.030890   4.741838   5.821474   1.421779   2.167189
    22  H    5.635010   5.307552   6.292569   2.161765   2.470270
    23  C    4.600979   4.396396   5.667271   2.464423   3.448131
    24  H    4.653884   4.586969   5.742316   3.383039   4.289588
    25  H    5.249362   4.840861   6.305423   2.810521   3.698588
    26  C    5.528356   5.467943   6.529654   2.896685   3.977729
    27  H    6.529653   6.429578   7.556339   3.833205   4.909358
    28  H    5.467943   5.625213   6.429579   3.444241   4.474885
                   21         22         23         24         25
    21  C    0.000000
    22  H    1.084022   0.000000
    23  C    2.829971   3.903205   0.000000
    24  H    3.860894   4.943293   1.090449   0.000000
    25  H    3.132881   4.108758   1.095370   1.753649   0.000000
    26  C    2.493322   3.475551   1.529887   2.169411   2.148840
    27  H    3.302230   4.183796   2.158559   2.580419   2.383847
    28  H    3.095422   4.025275   2.172882   2.421743   3.046232
                   26         27         28
    26  C    0.000000
    27  H    1.092754   0.000000
    28  H    1.097484   1.741023   0.000000
 Symmetry turned off by external request.
 Stoichiometry    C12H16
 Framework group  CI[X(C12H16)]
 Deg. of freedom    39
 Full point group                 CI      NOp   2
 Rotational constants (GHZ):           1.9482755           0.6370860           0.5524142
 Leave Link  202 at Tue Aug  4 14:30:06 2020, MaxMem=  6442450944 cpu:               0.3 elap:               0.1
 (Enter /scratch/scicomp/CentOS/7.3.1611/Haswell/software/Gaussian/g16/l301.exe)
 Standard basis: def2TZVP (6D, 10F)
 Ernie: Thresh=  0.10000D-02 Tol=  0.10000D-05 Strict=F.
   528 basis functions,   740 primitive gaussians,   528 cartesian basis functions
    44 alpha electrons       44 beta electrons
       nuclear repulsion energy       691.7044051845 Hartrees.
 IExCor= 4639 DFT=T Ex+Corr=wB97XD ExCW=0 ScaHFX=  1.000000
 ScaDFX=  1.000000  1.000000  1.000000  1.000000 ScalE2=  1.000000  1.000000
 IRadAn=      5 IRanWt=     -1 IRanGd=            0 ICorTp=0 IEmpDi=121
 HFx  wShort=  0.000000 wLong=  0.200000 cFull=  0.222036 cShort=  0.000000 cLong=  0.777964
 DFx  wShort=  0.000000 wLong=  0.200000 cFull=  0.000000 cShort=  0.000000 cLong=  1.000000
 NAtoms=   28 NActive=   28 NUniq=   28 SFac= 1.00D+00 NAtFMM=   60 NAOKFM=F Big=F
 Integral buffers will be    131072 words long.
 Raffenetti 2 integral format.
 Two-electron integral symmetry is turned off.
 R6Disp:  Grimme-D2 Dispersion energy=       -0.0229093159 Hartrees.
 Nuclear repulsion after empirical dispersion term =      691.6814958685 Hartrees.
 Using the following non-standard input for PCM:
 qrep pcmdoc geomview  nodis nocav g03defaults tsare=0.075
 Warning! Using old PCM defaults because the g03defaults keyword was found.
 These settings can be overridden by following keywords.
 nsfe=28
 NVESolv=36  SolvMW=84.1595   Rsolv=2.815
 eps=2.0165 RhoS=0.778099999999998
 --- end of non-standard input.
 Reading user-defined spheres from input:
 ISph  on   Nord    Re0     Alpha      Xe            Ye            Ze
 --- end of user-defined spheres data.
 ------------------------------------------------------------------------------
 Polarizable Continuum Model (PCM)
 =================================
 Model                : PCM.
 Atomic radii         : UA0 (Simple United Atom Topological Model).
 Polarization charges : Total charges.
 Charge compensation  : None.
 Solution method      : On-the-fly selection.
 Cavity type          : SES (Solvent Excluding Surface) (Alpha=1.000).
 Cavity algorithm     : GePol (RMin=0.200 OFac=0.890).
                        User-defined sphere list used, NSphG=   28.
                        Tesserae with average area of 0.075 Ang**2.
                        Smoothing algorithm: None.
                        Polarization charges: point-like.
                        Self-potential: constant (ISelfS= 1).
                        Self-field    : global E.n sum rule (ISelfD= 3).
 Solvent              : CycloHexane, Eps=   2.016500 Eps(inf)=   2.035188
                        RSolv=   2.815000 Ang.
 ------------------------------------------------------------------------------
 GePol: Number of generator spheres                  =      28
 GePol: Total number of spheres                      =     173
 GePol: Number of exposed spheres                    =     125 ( 72.25%)
 GePol: Number of tesserae                           =    4595
 GePol: Average area of tesserae                     =       0.05 Ang**2
 GePol: Minimum area of tessera                      =   0.10D-02 Ang**2
 GePol: Maximum area of tessera                      =    0.12623 Ang**2
 GePol: Number of small tesserae                     =       0
 GePol: Fraction of small tesserae (<1% of avg)      =       0.00%
 GePol: Total count of vertices                      =   16239
 GePol: Maximum number of vertices in a tessera      =       7
 GePol: Cavity surface area                          =    218.732 Ang**2
 GePol: Cavity volume                                =    245.980 Ang**3
 Leave Link  301 at Tue Aug  4 14:30:07 2020, MaxMem=  6442450944 cpu:               8.0 elap:               0.4
 (Enter /scratch/scicomp/CentOS/7.3.1611/Haswell/software/Gaussian/g16/l302.exe)
 NPDir=0 NMtPBC=     1 NCelOv=     1 NCel=       1 NClECP=     1 NCelD=      1
         NCelK=      1 NCelE2=     1 NClLst=     1 CellRange=     0.0.
 One-electron integrals computed using PRISM.
   1 Symmetry operations used in ECPInt.
 ECPInt:  NShTT=   19306 NPrTT=   56928 LenC2=   18528 LenP2D=   42284.
 LDataN:  DoStor=T MaxTD1= 6 Len=  172
 NBasis=   528 RedAO= T EigKep=  2.53D-05  NBF=   528
 NBsUse=   528 1.00D-06 EigRej= -1.00D+00 NBFU=   528
 Precomputing XC quadrature grid using
 IXCGrd= 4 IRadAn=           5 IRanWt=          -1 IRanGd=           0 AccXCQ= 0.00D+00.
 Generated NRdTot=       0 NPtTot=           0 NUsed=           0 NTot=          32
 NSgBfM=   526   526   526   526   526 MxSgAt=    28 MxSgA2=    28.
 Leave Link  302 at Tue Aug  4 14:30:07 2020, MaxMem=  6442450944 cpu:              13.2 elap:               0.6
 (Enter /scratch/scicomp/CentOS/7.3.1611/Haswell/software/Gaussian/g16/l303.exe)
 DipDrv:  MaxL=1.
 Leave Link  303 at Tue Aug  4 14:30:07 2020, MaxMem=  6442450944 cpu:               1.6 elap:               0.1
 (Enter /scratch/scicomp/CentOS/7.3.1611/Haswell/software/Gaussian/g16/l401.exe)
 ExpMin= 9.52D-02 ExpMax= 1.36D+04 ExpMxC= 4.63D+02 IAcc=3 IRadAn=         5 AccDes= 0.00D+00
 Harris functional with IExCor= 4639 and IRadAn=       5 diagonalized for initial guess.
 HarFok:  IExCor= 4639 AccDes= 0.00D+00 IRadAn=         5 IDoV= 1 UseB2=F ITyADJ=14
 ICtDFT=  3500011 ScaDFX=  1.000000  1.000000  1.000000  1.000000
 FoFCou: FMM=F IPFlag=           0 FMFlag=      100000 FMFlg1=           0
         NFxFlg=           0 DoJE=T BraDBF=F KetDBF=T FulRan=T
         wScrn=  0.000000 ICntrl=       500 IOpCl=  0 I1Cent=   200000004 NGrid=           0
         NMat0=    1 NMatS0=      1 NMatT0=    0 NMatD0=    1 NMtDS0=    0 NMtDT0=    0
 Symmetry not used in FoFCou.
 Harris En= -444.617727485145    
 JPrj=0 DoOrth=F DoCkMO=T.
 Mixing orbitals, IMix= 1 IMixAn=  0 NRI=1 NE=   44 Coef=  7.07106781D-01  7.07106781D-01
 Mixing orbitals, IMix= 1 IMixAn=  0 NRI=1 NE=   44 Coef= -7.07106781D-01  7.07106781D-01
 Initial guess <Sx>= 0.0000 <Sy>= 0.0000 <Sz>= 0.0000 <S**2>= 1.0000 S= 0.6180
 Leave Link  401 at Tue Aug  4 14:30:10 2020, MaxMem=  6442450944 cpu:              51.6 elap:               2.2
 (Enter /scratch/scicomp/CentOS/7.3.1611/Haswell/software/Gaussian/g16/l502.exe)
 Two-electron integral symmetry not used.
 UHF open shell SCF:
 Using DIIS extrapolation, IDIIS=  1040.
 NGot=  6442450944 LenX=  6441877030 LenY=  6441597718
 Requested convergence on RMS density matrix=1.00D-08 within 128 cycles.
 Requested convergence on MAX density matrix=1.00D-06.
 Requested convergence on             energy=1.00D-06.
 No special actions if energy rises.
 Fock matrices will be formed incrementally for  20 cycles.

 Cycle   1  Pass 1  IDiag  1:
 FoFJK:  IHMeth= 1 ICntrl=       0 DoSepK=T KAlg= 0 I1Cent=           0 FoldK=F
 IRaf=         1 NMat=       1 IRICut=       1 DoRegI=T DoRafI=F ISym2E= 0 IDoP0=0 IntGTp=1.
 FoFCou: FMM=F IPFlag=           0 FMFlag=      100000 FMFlg1=           0
         NFxFlg=           0 DoJE=T BraDBF=F KetDBF=F FulRan=T
         wScrn=  0.000000 ICntrl=       500 IOpCl=  0 I1Cent=           0 NGrid=           0
         NMat0=    1 NMatS0=      1 NMatT0=    0 NMatD0=    1 NMtDS0=    0 NMtDT0=    0
 Symmetry not used in FoFCou.
 Inv3:  Mode=1 IEnd=    63342075.
 Iteration    1 A*A^-1 deviation from unit magnitude is 7.33D-15 for    143.
 Iteration    1 A*A^-1 deviation from orthogonality  is 1.26D-14 for   1809    143.
 Iteration    1 A^-1*A deviation from unit magnitude is 3.77D-15 for   1276.
 Iteration    1 A^-1*A deviation from orthogonality  is 1.52D-15 for   1809    143.
 E= -466.641547936974    
 DIIS: error= 5.57D-02 at cycle   1 NSaved=   1.
 NSaved= 1 IEnMin= 1 EnMin= -466.641547936974     IErMin= 1 ErrMin= 5.57D-02
 ErrMax= 5.57D-02  0.00D+00 EMaxC= 1.00D-01 BMatC= 4.10D+00 BMatP= 4.10D+00
 IDIUse=3 WtCom= 4.43D-01 WtEn= 5.57D-01
 Coeff-Com:  0.100D+01
 Coeff-En:   0.100D+01
 Coeff:      0.100D+01
 Gap=     0.214 Goal=   None    Shift=    0.000
 Gap=     0.214 Goal=   None    Shift=    0.000
 GapD=    0.214 DampG=1.000 DampE=0.500 DampFc=0.5000 IDamp=-1.
 Damping current iteration by 5.00D-01
 RMSDP=1.48D-03 MaxDP=9.23D-02              OVMax= 1.46D-01

 Cycle   2  Pass 1  IDiag  1:
 RMSU=  7.24D-04    CP:  9.75D-01
 E= -466.718071875301     Delta-E=       -0.076523938327 Rises=F Damp=T
 DIIS: error= 2.64D-02 at cycle   2 NSaved=   2.
 NSaved= 2 IEnMin= 2 EnMin= -466.718071875301     IErMin= 2 ErrMin= 2.64D-02
 ErrMax= 2.64D-02  0.00D+00 EMaxC= 1.00D-01 BMatC= 9.22D-01 BMatP= 4.10D+00
 IDIUse=3 WtCom= 7.36D-01 WtEn= 2.64D-01
 Coeff-Com: -0.865D+00 0.187D+01
 Coeff-En:   0.000D+00 0.100D+01
 Coeff:     -0.636D+00 0.164D+01
 Gap=     0.233 Goal=   None    Shift=    0.000
 Gap=     0.233 Goal=   None    Shift=    0.000
 RMSDP=9.39D-04 MaxDP=4.86D-02 DE=-7.65D-02 OVMax= 6.33D-02

 Cycle   3  Pass 1  IDiag  1:
 RMSU=  4.64D-04    CP:  9.44D-01  2.10D+00
 E= -466.798055357000     Delta-E=       -0.079983481699 Rises=F Damp=F
 DIIS: error= 3.48D-03 at cycle   3 NSaved=   3.
 NSaved= 3 IEnMin= 3 EnMin= -466.798055357000     IErMin= 3 ErrMin= 3.48D-03
 ErrMax= 3.48D-03  0.00D+00 EMaxC= 1.00D-01 BMatC= 1.78D-02 BMatP= 9.22D-01
 IDIUse=3 WtCom= 9.65D-01 WtEn= 3.48D-02
 Coeff-Com: -0.311D+00 0.670D+00 0.641D+00
 Coeff-En:   0.000D+00 0.000D+00 0.100D+01
 Coeff:     -0.300D+00 0.647D+00 0.653D+00
 Gap=     0.238 Goal=   None    Shift=    0.000
 Gap=     0.238 Goal=   None    Shift=    0.000
 RMSDP=1.38D-04 MaxDP=6.89D-03 DE=-8.00D-02 OVMax= 3.11D-02

 Cycle   4  Pass 1  IDiag  1:
 RMSU=  1.22D-04    CP:  9.40D-01  2.17D+00  9.49D-01
 E= -466.803511186595     Delta-E=       -0.005455829595 Rises=F Damp=F
 DIIS: error= 2.34D-03 at cycle   4 NSaved=   4.
 NSaved= 4 IEnMin= 4 EnMin= -466.803511186595     IErMin= 4 ErrMin= 2.34D-03
 ErrMax= 2.34D-03  0.00D+00 EMaxC= 1.00D-01 BMatC= 7.02D-04 BMatP= 1.78D-02
 IDIUse=3 WtCom= 9.77D-01 WtEn= 2.34D-02
 Coeff-Com:  0.115D+00-0.249D+00-0.122D+00 0.125D+01
 Coeff-En:   0.000D+00 0.000D+00 0.000D+00 0.100D+01
 Coeff:      0.113D+00-0.243D+00-0.119D+00 0.125D+01
 Gap=     0.241 Goal=   None    Shift=    0.000
 Gap=     0.241 Goal=   None    Shift=    0.000
 RMSDP=1.30D-04 MaxDP=6.85D-03 DE=-5.46D-03 OVMax= 4.01D-02

 Cycle   5  Pass 1  IDiag  1:
 RMSU=  5.26D-05    CP:  9.37D-01  2.22D+00  1.12D+00  1.66D+00
 E= -466.804901387911     Delta-E=       -0.001390201316 Rises=F Damp=F
 DIIS: error= 1.12D-03 at cycle   5 NSaved=   5.
 NSaved= 5 IEnMin= 5 EnMin= -466.804901387911     IErMin= 5 ErrMin= 1.12D-03
 ErrMax= 1.12D-03  0.00D+00 EMaxC= 1.00D-01 BMatC= 1.80D-04 BMatP= 7.02D-04
 IDIUse=3 WtCom= 9.89D-01 WtEn= 1.12D-02
 Coeff-Com:  0.390D-01-0.844D-01-0.721D-01 0.101D+00 0.102D+01
 Coeff-En:   0.000D+00 0.000D+00 0.000D+00 0.000D+00 0.100D+01
 Coeff:      0.386D-01-0.834D-01-0.713D-01 0.999D-01 0.102D+01
 Gap=     0.242 Goal=   None    Shift=    0.000
 Gap=     0.242 Goal=   None    Shift=    0.000
 RMSDP=6.08D-05 MaxDP=4.20D-03 DE=-1.39D-03 OVMax= 2.03D-02

 Cycle   6  Pass 1  IDiag  1:
 RMSU=  2.06D-05    CP:  9.36D-01  2.23D+00  1.16D+00  2.00D+00  1.65D+00
 E= -466.805277295177     Delta-E=       -0.000375907266 Rises=F Damp=F
 DIIS: error= 6.54D-04 at cycle   6 NSaved=   6.
 NSaved= 6 IEnMin= 6 EnMin= -466.805277295177     IErMin= 6 ErrMin= 6.54D-04
 ErrMax= 6.54D-04  0.00D+00 EMaxC= 1.00D-01 BMatC= 9.24D-05 BMatP= 1.80D-04
 IDIUse=3 WtCom= 9.93D-01 WtEn= 6.54D-03
 Coeff-Com: -0.323D-01 0.695D-01 0.259D-01-0.430D+00 0.423D+00 0.945D+00
 Coeff-En:   0.000D+00 0.000D+00 0.000D+00 0.000D+00 0.000D+00 0.100D+01
 Coeff:     -0.321D-01 0.690D-01 0.258D-01-0.427D+00 0.420D+00 0.945D+00
 Gap=     0.242 Goal=   None    Shift=    0.000
 Gap=     0.242 Goal=   None    Shift=    0.000
 RMSDP=4.56D-05 MaxDP=2.79D-03 DE=-3.76D-04 OVMax= 1.65D-02

 Cycle   7  Pass 1  IDiag  1:
 RMSU=  1.34D-05    CP:  9.35D-01  2.23D+00  1.18D+00  2.22D+00  2.24D+00
                    CP:  1.46D+00
 E= -466.805460015970     Delta-E=       -0.000182720793 Rises=F Damp=F
 DIIS: error= 3.45D-04 at cycle   7 NSaved=   7.
 NSaved= 7 IEnMin= 7 EnMin= -466.805460015970     IErMin= 7 ErrMin= 3.45D-04
 ErrMax= 3.45D-04  0.00D+00 EMaxC= 1.00D-01 BMatC= 2.14D-05 BMatP= 9.24D-05
 IDIUse=3 WtCom= 9.97D-01 WtEn= 3.45D-03
 Coeff-Com: -0.121D-01 0.264D-01 0.213D-01-0.245D-01-0.221D+00-0.187D-01
 Coeff-Com:  0.123D+01
 Coeff-En:   0.000D+00 0.000D+00 0.000D+00 0.000D+00 0.000D+00 0.000D+00
 Coeff-En:   0.100D+01
 Coeff:     -0.121D-01 0.263D-01 0.212D-01-0.245D-01-0.220D+00-0.187D-01
 Coeff:      0.123D+01
 Gap=     0.241 Goal=   None    Shift=    0.000
 Gap=     0.241 Goal=   None    Shift=    0.000
 RMSDP=2.78D-05 MaxDP=1.62D-03 DE=-1.83D-04 OVMax= 9.97D-03

 Cycle   8  Pass 1  IDiag  1:
 RMSU=  6.47D-06    CP:  9.35D-01  2.23D+00  1.18D+00  2.33D+00  2.59D+00
                    CP:  2.01D+00  1.69D+00
 E= -466.805526904965     Delta-E=       -0.000066888995 Rises=F Damp=F
 DIIS: error= 2.32D-04 at cycle   8 NSaved=   8.
 NSaved= 8 IEnMin= 8 EnMin= -466.805526904965     IErMin= 8 ErrMin= 2.32D-04
 ErrMax= 2.32D-04  0.00D+00 EMaxC= 1.00D-01 BMatC= 8.98D-06 BMatP= 2.14D-05
 IDIUse=3 WtCom= 9.98D-01 WtEn= 2.32D-03
 Coeff-Com:  0.996D-02-0.215D-01-0.496D-02 0.170D+00-0.165D+00-0.402D+00
 Coeff-Com:  0.174D+00 0.124D+01
 Coeff-En:   0.000D+00 0.000D+00 0.000D+00 0.000D+00 0.000D+00 0.000D+00
 Coeff-En:   0.000D+00 0.100D+01
 Coeff:      0.993D-02-0.214D-01-0.495D-02 0.170D+00-0.164D+00-0.401D+00
 Coeff:      0.173D+00 0.124D+01
 Gap=     0.240 Goal=   None    Shift=    0.000
 Gap=     0.240 Goal=   None    Shift=    0.000
 RMSDP=1.86D-05 MaxDP=7.87D-04 DE=-6.69D-05 OVMax= 7.36D-03

 Cycle   9  Pass 1  IDiag  1:
 RMSU=  3.75D-06    CP:  9.35D-01  2.23D+00  1.18D+00  2.39D+00  2.80D+00
                    CP:  2.32D+00  2.36D+00  1.81D+00
 E= -466.805557365388     Delta-E=       -0.000030460424 Rises=F Damp=F
 DIIS: error= 1.57D-04 at cycle   9 NSaved=   9.
 NSaved= 9 IEnMin= 9 EnMin= -466.805557365388     IErMin= 9 ErrMin= 1.57D-04
 ErrMax= 1.57D-04  0.00D+00 EMaxC= 1.00D-01 BMatC= 3.23D-06 BMatP= 8.98D-06
 IDIUse=3 WtCom= 9.98D-01 WtEn= 1.57D-03
 Coeff-Com:  0.718D-02-0.155D-01-0.917D-02 0.552D-01 0.562D-01-0.104D+00
 Coeff-Com: -0.424D+00 0.258D+00 0.118D+01
 Coeff-En:   0.000D+00 0.000D+00 0.000D+00 0.000D+00 0.000D+00 0.000D+00
 Coeff-En:   0.000D+00 0.000D+00 0.100D+01
 Coeff:      0.717D-02-0.155D-01-0.916D-02 0.551D-01 0.561D-01-0.104D+00
 Coeff:     -0.424D+00 0.258D+00 0.118D+01
 Gap=     0.240 Goal=   None    Shift=    0.000
 Gap=     0.240 Goal=   None    Shift=    0.000
 RMSDP=1.23D-05 MaxDP=4.95D-04 DE=-3.05D-05 OVMax= 5.11D-03

 Cycle  10  Pass 1  IDiag  1:
 RMSU=  2.30D-06    CP:  9.35D-01  2.23D+00  1.19D+00  2.44D+00  2.91D+00
                    CP:  2.50D+00  2.75D+00  2.57D+00  1.80D+00
 E= -466.805569578232     Delta-E=       -0.000012212843 Rises=F Damp=F
 DIIS: error= 9.59D-05 at cycle  10 NSaved=  10.
 NSaved=10 IEnMin=10 EnMin= -466.805569578232     IErMin=10 ErrMin= 9.59D-05
 ErrMax= 9.59D-05  0.00D+00 EMaxC= 1.00D-01 BMatC= 8.94D-07 BMatP= 3.23D-06
 IDIUse=1 WtCom= 1.00D+00 WtEn= 0.00D+00
 Coeff-Com: -0.448D-02 0.968D-02 0.301D-02-0.669D-01 0.658D-01 0.159D+00
 Coeff-Com: -0.582D-01-0.540D+00-0.138D+00 0.157D+01
 Coeff:     -0.448D-02 0.968D-02 0.301D-02-0.669D-01 0.658D-01 0.159D+00
 Coeff:     -0.582D-01-0.540D+00-0.138D+00 0.157D+01
 Gap=     0.239 Goal=   None    Shift=    0.000
 Gap=     0.239 Goal=   None    Shift=    0.000
 RMSDP=1.05D-05 MaxDP=4.37D-04 DE=-1.22D-05 OVMax= 4.45D-03

 Cycle  11  Pass 1  IDiag  1:
 RMSU=  1.68D-06    CP:  9.34D-01  2.23D+00  1.19D+00  2.48D+00  3.00D+00
                    CP:  2.60D+00  2.99D+00  3.00D+00  2.80D+00  2.21D+00
 E= -466.805574521749     Delta-E=       -0.000004943517 Rises=F Damp=F
 DIIS: error= 3.14D-05 at cycle  11 NSaved=  11.
 NSaved=11 IEnMin=11 EnMin= -466.805574521749     IErMin=11 ErrMin= 3.14D-05
 ErrMax= 3.14D-05  0.00D+00 EMaxC= 1.00D-01 BMatC= 1.51D-07 BMatP= 8.94D-07
 IDIUse=1 WtCom= 1.00D+00 WtEn= 0.00D+00
 Coeff-Com: -0.113D-02 0.244D-02 0.141D-02-0.901D-02-0.415D-02 0.213D-01
 Coeff-Com:  0.500D-01-0.650D-01-0.175D+00 0.596D-01 0.112D+01
 Coeff:     -0.113D-02 0.244D-02 0.141D-02-0.901D-02-0.415D-02 0.213D-01
 Coeff:      0.500D-01-0.650D-01-0.175D+00 0.596D-01 0.112D+01
 Gap=     0.239 Goal=   None    Shift=    0.000
 Gap=     0.239 Goal=   None    Shift=    0.000
 RMSDP=2.97D-06 MaxDP=1.35D-04 DE=-4.94D-06 OVMax= 1.20D-03

 Cycle  12  Pass 1  IDiag  1:
 RMSU=  1.38D-06    CP:  9.34D-01  2.23D+00  1.19D+00  2.49D+00  3.00D+00
                    CP:  2.63D+00  3.00D+00  3.00D+00  3.00D+00  2.73D+00
                    CP:  1.75D+00
 E= -466.805575013656     Delta-E=       -0.000000491907 Rises=F Damp=F
 DIIS: error= 1.15D-05 at cycle  12 NSaved=  12.
 NSaved=12 IEnMin=12 EnMin= -466.805575013656     IErMin=12 ErrMin= 1.15D-05
 ErrMax= 1.15D-05  0.00D+00 EMaxC= 1.00D-01 BMatC= 5.60D-08 BMatP= 1.51D-07
 IDIUse=1 WtCom= 1.00D+00 WtEn= 0.00D+00
 Coeff-Com:  0.130D-02-0.282D-02-0.615D-03 0.225D-01-0.254D-01-0.526D-01
 Coeff-Com:  0.343D-01 0.179D+00-0.355D-02-0.574D+00 0.439D+00 0.983D+00
 Coeff:      0.130D-02-0.282D-02-0.615D-03 0.225D-01-0.254D-01-0.526D-01
 Coeff:      0.343D-01 0.179D+00-0.355D-02-0.574D+00 0.439D+00 0.983D+00
 Gap=     0.239 Goal=   None    Shift=    0.000
 Gap=     0.239 Goal=   None    Shift=    0.000
 RMSDP=1.54D-06 MaxDP=7.72D-05 DE=-4.92D-07 OVMax= 5.91D-04

 Cycle  13  Pass 1  IDiag  1:
 RMSU=  4.45D-07    CP:  9.34D-01  2.23D+00  1.19D+00  2.50D+00  3.00D+00
                    CP:  2.64D+00  3.00D+00  3.00D+00  3.00D+00  3.00D+00
                    CP:  2.18D+00  1.55D+00
 E= -466.805575116701     Delta-E=       -0.000000103046 Rises=F Damp=F
 DIIS: error= 3.56D-06 at cycle  13 NSaved=  13.
 NSaved=13 IEnMin=13 EnMin= -466.805575116701     IErMin=13 ErrMin= 3.56D-06
 ErrMax= 3.56D-06  0.00D+00 EMaxC= 1.00D-01 BMatC= 5.80D-09 BMatP= 5.60D-08
 IDIUse=1 WtCom= 1.00D+00 WtEn= 0.00D+00
 Coeff-Com:  0.259D-03-0.557D-03-0.234D-03 0.301D-02-0.108D-02-0.748D-02
 Coeff-Com: -0.564D-02 0.239D-01 0.291D-01-0.525D-01-0.134D+00 0.904D-01
 Coeff-Com:  0.105D+01
 Coeff:      0.259D-03-0.557D-03-0.234D-03 0.301D-02-0.108D-02-0.748D-02
 Coeff:     -0.564D-02 0.239D-01 0.291D-01-0.525D-01-0.134D+00 0.904D-01
 Coeff:      0.105D+01
 Gap=     0.239 Goal=   None    Shift=    0.000
 Gap=     0.239 Goal=   None    Shift=    0.000
 RMSDP=2.68D-07 MaxDP=1.46D-05 DE=-1.03D-07 OVMax= 9.02D-05

 Cycle  14  Pass 1  IDiag  1:
 RMSU=  1.64D-07    CP:  9.34D-01  2.23D+00  1.19D+00  2.50D+00  3.00D+00
                    CP:  2.65D+00  3.00D+00  3.00D+00  3.00D+00  3.00D+00
                    CP:  2.24D+00  1.64D+00  1.20D+00
 E= -466.805575123830     Delta-E=       -0.000000007128 Rises=F Damp=F
 DIIS: error= 1.13D-06 at cycle  14 NSaved=  14.
 NSaved=14 IEnMin=14 EnMin= -466.805575123830     IErMin=14 ErrMin= 1.13D-06
 ErrMax= 1.13D-06  0.00D+00 EMaxC= 1.00D-01 BMatC= 1.62D-09 BMatP= 5.80D-09
 IDIUse=1 WtCom= 1.00D+00 WtEn= 0.00D+00
 Coeff-Com: -0.204D-03 0.442D-03 0.623D-04-0.395D-02 0.531D-02 0.888D-02
 Coeff-Com: -0.105D-01-0.309D-01 0.119D-01 0.107D+00-0.142D+00-0.178D+00
 Coeff-Com:  0.378D+00 0.854D+00
 Coeff:     -0.204D-03 0.442D-03 0.623D-04-0.395D-02 0.531D-02 0.888D-02
 Coeff:     -0.105D-01-0.309D-01 0.119D-01 0.107D+00-0.142D+00-0.178D+00
 Coeff:      0.378D+00 0.854D+00
 Gap=     0.239 Goal=   None    Shift=    0.000
 Gap=     0.239 Goal=   None    Shift=    0.000
 RMSDP=1.19D-07 MaxDP=4.56D-06 DE=-7.13D-09 OVMax= 3.58D-05

 Cycle  15  Pass 1  IDiag  1:
 RMSU=  6.93D-08    CP:  9.34D-01  2.23D+00  1.19D+00  2.50D+00  3.00D+00
                    CP:  2.65D+00  3.00D+00  3.00D+00  3.00D+00  3.00D+00
                    CP:  2.26D+00  1.69D+00  1.25D+00  1.29D+00
 E= -466.805575125017     Delta-E=       -0.000000001187 Rises=F Damp=F
 DIIS: error= 2.68D-07 at cycle  15 NSaved=  15.
 NSaved=15 IEnMin=15 EnMin= -466.805575125017     IErMin=15 ErrMin= 2.68D-07
 ErrMax= 2.68D-07  0.00D+00 EMaxC= 1.00D-01 BMatC= 1.34D-10 BMatP= 1.62D-09
 IDIUse=1 WtCom= 1.00D+00 WtEn= 0.00D+00
 Coeff-Com: -0.722D-04 0.156D-03 0.348D-04-0.119D-02 0.128D-02 0.283D-02
 Coeff-Com: -0.171D-02-0.951D-02-0.147D-02 0.298D-01-0.126D-01-0.519D-01
 Coeff-Com: -0.693D-01 0.190D+00 0.924D+00
 Coeff:     -0.722D-04 0.156D-03 0.348D-04-0.119D-02 0.128D-02 0.283D-02
 Coeff:     -0.171D-02-0.951D-02-0.147D-02 0.298D-01-0.126D-01-0.519D-01
 Coeff:     -0.693D-01 0.190D+00 0.924D+00
 Gap=     0.239 Goal=   None    Shift=    0.000
 Gap=     0.239 Goal=   None    Shift=    0.000
 RMSDP=4.05D-08 MaxDP=1.82D-06 DE=-1.19D-09 OVMax= 1.16D-05

 Cycle  16  Pass 1  IDiag  1:
 RMSU=  1.95D-08    CP:  9.34D-01  2.23D+00  1.19D+00  2.50D+00  3.00D+00
                    CP:  2.65D+00  3.00D+00  3.00D+00  3.00D+00  3.00D+00
                    CP:  2.27D+00  1.70D+00  1.26D+00  1.40D+00  1.32D+00
 E= -466.805575125123     Delta-E=       -0.000000000106 Rises=F Damp=F
 DIIS: error= 7.61D-08 at cycle  16 NSaved=  16.
 NSaved=16 IEnMin=16 EnMin= -466.805575125123     IErMin=16 ErrMin= 7.61D-08
 ErrMax= 7.61D-08  0.00D+00 EMaxC= 1.00D-01 BMatC= 9.78D-12 BMatP= 1.34D-10
 IDIUse=1 WtCom= 1.00D+00 WtEn= 0.00D+00
 Coeff-Com:  0.793D-05-0.174D-04-0.199D-05 0.184D-03-0.254D-03-0.411D-03
 Coeff-Com:  0.660D-03 0.150D-02-0.133D-02-0.533D-02 0.106D-01 0.879D-02
 Coeff-Com: -0.394D-01-0.537D-01 0.106D+00 0.973D+00
 Coeff:      0.793D-05-0.174D-04-0.199D-05 0.184D-03-0.254D-03-0.411D-03
 Coeff:      0.660D-03 0.150D-02-0.133D-02-0.533D-02 0.106D-01 0.879D-02
 Coeff:     -0.394D-01-0.537D-01 0.106D+00 0.973D+00
 Gap=     0.239 Goal=   None    Shift=    0.000
 Gap=     0.239 Goal=   None    Shift=    0.000
 RMSDP=1.07D-08 MaxDP=4.77D-07 DE=-1.06D-10 OVMax= 1.06D-06

 Cycle  17  Pass 1  IDiag  1:
 RMSU=  7.01D-09    CP:  9.34D-01  2.23D+00  1.19D+00  2.50D+00  3.00D+00
                    CP:  2.65D+00  3.00D+00  3.00D+00  3.00D+00  3.00D+00
                    CP:  2.27D+00  1.70D+00  1.26D+00  1.40D+00  1.38D+00
                    CP:  1.33D+00
 E= -466.805575125129     Delta-E=       -0.000000000005 Rises=F Damp=F
 DIIS: error= 3.82D-08 at cycle  17 NSaved=  17.
 NSaved=17 IEnMin=17 EnMin= -466.805575125129     IErMin=17 ErrMin= 3.82D-08
 ErrMax= 3.82D-08  0.00D+00 EMaxC= 1.00D-01 BMatC= 1.39D-12 BMatP= 9.78D-12
 IDIUse=1 WtCom= 1.00D+00 WtEn= 0.00D+00
 Coeff-Com:  0.747D-05-0.161D-04-0.324D-05 0.127D-03-0.139D-03-0.328D-03
 Coeff-Com:  0.239D-03 0.104D-02-0.427D-06-0.329D-02 0.216D-02 0.581D-02
 Coeff-Com:  0.492D-02-0.270D-01-0.879D-01 0.854D-01 0.102D+01
 Coeff:      0.747D-05-0.161D-04-0.324D-05 0.127D-03-0.139D-03-0.328D-03
 Coeff:      0.239D-03 0.104D-02-0.427D-06-0.329D-02 0.216D-02 0.581D-02
 Coeff:      0.492D-02-0.270D-01-0.879D-01 0.854D-01 0.102D+01
 Gap=     0.239 Goal=   None    Shift=    0.000
 Gap=     0.239 Goal=   None    Shift=    0.000
 RMSDP=4.21D-09 MaxDP=1.64D-07 DE=-5.46D-12 OVMax= 9.35D-07

 Error on total polarization charges =  0.01113
 SCF Done:  E(UwB97XD) =  -466.805575125     A.U. after   17 cycles
            NFock= 17  Conv=0.42D-08     -V/T= 2.0059
 <Sx>= 0.0000 <Sy>= 0.0000 <Sz>= 0.0000 <S**2>= 0.6972 S= 0.4732
 <L.S>=  0.00000000000    
 KE= 4.640856637073D+02 PE=-2.465093042657D+03 EE= 8.425203079557D+02
 --------------------------------------------------------------------
 Variational PCM results
 =======================
 <psi(f)|   H    |psi(f)>                     (a.u.) =    -466.814042
 <psi(f)|H+V(f)/2|psi(f)>                     (a.u.) =    -466.815373
 Total free energy in solution:
 - with all non electrostatic terms           (a.u.) =    -466.805575
 --------------------------------------------------------------------
 (Polarized solute)-Solvent               (kcal/mol) =      -0.84
 --------------------------------------------------------------------
 Quantum repulsion energy                 (kcal/mol) =       6.15
 Total non electrostatic                  (kcal/mol) =       6.15
 --------------------------------------------------------------------
 Partition over spheres:
 Sphere  on Atom  Surface  Charge   GEl     GCav    GDR
    1               7.44   0.011   -0.05    0.00    0.00
    2               0.78   0.001   -0.00    0.00    0.00
    3               7.51  -0.010   -0.03    0.00    0.00
    4               3.04  -0.004   -0.01    0.00    0.00
    5               4.82   0.009   -0.05    0.00    0.00
    6               1.11   0.001   -0.00    0.00    0.00
    7               4.90  -0.007   -0.03    0.00    0.00
    8               3.55  -0.004   -0.01    0.00    0.00
    9               3.06   0.002   -0.00    0.00    0.00
   10               6.87  -0.006   -0.01    0.00    0.00
   11               3.67  -0.003   -0.01    0.00    0.00
   12               6.69   0.011   -0.06    0.00    0.00
   13               7.50  -0.010   -0.03    0.00    0.00
   14               7.38   0.011   -0.05    0.00    0.00
   15               7.51  -0.010   -0.03    0.00    0.00
   16               3.40   0.001    0.00    0.00    0.00
   17               4.02  -0.004   -0.02    0.00    0.00
   18               7.47  -0.008   -0.03    0.00    0.00
   19               4.60   0.008   -0.05    0.00    0.00
   20               5.28  -0.007   -0.03    0.00    0.00
   21               6.68   0.011   -0.06    0.00    0.00
   22               7.50  -0.010   -0.03    0.00    0.00
   23               3.02   0.002   -0.00    0.00    0.00
   24               3.86  -0.003   -0.01    0.00    0.00
   25               6.89  -0.006   -0.01    0.00    0.00
   26               3.24   0.001    0.00    0.00    0.00
   27               7.40  -0.008   -0.03    0.00    0.00
   28               4.18  -0.004   -0.02    0.00    0.00
 Added spheres:    75.35   0.024   -0.20    0.00    0.00
 --------------------------------------------------------------------
 After PCM corrections, the energy is  -466.805575125     a.u.
 --------------------------------------------------------------------
 Annihilation of the first spin contaminant:
 S**2 before annihilation     0.6972,   after     0.2369
 Leave Link  502 at Tue Aug  4 14:35:36 2020, MaxMem=  6442450944 cpu:            7771.3 elap:             326.6
 (Enter /scratch/scicomp/CentOS/7.3.1611/Haswell/software/Gaussian/g16/l601.exe)
 Copying SCF densities to generalized density rwf, IOpCl= 1 IROHF=0.

 **********************************************************************

            Population analysis using the SCF Density.

 **********************************************************************

 Alpha  occ. eigenvalues --  -10.29669 -10.29314 -10.28393 -10.28330 -10.28295
 Alpha  occ. eigenvalues --  -10.27975 -10.27972 -10.27916 -10.27894 -10.27888
 Alpha  occ. eigenvalues --  -10.27692 -10.27378  -0.94788  -0.93001  -0.84926
 Alpha  occ. eigenvalues --   -0.84301  -0.83481  -0.82263  -0.71145  -0.70120
 Alpha  occ. eigenvalues --   -0.69257  -0.67691  -0.59874  -0.59341  -0.58065
 Alpha  occ. eigenvalues --   -0.56206  -0.53210  -0.52947  -0.50712  -0.49868
 Alpha  occ. eigenvalues --   -0.49174  -0.48055  -0.47777  -0.47234  -0.46321
 Alpha  occ. eigenvalues --   -0.44556  -0.41297  -0.40879  -0.39719  -0.39516
 Alpha  occ. eigenvalues --   -0.38900  -0.37315  -0.32054  -0.24080
 Alpha virt. eigenvalues --   -0.00171   0.09084   0.11356   0.13450   0.14189
 Alpha virt. eigenvalues --    0.14671   0.15528   0.16476   0.16962   0.17323
 Alpha virt. eigenvalues --    0.17472   0.18165   0.19156   0.20218   0.21073
 Alpha virt. eigenvalues --    0.21609   0.22274   0.23469   0.24048   0.24397
 Alpha virt. eigenvalues --    0.25442   0.25954   0.27100   0.27207   0.27955
 Alpha virt. eigenvalues --    0.29275   0.29325   0.30496   0.31051   0.31176
 Alpha virt. eigenvalues --    0.31831   0.32531   0.32595   0.33318   0.34568
 Alpha virt. eigenvalues --    0.34959   0.36086   0.36730   0.37114   0.37925
 Alpha virt. eigenvalues --    0.38228   0.39375   0.41691   0.42060   0.42812
 Alpha virt. eigenvalues --    0.44053   0.44587   0.45415   0.45948   0.46264
 Alpha virt. eigenvalues --    0.47106   0.47651   0.49211   0.49246   0.49389
 Alpha virt. eigenvalues --    0.49444   0.49787   0.49955   0.50800   0.50965
 Alpha virt. eigenvalues --    0.51115   0.51724   0.52216   0.52858   0.53596
 Alpha virt. eigenvalues --    0.53719   0.54911   0.55051   0.55674   0.56615
 Alpha virt. eigenvalues --    0.57196   0.57469   0.58628   0.59235   0.59616
 Alpha virt. eigenvalues --    0.59721   0.61235   0.61334   0.63777   0.65496
 Alpha virt. eigenvalues --    0.66863   0.67888   0.68465   0.69076   0.69198
 Alpha virt. eigenvalues --    0.71241   0.72230   0.73753   0.76283   0.76383
 Alpha virt. eigenvalues --    0.78270   0.79283   0.79433   0.81887   0.82435
 Alpha virt. eigenvalues --    0.83425   0.84643   0.86223   0.88018   0.88252
 Alpha virt. eigenvalues --    0.88540   0.89778   0.93547   0.94305   0.95231
 Alpha virt. eigenvalues --    0.96479   0.97655   0.98501   0.98975   0.99916
 Alpha virt. eigenvalues --    1.02231   1.02495   1.04402   1.04785   1.06059
 Alpha virt. eigenvalues --    1.07619   1.08316   1.08336   1.10126   1.10313
 Alpha virt. eigenvalues --    1.12675   1.14369   1.15913   1.17029   1.17705
 Alpha virt. eigenvalues --    1.18719   1.19182   1.19712   1.19975   1.20100
 Alpha virt. eigenvalues --    1.21311   1.22792   1.24512   1.26067   1.26295
 Alpha virt. eigenvalues --    1.27291   1.27899   1.28307   1.29203   1.29538
 Alpha virt. eigenvalues --    1.30506   1.30862   1.33413   1.34426   1.35089
 Alpha virt. eigenvalues --    1.35238   1.35684   1.36090   1.38448   1.39424
 Alpha virt. eigenvalues --    1.39539   1.39944   1.40348   1.41846   1.42680
 Alpha virt. eigenvalues --    1.43310   1.43882   1.44439   1.44720   1.45688
 Alpha virt. eigenvalues --    1.46380   1.47029   1.47596   1.48516   1.49453
 Alpha virt. eigenvalues --    1.50900   1.53816   1.55169   1.56829   1.57881
 Alpha virt. eigenvalues --    1.59508   1.60047   1.60139   1.62126   1.63321
 Alpha virt. eigenvalues --    1.63986   1.66058   1.66461   1.67720   1.68693
 Alpha virt. eigenvalues --    1.72576   1.73855   1.75696   1.77656   1.78872
 Alpha virt. eigenvalues --    1.79263   1.81072   1.81990   1.85520   1.85625
 Alpha virt. eigenvalues --    1.87971   1.89965   1.91145   1.93077   1.94331
 Alpha virt. eigenvalues --    1.97370   1.97839   2.01116   2.03094   2.04208
 Alpha virt. eigenvalues --    2.06488   2.06892   2.08826   2.10533   2.11135
 Alpha virt. eigenvalues --    2.12814   2.15685   2.16633   2.17049   2.18353
 Alpha virt. eigenvalues --    2.19031   2.19504   2.20301   2.21476   2.24191
 Alpha virt. eigenvalues --    2.25136   2.25630   2.28533   2.30531   2.32105
 Alpha virt. eigenvalues --    2.34919   2.36870   2.38051   2.39460   2.44457
 Alpha virt. eigenvalues --    2.45550   2.47384   2.47534   2.48521   2.49991
 Alpha virt. eigenvalues --    2.50950   2.54830   2.55092   2.57206   2.57968
 Alpha virt. eigenvalues --    2.58922   2.59577   2.61655   2.62250   2.63442
 Alpha virt. eigenvalues --    2.64238   2.64720   2.67510   2.68271   2.68789
 Alpha virt. eigenvalues --    2.69280   2.71828   2.73138   2.73295   2.74182
 Alpha virt. eigenvalues --    2.74574   2.76084   2.76463   2.77836   2.77919
 Alpha virt. eigenvalues --    2.79406   2.80835   2.80871   2.82338   2.83299
 Alpha virt. eigenvalues --    2.83582   2.84418   2.84929   2.86006   2.86951
 Alpha virt. eigenvalues --    2.87304   2.88298   2.89819   2.90292   2.91044
 Alpha virt. eigenvalues --    2.92907   2.93159   2.93776   2.94989   2.96420
 Alpha virt. eigenvalues --    2.96588   2.99073   3.00073   3.01457   3.02213
 Alpha virt. eigenvalues --    3.03420   3.03869   3.05654   3.06234   3.06957
 Alpha virt. eigenvalues --    3.08411   3.08961   3.09871   3.10748   3.11525
 Alpha virt. eigenvalues --    3.12478   3.12998   3.13346   3.14789   3.14846
 Alpha virt. eigenvalues --    3.15672   3.16182   3.18057   3.19470   3.19901
 Alpha virt. eigenvalues --    3.20510   3.21076   3.21653   3.22548   3.22772
 Alpha virt. eigenvalues --    3.23446   3.24434   3.25202   3.25564   3.26546
 Alpha virt. eigenvalues --    3.26790   3.27184   3.28191   3.29777   3.30348
 Alpha virt. eigenvalues --    3.30656   3.31302   3.32293   3.32628   3.34948
 Alpha virt. eigenvalues --    3.35694   3.36062   3.36601   3.36831   3.37318
 Alpha virt. eigenvalues --    3.38893   3.40026   3.40489   3.40777   3.42045
 Alpha virt. eigenvalues --    3.42640   3.45367   3.45937   3.46611   3.47063
 Alpha virt. eigenvalues --    3.48398   3.49017   3.49713   3.50683   3.51551
 Alpha virt. eigenvalues --    3.52766   3.53037   3.53358   3.56420   3.57725
 Alpha virt. eigenvalues --    3.57818   3.58295   3.58871   3.60014   3.60283
 Alpha virt. eigenvalues --    3.61351   3.62379   3.63034   3.64654   3.66278
 Alpha virt. eigenvalues --    3.66408   3.67162   3.69138   3.70093   3.72493
 Alpha virt. eigenvalues --    3.72848   3.76497   3.78301   3.78689   3.80637
 Alpha virt. eigenvalues --    3.81277   3.82262   3.82350   3.83130   3.84177
 Alpha virt. eigenvalues --    3.85373   3.88127   3.90978   3.92047   3.92377
 Alpha virt. eigenvalues --    3.93701   3.95550   3.96485   3.99984   4.02227
 Alpha virt. eigenvalues --    4.03055   4.03733   4.06892   4.09887   4.10190
 Alpha virt. eigenvalues --    4.11434   4.11855   4.13021   4.15422   4.15582
 Alpha virt. eigenvalues --    4.17423   4.18670   4.20257   4.20911   4.21852
 Alpha virt. eigenvalues --    4.23073   4.24954   4.25554   4.27983   4.29652
 Alpha virt. eigenvalues --    4.32460   4.33172   4.34821   4.36514   4.36715
 Alpha virt. eigenvalues --    4.38567   4.44982   4.45179   4.47294   4.47666
 Alpha virt. eigenvalues --    4.50154   4.51112   4.52153   4.54880   4.55001
 Alpha virt. eigenvalues --    4.56653   4.59150   4.62196   4.65014   4.66976
 Alpha virt. eigenvalues --    4.68784   4.71554   4.74503   4.75542   4.76783
 Alpha virt. eigenvalues --    4.77242   4.79349   4.83754   4.88062   4.89491
 Alpha virt. eigenvalues --    4.92370   4.92499   4.93167   4.95780   4.97102
 Alpha virt. eigenvalues --    4.98410   5.02696   5.06837   5.09629   5.10587
 Alpha virt. eigenvalues --    5.16990   5.20904   5.22148   5.26024   5.27100
 Alpha virt. eigenvalues --    5.29878   5.36544   5.38601   5.39017   5.39862
 Alpha virt. eigenvalues --    5.41662   5.41882   5.52241   5.53429   5.60786
 Alpha virt. eigenvalues --    5.65060   5.71340   5.73993   5.83499   5.90293
 Alpha virt. eigenvalues --    7.94461   7.95205   8.02902   8.04428   8.06313
 Alpha virt. eigenvalues --    8.10012   8.11171   8.14829   8.18961   8.19644
 Alpha virt. eigenvalues --    8.34253   8.39566  34.76231  34.76650  34.81195
 Alpha virt. eigenvalues --   34.81849  34.84250  34.89310  34.98419  35.00600
 Alpha virt. eigenvalues --   35.00952  35.02775  35.17797  35.23540
  Beta  occ. eigenvalues --  -10.29669 -10.29313 -10.28392 -10.28331 -10.28294
  Beta  occ. eigenvalues --  -10.27975 -10.27973 -10.27916 -10.27895 -10.27888
  Beta  occ. eigenvalues --  -10.27692 -10.27377  -0.94788  -0.93001  -0.84926
  Beta  occ. eigenvalues --   -0.84301  -0.83481  -0.82263  -0.71145  -0.70120
  Beta  occ. eigenvalues --   -0.69257  -0.67691  -0.59874  -0.59341  -0.58065
  Beta  occ. eigenvalues --   -0.56206  -0.53210  -0.52947  -0.50712  -0.49868
  Beta  occ. eigenvalues --   -0.49174  -0.48055  -0.47777  -0.47234  -0.46321
  Beta  occ. eigenvalues --   -0.44556  -0.41297  -0.40879  -0.39718  -0.39516
  Beta  occ. eigenvalues --   -0.38900  -0.37315  -0.32054  -0.24080
  Beta virt. eigenvalues --   -0.00171   0.09084   0.11356   0.13450   0.14189
  Beta virt. eigenvalues --    0.14670   0.15528   0.16476   0.16962   0.17324
  Beta virt. eigenvalues --    0.17472   0.18164   0.19156   0.20218   0.21073
  Beta virt. eigenvalues --    0.21608   0.22273   0.23469   0.24047   0.24398
  Beta virt. eigenvalues --    0.25443   0.25954   0.27100   0.27207   0.27955
  Beta virt. eigenvalues --    0.29276   0.29324   0.30496   0.31051   0.31176
  Beta virt. eigenvalues --    0.31831   0.32530   0.32596   0.33318   0.34568
  Beta virt. eigenvalues --    0.34959   0.36086   0.36730   0.37114   0.37925
  Beta virt. eigenvalues --    0.38228   0.39375   0.41690   0.42061   0.42812
  Beta virt. eigenvalues --    0.44053   0.44587   0.45415   0.45948   0.46264
  Beta virt. eigenvalues --    0.47106   0.47651   0.49211   0.49246   0.49388
  Beta virt. eigenvalues --    0.49444   0.49787   0.49955   0.50799   0.50965
  Beta virt. eigenvalues --    0.51115   0.51724   0.52216   0.52858   0.53597
  Beta virt. eigenvalues --    0.53719   0.54911   0.55050   0.55674   0.56615
  Beta virt. eigenvalues --    0.57196   0.57469   0.58628   0.59235   0.59617
  Beta virt. eigenvalues --    0.59720   0.61234   0.61336   0.63777   0.65496
  Beta virt. eigenvalues --    0.66863   0.67889   0.68464   0.69075   0.69198
  Beta virt. eigenvalues --    0.71241   0.72229   0.73753   0.76284   0.76382
  Beta virt. eigenvalues --    0.78270   0.79283   0.79432   0.81887   0.82435
  Beta virt. eigenvalues --    0.83426   0.84643   0.86223   0.88018   0.88251
  Beta virt. eigenvalues --    0.88540   0.89778   0.93547   0.94305   0.95232
  Beta virt. eigenvalues --    0.96479   0.97655   0.98501   0.98975   0.99917
  Beta virt. eigenvalues --    1.02232   1.02495   1.04403   1.04785   1.06059
  Beta virt. eigenvalues --    1.07619   1.08316   1.08336   1.10126   1.10313
  Beta virt. eigenvalues --    1.12674   1.14369   1.15914   1.17029   1.17705
  Beta virt. eigenvalues --    1.18719   1.19182   1.19712   1.19975   1.20100
  Beta virt. eigenvalues --    1.21311   1.22792   1.24512   1.26066   1.26295
  Beta virt. eigenvalues --    1.27291   1.27899   1.28308   1.29203   1.29537
  Beta virt. eigenvalues --    1.30506   1.30862   1.33413   1.34426   1.35089
  Beta virt. eigenvalues --    1.35238   1.35684   1.36090   1.38448   1.39424
  Beta virt. eigenvalues --    1.39539   1.39944   1.40349   1.41846   1.42680
  Beta virt. eigenvalues --    1.43310   1.43882   1.44439   1.44721   1.45688
  Beta virt. eigenvalues --    1.46380   1.47029   1.47596   1.48516   1.49453
  Beta virt. eigenvalues --    1.50900   1.53816   1.55169   1.56829   1.57881
  Beta virt. eigenvalues --    1.59508   1.60047   1.60139   1.62126   1.63321
  Beta virt. eigenvalues --    1.63986   1.66058   1.66461   1.67720   1.68693
  Beta virt. eigenvalues --    1.72576   1.73855   1.75696   1.77656   1.78872
  Beta virt. eigenvalues --    1.79262   1.81072   1.81990   1.85520   1.85625
  Beta virt. eigenvalues --    1.87971   1.89965   1.91145   1.93077   1.94331
  Beta virt. eigenvalues --    1.97370   1.97839   2.01116   2.03094   2.04208
  Beta virt. eigenvalues --    2.06488   2.06892   2.08826   2.10533   2.11135
  Beta virt. eigenvalues --    2.12814   2.15686   2.16633   2.17049   2.18353
  Beta virt. eigenvalues --    2.19031   2.19504   2.20301   2.21476   2.24191
  Beta virt. eigenvalues --    2.25136   2.25630   2.28533   2.30531   2.32105
  Beta virt. eigenvalues --    2.34919   2.36870   2.38051   2.39460   2.44457
  Beta virt. eigenvalues --    2.45550   2.47384   2.47534   2.48521   2.49991
  Beta virt. eigenvalues --    2.50950   2.54830   2.55092   2.57206   2.57968
  Beta virt. eigenvalues --    2.58922   2.59577   2.61655   2.62250   2.63442
  Beta virt. eigenvalues --    2.64238   2.64720   2.67510   2.68271   2.68789
  Beta virt. eigenvalues --    2.69280   2.71828   2.73139   2.73295   2.74182
  Beta virt. eigenvalues --    2.74574   2.76084   2.76463   2.77836   2.77919
  Beta virt. eigenvalues --    2.79406   2.80835   2.80871   2.82338   2.83299
  Beta virt. eigenvalues --    2.83582   2.84418   2.84929   2.86006   2.86951
  Beta virt. eigenvalues --    2.87304   2.88299   2.89819   2.90292   2.91044
  Beta virt. eigenvalues --    2.92907   2.93159   2.93776   2.94989   2.96420
  Beta virt. eigenvalues --    2.96589   2.99073   3.00073   3.01457   3.02213
  Beta virt. eigenvalues --    3.03420   3.03869   3.05654   3.06234   3.06957
  Beta virt. eigenvalues --    3.08411   3.08961   3.09871   3.10748   3.11525
  Beta virt. eigenvalues --    3.12478   3.12998   3.13346   3.14789   3.14846
  Beta virt. eigenvalues --    3.15672   3.16182   3.18057   3.19470   3.19901
  Beta virt. eigenvalues --    3.20510   3.21076   3.21652   3.22548   3.22772
  Beta virt. eigenvalues --    3.23446   3.24434   3.25202   3.25564   3.26546
  Beta virt. eigenvalues --    3.26790   3.27184   3.28191   3.29777   3.30348
  Beta virt. eigenvalues --    3.30655   3.31302   3.32293   3.32627   3.34948
  Beta virt. eigenvalues --    3.35694   3.36062   3.36601   3.36831   3.37318
  Beta virt. eigenvalues --    3.38893   3.40026   3.40489   3.40777   3.42045
  Beta virt. eigenvalues --    3.42640   3.45367   3.45937   3.46611   3.47063
  Beta virt. eigenvalues --    3.48398   3.49017   3.49713   3.50683   3.51551
  Beta virt. eigenvalues --    3.52766   3.53037   3.53358   3.56420   3.57725
  Beta virt. eigenvalues --    3.57818   3.58295   3.58871   3.60014   3.60283
  Beta virt. eigenvalues --    3.61351   3.62379   3.63034   3.64654   3.66278
  Beta virt. eigenvalues --    3.66408   3.67162   3.69138   3.70093   3.72493
  Beta virt. eigenvalues --    3.72848   3.76497   3.78301   3.78689   3.80637
  Beta virt. eigenvalues --    3.81277   3.82262   3.82350   3.83130   3.84177
  Beta virt. eigenvalues --    3.85373   3.88127   3.90978   3.92047   3.92377
  Beta virt. eigenvalues --    3.93701   3.95550   3.96485   3.99984   4.02227
  Beta virt. eigenvalues --    4.03055   4.03733   4.06892   4.09887   4.10190
  Beta virt. eigenvalues --    4.11434   4.11855   4.13021   4.15422   4.15582
  Beta virt. eigenvalues --    4.17423   4.18670   4.20257   4.20911   4.21852
  Beta virt. eigenvalues --    4.23073   4.24954   4.25554   4.27983   4.29652
  Beta virt. eigenvalues --    4.32460   4.33172   4.34821   4.36514   4.36715
  Beta virt. eigenvalues --    4.38567   4.44982   4.45179   4.47294   4.47666
  Beta virt. eigenvalues --    4.50154   4.51112   4.52153   4.54880   4.55001
  Beta virt. eigenvalues --    4.56653   4.59150   4.62196   4.65014   4.66976
  Beta virt. eigenvalues --    4.68784   4.71554   4.74503   4.75542   4.76783
  Beta virt. eigenvalues --    4.77242   4.79349   4.83754   4.88062   4.89491
  Beta virt. eigenvalues --    4.92370   4.92499   4.93167   4.95780   4.97102
  Beta virt. eigenvalues --    4.98410   5.02695   5.06837   5.09629   5.10587
  Beta virt. eigenvalues --    5.16990   5.20904   5.22148   5.26024   5.27100
  Beta virt. eigenvalues --    5.29878   5.36544   5.38601   5.39017   5.39862
  Beta virt. eigenvalues --    5.41662   5.41882   5.52241   5.53429   5.60786
  Beta virt. eigenvalues --    5.65059   5.71340   5.73993   5.83499   5.90293
  Beta virt. eigenvalues --    7.94462   7.95205   8.02902   8.04428   8.06313
  Beta virt. eigenvalues --    8.10012   8.11171   8.14829   8.18961   8.19644
  Beta virt. eigenvalues --    8.34253   8.39566  34.76231  34.76650  34.81195
  Beta virt. eigenvalues --   34.81849  34.84250  34.89310  34.98419  35.00600
  Beta virt. eigenvalues --   35.00952  35.02775  35.17797  35.23540
          Condensed to atoms (all electrons):
               1          2          3          4          5          6
     1  C    5.221395   0.005544   0.425706  -0.002976   0.002177  -0.008085
     2  C    0.005544   5.394715  -0.001680   0.435260  -0.110353   0.189209
     3  H    0.425706  -0.001680   0.487430   0.000037  -0.000015   0.000110
     4  H   -0.002976   0.435260   0.000037   0.491317  -0.008296  -0.014741
     5  C    0.002177  -0.110353  -0.000015  -0.008296   5.295350   0.354500
     6  C   -0.008085   0.189209   0.000110  -0.014741   0.354500   5.394762
     7  H    0.000045  -0.002205   0.000002   0.000204   0.438773  -0.034332
     8  H    0.000503  -0.014661  -0.000100   0.000349  -0.042677   0.435244
     9  C    0.002505  -0.051847  -0.000007  -0.004705  -0.047987   0.226758
    10  H   -0.000022   0.006366  -0.000001  -0.000457  -0.005450  -0.047303
    11  H   -0.000198  -0.008945   0.000004   0.001052   0.011521  -0.059067
    12  C   -0.000256   0.014488  -0.000000   0.004899   0.343710  -0.059192
    13  H   -0.000001   0.000100   0.000000   0.000029  -0.029351   0.003226
    14  C    0.000101  -0.008082  -0.000000   0.000546  -0.048073   0.005665
    15  H   -0.000000   0.000112  -0.000000  -0.000101   0.004568  -0.001695
    16  C   -0.000379   0.017096   0.000000  -0.001238   0.002369  -0.071606
    17  H    0.000034   0.002012  -0.000000  -0.004605   0.008551  -0.008720
    18  H    0.000001  -0.000008   0.000000   0.000457  -0.003240   0.013032
    19  C   -0.048143   0.354733   0.004526  -0.042763  -0.014714  -0.110465
    20  H    0.004479  -0.034069  -0.000120  -0.005558  -0.000320  -0.002234
    21  C    0.503022  -0.059121  -0.030774   0.006234   0.002430   0.014572
    22  H   -0.025084   0.003211  -0.005065  -0.000072   0.000051   0.000104
    23  C   -0.085398   0.226883   0.004761  -0.017182   0.014162  -0.051902
    24  H    0.013516  -0.059068  -0.000044  -0.003576   0.006745  -0.008917
    25  H    0.000948  -0.047188  -0.000091  -0.004018  -0.000147   0.006359
    26  C    0.266824  -0.071719  -0.027081   0.007158  -0.012058   0.017137
    27  H   -0.034593   0.013053  -0.004288  -0.000095   0.000291  -0.000009
    28  H   -0.037595  -0.008684   0.000500  -0.000152  -0.003345   0.001983
               7          8          9         10         11         12
     1  C    0.000045   0.000503   0.002505  -0.000022  -0.000198  -0.000256
     2  C   -0.002205  -0.014661  -0.051847   0.006366  -0.008945   0.014488
     3  H    0.000002  -0.000100  -0.000007  -0.000001   0.000004  -0.000000
     4  H    0.000204   0.000349  -0.004705  -0.000457   0.001052   0.004899
     5  C    0.438773  -0.042677  -0.047987  -0.005450   0.011521   0.343710
     6  C   -0.034332   0.435244   0.226758  -0.047303  -0.059067  -0.059192
     7  H    0.476112  -0.005553   0.003296   0.000038  -0.000007  -0.035353
     8  H   -0.005553   0.491323  -0.017224  -0.004022  -0.003573   0.006210
     9  C    0.003296  -0.017224   5.015151   0.409736   0.462065   0.030312
    10  H    0.000038  -0.004022   0.409736   0.558499  -0.017867   0.001515
    11  H   -0.000007  -0.003573   0.462065  -0.017867   0.523375  -0.005468
    12  C   -0.035353   0.006210   0.030312   0.001515  -0.005468   5.035432
    13  H   -0.003626  -0.000072   0.000582  -0.000119   0.000026   0.419999
    14  C    0.004463  -0.002970  -0.085509   0.000934   0.013521   0.502693
    15  H   -0.000121   0.000037   0.004766  -0.000091  -0.000044  -0.031122
    16  C   -0.001270   0.007152   0.325627  -0.024407  -0.056470  -0.050345
    17  H    0.000003  -0.000153  -0.028425   0.005262  -0.005464  -0.009694
    18  H    0.000039  -0.000095  -0.043521  -0.007418  -0.001676   0.005614
    19  C   -0.000319  -0.008364   0.014161  -0.000138   0.006748   0.002423
    20  H    0.000002   0.000201   0.002928   0.000330  -0.003206  -0.000056
    21  C   -0.000056   0.004954  -0.003233  -0.000183  -0.000132  -0.000194
    22  H   -0.000001   0.000029  -0.000074  -0.000002  -0.000027  -0.000001
    23  C    0.002912  -0.004717   0.006240  -0.000253   0.000292  -0.003232
    24  H   -0.003221   0.001048   0.000292  -0.000031  -0.000005  -0.000136
    25  H    0.000330  -0.000456  -0.000252   0.000017  -0.000030  -0.000179
    26  C   -0.001133  -0.001221  -0.001589   0.000049  -0.000055   0.001448
    27  H   -0.000025   0.000459   0.000017  -0.000000  -0.000003  -0.000023
    28  H    0.002055  -0.004614   0.000600   0.000010   0.000020   0.000195
              13         14         15         16         17         18
     1  C   -0.000001   0.000101  -0.000000  -0.000379   0.000034   0.000001
     2  C    0.000100  -0.008082   0.000112   0.017096   0.002012  -0.000008
     3  H    0.000000  -0.000000  -0.000000   0.000000  -0.000000   0.000000
     4  H    0.000029   0.000546  -0.000101  -0.001238  -0.004605   0.000457
     5  C   -0.029351  -0.048073   0.004568   0.002369   0.008551  -0.003240
     6  C    0.003226   0.005665  -0.001695  -0.071606  -0.008720   0.013032
     7  H   -0.003626   0.004463  -0.000121  -0.001270   0.000003   0.000039
     8  H   -0.000072  -0.002970   0.000037   0.007152  -0.000153  -0.000095
     9  C    0.000582  -0.085509   0.004766   0.325627  -0.028425  -0.043521
    10  H   -0.000119   0.000934  -0.000091  -0.024407   0.005262  -0.007418
    11  H    0.000026   0.013521  -0.000044  -0.056470  -0.005464  -0.001676
    12  C    0.419999   0.502693  -0.031122  -0.050345  -0.009694   0.005614
    13  H    0.489550  -0.025139  -0.005075   0.003487  -0.000375  -0.000094
    14  C   -0.025139   5.221630   0.426002   0.266759  -0.037581  -0.034515
    15  H   -0.005075   0.426002   0.487530  -0.027067   0.000500  -0.004276
    16  C    0.003487   0.266759  -0.027067   4.983762   0.405069   0.428397
    17  H   -0.000375  -0.037581   0.000500   0.405069   0.574393  -0.021942
    18  H   -0.000094  -0.034515  -0.004276   0.428397  -0.021942   0.537959
    19  C    0.000051   0.002178  -0.000015  -0.012080  -0.003362   0.000293
    20  H   -0.000001   0.000046   0.000002  -0.001138   0.002044  -0.000025
    21  C   -0.000001  -0.000256  -0.000000   0.001449   0.000192  -0.000023
    22  H    0.000000  -0.000001   0.000000   0.000006  -0.000002  -0.000001
    23  C   -0.000074   0.002504  -0.000007  -0.001581   0.000600   0.000017
    24  H   -0.000027  -0.000198   0.000004  -0.000056   0.000020  -0.000003
    25  H   -0.000002  -0.000023  -0.000001   0.000049   0.000010  -0.000000
    26  C    0.000006  -0.000378   0.000000   0.000398  -0.000042  -0.000000
    27  H   -0.000001   0.000001   0.000000  -0.000000   0.000001  -0.000000
    28  H   -0.000002   0.000034  -0.000000  -0.000042  -0.000009   0.000001
              19         20         21         22         23         24
     1  C   -0.048143   0.004479   0.503022  -0.025084  -0.085398   0.013516
     2  C    0.354733  -0.034069  -0.059121   0.003211   0.226883  -0.059068
     3  H    0.004526  -0.000120  -0.030774  -0.005065   0.004761  -0.000044
     4  H   -0.042763  -0.005558   0.006234  -0.000072  -0.017182  -0.003576
     5  C   -0.014714  -0.000320   0.002430   0.000051   0.014162   0.006745
     6  C   -0.110465  -0.002234   0.014572   0.000104  -0.051902  -0.008917
     7  H   -0.000319   0.000002  -0.000056  -0.000001   0.002912  -0.003221
     8  H   -0.008364   0.000201   0.004954   0.000029  -0.004717   0.001048
     9  C    0.014161   0.002928  -0.003233  -0.000074   0.006240   0.000292
    10  H   -0.000138   0.000330  -0.000183  -0.000002  -0.000253  -0.000031
    11  H    0.006748  -0.003206  -0.000132  -0.000027   0.000292  -0.000005
    12  C    0.002423  -0.000056  -0.000194  -0.000001  -0.003232  -0.000136
    13  H    0.000051  -0.000001  -0.000001   0.000000  -0.000074  -0.000027
    14  C    0.002178   0.000046  -0.000256  -0.000001   0.002504  -0.000198
    15  H   -0.000015   0.000002  -0.000000   0.000000  -0.000007   0.000004
    16  C   -0.012080  -0.001138   0.001449   0.000006  -0.001581  -0.000056
    17  H   -0.003362   0.002044   0.000192  -0.000002   0.000600   0.000020
    18  H    0.000293  -0.000025  -0.000023  -0.000001   0.000017  -0.000003
    19  C    5.295538   0.438770   0.343459  -0.029366  -0.048051   0.011526
    20  H    0.438770   0.475716  -0.035568  -0.003620   0.003288  -0.000007
    21  C    0.343459  -0.035568   5.035561   0.419986   0.030246  -0.005468
    22  H   -0.029366  -0.003620   0.419986   0.489536   0.000584   0.000026
    23  C   -0.048051   0.003288   0.030246   0.000584   5.015103   0.462085
    24  H    0.011526  -0.000007  -0.005468   0.000026   0.462085   0.523335
    25  H   -0.005482   0.000039   0.001522  -0.000119   0.409631  -0.017899
    26  C    0.002492  -0.001275  -0.050449   0.003488   0.325502  -0.056463
    27  H   -0.003255   0.000038   0.005692  -0.000093  -0.043531  -0.001682
    28  H    0.008540   0.000003  -0.009699  -0.000375  -0.028473  -0.005465
              25         26         27         28
     1  C    0.000948   0.266824  -0.034593  -0.037595
     2  C   -0.047188  -0.071719   0.013053  -0.008684
     3  H   -0.000091  -0.027081  -0.004288   0.000500
     4  H   -0.004018   0.007158  -0.000095  -0.000152
     5  C   -0.000147  -0.012058   0.000291  -0.003345
     6  C    0.006359   0.017137  -0.000009   0.001983
     7  H    0.000330  -0.001133  -0.000025   0.002055
     8  H   -0.000456  -0.001221   0.000459  -0.004614
     9  C   -0.000252  -0.001589   0.000017   0.000600
    10  H    0.000017   0.000049  -0.000000   0.000010
    11  H   -0.000030  -0.000055  -0.000003   0.000020
    12  C   -0.000179   0.001448  -0.000023   0.000195
    13  H   -0.000002   0.000006  -0.000001  -0.000002
    14  C   -0.000023  -0.000378   0.000001   0.000034
    15  H   -0.000001   0.000000   0.000000  -0.000000
    16  C    0.000049   0.000398  -0.000000  -0.000042
    17  H    0.000010  -0.000042   0.000001  -0.000009
    18  H   -0.000000  -0.000000  -0.000000   0.000001
    19  C   -0.005482   0.002492  -0.003255   0.008540
    20  H    0.000039  -0.001275   0.000038   0.000003
    21  C    0.001522  -0.050449   0.005692  -0.009699
    22  H   -0.000119   0.003488  -0.000093  -0.000375
    23  C    0.409631   0.325502  -0.043531  -0.028473
    24  H   -0.017899  -0.056463  -0.001682  -0.005465
    25  H    0.558535  -0.024403  -0.007403   0.005260
    26  C   -0.024403   4.984041   0.428428   0.405087
    27  H   -0.007403   0.428428   0.537819  -0.021944
    28  H    0.005260   0.405087  -0.021944   0.574409
          Atomic-Atomic Spin Densities.
               1          2          3          4          5          6
     1  C    0.456741   0.001130  -0.000355   0.000194   0.000112   0.004625
     2  C    0.001130  -0.329992   0.000053   0.005837   0.081728   0.000078
     3  H   -0.000355   0.000053  -0.016444   0.000000  -0.000003  -0.000045
     4  H    0.000194   0.005837   0.000000   0.016687  -0.005411  -0.013280
     5  C    0.000112   0.081728  -0.000003  -0.005411  -0.650606   0.036776
     6  C    0.004625   0.000078  -0.000045  -0.013280   0.036776   0.330076
     7  H   -0.000005  -0.000599  -0.000000   0.000002   0.002182  -0.000151
     8  H   -0.001721   0.013259   0.000002   0.000000  -0.002463  -0.005859
     9  C   -0.000107   0.014832   0.000001   0.001764  -0.003652  -0.019500
    10  H    0.000060  -0.000842   0.000000  -0.000092   0.001447  -0.003766
    11  H   -0.000240  -0.000611   0.000001   0.000229  -0.000254  -0.003388
    12  C   -0.000071  -0.012215   0.000000   0.002939   0.021283  -0.021499
    13  H   -0.000000  -0.000169   0.000000   0.000041   0.001118  -0.000418
    14  C    0.000000  -0.004616   0.000000   0.001721   0.038398  -0.001144
    15  H   -0.000000   0.000046  -0.000000  -0.000002   0.000009  -0.000053
    16  C   -0.000018   0.000273  -0.000000  -0.000869  -0.001684   0.001234
    17  H    0.000013   0.003608  -0.000000  -0.001211  -0.004752   0.004079
    18  H   -0.000000  -0.000327  -0.000000   0.000066   0.000611  -0.000953
    19  C   -0.038353  -0.036953  -0.000008   0.002479   0.000011  -0.081799
    20  H   -0.000236   0.000126   0.000004   0.000221   0.000087   0.000589
    21  C    0.005291   0.021583  -0.000076  -0.001623  -0.001516   0.012240
    22  H   -0.000436   0.000422   0.000137  -0.000025  -0.000013   0.000170
    23  C    0.003013   0.019491  -0.000189   0.003446  -0.006753  -0.014846
    24  H    0.000132   0.003388   0.000001  -0.000399  -0.004423   0.000611
    25  H   -0.000945   0.003763   0.000002   0.000120   0.001364   0.000841
    26  C   -0.021536  -0.001221   0.000590  -0.000048  -0.000308  -0.000279
    27  H   -0.005651   0.000951   0.000057  -0.000046   0.000016   0.000327
    28  H   -0.012694  -0.004082   0.000079   0.000206   0.000211  -0.003614
               7          8          9         10         11         12
     1  C   -0.000005  -0.001721  -0.000107   0.000060  -0.000240  -0.000071
     2  C   -0.000599   0.013259   0.014832  -0.000842  -0.000611  -0.012215
     3  H   -0.000000   0.000002   0.000001   0.000000   0.000001   0.000000
     4  H    0.000002   0.000000   0.001764  -0.000092   0.000229   0.002939
     5  C    0.002182  -0.002463  -0.003652   0.001447  -0.000254   0.021283
     6  C   -0.000151  -0.005859  -0.019500  -0.003766  -0.003388  -0.021499
     7  H    0.020808  -0.000218   0.000276   0.000016  -0.000006  -0.001831
     8  H   -0.000218  -0.016671  -0.003444  -0.000119   0.000399   0.001616
     9  C    0.000276  -0.003444  -0.009569   0.003625   0.001145   0.005685
    10  H    0.000016  -0.000119   0.003625   0.010349  -0.002031  -0.000645
    11  H   -0.000006   0.000399   0.001145  -0.002031   0.003510   0.000179
    12  C   -0.001831   0.001616   0.005685  -0.000645   0.000179   0.200811
    13  H   -0.000201   0.000025   0.000134  -0.000024   0.000002  -0.001178
    14  C    0.000237  -0.000194  -0.003018   0.000948  -0.000133  -0.005351
    15  H   -0.000004  -0.000000   0.000189  -0.000001  -0.000002   0.000063
    16  C   -0.000064   0.000049  -0.003740  -0.001326   0.000224  -0.004607
    17  H    0.000015  -0.000206   0.000282   0.000145  -0.000150   0.001562
    18  H   -0.000001   0.000046  -0.001364   0.000131  -0.000026  -0.000918
    19  C   -0.000086   0.005425   0.006767  -0.001363   0.004425   0.001514
    20  H   -0.000000  -0.000001  -0.000232  -0.000004   0.000132  -0.000031
    21  C    0.000031  -0.002944  -0.000898   0.000159  -0.000483  -0.000000
    22  H    0.000000  -0.000041  -0.000012   0.000002  -0.000018   0.000000
    23  C    0.000233  -0.001761   0.000001  -0.000010   0.000184   0.000894
    24  H   -0.000131  -0.000228  -0.000184   0.000005  -0.000000   0.000481
    25  H    0.000004   0.000092   0.000010  -0.000000  -0.000005  -0.000159
    26  C   -0.000088   0.000868   0.000031  -0.000014   0.000018   0.000140
    27  H   -0.000002  -0.000066  -0.000009   0.000000  -0.000002  -0.000011
    28  H    0.000034   0.001211   0.000201  -0.000024   0.000038   0.000122
              13         14         15         16         17         18
     1  C   -0.000000   0.000000  -0.000000  -0.000018   0.000013  -0.000000
     2  C   -0.000169  -0.004616   0.000046   0.000273   0.003608  -0.000327
     3  H    0.000000   0.000000  -0.000000  -0.000000  -0.000000  -0.000000
     4  H    0.000041   0.001721  -0.000002  -0.000869  -0.001211   0.000066
     5  C    0.001118   0.038398   0.000009  -0.001684  -0.004752   0.000611
     6  C   -0.000418  -0.001144  -0.000053   0.001234   0.004079  -0.000953
     7  H   -0.000201   0.000237  -0.000004  -0.000064   0.000015  -0.000001
     8  H    0.000025  -0.000194  -0.000000   0.000049  -0.000206   0.000046
     9  C    0.000134  -0.003018   0.000189  -0.003740   0.000282  -0.001364
    10  H   -0.000024   0.000948  -0.000001  -0.001326   0.000145   0.000131
    11  H    0.000002  -0.000133  -0.000002   0.000224  -0.000150  -0.000026
    12  C   -0.001178  -0.005351   0.000063  -0.004607   0.001562  -0.000918
    13  H   -0.006940   0.000431  -0.000138  -0.000097   0.000033  -0.000015
    14  C    0.000431  -0.456697   0.000366   0.021512   0.012705   0.005644
    15  H   -0.000138   0.000366   0.016447  -0.000590  -0.000080  -0.000056
    16  C   -0.000097   0.021512  -0.000590   0.025729  -0.006683  -0.003598
    17  H    0.000033   0.012705  -0.000080  -0.006683  -0.035721   0.005780
    18  H   -0.000015   0.005644  -0.000056  -0.003598   0.005780  -0.014535
    19  C    0.000013  -0.000117   0.000002   0.000313  -0.000208  -0.000016
    20  H   -0.000000   0.000005   0.000000   0.000089  -0.000032   0.000002
    21  C   -0.000000   0.000071  -0.000000  -0.000140  -0.000121   0.000011
    22  H    0.000000   0.000000  -0.000000  -0.000002  -0.000002   0.000000
    23  C    0.000011   0.000107  -0.000001  -0.000030  -0.000201   0.000009
    24  H    0.000018   0.000240  -0.000001  -0.000018  -0.000038   0.000002
    25  H   -0.000002  -0.000060  -0.000000   0.000014   0.000024  -0.000000
    26  C    0.000002   0.000018   0.000000   0.000000  -0.000009   0.000000
    27  H   -0.000000   0.000000   0.000000  -0.000000   0.000000  -0.000000
    28  H    0.000002  -0.000013   0.000000   0.000009   0.000000  -0.000000
              19         20         21         22         23         24
     1  C   -0.038353  -0.000236   0.005291  -0.000436   0.003013   0.000132
     2  C   -0.036953   0.000126   0.021583   0.000422   0.019491   0.003388
     3  H   -0.000008   0.000004  -0.000076   0.000137  -0.000189   0.000001
     4  H    0.002479   0.000221  -0.001623  -0.000025   0.003446  -0.000399
     5  C    0.000011   0.000087  -0.001516  -0.000013  -0.006753  -0.004423
     6  C   -0.081799   0.000589   0.012240   0.000170  -0.014846   0.000611
     7  H   -0.000086  -0.000000   0.000031   0.000000   0.000233  -0.000131
     8  H    0.005425  -0.000001  -0.002944  -0.000041  -0.001761  -0.000228
     9  C    0.006767  -0.000232  -0.000898  -0.000012   0.000001  -0.000184
    10  H   -0.001363  -0.000004   0.000159   0.000002  -0.000010   0.000005
    11  H    0.004425   0.000132  -0.000483  -0.000018   0.000184  -0.000000
    12  C    0.001514  -0.000031  -0.000000   0.000000   0.000894   0.000481
    13  H    0.000013  -0.000000  -0.000000   0.000000   0.000011   0.000018
    14  C   -0.000117   0.000005   0.000071   0.000000   0.000107   0.000240
[...]
     1  C   -0.000697  -0.019042  -0.005527  -0.011591
     2  C    0.003380  -0.001513   0.001269  -0.005031
     3  H    0.000002   0.000481   0.000043   0.000092
     4  H    0.000029  -0.000067  -0.000041   0.000185
     5  C    0.001274   0.000468   0.000016  -0.000012
     6  C    0.000595   0.000279   0.000238  -0.002694
     7  H   -0.000002  -0.000125  -0.000003   0.000055
     8  H    0.000079   0.000783  -0.000050   0.000891
     9  C    0.000018   0.000045  -0.000011   0.000222
    10  H    0.000000  -0.000008   0.000000  -0.000021
    11  H   -0.000004   0.000005  -0.000001   0.000027
    12  C   -0.000150   0.000063  -0.000008   0.000090
    13  H   -0.000002   0.000001  -0.000000   0.000001
    14  C   -0.000049   0.000007   0.000000  -0.000008
    15  H   -0.000000   0.000000   0.000000   0.000000
    16  C    0.000008   0.000001   0.000000   0.000001
    17  H    0.000021  -0.000001   0.000000  -0.000000
    18  H   -0.000000  -0.000000   0.000000  -0.000000
    19  C   -0.001309  -0.000135  -0.000736   0.005106
    20  H   -0.000004   0.000096   0.000002  -0.000020
    21  C    0.000539   0.005131   0.000943  -0.001789
    22  H    0.000019   0.000126   0.000014  -0.000034
    23  C   -0.002608   0.004702   0.000731   0.000953
    24  H    0.001676   0.000080   0.000030   0.000069
    25  H   -0.009871   0.000659  -0.000092  -0.000108
    26  C    0.000659  -0.026539   0.004039   0.005092
    27  H   -0.000092   0.004039   0.014144  -0.005499
    28  H   -0.000108   0.005092  -0.005499   0.035250
 Mulliken charges and spin densities:
               1          2
     1  C   -0.201427   0.386744
     2  C   -0.198314  -0.219500
     3  H    0.149466  -0.015890
     4  H    0.173551   0.013029
     5  C   -0.174677  -0.494358
     6  C   -0.196231   0.219531
     7  H    0.164793   0.020059
     8  H    0.172797  -0.013026
     9  C   -0.243159  -0.010357
    10  H    0.133986   0.006605
    11  H    0.150783   0.002742
    12  C   -0.171717   0.187374
    13  H    0.149618  -0.007241
    14  C   -0.201222  -0.386761
    15  H    0.149505   0.015888
    16  C   -0.196937   0.025365
    17  H    0.126810  -0.021220
    18  H    0.135562  -0.009498
    19  C   -0.171893   0.494395
    20  H    0.164272  -0.020068
    21  C   -0.172438  -0.187391
    22  H    0.149517   0.007241
    23  C   -0.239815   0.010327
    24  H    0.150682  -0.002751
    25  H    0.132828  -0.006596
    26  C   -0.198710  -0.025369
    27  H    0.135626   0.009501
    28  H    0.126745   0.021227
 Sum of Mulliken charges =  -0.00000  -0.00000
 Mulliken charges and spin densities with hydrogens summed into heavy atoms:
               1          2
     1  C   -0.051961   0.370854
     2  C   -0.024764  -0.206471
     5  C   -0.009885  -0.474299
     6  C   -0.023433   0.206504
     9  C    0.041609  -0.001010
    12  C   -0.022099   0.180133
    14  C   -0.051717  -0.370873
    16  C    0.065435  -0.005353
    19  C   -0.007621   0.474327
    21  C   -0.022921  -0.180151
    23  C    0.043696   0.000981
    26  C    0.063660   0.005358
 Electronic spatial extent (au):  <R**2>=           2188.3270
 Charge=             -0.0000 electrons
 Dipole moment (field-independent basis, Debye):
    X=             -0.0007    Y=             -0.0025    Z=             -0.0058  Tot=              0.0064
 Quadrupole moment (field-independent basis, Debye-Ang):
   XX=            -70.3796   YY=            -69.0523   ZZ=            -75.0808
   XY=             -3.0022   XZ=             -3.1444   YZ=             -0.6983
 Traceless Quadrupole moment (field-independent basis, Debye-Ang):
   XX=              1.1246   YY=              2.4519   ZZ=             -3.5766
   XY=             -3.0022   XZ=             -3.1444   YZ=             -0.6983
 Octapole moment (field-independent basis, Debye-Ang**2):
  XXX=             -0.0191  YYY=             -0.0235  ZZZ=             -0.0340  XYY=              0.0069
  XXY=             -0.0029  XXZ=             -0.0288  XZZ=             -0.0126  YZZ=             -0.0059
  YYZ=             -0.0017  XYZ=             -0.0057
 Hexadecapole moment (field-independent basis, Debye-Ang**3):
 XXXX=          -1970.4106 YYYY=           -614.0603 ZZZZ=           -303.8664 XXXY=            -93.7092
 XXXZ=           -116.8994 YYYX=            -56.7179 YYYZ=              0.3139 ZZZX=            -63.9734
 ZZZY=             -8.1327 XXYY=           -428.7631 XXZZ=           -407.3800 YYZZ=           -168.0075
 XXYZ=            -20.3759 YYXZ=            -24.6169 ZZXY=            -40.9363
 N-N= 6.916814958685D+02 E-N=-2.465775780260D+03  KE= 4.641985322821D+02
                          Isotropic Fermi Contact Couplings
        Atom                 a.u.       MegaHertz       Gauss      10(-4) cm-1
     1  C(13)              0.02977      16.73135       5.97016       5.58098
     2  C(13)             -0.07595     -42.68951     -15.23268     -14.23969
     3  H(1)              -0.00594     -13.28245      -4.73951      -4.43055
     4  H(1)               0.00710      15.85915       5.65894       5.29004
     5  C(13)             -0.03918     -22.02121      -7.85771      -7.34548
     6  C(13)              0.07597      42.69964      15.23629      14.24307
     7  H(1)               0.00759      16.96137       6.05224       5.65771
     8  H(1)              -0.00709     -15.85522      -5.65754      -5.28873
     9  C(13)             -0.00915      -5.14077      -1.83436      -1.71478
    10  H(1)               0.00365       8.16026       2.91178       2.72197
    11  H(1)               0.00086       1.92182       0.68575       0.64105
    12  C(13)              0.03340      18.77162       6.69818       6.26154
    13  H(1)              -0.00248      -5.54958      -1.98023      -1.85114
    14  C(13)             -0.02977     -16.73488      -5.97142      -5.58215
    15  H(1)               0.00594      13.28391       4.74003       4.43104
    16  C(13)              0.01388       7.80378       2.78458       2.60306
    17  H(1)              -0.01028     -22.97120      -8.19670      -7.66237
    18  H(1)              -0.00452     -10.11127      -3.60795      -3.37276
    19  C(13)              0.03918      22.02379       7.85863       7.34634
    20  H(1)              -0.00759     -16.96273      -6.05272      -5.65816
    21  C(13)             -0.03340     -18.77155      -6.69815      -6.26151
    22  H(1)               0.00248       5.54971       1.98028       1.85119
    23  C(13)              0.00914       5.13666       1.83289       1.71341
    24  H(1)              -0.00086      -1.92158      -0.68567      -0.64097
    25  H(1)              -0.00365      -8.15709      -2.91065      -2.72091
    26  C(13)             -0.01388      -7.80237      -2.78408      -2.60259
    27  H(1)               0.00452      10.11181       3.60815       3.37294
    28  H(1)               0.01028      22.96675       8.19511       7.66088
 --------------------------------------------------------
       Center         ----  Spin Dipole Couplings  ----
                      3XX-RR        3YY-RR        3ZZ-RR
 --------------------------------------------------------
     1   Atom       -0.081209     -0.230171      0.311381
     2   Atom        0.049655      0.128039     -0.177695
     3   Atom        0.022386     -0.029093      0.006707
     4   Atom       -0.006927      0.014969     -0.008042
     5   Atom        0.174218      0.298829     -0.473047
     6   Atom       -0.049671     -0.128049      0.177719
     7   Atom        0.011199     -0.010587     -0.000613
     8   Atom        0.006930     -0.014973      0.008044
     9   Atom       -0.000326     -0.004983      0.005309
    10   Atom        0.003188     -0.002274     -0.000914
    11   Atom        0.003579     -0.003484     -0.000095
    12   Atom       -0.056206     -0.088048      0.144254
    13   Atom       -0.006945      0.003709      0.003236
    14   Atom        0.081233      0.230207     -0.311440
    15   Atom       -0.022391      0.029097     -0.006705
    16   Atom        0.003315     -0.002657     -0.000658
    17   Atom        0.005004     -0.006019      0.001015
    18   Atom        0.004458     -0.007002      0.002544
    19   Atom       -0.174276     -0.298867      0.473143
    20   Atom       -0.011197      0.010591      0.000606
    21   Atom        0.056218      0.088048     -0.144266
    22   Atom        0.006947     -0.003712     -0.003235
    23   Atom        0.000328      0.004974     -0.005302
    24   Atom       -0.003581      0.003484      0.000097
    25   Atom       -0.003188      0.002274      0.000914
    26   Atom       -0.003311      0.002659      0.000653
    27   Atom       -0.004458      0.007001     -0.002544
    28   Atom       -0.005003      0.006019     -0.001016
 --------------------------------------------------------
                        XY            XZ            YZ
 --------------------------------------------------------
     1   Atom       -0.003647      0.273745     -0.010793
     2   Atom       -0.027788     -0.158992     -0.070371
     3   Atom        0.005483     -0.011557     -0.003419
     4   Atom        0.001820      0.005675     -0.006866
     5   Atom        0.006951     -0.300307     -0.016306
     6   Atom        0.027796      0.159003      0.070395
     7   Atom        0.034666     -0.006325     -0.011592
     8   Atom       -0.001820     -0.005678      0.006867
     9   Atom        0.008300      0.007576     -0.003109
    10   Atom       -0.000632      0.003403      0.003168
    11   Atom       -0.003553      0.005896      0.000560
    12   Atom        0.008395      0.109331     -0.015505
    13   Atom        0.006428      0.006157     -0.002771
    14   Atom        0.003637     -0.273784      0.010776
    15   Atom       -0.005483      0.011560      0.003418
    16   Atom       -0.001671     -0.007123      0.000664
    17   Atom       -0.002655     -0.001688     -0.002950
    18   Atom        0.001283      0.000230      0.001856
    19   Atom       -0.006946      0.300312      0.016316
    20   Atom       -0.034673      0.006325      0.011591
    21   Atom       -0.008391     -0.109334      0.015510
    22   Atom       -0.006426     -0.006158      0.002770
    23   Atom       -0.008305     -0.007567      0.003107
    24   Atom        0.003551     -0.005896     -0.000562
    25   Atom        0.000631     -0.003403     -0.003168
    26   Atom        0.001672      0.007123     -0.000662
    27   Atom       -0.001283     -0.000230     -0.001856
    28   Atom        0.002655      0.001687      0.002949
 --------------------------------------------------------


 ---------------------------------------------------------------------------------
              Anisotropic Spin Dipole Couplings in Principal Axis System
 ---------------------------------------------------------------------------------

       Atom             a.u.   MegaHertz   Gauss  10(-4) cm-1        Axes

              Baa    -0.2307   -30.955   -11.045   -10.325 -0.1579  0.9825  0.0993
     1 C(13)  Bbb    -0.2214   -29.716   -10.603    -9.912  0.8755  0.1858 -0.4460
              Bcc     0.4521    60.670    21.649    20.237  0.4567 -0.0165  0.8895
 
              Baa    -0.2736   -36.713   -13.100   -12.246  0.4465  0.1843  0.8756
     2 C(13)  Bbb     0.1277    17.136     6.115     5.716  0.8323 -0.4448 -0.3308
              Bcc     0.1459    19.577     6.985     6.530  0.3285  0.8765 -0.3520
 
              Baa    -0.0298   -15.906    -5.676    -5.306 -0.0901  0.9938  0.0645
     3 H(1)   Bbb     0.0006     0.314     0.112     0.105  0.4712 -0.0145  0.8819
              Bcc     0.0292    15.593     5.564     5.201  0.8774  0.1099 -0.4670
 
              Baa    -0.0146    -7.776    -2.775    -2.594 -0.6145  0.2143  0.7592
     4 H(1)   Bbb    -0.0023    -1.222    -0.436    -0.408  0.7888  0.1535  0.5951
              Bcc     0.0169     8.998     3.211     3.001  0.0110  0.9646 -0.2634
 
              Baa    -0.5911   -79.319   -28.303   -26.458  0.3651  0.0142  0.9308
     5 C(13)  Bbb     0.2826    37.928    13.534    12.652  0.7445 -0.6048 -0.2828
              Bcc     0.3084    41.391    14.769    13.806  0.5589  0.7963 -0.2314
 
              Baa    -0.1459   -19.579    -6.986    -6.531  0.3285  0.8764 -0.3520
     6 C(13)  Bbb    -0.1277   -17.138    -6.115    -5.717  0.8323 -0.4448 -0.3308
              Bcc     0.2736    36.717    13.102    12.248  0.4465  0.1844  0.8756
 
              Baa    -0.0369   -19.711    -7.033    -6.575 -0.5627  0.8109  0.1607
     7 H(1)   Bbb    -0.0032    -1.729    -0.617    -0.577  0.3241  0.0375  0.9453
              Bcc     0.0402    21.440     7.651     7.152  0.7605  0.5840 -0.2839
 
              Baa    -0.0169    -9.000    -3.212    -3.002  0.0109  0.9646 -0.2634
     8 H(1)   Bbb     0.0023     1.222     0.436     0.408  0.7888  0.1536  0.5952
              Bcc     0.0146     7.778     2.775     2.594 -0.6146  0.2143  0.7592
 
              Baa    -0.0140    -1.876    -0.669    -0.626 -0.6218  0.6972  0.3567
     9 C(13)  Bbb     0.0030     0.401     0.143     0.134  0.4555  0.6925 -0.5594
              Bcc     0.0110     1.474     0.526     0.492  0.6370  0.1854  0.7482
 
              Baa    -0.0057    -3.031    -1.081    -1.011  0.3049  0.6783 -0.6686
    10 H(1)   Bbb     0.0004     0.219     0.078     0.073 -0.4680  0.7181  0.5152
              Bcc     0.0053     2.811     1.003     0.938  0.8295  0.1558  0.5363
 
              Baa    -0.0067    -3.600    -1.285    -1.201  0.5292  0.6664 -0.5252
    11 H(1)   Bbb    -0.0017    -0.923    -0.329    -0.308 -0.2492  0.7137  0.6546
              Bcc     0.0085     4.523     1.614     1.509  0.8111 -0.2155  0.5438
 
              Baa    -0.1124   -15.082    -5.382    -5.031  0.7841 -0.5024 -0.3644
    12 C(13)  Bbb    -0.0804   -10.785    -3.848    -3.597  0.4740  0.8637 -0.1711
              Bcc     0.1928    25.867     9.230     8.628  0.4007 -0.0386  0.9154
 
              Baa    -0.0128    -6.833    -2.438    -2.279  0.8351 -0.3901 -0.3879
    13 H(1)   Bbb     0.0061     3.234     1.154     1.079  0.2828 -0.3003  0.9110
              Bcc     0.0067     3.599     1.284     1.201  0.4718  0.8704  0.1404
 
              Baa    -0.4522   -60.680   -21.652   -20.241  0.4566 -0.0165  0.8895
    14 C(13)  Bbb     0.2215    29.721    10.605     9.914  0.8755  0.1859 -0.4460
              Bcc     0.2307    30.959    11.047    10.327 -0.1580  0.9824  0.0993
 
              Baa    -0.0292   -15.596    -5.565    -5.202  0.8774  0.1098 -0.4670
    15 H(1)   Bbb    -0.0006    -0.312    -0.112    -0.104  0.4712 -0.0145  0.8819
              Bcc     0.0298    15.908     5.676     5.306 -0.0901  0.9938  0.0645
 
              Baa    -0.0061    -0.824    -0.294    -0.275  0.6117  0.1455  0.7776
    16 C(13)  Bbb    -0.0028    -0.382    -0.136    -0.127  0.0282  0.9783 -0.2052
              Bcc     0.0090     1.205     0.430     0.402  0.7906 -0.1474 -0.5943
 
              Baa    -0.0078    -4.178    -1.491    -1.394  0.2336  0.9081  0.3474
    17 H(1)   Bbb     0.0020     1.054     0.376     0.351  0.1642 -0.3890  0.9065
              Bcc     0.0059     3.124     1.115     1.042  0.9584 -0.1547 -0.2400
 
              Baa    -0.0075    -3.988    -1.423    -1.330 -0.1017  0.9786 -0.1790
    18 H(1)   Bbb     0.0028     1.481     0.528     0.494 -0.2449  0.1497  0.9579
              Bcc     0.0047     2.507     0.895     0.836  0.9642  0.1413  0.2244
 
              Baa    -0.3085   -41.396   -14.771   -13.808  0.5590  0.7962 -0.2314
    19 C(13)  Bbb    -0.2827   -37.934   -13.536   -12.653  0.7445 -0.6048 -0.2827
              Bcc     0.5912    79.330    28.307    26.462  0.3651  0.0142  0.9309
 
              Baa    -0.0402   -21.442    -7.651    -7.152  0.7605  0.5841 -0.2839
    20 H(1)   Bbb     0.0032     1.726     0.616     0.576  0.3240  0.0376  0.9453
              Bcc     0.0370    19.716     7.035     6.577 -0.5628  0.8108  0.1606
 
              Baa    -0.1928   -25.868    -9.230    -8.629  0.4007 -0.0386  0.9154
    21 C(13)  Bbb     0.0804    10.785     3.849     3.598  0.4739  0.8638 -0.1710
              Bcc     0.1124    15.083     5.382     5.031  0.7842 -0.5023 -0.3644
 
              Baa    -0.0067    -3.600    -1.284    -1.201  0.4717  0.8705  0.1406
    22 H(1)   Bbb    -0.0061    -3.234    -1.154    -1.079  0.2829 -0.3004  0.9109
              Bcc     0.0128     6.834     2.438     2.279  0.8352 -0.3899 -0.3879
 
              Baa    -0.0110    -1.473    -0.526    -0.491  0.6373  0.1861  0.7478
    23 C(13)  Bbb    -0.0030    -0.402    -0.143    -0.134  0.4550  0.6924 -0.5600
              Bcc     0.0140     1.875     0.669     0.625 -0.6220  0.6971  0.3565
 
              Baa    -0.0085    -4.522    -1.614    -1.509  0.8111 -0.2153  0.5438
    24 H(1)   Bbb     0.0017     0.923     0.329     0.308 -0.2492  0.7139  0.6544
              Bcc     0.0067     3.600     1.284     1.201  0.5291  0.6663 -0.5254
 
              Baa    -0.0053    -2.812    -1.003    -0.938  0.8295  0.1559  0.5364
    25 H(1)   Bbb    -0.0004    -0.219    -0.078    -0.073 -0.4681  0.7181  0.5151
              Bcc     0.0057     3.031     1.081     1.011  0.3048  0.6783 -0.6686
 
              Baa    -0.0090    -1.205    -0.430    -0.402  0.7904 -0.1473 -0.5946
    26 C(13)  Bbb     0.0028     0.382     0.136     0.127  0.0276  0.9782 -0.2057
              Bcc     0.0061     0.823     0.294     0.275  0.6119  0.1462  0.7773
 
              Baa    -0.0047    -2.507    -0.895    -0.836  0.9642  0.1413  0.2243
    27 H(1)   Bbb    -0.0028    -1.481    -0.528    -0.494 -0.2448  0.1497  0.9579
              Bcc     0.0075     3.988     1.423     1.330 -0.1018  0.9786 -0.1790
 
              Baa    -0.0059    -3.123    -1.115    -1.042  0.9584 -0.1547 -0.2399
    28 H(1)   Bbb    -0.0020    -1.054    -0.376    -0.352  0.1641 -0.3889  0.9066
              Bcc     0.0078     4.177     1.491     1.393  0.2335  0.9082  0.3473
 

 ---------------------------------------------------------------------------------

 No NMR shielding tensors so no spin-rotation constants.
 Leave Link  601 at Tue Aug  4 15:07:39 2020, MaxMem=  6442450944 cpu:               8.2 elap:               0.4
 (Enter /scratch/scicomp/CentOS/7.3.1611/Haswell/software/Gaussian/g16/l9999.exe)
 1\1\GINC-ATLAS-205\SP\UwB97XD\def2TZVP\C12H16\BOCHEN\04-Aug-2020\0\\#p
  uwb97xd guess=mix def2tzvp # scrf=(iefpcm,solvent=Cyclohexane,read) n
 osym 6d 10f\\endo-2 xp-pcm for eta=3\\0,1\C,0,-3.118984,-0.431661,0.24
 7435\C,0,-0.49894,-0.160927,-0.842197\H,0,-4.083986,-0.548798,0.725945
 \H,0,0.353927,-0.115768,-1.511796\C,0,1.104795,1.419144,0.680915\C,0,0
 .49894,0.160927,0.842197\H,0,0.544367,2.322264,0.886379\H,0,-0.353927,
 0.115768,1.511797\C,0,1.462637,-0.999808,0.987512\H,0,1.898804,-0.9375
 31,1.990366\H,0,0.929588,-1.949702,0.93613\C,0,2.406337,1.522553,0.118
 11\H,0,2.824446,2.509213,-0.04557\C,0,3.118984,0.431661,-0.247435\H,0,
 4.083986,0.548798,-0.725945\C,0,2.592283,-0.958575,-0.043388\H,0,2.248
 595,-1.357032,-1.006499\H,0,3.401257,-1.622519,0.271019\C,0,-1.104795,
 -1.419144,-0.680915\H,0,-0.544367,-2.322264,-0.886379\C,0,-2.406337,-1
 .522553,-0.11811\H,0,-2.824445,-2.509213,0.04557\C,0,-1.462637,0.99980
 8,-0.987512\H,0,-0.929588,1.949702,-0.93613\H,0,-1.898804,0.937531,-1.
 990366\C,0,-2.592283,0.958575,0.043388\H,0,-3.401256,1.622519,-0.27101
 9\H,0,-2.248595,1.357032,1.006498\\Version=ES64L-G16RevB.01\HF=-466.76
 77536\S2=0.697403\S2-1=0.\S2A=0.238703\RMSD=9.174e-09\Dipole=-0.00027,
 -0.0009784,-0.0022945\Quadrupole=0.8361441,1.8229534,-2.6590975,-2.232
 0867,-2.3377651,-0.5191986\PG=CI [X(C12H16)]\\@


 SOME PEOPLE TRY TO PULL THE WOOL OVER YOUR EYES
 USING THE WRONG YARN.
 Job cpu time:       0 days  2 hours  2 minutes 56.6 seconds.
 Elapsed time:       0 days  0 hours  5 minutes 10.5 seconds.
 File lengths (MBytes):  RWF=    625 Int=      0 D2E=      0 Chk=     24 Scr=      1
 Normal termination of Gaussian 16 at Tue Aug  4 15:07:39 2020.
