 Entering Gaussian System, Link 0=g16
 Input=meso-TS_1_2_pcm.com
 Output=meso-TS_1_2_pcm.log
 Initial command:
 /scratch/scicomp/CentOS/7.3.1611/Haswell/software/Gaussian/g16/l1.exe "/scratch/bochen/cyclohexadiene-dimerization/wb97xd-def2tzvp/xp-pcm/meso/Gau-49216.inp" -scrdir="/scratch/bochen/cyclohexadiene-dimerization/wb97xd-def2tzvp/xp-pcm/meso/"
 Entering Link 1 = /scratch/scicomp/CentOS/7.3.1611/Haswell/software/Gaussian/g16/l1.exe PID=     49217.
  
 Copyright (c) 1988-2017, Gaussian, Inc.  All Rights Reserved.
  
 This is part of the Gaussian(R) 16 program.  It is based on
 the Gaussian(R) 09 system (copyright 2009, Gaussian, Inc.),
 the Gaussian(R) 03 system (copyright 2003, Gaussian, Inc.),
 the Gaussian(R) 98 system (copyright 1998, Gaussian, Inc.),
 the Gaussian(R) 94 system (copyright 1995, Gaussian, Inc.),
 the Gaussian 92(TM) system (copyright 1992, Gaussian, Inc.),
 the Gaussian 90(TM) system (copyright 1990, Gaussian, Inc.),
 the Gaussian 88(TM) system (copyright 1988, Gaussian, Inc.),
 the Gaussian 86(TM) system (copyright 1986, Carnegie Mellon
 University), and the Gaussian 82(TM) system (copyright 1983,
 Carnegie Mellon University). Gaussian is a federally registered
 trademark of Gaussian, Inc.
  
 This software contains proprietary and confidential information,
 including trade secrets, belonging to Gaussian, Inc.
  
 This software is provided under written license and may be
 used, copied, transmitted, or stored only in accord with that
 written license.
  
 The following legend is applicable only to US Government
 contracts under FAR:
  
                    RESTRICTED RIGHTS LEGEND
  
 Use, reproduction and disclosure by the US Government is
 subject to restrictions as set forth in subparagraphs (a)
 and (c) of the Commercial Computer Software - Restricted
 Rights clause in FAR 52.227-19.
  
 Gaussian, Inc.
 340 Quinnipiac St., Bldg. 40, Wallingford CT 06492
  
  
 ---------------------------------------------------------------
 Warning -- This program may not be used in any manner that
 competes with the business of Gaussian, Inc. or will provide
 assistance to any competitor of Gaussian, Inc.  The licensee
 of this program is prohibited from giving any competitor of
 Gaussian, Inc. access to this program.  By using this program,
 the user acknowledges that Gaussian, Inc. is engaged in the
 business of creating and licensing software in the field of
 computational chemistry and represents and warrants to the
 licensee that it is not a competitor of Gaussian, Inc. and that
 it will not use this program in any manner prohibited above.
 ---------------------------------------------------------------
  

 Cite this work as:
 Gaussian 16, Revision B.01,
 M. J. Frisch, G. W. Trucks, H. B. Schlegel, G. E. Scuseria, 
 M. A. Robb, J. R. Cheeseman, G. Scalmani, V. Barone, 
 G. A. Petersson, H. Nakatsuji, X. Li, M. Caricato, A. V. Marenich, 
 J. Bloino, B. G. Janesko, R. Gomperts, B. Mennucci, H. P. Hratchian, 
 J. V. Ortiz, A. F. Izmaylov, J. L. Sonnenberg, D. Williams-Young, 
 F. Ding, F. Lipparini, F. Egidi, J. Goings, B. Peng, A. Petrone, 
 T. Henderson, D. Ranasinghe, V. G. Zakrzewski, J. Gao, N. Rega, 
 G. Zheng, W. Liang, M. Hada, M. Ehara, K. Toyota, R. Fukuda, 
 J. Hasegawa, M. Ishida, T. Nakajima, Y. Honda, O. Kitao, H. Nakai, 
 T. Vreven, K. Throssell, J. A. Montgomery, Jr., J. E. Peralta, 
 F. Ogliaro, M. J. Bearpark, J. J. Heyd, E. N. Brothers, K. N. Kudin, 
 V. N. Staroverov, T. A. Keith, R. Kobayashi, J. Normand, 
 K. Raghavachari, A. P. Rendell, J. C. Burant, S. S. Iyengar, 
 J. Tomasi, M. Cossi, J. M. Millam, M. Klene, C. Adamo, R. Cammi, 
 J. W. Ochterski, R. L. Martin, K. Morokuma, O. Farkas, 
 J. B. Foresman, and D. J. Fox, Gaussian, Inc., Wallingford CT, 2016.
 
 ******************************************
 Gaussian 16:  ES64L-G16RevB.01 20-Dec-2017
                 3-Aug-2020 
 ******************************************
 %nproc=24
 Will use up to   24 processors via shared memory.
 %mem=48GB
 ----------------------------------------------------------------------
 #p uwb97xd guess=mix def2tzvp # scrf=(iefpcm,solvent=Cyclohexane,read)
  nosym 6d 10f
 ----------------------------------------------------------------------
 1/38=1,40=2,172=1/1;
 2/12=2,15=1,17=6,18=5,40=1/2;
 3/5=44,7=101,8=22,11=2,25=1,30=1,70=2203,72=17,74=-58,116=2/1,2,3;
 4/13=-1/1;
 5/5=2,38=5,53=17/2;
 6/7=2,8=2,9=2,10=2,28=1/1;
 99/5=1,9=1/99;
 Leave Link    1 at Mon Aug  3 16:13:58 2020, MaxMem=  6442450944 cpu:               2.7 elap:               0.1
 (Enter /scratch/scicomp/CentOS/7.3.1611/Haswell/software/Gaussian/g16/l101.exe)
 -----------------------
 endo-2 xp-pcm for eta=3
 -----------------------
 Symbolic Z-matrix:
 Charge =  0 Multiplicity = 1
 6                    -3.11867  -0.43296   0.24723 
 6                    -0.50947  -0.16798  -0.858 
 1                    -4.08355  -0.54911   0.72649 
 1                     0.36016  -0.11611  -1.50344 
 6                     1.10134   1.41549   0.68252 
 6                     0.50947   0.16798   0.858 
 1                     0.54041   2.31958   0.88281 
 1                    -0.36016   0.11611   1.50344 
 6                     1.46327  -0.99988   0.98774 
 1                     1.90051  -0.94215   1.99065 
 1                     0.92683  -1.94752   0.93419 
 6                     2.40882   1.52107   0.11687 
 1                     2.82476   2.50846  -0.04747 
 6                     3.11867   0.43296  -0.24723 
 1                     4.08355   0.54911  -0.72649 
 6                     2.59215  -0.95852  -0.04359 
 1                     2.24958  -1.35685  -1.00702 
 1                     3.40107  -1.62206   0.27129 
 6                    -1.10134  -1.41549  -0.68252 
 1                    -0.54041  -2.31958  -0.88281 
 6                    -2.40882  -1.52107  -0.11687 
 1                    -2.82476  -2.50846   0.04747 
 6                    -1.46327   0.99988  -0.98774 
 1                    -0.92683   1.94752  -0.93419 
 1                    -1.90051   0.94215  -1.99065 
 6                    -2.59215   0.95852   0.04359 
 1                    -3.40107   1.62206  -0.27129 
 1                    -2.24958   1.35685   1.00702 
 
 ITRead=  0  0  0  0  0  0  0  0  0  0  0  0  0  0  0  0  0  0  0  0
 ITRead=  0  0  0  0  0  0  0  0
 MicOpt= -1 -1 -1 -1 -1 -1 -1 -1 -1 -1 -1 -1 -1 -1 -1 -1 -1 -1 -1 -1
 MicOpt= -1 -1 -1 -1 -1 -1 -1 -1
 NAtoms=     28 NQM=       28 NQMF=       0 NMMI=      0 NMMIF=      0
                NMic=       0 NMicF=      0.
                    Isotopes and Nuclear Properties:
 (Nuclear quadrupole moments (NQMom) in fm**2, nuclear magnetic moments (NMagM)
  in nuclear magnetons)

  Atom         1           2           3           4           5           6           7           8           9          10
 IAtWgt=          12          12           1           1          12          12           1           1          12           1
 AtmWgt=  12.0000000  12.0000000   1.0078250   1.0078250  12.0000000  12.0000000   1.0078250   1.0078250  12.0000000   1.0078250
 NucSpn=           0           0           1           1           0           0           1           1           0           1
 AtZEff=  -0.0000000  -0.0000000  -0.0000000  -0.0000000  -0.0000000  -0.0000000  -0.0000000  -0.0000000  -0.0000000  -0.0000000
 NQMom=    0.0000000   0.0000000   0.0000000   0.0000000   0.0000000   0.0000000   0.0000000   0.0000000   0.0000000   0.0000000
 NMagM=    0.0000000   0.0000000   2.7928460   2.7928460   0.0000000   0.0000000   2.7928460   2.7928460   0.0000000   2.7928460
 AtZNuc=   6.0000000   6.0000000   1.0000000   1.0000000   6.0000000   6.0000000   1.0000000   1.0000000   6.0000000   1.0000000

  Atom        11          12          13          14          15          16          17          18          19          20
 IAtWgt=           1          12           1          12           1          12           1           1          12           1
 AtmWgt=   1.0078250  12.0000000   1.0078250  12.0000000   1.0078250  12.0000000   1.0078250   1.0078250  12.0000000   1.0078250
 NucSpn=           1           0           1           0           1           0           1           1           0           1
 AtZEff=  -0.0000000  -0.0000000  -0.0000000  -0.0000000  -0.0000000  -0.0000000  -0.0000000  -0.0000000  -0.0000000  -0.0000000
 NQMom=    0.0000000   0.0000000   0.0000000   0.0000000   0.0000000   0.0000000   0.0000000   0.0000000   0.0000000   0.0000000
 NMagM=    2.7928460   0.0000000   2.7928460   0.0000000   2.7928460   0.0000000   2.7928460   2.7928460   0.0000000   2.7928460
 AtZNuc=   1.0000000   6.0000000   1.0000000   6.0000000   1.0000000   6.0000000   1.0000000   1.0000000   6.0000000   1.0000000

  Atom        21          22          23          24          25          26          27          28
 IAtWgt=          12           1          12           1           1          12           1           1
 AtmWgt=  12.0000000   1.0078250  12.0000000   1.0078250   1.0078250  12.0000000   1.0078250   1.0078250
 NucSpn=           0           1           0           1           1           0           1           1
 AtZEff=  -0.0000000  -0.0000000  -0.0000000  -0.0000000  -0.0000000  -0.0000000  -0.0000000  -0.0000000
 NQMom=    0.0000000   0.0000000   0.0000000   0.0000000   0.0000000   0.0000000   0.0000000   0.0000000
 NMagM=    0.0000000   2.7928460   0.0000000   2.7928460   2.7928460   0.0000000   2.7928460   2.7928460
 AtZNuc=   6.0000000   1.0000000   6.0000000   1.0000000   1.0000000   6.0000000   1.0000000   1.0000000
 Leave Link  101 at Mon Aug  3 16:13:59 2020, MaxMem=  6442450944 cpu:               2.4 elap:               0.1
 (Enter /scratch/scicomp/CentOS/7.3.1611/Haswell/software/Gaussian/g16/l202.exe)
                          Input orientation:                          
 ---------------------------------------------------------------------
 Center     Atomic      Atomic             Coordinates (Angstroms)
 Number     Number       Type             X           Y           Z
 ---------------------------------------------------------------------
      1          6           0       -3.118670   -0.432956    0.247226
      2          6           0       -0.509469   -0.167984   -0.858002
      3          1           0       -4.083546   -0.549105    0.726486
      4          1           0        0.360157   -0.116106   -1.503444
      5          6           0        1.101339    1.415489    0.682520
      6          6           0        0.509469    0.167984    0.858002
      7          1           0        0.540414    2.319583    0.882812
      8          1           0       -0.360157    0.116106    1.503444
      9          6           0        1.463271   -0.999883    0.987744
     10          1           0        1.900513   -0.942148    1.990648
     11          1           0        0.926831   -1.947518    0.934189
     12          6           0        2.408817    1.521066    0.116868
     13          1           0        2.824758    2.508464   -0.047474
     14          6           0        3.118670    0.432956   -0.247226
     15          1           0        4.083546    0.549105   -0.726486
     16          6           0        2.592153   -0.958523   -0.043594
     17          1           0        2.249577   -1.356847   -1.007017
     18          1           0        3.401074   -1.622064    0.271288
     19          6           0       -1.101339   -1.415489   -0.682520
     20          1           0       -0.540414   -2.319583   -0.882812
     21          6           0       -2.408817   -1.521066   -0.116868
     22          1           0       -2.824758   -2.508464    0.047474
     23          6           0       -1.463271    0.999883   -0.987744
     24          1           0       -0.926831    1.947518   -0.934189
     25          1           0       -1.900513    0.942148   -1.990648
     26          6           0       -2.592153    0.958523    0.043594
     27          1           0       -3.401074    1.622064   -0.271288
     28          1           0       -2.249577    1.356847    1.007017
 ---------------------------------------------------------------------
                    Distance matrix (angstroms):
                    1          2          3          4          5
     1  C    0.000000
     2  C    2.845992   0.000000
     3  H    1.083590   3.928089   0.000000
     4  H    3.907362   1.084221   4.990648   0.000000
     5  C    4.627603   2.734099   5.544781   2.770121   0.000000
     6  C    3.727944   2.023803   4.650516   2.383155   1.391895
     7  H    4.622698   3.212581   5.443787   3.414570   1.082654
     8  H    3.080413   2.383155   3.861320   3.100669   2.120916
     9  C    4.675891   2.826754   5.571233   2.864252   2.461337
    10  H    5.337696   3.810794   6.128748   3.906881   2.812175
    11  H    4.374002   2.905451   5.206014   3.101168   3.376923
    12  C    5.864154   3.509937   6.841639   3.082653   1.428498
    13  H    6.638007   4.351712   7.594235   3.883616   2.167408
    14  C    6.316542   3.727944   7.333790   3.080413   2.428873
    15  H    7.333790   4.650516   8.367711   3.861320   3.410202
    16  C    5.742325   3.302767   6.732429   2.796897   2.895807
    17  H    5.589703   3.007979   6.615582   2.314257   3.443666
    18  H    6.627339   4.322267   7.574826   3.829459   3.832052
    19  C    2.428873   1.391895   3.410202   2.120916   3.837911
    20  H    3.388768   2.151965   4.275303   2.459984   4.369941
    21  C    1.349236   2.446964   2.112030   3.400547   4.645812
    22  H    2.105711   3.414425   2.425838   4.274624   5.587032
    23  C    2.513668   1.513435   3.493392   2.199152   3.088646
    24  H    3.444787   2.157625   4.353828   2.497786   2.647693
    25  H    2.895323   2.109569   3.791080   2.543206   4.047344
    26  C    1.501632   2.533667   2.227900   3.502041   3.776100
    27  H    2.138157   3.451070   2.485014   4.322766   4.606967
    28  H    2.129789   2.971764   2.659848   3.909312   3.367102
                    6          7          8          9         10
     6  C    0.000000
     7  H    2.151965   0.000000
     8  H    1.084221   2.459984   0.000000
     9  C    1.513435   3.446960   2.199152   0.000000
    10  H    2.109569   3.703520   2.543206   1.095596   0.000000
    11  H    2.157625   4.284870   2.497786   1.090251   1.753548
    12  C    2.446964   2.171458   3.400547   2.829782   3.136375
    13  H    3.414425   2.473729   4.274624   3.903053   4.112772
    14  C    2.845992   3.388768   3.907362   2.513668   2.895323
    15  H    3.928089   4.275303   4.990648   3.493392   3.791080
    16  C    2.533667   3.976662   3.502041   1.529622   2.148668
    17  H    2.971764   4.473123   3.909312   2.173654   3.046279
    18  H    3.451070   4.908556   4.322766   2.157661   2.381211
    19  C    2.734099   4.369941   2.770121   3.088646   4.047344
    20  H    3.212581   5.080106   3.414570   3.042259   4.014004
    21  C    3.509937   4.944483   3.082653   4.060156   4.831883
    22  H    4.351712   5.944090   3.883616   4.641887   5.343918
    23  C    2.826754   3.042259   2.864252   4.057865   4.894624
    24  H    2.905451   2.364896   3.101168   4.253656   4.989861
    25  H    3.810794   4.014004   3.906881   4.894624   5.817997
    26  C    3.302767   3.517065   2.796897   4.601439   5.252392
    27  H    4.322267   4.165790   3.829459   5.667594   6.308594
    28  H    3.007979   2.954037   2.314257   4.397703   4.845220
                   11         12         13         14         15
    11  H    0.000000
    12  C    3.859452   0.000000
    13  H    4.941818   1.083960   0.000000
    14  C    3.444787   1.349236   2.105711   0.000000
    15  H    4.353828   2.112030   2.425838   1.083590   0.000000
    16  C    2.169670   2.491530   3.474783   1.501632   2.227900
    17  H    2.422154   3.093680   4.023951   2.129789   2.659848
    18  H    2.582099   3.299649   4.182704   2.138157   2.485014
    19  C    2.647693   4.645812   5.587032   4.627603   5.544781
    20  H    2.364896   4.944483   5.944090   4.622698   5.443787
    21  C    3.523227   5.702525   6.605470   5.864154   6.841639
    22  H    3.895554   6.605470   7.556164   6.638007   7.594235
    23  C    4.253656   4.060156   4.641887   4.675891   5.571233
    24  H    4.700873   3.523227   3.895554   4.374002   5.206014
    25  H    4.989861   4.831883   5.343918   5.337696   6.128748
    26  C    4.649891   5.033043   5.635028   5.742325   6.732429
    27  H    5.738105   5.823719   6.292597   6.627339   7.574826
    28  H    4.584070   4.745521   5.309148   5.589703   6.615582
                   16         17         18         19         20
    16  C    0.000000
    17  H    1.097362   0.000000
    18  H    1.092607   1.740790   0.000000
    19  C    3.776100   3.367102   4.606967   0.000000
    20  H    3.517065   2.954037   4.165790   1.082654   0.000000
    21  C    5.033043   4.745521   5.823719   1.428498   2.171458
    22  H    5.635028   5.309148   6.292597   2.167408   2.473729
    23  C    4.601439   4.397703   5.667594   2.461337   3.446960
    24  H    4.649891   4.584070   5.738105   3.376923   4.284870
    25  H    5.252392   4.845220   6.308594   2.812175   3.703520
    26  C    5.528082   5.468736   6.529169   2.895807   3.976662
    27  H    6.529169   6.430013   7.555658   3.832052   4.908556
    28  H    5.468736   5.626976   6.430013   3.443666   4.473123
                   21         22         23         24         25
    21  C    0.000000
    22  H    1.083960   0.000000
    23  C    2.829782   3.903053   0.000000
    24  H    3.859452   4.941818   1.090251   0.000000
    25  H    3.136375   4.112772   1.095596   1.753548   0.000000
    26  C    2.491530   3.474783   1.529622   2.169670   2.148668
    27  H    3.299649   4.182704   2.157661   2.582099   2.381211
    28  H    3.093680   4.023951   2.173654   2.422154   3.046279
                   26         27         28
    26  C    0.000000
    27  H    1.092607   0.000000
    28  H    1.097362   1.740790   0.000000
 Symmetry turned off by external request.
 Stoichiometry    C12H16
 Framework group  CI[X(C12H16)]
 Deg. of freedom    39
 Full point group                 CI      NOp   2
 Rotational constants (GHZ):           1.9460863           0.6363098           0.5523634
 Leave Link  202 at Mon Aug  3 16:13:59 2020, MaxMem=  6442450944 cpu:               0.3 elap:               0.0
 (Enter /scratch/scicomp/CentOS/7.3.1611/Haswell/software/Gaussian/g16/l301.exe)
 Standard basis: def2TZVP (6D, 10F)
 Ernie: Thresh=  0.10000D-02 Tol=  0.10000D-05 Strict=F.
   528 basis functions,   740 primitive gaussians,   528 cartesian basis functions
    44 alpha electrons       44 beta electrons
       nuclear repulsion energy       691.6297447560 Hartrees.
 IExCor= 4639 DFT=T Ex+Corr=wB97XD ExCW=0 ScaHFX=  1.000000
 ScaDFX=  1.000000  1.000000  1.000000  1.000000 ScalE2=  1.000000  1.000000
 IRadAn=      5 IRanWt=     -1 IRanGd=            0 ICorTp=0 IEmpDi=121
 HFx  wShort=  0.000000 wLong=  0.200000 cFull=  0.222036 cShort=  0.000000 cLong=  0.777964
 DFx  wShort=  0.000000 wLong=  0.200000 cFull=  0.000000 cShort=  0.000000 cLong=  1.000000
 NAtoms=   28 NActive=   28 NUniq=   28 SFac= 1.00D+00 NAtFMM=   60 NAOKFM=F Big=F
 Integral buffers will be    131072 words long.
 Raffenetti 2 integral format.
 Two-electron integral symmetry is turned off.
 R6Disp:  Grimme-D2 Dispersion energy=       -0.0229207125 Hartrees.
 Nuclear repulsion after empirical dispersion term =      691.6068240435 Hartrees.
 Using the following non-standard input for PCM:
 norep pcmdoc geomview  nodis nocav g03defaults tsare=0.075
 Warning! Using old PCM defaults because the g03defaults keyword was found.
 These settings can be overridden by following keywords.
 nsfe=28
 NVESolv=36  SolvMW=84.1595   Rsolv=2.815
 eps=2.0165 RhoS=0.7781
 --- end of non-standard input.
 Reading user-defined spheres from input:
 ISph  on   Nord    Re0     Alpha      Xe            Ye            Ze
 --- end of user-defined spheres data.
 ------------------------------------------------------------------------------
 Polarizable Continuum Model (PCM)
 =================================
 Model                : PCM.
 Atomic radii         : UA0 (Simple United Atom Topological Model).
 Polarization charges : Total charges.
 Charge compensation  : None.
 Solution method      : On-the-fly selection.
 Cavity type          : SES (Solvent Excluding Surface) (Alpha=1.000).
 Cavity algorithm     : GePol (RMin=0.200 OFac=0.890).
                        User-defined sphere list used, NSphG=   28.
                        Tesserae with average area of 0.075 Ang**2.
                        Smoothing algorithm: None.
                        Polarization charges: point-like.
                        Self-potential: constant (ISelfS= 1).
                        Self-field    : global E.n sum rule (ISelfD= 3).
 Solvent              : CycloHexane, Eps=   2.016500 Eps(inf)=   2.035188
                        RSolv=   2.815000 Ang.
 ------------------------------------------------------------------------------
 GePol: Number of generator spheres                  =      28
 GePol: Total number of spheres                      =     168
 GePol: Number of exposed spheres                    =     127 ( 75.60%)
 GePol: Number of tesserae                           =    4632
 GePol: Average area of tesserae                     =       0.05 Ang**2
 GePol: Minimum area of tessera                      =   0.10D-02 Ang**2
 GePol: Maximum area of tessera                      =    0.12631 Ang**2
 GePol: Number of small tesserae                     =       0
 GePol: Fraction of small tesserae (<1% of avg)      =       0.00%
 GePol: Total count of vertices                      =   16369
 GePol: Maximum number of vertices in a tessera      =       7
 GePol: Cavity surface area                          =    218.631 Ang**2
 GePol: Cavity volume                                =    245.839 Ang**3
 Leave Link  301 at Mon Aug  3 16:13:59 2020, MaxMem=  6442450944 cpu:               7.4 elap:               0.3
 (Enter /scratch/scicomp/CentOS/7.3.1611/Haswell/software/Gaussian/g16/l302.exe)
 NPDir=0 NMtPBC=     1 NCelOv=     1 NCel=       1 NClECP=     1 NCelD=      1
         NCelK=      1 NCelE2=     1 NClLst=     1 CellRange=     0.0.
 One-electron integrals computed using PRISM.
   1 Symmetry operations used in ECPInt.
 ECPInt:  NShTT=   19306 NPrTT=   56928 LenC2=   18526 LenP2D=   42291.
 LDataN:  DoStor=T MaxTD1= 6 Len=  172
 NBasis=   528 RedAO= T EigKep=  2.50D-05  NBF=   528
 NBsUse=   528 1.00D-06 EigRej= -1.00D+00 NBFU=   528
 Precomputing XC quadrature grid using
 IXCGrd= 4 IRadAn=           5 IRanWt=          -1 IRanGd=           0 AccXCQ= 0.00D+00.
 Generated NRdTot=       0 NPtTot=           0 NUsed=           0 NTot=          32
 NSgBfM=   526   526   526   526   526 MxSgAt=    28 MxSgA2=    28.
 Leave Link  302 at Mon Aug  3 16:14:00 2020, MaxMem=  6442450944 cpu:              12.8 elap:               0.6
 (Enter /scratch/scicomp/CentOS/7.3.1611/Haswell/software/Gaussian/g16/l303.exe)
 DipDrv:  MaxL=1.
 Leave Link  303 at Mon Aug  3 16:14:00 2020, MaxMem=  6442450944 cpu:               1.6 elap:               0.1
 (Enter /scratch/scicomp/CentOS/7.3.1611/Haswell/software/Gaussian/g16/l401.exe)
 ExpMin= 9.52D-02 ExpMax= 1.36D+04 ExpMxC= 4.63D+02 IAcc=3 IRadAn=         5 AccDes= 0.00D+00
 Harris functional with IExCor= 4639 and IRadAn=       5 diagonalized for initial guess.
 HarFok:  IExCor= 4639 AccDes= 0.00D+00 IRadAn=         5 IDoV= 1 UseB2=F ITyADJ=14
 ICtDFT=  3500011 ScaDFX=  1.000000  1.000000  1.000000  1.000000
 FoFCou: FMM=F IPFlag=           0 FMFlag=      100000 FMFlg1=           0
         NFxFlg=           0 DoJE=T BraDBF=F KetDBF=T FulRan=T
         wScrn=  0.000000 ICntrl=       500 IOpCl=  0 I1Cent=   200000004 NGrid=           0
         NMat0=    1 NMatS0=      1 NMatT0=    0 NMatD0=    1 NMtDS0=    0 NMtDT0=    0
 Symmetry not used in FoFCou.
 Harris En= -444.618867750289    
 JPrj=0 DoOrth=F DoCkMO=T.
 Mixing orbitals, IMix= 1 IMixAn=  0 NRI=1 NE=   44 Coef=  7.07106781D-01  7.07106781D-01
 Mixing orbitals, IMix= 1 IMixAn=  0 NRI=1 NE=   44 Coef= -7.07106781D-01  7.07106781D-01
 Initial guess <Sx>= 0.0000 <Sy>= 0.0000 <Sz>= 0.0000 <S**2>= 1.0000 S= 0.6180
 Leave Link  401 at Mon Aug  3 16:14:02 2020, MaxMem=  6442450944 cpu:              49.2 elap:               2.1
 (Enter /scratch/scicomp/CentOS/7.3.1611/Haswell/software/Gaussian/g16/l502.exe)
 Two-electron integral symmetry not used.
 UHF open shell SCF:
 Using DIIS extrapolation, IDIIS=  1040.
 NGot=  6442450944 LenX=  6441877030 LenY=  6441597718
 Requested convergence on RMS density matrix=1.00D-08 within 128 cycles.
 Requested convergence on MAX density matrix=1.00D-06.
 Requested convergence on             energy=1.00D-06.
 No special actions if energy rises.
 Fock matrices will be formed incrementally for  20 cycles.

 Cycle   1  Pass 1  IDiag  1:
 FoFJK:  IHMeth= 1 ICntrl=       0 DoSepK=T KAlg= 0 I1Cent=           0 FoldK=F
 IRaf=         1 NMat=       1 IRICut=       1 DoRegI=T DoRafI=F ISym2E= 0 IDoP0=0 IntGTp=1.
 FoFCou: FMM=F IPFlag=           0 FMFlag=      100000 FMFlg1=           0
         NFxFlg=           0 DoJE=T BraDBF=F KetDBF=F FulRan=T
         wScrn=  0.000000 ICntrl=       500 IOpCl=  0 I1Cent=           0 NGrid=           0
         NMat0=    1 NMatS0=      1 NMatT0=    0 NMatD0=    1 NMtDS0=    0 NMtDT0=    0
 Symmetry not used in FoFCou.
 Inv3:  Mode=1 IEnd=    64366272.
 Iteration    1 A*A^-1 deviation from unit magnitude is 3.55D-15 for    639.
 Iteration    1 A*A^-1 deviation from orthogonality  is 2.94D-15 for   1109    140.
 Iteration    1 A^-1*A deviation from unit magnitude is 3.55D-15 for   3256.
 Iteration    1 A^-1*A deviation from orthogonality  is 1.58D-15 for   1159   1121.
 E= -466.644042156078    
 DIIS: error= 5.76D-02 at cycle   1 NSaved=   1.
 NSaved= 1 IEnMin= 1 EnMin= -466.644042156078     IErMin= 1 ErrMin= 5.76D-02
 ErrMax= 5.76D-02  0.00D+00 EMaxC= 1.00D-01 BMatC= 4.10D+00 BMatP= 4.10D+00
 IDIUse=3 WtCom= 4.24D-01 WtEn= 5.76D-01
 Coeff-Com:  0.100D+01
 Coeff-En:   0.100D+01
 Coeff:      0.100D+01
 Gap=     0.211 Goal=   None    Shift=    0.000
 Gap=     0.211 Goal=   None    Shift=    0.000
 GapD=    0.211 DampG=1.000 DampE=0.500 DampFc=0.5000 IDamp=-1.
 Damping current iteration by 5.00D-01
 RMSDP=1.43D-03 MaxDP=9.21D-02              OVMax= 1.64D-01

 Cycle   2  Pass 1  IDiag  1:
 RMSU=  6.96D-04    CP:  9.75D-01
 E= -466.722617907693     Delta-E=       -0.078575751615 Rises=F Damp=T
 DIIS: error= 2.73D-02 at cycle   2 NSaved=   2.
 NSaved= 2 IEnMin= 2 EnMin= -466.722617907693     IErMin= 2 ErrMin= 2.73D-02
 ErrMax= 2.73D-02  0.00D+00 EMaxC= 1.00D-01 BMatC= 9.23D-01 BMatP= 4.10D+00
 IDIUse=3 WtCom= 7.27D-01 WtEn= 2.73D-01
 Coeff-Com: -0.865D+00 0.186D+01
 Coeff-En:   0.000D+00 0.100D+01
 Coeff:     -0.628D+00 0.163D+01
 Gap=     0.233 Goal=   None    Shift=    0.000
 Gap=     0.233 Goal=   None    Shift=    0.000
 RMSDP=9.02D-04 MaxDP=4.81D-02 DE=-7.86D-02 OVMax= 7.25D-02

 Cycle   3  Pass 1  IDiag  1:
 RMSU=  4.94D-04    CP:  9.42D-01  2.04D+00
 E= -466.806373636590     Delta-E=       -0.083755728897 Rises=F Damp=F
 DIIS: error= 4.10D-03 at cycle   3 NSaved=   3.
 NSaved= 3 IEnMin= 3 EnMin= -466.806373636590     IErMin= 3 ErrMin= 4.10D-03
 ErrMax= 4.10D-03  0.00D+00 EMaxC= 1.00D-01 BMatC= 1.83D-02 BMatP= 9.23D-01
 IDIUse=3 WtCom= 9.59D-01 WtEn= 4.10D-02
 Coeff-Com: -0.308D+00 0.666D+00 0.643D+00
 Coeff-En:   0.000D+00 0.000D+00 0.100D+01
 Coeff:     -0.296D+00 0.638D+00 0.657D+00
 Gap=     0.239 Goal=   None    Shift=    0.000
 Gap=     0.239 Goal=   None    Shift=    0.000
 RMSDP=1.54D-04 MaxDP=8.25D-03 DE=-8.38D-02 OVMax= 3.77D-02

 Cycle   4  Pass 1  IDiag  1:
 RMSU=  1.36D-04    CP:  9.37D-01  2.13D+00  9.51D-01
 E= -466.812414297980     Delta-E=       -0.006040661390 Rises=F Damp=F
 DIIS: error= 2.84D-03 at cycle   4 NSaved=   4.
 NSaved= 4 IEnMin= 4 EnMin= -466.812414297980     IErMin= 4 ErrMin= 2.84D-03
 ErrMax= 2.84D-03  0.00D+00 EMaxC= 1.00D-01 BMatC= 8.41D-04 BMatP= 1.83D-02
 IDIUse=3 WtCom= 9.72D-01 WtEn= 2.84D-02
 Coeff-Com:  0.109D+00-0.235D+00-0.105D+00 0.123D+01
 Coeff-En:   0.000D+00 0.000D+00 0.000D+00 0.100D+01
 Coeff:      0.106D+00-0.228D+00-0.102D+00 0.122D+01
 Gap=     0.242 Goal=   None    Shift=    0.000
 Gap=     0.242 Goal=   None    Shift=    0.000
 RMSDP=1.48D-04 MaxDP=7.91D-03 DE=-6.04D-03 OVMax= 4.88D-02

 Cycle   5  Pass 1  IDiag  1:
 RMSU=  5.85D-05    CP:  9.34D-01  2.18D+00  1.14D+00  1.68D+00
 E= -466.814279677191     Delta-E=       -0.001865379211 Rises=F Damp=F
 DIIS: error= 1.51D-03 at cycle   5 NSaved=   5.
 NSaved= 5 IEnMin= 5 EnMin= -466.814279677191     IErMin= 5 ErrMin= 1.51D-03
 ErrMax= 1.51D-03  0.00D+00 EMaxC= 1.00D-01 BMatC= 2.72D-04 BMatP= 8.41D-04
 IDIUse=3 WtCom= 9.85D-01 WtEn= 1.51D-02
 Coeff-Com:  0.525D-01-0.113D+00-0.882D-01 0.230D+00 0.919D+00
 Coeff-En:   0.000D+00 0.000D+00 0.000D+00 0.000D+00 0.100D+01
 Coeff:      0.517D-01-0.112D+00-0.869D-01 0.227D+00 0.920D+00
 Gap=     0.243 Goal=   None    Shift=    0.000
 Gap=     0.243 Goal=   None    Shift=    0.000
 RMSDP=7.14D-05 MaxDP=4.83D-03 DE=-1.87D-03 OVMax= 2.51D-02

 Cycle   6  Pass 1  IDiag  1:
 RMSU=  2.48D-05    CP:  9.32D-01  2.19D+00  1.18D+00  2.05D+00  1.60D+00
 E= -466.814858864658     Delta-E=       -0.000579187466 Rises=F Damp=F
 DIIS: error= 9.91D-04 at cycle   6 NSaved=   6.
 NSaved= 6 IEnMin= 6 EnMin= -466.814858864658     IErMin= 6 ErrMin= 9.91D-04
 ErrMax= 9.91D-04  0.00D+00 EMaxC= 1.00D-01 BMatC= 1.44D-04 BMatP= 2.72D-04
 IDIUse=3 WtCom= 9.90D-01 WtEn= 9.91D-03
 Coeff-Com: -0.374D-01 0.803D-01 0.303D-01-0.461D+00 0.358D+00 0.103D+01
 Coeff-En:   0.000D+00 0.000D+00 0.000D+00 0.000D+00 0.000D+00 0.100D+01
 Coeff:     -0.370D-01 0.795D-01 0.300D-01-0.456D+00 0.354D+00 0.103D+01
 Gap=     0.242 Goal=   None    Shift=    0.000
 Gap=     0.242 Goal=   None    Shift=    0.000
 RMSDP=6.55D-05 MaxDP=3.93D-03 DE=-5.79D-04 OVMax= 2.48D-02

 Cycle   7  Pass 1  IDiag  1:
 RMSU=  1.67D-05    CP:  9.31D-01  2.20D+00  1.22D+00  2.36D+00  2.31D+00
                    CP:  1.55D+00
 E= -466.815231626122     Delta-E=       -0.000372761464 Rises=F Damp=F
 DIIS: error= 5.86D-04 at cycle   7 NSaved=   7.
 NSaved= 7 IEnMin= 7 EnMin= -466.815231626122     IErMin= 7 ErrMin= 5.86D-04
 ErrMax= 5.86D-04  0.00D+00 EMaxC= 1.00D-01 BMatC= 4.45D-05 BMatP= 1.44D-04
 IDIUse=3 WtCom= 9.94D-01 WtEn= 5.86D-03
 Coeff-Com: -0.136D-01 0.297D-01 0.274D-01 0.904D-02-0.277D+00-0.175D+00
 Coeff-Com:  0.140D+01
 Coeff-En:   0.000D+00 0.000D+00 0.000D+00 0.000D+00 0.000D+00 0.000D+00
 Coeff-En:   0.100D+01
 Coeff:     -0.136D-01 0.295D-01 0.273D-01 0.899D-02-0.276D+00-0.174D+00
 Coeff:      0.140D+01
 Gap=     0.241 Goal=   None    Shift=    0.000
 Gap=     0.241 Goal=   None    Shift=    0.000
 RMSDP=4.50D-05 MaxDP=2.46D-03 DE=-3.73D-04 OVMax= 1.74D-02

 Cycle   8  Pass 1  IDiag  1:
 RMSU=  8.98D-06    CP:  9.30D-01  2.20D+00  1.22D+00  2.54D+00  2.79D+00
                    CP:  2.24D+00  1.92D+00
 E= -466.815405349373     Delta-E=       -0.000173723251 Rises=F Damp=F
 DIIS: error= 4.08D-04 at cycle   8 NSaved=   8.
 NSaved= 8 IEnMin= 8 EnMin= -466.815405349373     IErMin= 8 ErrMin= 4.08D-04
 ErrMax= 4.08D-04  0.00D+00 EMaxC= 1.00D-01 BMatC= 2.12D-05 BMatP= 4.45D-05
 IDIUse=3 WtCom= 9.96D-01 WtEn= 4.08D-03
 Coeff-Com:  0.164D-01-0.355D-01-0.100D-01 0.240D+00-0.142D+00-0.552D+00
 Coeff-Com:  0.473D-01 0.144D+01
 Coeff-En:   0.000D+00 0.000D+00 0.000D+00 0.000D+00 0.000D+00 0.000D+00
 Coeff-En:   0.000D+00 0.100D+01
 Coeff:      0.164D-01-0.353D-01-0.100D-01 0.239D+00-0.141D+00-0.550D+00
 Coeff:      0.471D-01 0.143D+01
 Gap=     0.240 Goal=   None    Shift=    0.000
 Gap=     0.240 Goal=   None    Shift=    0.000
 RMSDP=3.55D-05 MaxDP=1.49D-03 DE=-1.74D-04 OVMax= 1.47D-02

 Cycle   9  Pass 1  IDiag  1:
 RMSU=  9.37D-06    CP:  9.30D-01  2.20D+00  1.24D+00  2.66D+00  3.00D+00
                    CP:  2.73D+00  2.88D+00  2.10D+00
 E= -466.815503284051     Delta-E=       -0.000097934678 Rises=F Damp=F
 DIIS: error= 2.78D-04 at cycle   9 NSaved=   9.
 NSaved= 9 IEnMin= 9 EnMin= -466.815503284051     IErMin= 9 ErrMin= 2.78D-04
 ErrMax= 2.78D-04  0.00D+00 EMaxC= 1.00D-01 BMatC= 8.75D-06 BMatP= 2.12D-05
 IDIUse=3 WtCom= 9.97D-01 WtEn= 2.78D-03
 Coeff-Com:  0.106D-01-0.229D-01-0.145D-01 0.643D-01 0.102D+00-0.809D-01
 Coeff-Com: -0.621D+00 0.300D+00 0.126D+01
 Coeff-En:   0.000D+00 0.000D+00 0.000D+00 0.000D+00 0.000D+00 0.000D+00
 Coeff-En:   0.000D+00 0.000D+00 0.100D+01
 Coeff:      0.106D-01-0.229D-01-0.145D-01 0.641D-01 0.102D+00-0.807D-01
 Coeff:     -0.620D+00 0.299D+00 0.126D+01
 Gap=     0.239 Goal=   None    Shift=    0.000
 Gap=     0.239 Goal=   None    Shift=    0.000
 RMSDP=2.69D-05 MaxDP=1.09D-03 DE=-9.79D-05 OVMax= 1.15D-02

 Cycle  10  Pass 1  IDiag  1:
 RMSU=  1.04D-05    CP:  9.29D-01  2.20D+00  1.24D+00  2.76D+00  3.00D+00
                    CP:  3.00D+00  3.00D+00  3.00D+00  2.47D+00
 E= -466.815548996521     Delta-E=       -0.000045712470 Rises=F Damp=F
 DIIS: error= 1.67D-04 at cycle  10 NSaved=  10.
 NSaved=10 IEnMin=10 EnMin= -466.815548996521     IErMin=10 ErrMin= 1.67D-04
 ErrMax= 1.67D-04  0.00D+00 EMaxC= 1.00D-01 BMatC= 2.73D-06 BMatP= 8.75D-06
 IDIUse=3 WtCom= 9.98D-01 WtEn= 1.67D-03
 Coeff-Com: -0.794D-02 0.172D-01 0.544D-02-0.109D+00 0.720D-01 0.261D+00
 Coeff-Com: -0.564D-01-0.741D+00-0.569D-01 0.162D+01
 Coeff-En:   0.000D+00 0.000D+00 0.000D+00 0.000D+00 0.000D+00 0.000D+00
 Coeff-En:   0.000D+00 0.000D+00 0.000D+00 0.100D+01
 Coeff:     -0.793D-02 0.171D-01 0.543D-02-0.109D+00 0.719D-01 0.260D+00
 Coeff:     -0.563D-01-0.740D+00-0.568D-01 0.162D+01
 Gap=     0.237 Goal=   None    Shift=    0.000
 Gap=     0.237 Goal=   None    Shift=    0.000
 RMSDP=2.55D-05 MaxDP=1.08D-03 DE=-4.57D-05 OVMax= 1.11D-02

 Cycle  11  Pass 1  IDiag  1:
 RMSU=  1.34D-05    CP:  9.29D-01  2.21D+00  1.26D+00  2.86D+00  3.00D+00
                    CP:  3.00D+00  3.00D+00  3.00D+00  3.00D+00  2.10D+00
 E= -466.815569411400     Delta-E=       -0.000020414879 Rises=F Damp=F
 DIIS: error= 4.95D-05 at cycle  11 NSaved=  11.
 NSaved=11 IEnMin=11 EnMin= -466.815569411400     IErMin=11 ErrMin= 4.95D-05
 ErrMax= 4.95D-05  0.00D+00 EMaxC= 1.00D-01 BMatC= 4.20D-07 BMatP= 2.73D-06
 IDIUse=1 WtCom= 1.00D+00 WtEn= 0.00D+00
 Coeff-Com: -0.154D-02 0.333D-02 0.207D-02-0.943D-02-0.126D-01 0.200D-01
 Coeff-Com:  0.768D-01-0.694D-01-0.193D+00 0.169D-01 0.117D+01
 Coeff:     -0.154D-02 0.333D-02 0.207D-02-0.943D-02-0.126D-01 0.200D-01
 Coeff:      0.768D-01-0.694D-01-0.193D+00 0.169D-01 0.117D+01
 Gap=     0.237 Goal=   None    Shift=    0.000
 Gap=     0.237 Goal=   None    Shift=    0.000
 RMSDP=7.36D-06 MaxDP=3.27D-04 DE=-2.04D-05 OVMax= 3.13D-03

 Cycle  12  Pass 1  IDiag  1:
 RMSU=  1.78D-06    CP:  9.28D-01  2.21D+00  1.26D+00  2.89D+00  3.00D+00
                    CP:  3.00D+00  3.00D+00  3.00D+00  3.00D+00  2.40D+00
                    CP:  1.36D+00
 E= -466.815571243447     Delta-E=       -0.000001832047 Rises=F Damp=F
 DIIS: error= 1.54D-05 at cycle  12 NSaved=  12.
 NSaved=12 IEnMin=12 EnMin= -466.815571243447     IErMin=12 ErrMin= 1.54D-05
 ErrMax= 1.54D-05  0.00D+00 EMaxC= 1.00D-01 BMatC= 1.62D-07 BMatP= 4.20D-07
 IDIUse=1 WtCom= 1.00D+00 WtEn= 0.00D+00
 Coeff-Com:  0.198D-02-0.430D-02-0.907D-03 0.328D-01-0.291D-01-0.777D-01
 Coeff-Com:  0.467D-01 0.217D+00-0.601D-01-0.542D+00 0.549D+00 0.867D+00
 Coeff:      0.198D-02-0.430D-02-0.907D-03 0.328D-01-0.291D-01-0.777D-01
 Coeff:      0.467D-01 0.217D+00-0.601D-01-0.542D+00 0.549D+00 0.867D+00
 Gap=     0.237 Goal=   None    Shift=    0.000
 Gap=     0.237 Goal=   None    Shift=    0.000
 RMSDP=3.11D-06 MaxDP=1.54D-04 DE=-1.83D-06 OVMax= 1.28D-03

 Cycle  13  Pass 1  IDiag  1:
 RMSU=  5.16D-07    CP:  9.28D-01  2.21D+00  1.26D+00  2.90D+00  3.00D+00
                    CP:  3.00D+00  3.00D+00  3.00D+00  3.00D+00  2.53D+00
                    CP:  1.52D+00  1.49D+00
 E= -466.815571494737     Delta-E=       -0.000000251290 Rises=F Damp=F
 DIIS: error= 4.17D-06 at cycle  13 NSaved=  13.
 NSaved=13 IEnMin=13 EnMin= -466.815571494737     IErMin=13 ErrMin= 4.17D-06
 ErrMax= 4.17D-06  0.00D+00 EMaxC= 1.00D-01 BMatC= 1.41D-08 BMatP= 1.62D-07
 IDIUse=1 WtCom= 1.00D+00 WtEn= 0.00D+00
 Coeff-Com:  0.192D-03-0.409D-03-0.240D-03 0.114D-02 0.178D-02-0.303D-02
 Coeff-Com: -0.118D-01 0.125D-01 0.320D-01-0.298D-02-0.162D+00 0.301D-01
 Coeff-Com:  0.110D+01
 Coeff:      0.192D-03-0.409D-03-0.240D-03 0.114D-02 0.178D-02-0.303D-02
 Coeff:     -0.118D-01 0.125D-01 0.320D-01-0.298D-02-0.162D+00 0.301D-01
 Coeff:      0.110D+01
 Gap=     0.237 Goal=   None    Shift=    0.000
 Gap=     0.237 Goal=   None    Shift=    0.000
 RMSDP=3.14D-07 MaxDP=1.74D-05 DE=-2.51D-07 OVMax= 6.33D-05

 Cycle  14  Pass 1  IDiag  1:
 RMSU=  2.51D-07    CP:  9.28D-01  2.21D+00  1.26D+00  2.90D+00  3.00D+00
                    CP:  3.00D+00  3.00D+00  3.00D+00  3.00D+00  2.53D+00
                    CP:  1.52D+00  1.55D+00  1.25D+00
 E= -466.815571509599     Delta-E=       -0.000000014862 Rises=F Damp=F
 DIIS: error= 1.77D-06 at cycle  14 NSaved=  14.
 NSaved=14 IEnMin=14 EnMin= -466.815571509599     IErMin=14 ErrMin= 1.77D-06
 ErrMax= 1.77D-06  0.00D+00 EMaxC= 1.00D-01 BMatC= 4.13D-09 BMatP= 1.41D-08
 IDIUse=1 WtCom= 1.00D+00 WtEn= 0.00D+00
 Coeff-Com: -0.375D-03 0.813D-03 0.129D-03-0.674D-02 0.673D-02 0.157D-01
 Coeff-Com: -0.142D-01-0.422D-01 0.229D-01 0.114D+00-0.160D+00-0.166D+00
 Coeff-Com:  0.351D+00 0.879D+00
 Coeff:     -0.375D-03 0.813D-03 0.129D-03-0.674D-02 0.673D-02 0.157D-01
 Coeff:     -0.142D-01-0.422D-01 0.229D-01 0.114D+00-0.160D+00-0.166D+00
 Coeff:      0.351D+00 0.879D+00
 Gap=     0.237 Goal=   None    Shift=    0.000
 Gap=     0.237 Goal=   None    Shift=    0.000
 RMSDP=1.52D-07 MaxDP=5.38D-06 DE=-1.49D-08 OVMax= 2.60D-05

 Cycle  15  Pass 1  IDiag  1:
 RMSU=  8.61D-08    CP:  9.28D-01  2.21D+00  1.26D+00  2.90D+00  3.00D+00
                    CP:  3.00D+00  3.00D+00  3.00D+00  3.00D+00  2.53D+00
                    CP:  1.52D+00  1.54D+00  1.37D+00  1.41D+00
 E= -466.815571513080     Delta-E=       -0.000000003481 Rises=F Damp=F
 DIIS: error= 1.09D-06 at cycle  15 NSaved=  15.
 NSaved=15 IEnMin=15 EnMin= -466.815571513080     IErMin=15 ErrMin= 1.09D-06
 ErrMax= 1.09D-06  0.00D+00 EMaxC= 1.00D-01 BMatC= 6.86D-10 BMatP= 4.13D-09
 IDIUse=1 WtCom= 1.00D+00 WtEn= 0.00D+00
 Coeff-Com: -0.110D-03 0.236D-03 0.595D-04-0.160D-02 0.109D-02 0.398D-02
 Coeff-Com: -0.819D-03-0.116D-01-0.233D-02 0.250D-01-0.214D-02-0.439D-01
 Coeff-Com: -0.153D+00 0.152D+00 0.103D+01
 Coeff:     -0.110D-03 0.236D-03 0.595D-04-0.160D-02 0.109D-02 0.398D-02
 Coeff:     -0.819D-03-0.116D-01-0.233D-02 0.250D-01-0.214D-02-0.439D-01
 Coeff:     -0.153D+00 0.152D+00 0.103D+01
 Gap=     0.237 Goal=   None    Shift=    0.000
 Gap=     0.237 Goal=   None    Shift=    0.000
 RMSDP=1.21D-07 MaxDP=5.51D-06 DE=-3.48D-09 OVMax= 4.24D-05

 Cycle  16  Pass 1  IDiag  1:
 RMSU=  4.38D-08    CP:  9.28D-01  2.21D+00  1.26D+00  2.90D+00  3.00D+00
                    CP:  3.00D+00  3.00D+00  3.00D+00  3.00D+00  2.54D+00
                    CP:  1.52D+00  1.54D+00  1.40D+00  1.59D+00  1.52D+00
 E= -466.815571514277     Delta-E=       -0.000000001198 Rises=F Damp=F
 DIIS: error= 6.42D-07 at cycle  16 NSaved=  16.
 NSaved=16 IEnMin=16 EnMin= -466.815571514277     IErMin=16 ErrMin= 6.42D-07
 ErrMax= 6.42D-07  0.00D+00 EMaxC= 1.00D-01 BMatC= 1.49D-10 BMatP= 6.86D-10
 IDIUse=1 WtCom= 1.00D+00 WtEn= 0.00D+00
 Coeff-Com:  0.623D-04-0.135D-03-0.270D-04 0.108D-02-0.975D-03-0.262D-02
 Coeff-Com:  0.218D-02 0.691D-02-0.358D-02-0.183D-01 0.235D-01 0.282D-01
 Coeff-Com: -0.279D-01-0.184D+00-0.191D+00 0.137D+01
 Coeff:      0.623D-04-0.135D-03-0.270D-04 0.108D-02-0.975D-03-0.262D-02
 Coeff:      0.218D-02 0.691D-02-0.358D-02-0.183D-01 0.235D-01 0.282D-01
 Coeff:     -0.279D-01-0.184D+00-0.191D+00 0.137D+01
 Gap=     0.237 Goal=   None    Shift=    0.000
 Gap=     0.237 Goal=   None    Shift=    0.000
 RMSDP=8.38D-08 MaxDP=4.02D-06 DE=-1.20D-09 OVMax= 2.74D-05

 Cycle  17  Pass 1  IDiag  1:
 RMSU=  2.30D-08    CP:  9.28D-01  2.21D+00  1.26D+00  2.90D+00  3.00D+00
                    CP:  3.00D+00  3.00D+00  3.00D+00  3.00D+00  2.54D+00
                    CP:  1.53D+00  1.54D+00  1.41D+00  1.62D+00  1.88D+00
                    CP:  1.91D+00
 E= -466.815571514652     Delta-E=       -0.000000000375 Rises=F Damp=F
 DIIS: error= 3.10D-07 at cycle  17 NSaved=  17.
 NSaved=17 IEnMin=17 EnMin= -466.815571514652     IErMin=17 ErrMin= 3.10D-07
 ErrMax= 3.10D-07  0.00D+00 EMaxC= 1.00D-01 BMatC= 3.32D-11 BMatP= 1.49D-10
 IDIUse=1 WtCom= 1.00D+00 WtEn= 0.00D+00
 Coeff-Com:  0.164D-04-0.350D-04-0.931D-05 0.198D-03-0.101D-03-0.598D-03
 Coeff-Com: -0.394D-04 0.157D-02 0.110D-02-0.292D-02-0.248D-02 0.684D-02
 Coeff-Com:  0.458D-01-0.351D-01-0.274D+00 0.145D-01 0.125D+01
 Coeff:      0.164D-04-0.350D-04-0.931D-05 0.198D-03-0.101D-03-0.598D-03
 Coeff:     -0.394D-04 0.157D-02 0.110D-02-0.292D-02-0.248D-02 0.684D-02
 Coeff:      0.458D-01-0.351D-01-0.274D+00 0.145D-01 0.125D+01
 Gap=     0.237 Goal=   None    Shift=    0.000
 Gap=     0.237 Goal=   None    Shift=    0.000
 RMSDP=3.61D-08 MaxDP=1.76D-06 DE=-3.75D-10 OVMax= 9.59D-06

 Cycle  18  Pass 1  IDiag  1:
 RMSU=  1.09D-08    CP:  9.28D-01  2.21D+00  1.26D+00  2.90D+00  3.00D+00
                    CP:  3.00D+00  3.00D+00  3.00D+00  3.00D+00  2.54D+00
                    CP:  1.53D+00  1.54D+00  1.41D+00  1.62D+00  2.03D+00
                    CP:  2.38D+00  1.62D+00
 E= -466.815571514735     Delta-E=       -0.000000000083 Rises=F Damp=F
 DIIS: error= 1.06D-07 at cycle  18 NSaved=  18.
 NSaved=18 IEnMin=18 EnMin= -466.815571514735     IErMin=18 ErrMin= 1.06D-07
 ErrMax= 1.06D-07  0.00D+00 EMaxC= 1.00D-01 BMatC= 5.72D-12 BMatP= 3.32D-11
 IDIUse=1 WtCom= 1.00D+00 WtEn= 0.00D+00
 Coeff-Com: -0.123D-04 0.267D-04 0.522D-05-0.232D-03 0.223D-03 0.544D-03
 Coeff-Com: -0.519D-03-0.149D-02 0.110D-02 0.405D-02-0.609D-02-0.557D-02
 Coeff-Com:  0.157D-01 0.329D-01-0.186D-01-0.279D+00 0.294D+00 0.963D+00
 Coeff:     -0.123D-04 0.267D-04 0.522D-05-0.232D-03 0.223D-03 0.544D-03
 Coeff:     -0.519D-03-0.149D-02 0.110D-02 0.405D-02-0.609D-02-0.557D-02
 Coeff:      0.157D-01 0.329D-01-0.186D-01-0.279D+00 0.294D+00 0.963D+00
 Gap=     0.237 Goal=   None    Shift=    0.000
 Gap=     0.237 Goal=   None    Shift=    0.000
 RMSDP=1.12D-08 MaxDP=5.01D-07 DE=-8.30D-11 OVMax= 2.68D-06

 Cycle  19  Pass 1  IDiag  1:
 RMSU=  3.63D-09    CP:  9.28D-01  2.21D+00  1.26D+00  2.90D+00  3.00D+00
                    CP:  3.00D+00  3.00D+00  3.00D+00  3.00D+00  2.54D+00
                    CP:  1.53D+00  1.54D+00  1.42D+00  1.62D+00  2.06D+00
                    CP:  2.49D+00  1.89D+00  1.44D+00
 E= -466.815571514739     Delta-E=       -0.000000000004 Rises=F Damp=F
 DIIS: error= 3.78D-08 at cycle  19 NSaved=  19.
 NSaved=19 IEnMin=19 EnMin= -466.815571514739     IErMin=19 ErrMin= 3.78D-08
 ErrMax= 3.78D-08  0.00D+00 EMaxC= 1.00D-01 BMatC= 8.40D-13 BMatP= 5.72D-12
 IDIUse=1 WtCom= 1.00D+00 WtEn= 0.00D+00
 Coeff-Com: -0.541D-05 0.117D-04 0.195D-05-0.925D-04 0.827D-04 0.247D-03
 Coeff-Com: -0.160D-03-0.660D-03 0.199D-03 0.161D-02-0.165D-02-0.267D-02
 Coeff-Com: -0.110D-02 0.146D-01 0.278D-01-0.860D-01-0.701D-01 0.282D+00
 Coeff-Com:  0.836D+00
 Coeff:     -0.541D-05 0.117D-04 0.195D-05-0.925D-04 0.827D-04 0.247D-03
 Coeff:     -0.160D-03-0.660D-03 0.199D-03 0.161D-02-0.165D-02-0.267D-02
 Coeff:     -0.110D-02 0.146D-01 0.278D-01-0.860D-01-0.701D-01 0.282D+00
 Coeff:      0.836D+00
 Gap=     0.237 Goal=   None    Shift=    0.000
 Gap=     0.237 Goal=   None    Shift=    0.000
 RMSDP=3.57D-09 MaxDP=1.90D-07 DE=-4.09D-12 OVMax= 1.01D-06

 Error on total polarization charges =  0.01176
 SCF Done:  E(UwB97XD) =  -466.815571515     A.U. after   19 cycles
            NFock= 19  Conv=0.36D-08     -V/T= 2.0059
 <Sx>= 0.0000 <Sy>= 0.0000 <Sz>= 0.0000 <S**2>= 0.5156 S= 0.3750
 <L.S>=  0.00000000000    
 KE= 4.640952918586D+02 PE=-2.464787655968D+03 EE= 8.422699685513D+02
 --------------------------------------------------------------------
 Variational PCM results
 =======================
 <psi(f)|   H    |psi(f)>                     (a.u.) =    -466.814206
 <psi(f)|H+V(f)/2|psi(f)>                     (a.u.) =    -466.815572
 (Polarized solute)-Solvent               (kcal/mol) =      -0.86
 --------------------------------------------------------------------
 Partition over spheres:
 Sphere  on Atom  Surface  Charge   GEl     GCav    GDR
    1      C1       7.43   0.011   -0.05    0.00    0.00
    2      C2       1.26   0.001   -0.00    0.00    0.00
    3      H3       7.52  -0.010   -0.03    0.00    0.00
    4      H4       3.10  -0.004   -0.01    0.00    0.00
    5      C5       4.78   0.009   -0.05    0.00    0.00
    6      C6       1.18   0.001   -0.00    0.00    0.00
    7      H7       4.90  -0.007   -0.03    0.00    0.00
    8      H8       3.30  -0.004   -0.01    0.00    0.00
    9      C9       3.11   0.002    0.00    0.00    0.00
   10      H10      6.88  -0.006   -0.01    0.00    0.00
   11      H11      3.59  -0.003   -0.01    0.00    0.00
   12      C12      6.70   0.011   -0.06    0.00    0.00
   13      H13      7.50  -0.010   -0.03    0.00    0.00
   14      C14      7.33   0.011   -0.05    0.00    0.00
   15      H15      7.52  -0.010   -0.03    0.00    0.00
   16      C16      3.10   0.001    0.00    0.00    0.00
   17      H17      4.04  -0.004   -0.02    0.00    0.00
   18      H18      7.47  -0.008   -0.03    0.00    0.00
   19      C19      5.12   0.009   -0.05    0.00    0.00
   20      H20      5.28  -0.007   -0.03    0.00    0.00
   21      C21      7.00   0.011   -0.06    0.00    0.00
   22      H22      7.52  -0.010   -0.03    0.00    0.00
   23      C23      3.01   0.002    0.00    0.00    0.00
   24      H24      3.84  -0.003   -0.01    0.00    0.00
   25      H25      6.83  -0.006   -0.01    0.00    0.00
   26      C26      3.25   0.001    0.00    0.00    0.00
   27      H27      7.40  -0.008   -0.03    0.00    0.00
   28      H28      4.19  -0.004   -0.02    0.00    0.00
 Added spheres:    74.49   0.020   -0.20    0.00    0.00
 --------------------------------------------------------------------
 After PCM corrections, the energy is  -466.815571515     a.u.
 --------------------------------------------------------------------
 Annihilation of the first spin contaminant:
 S**2 before annihilation     0.5156,   after     0.1243
 Leave Link  502 at Mon Aug  3 16:19:42 2020, MaxMem=  6442450944 cpu:            8077.9 elap:             339.4
 (Enter /scratch/scicomp/CentOS/7.3.1611/Haswell/software/Gaussian/g16/l601.exe)
 Copying SCF densities to generalized density rwf, IOpCl= 1 IROHF=0.

 **********************************************************************

            Population analysis using the SCF Density.

 **********************************************************************

 Alpha  occ. eigenvalues --  -10.29739 -10.29396 -10.28562 -10.28553 -10.28520
 Alpha  occ. eigenvalues --  -10.28208 -10.28158 -10.28132 -10.28116 -10.28018
 Alpha  occ. eigenvalues --  -10.27928 -10.27507  -0.94993  -0.93258  -0.85119
 Alpha  occ. eigenvalues --   -0.84469  -0.83666  -0.82628  -0.71389  -0.70398
 Alpha  occ. eigenvalues --   -0.69332  -0.67878  -0.60081  -0.59601  -0.58190
 Alpha  occ. eigenvalues --   -0.56378  -0.53359  -0.53179  -0.50955  -0.50190
 Alpha  occ. eigenvalues --   -0.49469  -0.48363  -0.47941  -0.47368  -0.46478
 Alpha  occ. eigenvalues --   -0.44734  -0.41483  -0.41086  -0.39907  -0.39650
 Alpha  occ. eigenvalues --   -0.39135  -0.37645  -0.31998  -0.24150
 Alpha virt. eigenvalues --   -0.00468   0.08561   0.10442   0.12477   0.13187
 Alpha virt. eigenvalues --    0.14261   0.14509   0.15473   0.15955   0.16317
 Alpha virt. eigenvalues --    0.16523   0.17185   0.18129   0.19445   0.20155
 Alpha virt. eigenvalues --    0.20690   0.21385   0.22677   0.23207   0.23699
 Alpha virt. eigenvalues --    0.24624   0.25150   0.26348   0.26509   0.27315
 Alpha virt. eigenvalues --    0.28536   0.28692   0.29929   0.30211   0.30530
 Alpha virt. eigenvalues --    0.31155   0.31790   0.31955   0.32886   0.33934
 Alpha virt. eigenvalues --    0.34421   0.35440   0.35999   0.36369   0.37230
 Alpha virt. eigenvalues --    0.37578   0.38774   0.41038   0.41463   0.42097
 Alpha virt. eigenvalues --    0.43445   0.43874   0.44603   0.45143   0.45562
 Alpha virt. eigenvalues --    0.46411   0.47174   0.48311   0.48491   0.48586
 Alpha virt. eigenvalues --    0.48639   0.49052   0.49234   0.49966   0.50205
 Alpha virt. eigenvalues --    0.50349   0.50864   0.51618   0.52022   0.52881
 Alpha virt. eigenvalues --    0.52910   0.54177   0.54512   0.54781   0.55690
 Alpha virt. eigenvalues --    0.56600   0.56931   0.58050   0.58819   0.59147
 Alpha virt. eigenvalues --    0.59382   0.60644   0.60722   0.63169   0.64776
 Alpha virt. eigenvalues --    0.66550   0.67238   0.67848   0.68616   0.68675
 Alpha virt. eigenvalues --    0.70795   0.72089   0.73039   0.76013   0.76093
 Alpha virt. eigenvalues --    0.77618   0.78758   0.79030   0.81540   0.81812
 Alpha virt. eigenvalues --    0.83125   0.84256   0.85676   0.87350   0.87773
 Alpha virt. eigenvalues --    0.88215   0.89488   0.93112   0.93905   0.94939
 Alpha virt. eigenvalues --    0.95837   0.97557   0.98102   0.98514   0.99394
 Alpha virt. eigenvalues --    1.01921   1.02205   1.03952   1.04398   1.05636
 Alpha virt. eigenvalues --    1.07173   1.07799   1.07883   1.09831   1.09944
 Alpha virt. eigenvalues --    1.12321   1.14031   1.15508   1.16712   1.17298
 Alpha virt. eigenvalues --    1.18325   1.18579   1.19250   1.19602   1.19755
 Alpha virt. eigenvalues --    1.20909   1.22332   1.24083   1.25762   1.25981
 Alpha virt. eigenvalues --    1.26869   1.27289   1.28047   1.28918   1.29139
 Alpha virt. eigenvalues --    1.30240   1.30555   1.33109   1.34023   1.34666
 Alpha virt. eigenvalues --    1.35010   1.35469   1.35678   1.38164   1.39232
 Alpha virt. eigenvalues --    1.39292   1.39741   1.40017   1.41712   1.42427
 Alpha virt. eigenvalues --    1.42986   1.43831   1.44118   1.44280   1.45212
 Alpha virt. eigenvalues --    1.46020   1.46331   1.47458   1.48019   1.49075
 Alpha virt. eigenvalues --    1.50638   1.53545   1.54968   1.56579   1.57592
 Alpha virt. eigenvalues --    1.59039   1.59844   1.59927   1.61316   1.63123
 Alpha virt. eigenvalues --    1.63888   1.65699   1.65860   1.67157   1.68370
 Alpha virt. eigenvalues --    1.72096   1.73426   1.75400   1.77383   1.78696
 Alpha virt. eigenvalues --    1.78936   1.80935   1.81942   1.85089   1.85477
 Alpha virt. eigenvalues --    1.87920   1.89883   1.90867   1.93141   1.94165
 Alpha virt. eigenvalues --    1.97029   1.97603   2.00726   2.02340   2.03764
 Alpha virt. eigenvalues --    2.06156   2.06599   2.08602   2.10511   2.10997
 Alpha virt. eigenvalues --    2.12626   2.15832   2.16459   2.16605   2.18125
 Alpha virt. eigenvalues --    2.18837   2.19953   2.20160   2.21206   2.24021
 Alpha virt. eigenvalues --    2.24956   2.25348   2.28213   2.30382   2.31852
 Alpha virt. eigenvalues --    2.34921   2.36582   2.38145   2.39130   2.44332
 Alpha virt. eigenvalues --    2.45187   2.47308   2.47465   2.48462   2.49826
 Alpha virt. eigenvalues --    2.50727   2.54446   2.54761   2.57079   2.57670
 Alpha virt. eigenvalues --    2.59124   2.59667   2.61518   2.62294   2.62980
 Alpha virt. eigenvalues --    2.64150   2.64846   2.66958   2.67997   2.68676
 Alpha virt. eigenvalues --    2.69335   2.71809   2.73136   2.73260   2.74079
 Alpha virt. eigenvalues --    2.74440   2.76285   2.76393   2.77574   2.77781
 Alpha virt. eigenvalues --    2.78981   2.80274   2.80490   2.82103   2.83273
 Alpha virt. eigenvalues --    2.83558   2.84003   2.84544   2.85865   2.86916
 Alpha virt. eigenvalues --    2.86991   2.87830   2.89693   2.90502   2.90852
 Alpha virt. eigenvalues --    2.92198   2.92852   2.93623   2.95024   2.96395
 Alpha virt. eigenvalues --    2.96743   2.98731   2.99413   3.00868   3.01834
 Alpha virt. eigenvalues --    3.02442   3.03382   3.05200   3.05681   3.06547
 Alpha virt. eigenvalues --    3.07970   3.08587   3.09716   3.10389   3.11275
 Alpha virt. eigenvalues --    3.12147   3.12659   3.13083   3.14317   3.14650
 Alpha virt. eigenvalues --    3.15658   3.16052   3.18018   3.18807   3.19720
 Alpha virt. eigenvalues --    3.20334   3.20723   3.21279   3.21975   3.22633
 Alpha virt. eigenvalues --    3.23364   3.24143   3.24826   3.25128   3.26461
 Alpha virt. eigenvalues --    3.26623   3.27171   3.27637   3.29690   3.29908
 Alpha virt. eigenvalues --    3.30079   3.31011   3.32026   3.32335   3.34665
 Alpha virt. eigenvalues --    3.35433   3.35758   3.36069   3.36486   3.37106
 Alpha virt. eigenvalues --    3.38500   3.39649   3.40359   3.40457   3.42017
 Alpha virt. eigenvalues --    3.42306   3.45219   3.45865   3.46116   3.46862
 Alpha virt. eigenvalues --    3.48130   3.48708   3.49226   3.50750   3.51200
 Alpha virt. eigenvalues --    3.52270   3.52858   3.53159   3.56276   3.57323
 Alpha virt. eigenvalues --    3.57461   3.57816   3.59042   3.59364   3.59637
 Alpha virt. eigenvalues --    3.61301   3.62373   3.62993   3.64772   3.65828
 Alpha virt. eigenvalues --    3.66110   3.67158   3.68485   3.69861   3.72164
 Alpha virt. eigenvalues --    3.72394   3.75447   3.77705   3.78918   3.80387
 Alpha virt. eigenvalues --    3.81065   3.81979   3.82227   3.82994   3.83726
 Alpha virt. eigenvalues --    3.85278   3.87740   3.90875   3.91753   3.92430
 Alpha virt. eigenvalues --    3.93418   3.95253   3.96372   4.00389   4.02012
 Alpha virt. eigenvalues --    4.02222   4.03743   4.06825   4.09779   4.10463
 Alpha virt. eigenvalues --    4.10881   4.11636   4.12957   4.15032   4.15467
 Alpha virt. eigenvalues --    4.17029   4.18436   4.19828   4.20503   4.21263
 Alpha virt. eigenvalues --    4.22762   4.24563   4.25495   4.27904   4.29690
 Alpha virt. eigenvalues --    4.32473   4.32747   4.34462   4.36024   4.37121
 Alpha virt. eigenvalues --    4.38713   4.44436   4.45181   4.46241   4.47516
 Alpha virt. eigenvalues --    4.49541   4.51309   4.51430   4.54862   4.55216
 Alpha virt. eigenvalues --    4.56862   4.58734   4.61508   4.65384   4.67019
 Alpha virt. eigenvalues --    4.69016   4.71852   4.75158   4.75380   4.76624
 Alpha virt. eigenvalues --    4.77708   4.79011   4.84324   4.87675   4.88709
 Alpha virt. eigenvalues --    4.92190   4.92606   4.93276   4.95352   4.97215
 Alpha virt. eigenvalues --    4.98842   5.02432   5.07353   5.09102   5.10710
 Alpha virt. eigenvalues --    5.16558   5.20513   5.22071   5.25860   5.26621
 Alpha virt. eigenvalues --    5.29428   5.36555   5.38500   5.39250   5.39342
 Alpha virt. eigenvalues --    5.42185   5.42486   5.51927   5.53646   5.63033
 Alpha virt. eigenvalues --    5.66308   5.70987   5.74079   5.84971   5.92350
 Alpha virt. eigenvalues --    7.94387   7.95094   8.02851   8.04104   8.05775
 Alpha virt. eigenvalues --    8.09866   8.10917   8.14481   8.18988   8.19275
 Alpha virt. eigenvalues --    8.34006   8.39752  34.76295  34.76676  34.81012
 Alpha virt. eigenvalues --   34.81571  34.83893  34.89660  34.98234  35.00317
 Alpha virt. eigenvalues --   35.00867  35.02512  35.17268  35.23374
  Beta  occ. eigenvalues --  -10.29739 -10.29396 -10.28562 -10.28553 -10.28520
  Beta  occ. eigenvalues --  -10.28207 -10.28158 -10.28132 -10.28115 -10.28019
  Beta  occ. eigenvalues --  -10.27928 -10.27506  -0.94993  -0.93258  -0.85119
  Beta  occ. eigenvalues --   -0.84469  -0.83666  -0.82628  -0.71390  -0.70398
  Beta  occ. eigenvalues --   -0.69332  -0.67878  -0.60081  -0.59601  -0.58190
  Beta  occ. eigenvalues --   -0.56378  -0.53359  -0.53179  -0.50955  -0.50190
  Beta  occ. eigenvalues --   -0.49469  -0.48363  -0.47941  -0.47367  -0.46478
  Beta  occ. eigenvalues --   -0.44734  -0.41483  -0.41086  -0.39907  -0.39649
  Beta  occ. eigenvalues --   -0.39135  -0.37645  -0.31998  -0.24150
  Beta virt. eigenvalues --   -0.00467   0.08561   0.10442   0.12477   0.13187
  Beta virt. eigenvalues --    0.14261   0.14509   0.15473   0.15955   0.16317
  Beta virt. eigenvalues --    0.16523   0.17185   0.18129   0.19445   0.20155
  Beta virt. eigenvalues --    0.20690   0.21385   0.22677   0.23206   0.23700
  Beta virt. eigenvalues --    0.24624   0.25150   0.26348   0.26509   0.27315
  Beta virt. eigenvalues --    0.28536   0.28692   0.29929   0.30211   0.30530
  Beta virt. eigenvalues --    0.31155   0.31790   0.31955   0.32886   0.33934
  Beta virt. eigenvalues --    0.34421   0.35440   0.35999   0.36369   0.37230
  Beta virt. eigenvalues --    0.37578   0.38774   0.41038   0.41463   0.42097
  Beta virt. eigenvalues --    0.43445   0.43874   0.44603   0.45143   0.45562
  Beta virt. eigenvalues --    0.46411   0.47174   0.48311   0.48491   0.48586
  Beta virt. eigenvalues --    0.48639   0.49052   0.49234   0.49966   0.50205
  Beta virt. eigenvalues --    0.50349   0.50864   0.51618   0.52022   0.52881
  Beta virt. eigenvalues --    0.52910   0.54177   0.54512   0.54781   0.55690
  Beta virt. eigenvalues --    0.56600   0.56931   0.58050   0.58819   0.59147
  Beta virt. eigenvalues --    0.59382   0.60644   0.60722   0.63169   0.64776
  Beta virt. eigenvalues --    0.66550   0.67238   0.67848   0.68615   0.68675
  Beta virt. eigenvalues --    0.70795   0.72089   0.73039   0.76013   0.76093
  Beta virt. eigenvalues --    0.77618   0.78758   0.79030   0.81540   0.81812
  Beta virt. eigenvalues --    0.83125   0.84256   0.85676   0.87350   0.87773
  Beta virt. eigenvalues --    0.88215   0.89488   0.93112   0.93905   0.94939
  Beta virt. eigenvalues --    0.95837   0.97557   0.98102   0.98514   0.99394
  Beta virt. eigenvalues --    1.01921   1.02205   1.03952   1.04398   1.05636
  Beta virt. eigenvalues --    1.07173   1.07799   1.07883   1.09831   1.09944
  Beta virt. eigenvalues --    1.12321   1.14031   1.15508   1.16712   1.17298
  Beta virt. eigenvalues --    1.18325   1.18579   1.19250   1.19602   1.19755
  Beta virt. eigenvalues --    1.20909   1.22332   1.24083   1.25762   1.25981
  Beta virt. eigenvalues --    1.26869   1.27289   1.28047   1.28917   1.29140
  Beta virt. eigenvalues --    1.30240   1.30555   1.33109   1.34023   1.34666
  Beta virt. eigenvalues --    1.35010   1.35469   1.35678   1.38164   1.39232
  Beta virt. eigenvalues --    1.39292   1.39742   1.40017   1.41712   1.42427
  Beta virt. eigenvalues --    1.42986   1.43831   1.44117   1.44281   1.45212
  Beta virt. eigenvalues --    1.46020   1.46331   1.47458   1.48019   1.49075
  Beta virt. eigenvalues --    1.50638   1.53545   1.54968   1.56579   1.57592
  Beta virt. eigenvalues --    1.59039   1.59843   1.59928   1.61316   1.63123
  Beta virt. eigenvalues --    1.63888   1.65699   1.65860   1.67157   1.68370
  Beta virt. eigenvalues --    1.72096   1.73427   1.75400   1.77383   1.78696
  Beta virt. eigenvalues --    1.78936   1.80935   1.81942   1.85089   1.85477
  Beta virt. eigenvalues --    1.87920   1.89883   1.90867   1.93141   1.94165
  Beta virt. eigenvalues --    1.97029   1.97603   2.00726   2.02340   2.03764
  Beta virt. eigenvalues --    2.06156   2.06599   2.08601   2.10511   2.10997
  Beta virt. eigenvalues --    2.12626   2.15832   2.16459   2.16605   2.18125
  Beta virt. eigenvalues --    2.18837   2.19953   2.20160   2.21206   2.24021
  Beta virt. eigenvalues --    2.24956   2.25348   2.28213   2.30382   2.31851
  Beta virt. eigenvalues --    2.34921   2.36582   2.38145   2.39130   2.44332
  Beta virt. eigenvalues --    2.45187   2.47308   2.47465   2.48462   2.49826
  Beta virt. eigenvalues --    2.50727   2.54446   2.54761   2.57079   2.57670
  Beta virt. eigenvalues --    2.59124   2.59667   2.61518   2.62294   2.62980
  Beta virt. eigenvalues --    2.64150   2.64846   2.66958   2.67997   2.68676
  Beta virt. eigenvalues --    2.69335   2.71809   2.73136   2.73260   2.74079
  Beta virt. eigenvalues --    2.74440   2.76285   2.76393   2.77574   2.77781
  Beta virt. eigenvalues --    2.78981   2.80274   2.80490   2.82103   2.83273
  Beta virt. eigenvalues --    2.83558   2.84003   2.84544   2.85865   2.86916
  Beta virt. eigenvalues --    2.86991   2.87830   2.89693   2.90502   2.90852
  Beta virt. eigenvalues --    2.92198   2.92852   2.93623   2.95024   2.96395
  Beta virt. eigenvalues --    2.96743   2.98731   2.99413   3.00868   3.01834
  Beta virt. eigenvalues --    3.02442   3.03382   3.05200   3.05681   3.06547
  Beta virt. eigenvalues --    3.07970   3.08587   3.09716   3.10389   3.11275
  Beta virt. eigenvalues --    3.12147   3.12659   3.13083   3.14317   3.14650
  Beta virt. eigenvalues --    3.15658   3.16052   3.18018   3.18807   3.19720
  Beta virt. eigenvalues --    3.20334   3.20723   3.21279   3.21975   3.22633
  Beta virt. eigenvalues --    3.23364   3.24143   3.24826   3.25128   3.26461
  Beta virt. eigenvalues --    3.26623   3.27170   3.27638   3.29690   3.29908
  Beta virt. eigenvalues --    3.30079   3.31011   3.32026   3.32335   3.34665
  Beta virt. eigenvalues --    3.35433   3.35758   3.36069   3.36486   3.37106
  Beta virt. eigenvalues --    3.38500   3.39648   3.40359   3.40457   3.42017
  Beta virt. eigenvalues --    3.42306   3.45219   3.45865   3.46116   3.46862
  Beta virt. eigenvalues --    3.48130   3.48708   3.49227   3.50750   3.51201
  Beta virt. eigenvalues --    3.52270   3.52858   3.53159   3.56276   3.57323
  Beta virt. eigenvalues --    3.57461   3.57816   3.59042   3.59364   3.59637
  Beta virt. eigenvalues --    3.61301   3.62373   3.62993   3.64772   3.65828
  Beta virt. eigenvalues --    3.66110   3.67158   3.68484   3.69861   3.72164
  Beta virt. eigenvalues --    3.72394   3.75447   3.77705   3.78918   3.80387
  Beta virt. eigenvalues --    3.81065   3.81979   3.82227   3.82994   3.83726
  Beta virt. eigenvalues --    3.85278   3.87740   3.90875   3.91753   3.92430
  Beta virt. eigenvalues --    3.93418   3.95253   3.96373   4.00389   4.02012
  Beta virt. eigenvalues --    4.02222   4.03743   4.06825   4.09779   4.10463
  Beta virt. eigenvalues --    4.10881   4.11636   4.12957   4.15032   4.15467
  Beta virt. eigenvalues --    4.17029   4.18436   4.19828   4.20503   4.21263
  Beta virt. eigenvalues --    4.22762   4.24563   4.25495   4.27904   4.29690
  Beta virt. eigenvalues --    4.32473   4.32747   4.34462   4.36024   4.37121
  Beta virt. eigenvalues --    4.38713   4.44436   4.45181   4.46241   4.47516
  Beta virt. eigenvalues --    4.49541   4.51310   4.51430   4.54862   4.55216
  Beta virt. eigenvalues --    4.56862   4.58734   4.61508   4.65384   4.67020
  Beta virt. eigenvalues --    4.69016   4.71852   4.75158   4.75380   4.76624
  Beta virt. eigenvalues --    4.77708   4.79011   4.84324   4.87675   4.88709
  Beta virt. eigenvalues --    4.92190   4.92606   4.93276   4.95352   4.97215
  Beta virt. eigenvalues --    4.98842   5.02432   5.07353   5.09102   5.10710
  Beta virt. eigenvalues --    5.16558   5.20513   5.22071   5.25860   5.26621
  Beta virt. eigenvalues --    5.29428   5.36555   5.38500   5.39250   5.39341
  Beta virt. eigenvalues --    5.42185   5.42486   5.51927   5.53646   5.63033
  Beta virt. eigenvalues --    5.66308   5.70987   5.74079   5.84971   5.92350
  Beta virt. eigenvalues --    7.94387   7.95094   8.02851   8.04105   8.05775
  Beta virt. eigenvalues --    8.09866   8.10916   8.14481   8.18988   8.19275
  Beta virt. eigenvalues --    8.34006   8.39752  34.76295  34.76676  34.81012
  Beta virt. eigenvalues --   34.81571  34.83893  34.89660  34.98234  35.00317
  Beta virt. eigenvalues --   35.00867  35.02512  35.17268  35.23374
          Condensed to atoms (all electrons):
               1          2          3          4          5          6
     1  C    5.195038   0.003507   0.426604  -0.003064   0.001785  -0.007180
     2  C    0.003507   5.365852  -0.001802   0.433375  -0.112879   0.130022
     3  H    0.426604  -0.001802   0.494596   0.000045  -0.000023   0.000121
     4  H   -0.003064   0.433375   0.000045   0.498522  -0.011702  -0.012999
     5  C    0.001785  -0.112879  -0.000023  -0.011702   5.264223   0.420176
     6  C   -0.007180   0.130022   0.000121  -0.012999   0.420176   5.365867
     7  H    0.000086  -0.002061   0.000003   0.000103   0.439960  -0.035629
     8  H    0.000846  -0.012993  -0.000118   0.000870  -0.043345   0.433370
     9  C    0.002658  -0.045373  -0.000006  -0.004564  -0.055891   0.254211
    10  H   -0.000030   0.006148  -0.000001  -0.000537  -0.005393  -0.048079
    11  H   -0.000168  -0.007678   0.000004   0.001055   0.010985  -0.059433
    12  C   -0.000243   0.016736  -0.000000   0.006681   0.331574  -0.067346
    13  H   -0.000001   0.000166   0.000000   0.000049  -0.034577   0.003966
    14  C    0.000100  -0.007181  -0.000000   0.000848  -0.050522   0.003508
    15  H   -0.000000   0.000122  -0.000000  -0.000118   0.005282  -0.001804
    16  C   -0.000388   0.014318   0.000000  -0.001200   0.000022  -0.074862
    17  H    0.000032   0.001511  -0.000000  -0.005149   0.009466  -0.004987
    18  H    0.000001   0.000070   0.000000   0.000459  -0.003025   0.012636
    19  C   -0.050536   0.420216   0.005276  -0.043343  -0.019367  -0.112846
    20  H    0.005117  -0.035611  -0.000149  -0.006318  -0.000288  -0.002058
    21  C    0.531058  -0.067375  -0.032849   0.007033   0.003322   0.016727
    22  H   -0.029181   0.003956  -0.006170  -0.000090   0.000061   0.000166
    23  C   -0.089899   0.254215   0.005423  -0.017959   0.008304  -0.045365
    24  H    0.013199  -0.059425  -0.000087  -0.003665   0.006612  -0.007678
    25  H    0.003273  -0.048075  -0.000061  -0.004049   0.000024   0.006149
    26  C    0.273326  -0.074884  -0.030828   0.007493  -0.010444   0.014318
    27  H   -0.031953   0.012638  -0.004319  -0.000118   0.000334   0.000070
    28  H   -0.034682  -0.004985   0.000994  -0.000192  -0.004134   0.001511
               7          8          9         10         11         12
     1  C    0.000086   0.000846   0.002658  -0.000030  -0.000168  -0.000243
     2  C   -0.002061  -0.012993  -0.045373   0.006148  -0.007678   0.016736
     3  H    0.000003  -0.000118  -0.000006  -0.000001   0.000004  -0.000000
     4  H    0.000103   0.000870  -0.004564  -0.000537   0.001055   0.006681
     5  C    0.439960  -0.043345  -0.055891  -0.005393   0.010985   0.331574
     6  C   -0.035629   0.433370   0.254211  -0.048079  -0.059433  -0.067346
     7  H    0.484162  -0.006322   0.003843   0.000026  -0.000041  -0.038719
     8  H   -0.006322   0.498522  -0.017953  -0.004050  -0.003665   0.007033
     9  C    0.003843  -0.017953   4.975125   0.405050   0.457474   0.029628
    10  H    0.000026  -0.004050   0.405050   0.571948  -0.020228   0.001200
    11  H   -0.000041  -0.003665   0.457474  -0.020228   0.533518  -0.004891
    12  C   -0.038719   0.007033   0.029628   0.001200  -0.004891   5.027904
    13  H   -0.004105  -0.000090   0.000362  -0.000133   0.000038   0.424341
    14  C    0.005122  -0.003064  -0.089907   0.003262   0.013202   0.531019
    15  H   -0.000149   0.000045   0.005423  -0.000061  -0.000087  -0.032888
    16  C   -0.001429   0.007492   0.342308  -0.026205  -0.054048  -0.051444
    17  H    0.000006  -0.000192  -0.030416   0.006242  -0.006534  -0.011796
    18  H    0.000047  -0.000118  -0.040936  -0.008557  -0.001531   0.005206
    19  C   -0.000288  -0.011702   0.008288   0.000025   0.006615   0.003323
    20  H    0.000002   0.000103   0.002637   0.000372  -0.002857  -0.000085
    21  C   -0.000085   0.006681  -0.002405  -0.000199  -0.000058  -0.000304
    22  H   -0.000001   0.000049  -0.000078  -0.000002  -0.000029  -0.000001
    23  C    0.002638  -0.004569   0.005818  -0.000260   0.000312  -0.002407
    24  H   -0.002860   0.001055   0.000312  -0.000035  -0.000011  -0.000059
    25  H    0.000372  -0.000537  -0.000261   0.000019  -0.000035  -0.000199
    26  C   -0.001396  -0.001198  -0.001672   0.000067  -0.000076   0.001338
    27  H   -0.000026   0.000459   0.000018  -0.000000  -0.000003  -0.000031
    28  H    0.002235  -0.005151   0.000545   0.000011   0.000021   0.000217
              13         14         15         16         17         18
     1  C   -0.000001   0.000100  -0.000000  -0.000388   0.000032   0.000001
     2  C    0.000166  -0.007181   0.000122   0.014318   0.001511   0.000070
     3  H    0.000000  -0.000000  -0.000000   0.000000  -0.000000   0.000000
     4  H    0.000049   0.000848  -0.000118  -0.001200  -0.005149   0.000459
     5  C   -0.034577  -0.050522   0.005282   0.000022   0.009466  -0.003025
     6  C    0.003966   0.003508  -0.001804  -0.074862  -0.004987   0.012636
     7  H   -0.004105   0.005122  -0.000149  -0.001429   0.000006   0.000047
     8  H   -0.000090  -0.003064   0.000045   0.007492  -0.000192  -0.000118
     9  C    0.000362  -0.089907   0.005423   0.342308  -0.030416  -0.040936
    10  H   -0.000133   0.003262  -0.000061  -0.026205   0.006242  -0.008557
    11  H    0.000038   0.013202  -0.000087  -0.054048  -0.006534  -0.001531
    12  C    0.424341   0.531019  -0.032888  -0.051444  -0.011796   0.005206
    13  H    0.497010  -0.029162  -0.006171   0.004733  -0.000449  -0.000131
    14  C   -0.029162   5.195084   0.426628   0.273335  -0.034683  -0.031941
    15  H   -0.006171   0.426628   0.494592  -0.030816   0.000994  -0.004319
    16  C    0.004733   0.273335  -0.030816   4.969502   0.399607   0.421488
    17  H   -0.000449  -0.034683   0.000994   0.399607   0.583353  -0.023065
    18  H   -0.000131  -0.031941  -0.004319   0.421488  -0.023065   0.545733
    19  C    0.000061   0.001785  -0.000023  -0.010447  -0.004134   0.000335
    20  H   -0.000001   0.000085   0.000003  -0.001395   0.002233  -0.000026
    21  C   -0.000001  -0.000243  -0.000000   0.001337   0.000216  -0.000031
    22  H    0.000000  -0.000001   0.000000   0.000005  -0.000001  -0.000001
    23  C   -0.000078   0.002659  -0.000006  -0.001672   0.000545   0.000018
    24  H   -0.000029  -0.000168   0.000004  -0.000076   0.000021  -0.000003
    25  H   -0.000002  -0.000030  -0.000001   0.000067   0.000011  -0.000000
    26  C    0.000005  -0.000388   0.000000   0.000389  -0.000030  -0.000001
    27  H   -0.000001   0.000001   0.000000  -0.000001   0.000001  -0.000000
    28  H   -0.000001   0.000032  -0.000000  -0.000030  -0.000012   0.000001
              19         20         21         22         23         24
     1  C   -0.050536   0.005117   0.531058  -0.029181  -0.089899   0.013199
     2  C    0.420216  -0.035611  -0.067375   0.003956   0.254215  -0.059425
     3  H    0.005276  -0.000149  -0.032849  -0.006170   0.005423  -0.000087
     4  H   -0.043343  -0.006318   0.007033  -0.000090  -0.017959  -0.003665
     5  C   -0.019367  -0.000288   0.003322   0.000061   0.008304   0.006612
     6  C   -0.112846  -0.002058   0.016727   0.000166  -0.045365  -0.007678
     7  H   -0.000288   0.000002  -0.000085  -0.000001   0.002638  -0.002860
     8  H   -0.011702   0.000103   0.006681   0.000049  -0.004569   0.001055
     9  C    0.008288   0.002637  -0.002405  -0.000078   0.005818   0.000312
    10  H    0.000025   0.000372  -0.000199  -0.000002  -0.000260  -0.000035
    11  H    0.006615  -0.002857  -0.000058  -0.000029   0.000312  -0.000011
    12  C    0.003323  -0.000085  -0.000304  -0.000001  -0.002407  -0.000059
    13  H    0.000061  -0.000001  -0.000001   0.000000  -0.000078  -0.000029
    14  C    0.001785   0.000085  -0.000243  -0.000001   0.002659  -0.000168
    15  H   -0.000023   0.000003  -0.000000   0.000000  -0.000006   0.000004
    16  C   -0.010447  -0.001395   0.001337   0.000005  -0.001672  -0.000076
    17  H   -0.004134   0.002233   0.000216  -0.000001   0.000545   0.000021
    18  H    0.000335  -0.000026  -0.000031  -0.000001   0.000018  -0.000003
    19  C    5.264255   0.439961   0.331627  -0.034550  -0.055895   0.010984
    20  H    0.439961   0.484004  -0.038719  -0.004103   0.003840  -0.000041
    21  C    0.331627  -0.038719   5.027858   0.424345   0.029635  -0.004890
    22  H   -0.034550  -0.004103   0.424345   0.496982   0.000362   0.000038
    23  C   -0.055895   0.003840   0.029635   0.000362   4.975122   0.457471
    24  H    0.010984  -0.000041  -0.004890   0.000038   0.457471   0.533471
    25  H   -0.005398   0.000026   0.001198  -0.000133   0.405052  -0.020228
    26  C    0.000041  -0.001428  -0.051455   0.004734   0.342292  -0.054038
    27  H   -0.003026   0.000047   0.005209  -0.000131  -0.040923  -0.001533
    28  H    0.009461   0.000006  -0.011793  -0.000449  -0.030420  -0.006533
              25         26         27         28
     1  C    0.003273   0.273326  -0.031953  -0.034682
     2  C   -0.048075  -0.074884   0.012638  -0.004985
     3  H   -0.000061  -0.030828  -0.004319   0.000994
     4  H   -0.004049   0.007493  -0.000118  -0.000192
     5  C    0.000024  -0.010444   0.000334  -0.004134
     6  C    0.006149   0.014318   0.000070   0.001511
     7  H    0.000372  -0.001396  -0.000026   0.002235
     8  H   -0.000537  -0.001198   0.000459  -0.005151
     9  C   -0.000261  -0.001672   0.000018   0.000545
    10  H    0.000019   0.000067  -0.000000   0.000011
    11  H   -0.000035  -0.000076  -0.000003   0.000021
    12  C   -0.000199   0.001338  -0.000031   0.000217
    13  H   -0.000002   0.000005  -0.000001  -0.000001
    14  C   -0.000030  -0.000388   0.000001   0.000032
    15  H   -0.000001   0.000000   0.000000  -0.000000
    16  C    0.000067   0.000389  -0.000001  -0.000030
    17  H    0.000011  -0.000030   0.000001  -0.000012
    18  H   -0.000000  -0.000001  -0.000000   0.000001
    19  C   -0.005398   0.000041  -0.003026   0.009461
    20  H    0.000026  -0.001428   0.000047   0.000006
    21  C    0.001198  -0.051455   0.005209  -0.011793
    22  H   -0.000133   0.004734  -0.000131  -0.000449
    23  C    0.405052   0.342292  -0.040923  -0.030420
    24  H   -0.020228  -0.054038  -0.001533  -0.006533
    25  H    0.571947  -0.026219  -0.008553   0.006242
    26  C   -0.026219   4.969557   0.421489   0.399599
    27  H   -0.008553   0.421489   0.545717  -0.023065
    28  H    0.006242   0.399599  -0.023065   0.583369
          Atomic-Atomic Spin Densities.
               1          2          3          4          5          6
     1  C    0.377231   0.000020  -0.000262   0.000196   0.000303   0.004648
     2  C    0.000020  -0.338069   0.000068   0.007591   0.075733  -0.000022
     3  H   -0.000262   0.000068  -0.013894   0.000000  -0.000000  -0.000037
     4  H    0.000196   0.007591   0.000000   0.015787  -0.006086  -0.013678
     5  C    0.000303   0.075733  -0.000000  -0.006086  -0.552107   0.025568
     6  C    0.004648  -0.000022  -0.000037  -0.013678   0.025568   0.338068
     7  H   -0.000002  -0.000464  -0.000000  -0.000013   0.001591   0.000182
     8  H   -0.001619   0.013678   0.000005  -0.000000  -0.002099  -0.007587
     9  C   -0.000036   0.014087   0.000001   0.001627  -0.002716  -0.019563
    10  H    0.000060  -0.000991   0.000000  -0.000109   0.001620  -0.004305
    11  H   -0.000244  -0.000257   0.000001   0.000273  -0.000379  -0.003769
    12  C   -0.000087  -0.011219   0.000000   0.003352   0.016514  -0.019546
    13  H   -0.000000  -0.000163   0.000000   0.000047   0.000842  -0.000338
    14  C   -0.000000  -0.004648   0.000000   0.001620   0.033204  -0.000021
    15  H   -0.000000   0.000037   0.000000  -0.000005   0.000062  -0.000068
    16  C   -0.000023   0.000239  -0.000000  -0.000617  -0.001782   0.000066
    17  H    0.000017   0.003657   0.000000  -0.001391  -0.003910   0.003136
    18  H   -0.000000  -0.000343  -0.000000   0.000070   0.000498  -0.000613
    19  C   -0.033206  -0.025543  -0.000062   0.002098   0.000002  -0.075722
    20  H   -0.000229  -0.000181   0.000004   0.000227   0.000096   0.000465
    21  C    0.005057   0.019536  -0.000003  -0.001566  -0.001643   0.011215
    22  H   -0.000327   0.000337   0.000136  -0.000026  -0.000014   0.000162
    23  C    0.003013   0.019570  -0.000171   0.002708  -0.005356  -0.014078
    24  H    0.000220   0.003768   0.000003  -0.000477  -0.004732   0.000258
    25  H   -0.001185   0.004305  -0.000003   0.000291   0.001401   0.000990
    26  C   -0.018065  -0.000065   0.000623  -0.000092  -0.000937  -0.000239
    27  H   -0.004741   0.000612   0.000059  -0.000043   0.000027   0.000343
    28  H   -0.010779  -0.003134   0.000045   0.000202   0.000335  -0.003658
               7          8          9         10         11         12
     1  C   -0.000002  -0.001619  -0.000036   0.000060  -0.000244  -0.000087
     2  C   -0.000464   0.013678   0.014087  -0.000991  -0.000257  -0.011219
     3  H   -0.000000   0.000005   0.000001   0.000000   0.000001   0.000000
     4  H   -0.000013  -0.000000   0.001627  -0.000109   0.000273   0.003352
     5  C    0.001591  -0.002099  -0.002716   0.001620  -0.000379   0.016514
     6  C    0.000182  -0.007587  -0.019563  -0.004305  -0.003769  -0.019546
     7  H    0.018233  -0.000228   0.000173   0.000027  -0.000008  -0.001714
     8  H   -0.000228  -0.015787  -0.002709  -0.000291   0.000477   0.001566
     9  C    0.000173  -0.002709  -0.009913   0.004041   0.000916   0.005250
    10  H    0.000027  -0.000291   0.004041   0.011895  -0.002325  -0.000714
    11  H   -0.000008   0.000477   0.000916  -0.002325   0.003844   0.000264
    12  C   -0.001714   0.001566   0.005250  -0.000714   0.000264   0.175522
    13  H   -0.000184   0.000026   0.000126  -0.000028   0.000003  -0.000868
    14  C    0.000229  -0.000196  -0.003015   0.001185  -0.000220  -0.005058
    15  H   -0.000004  -0.000000   0.000171   0.000003  -0.000003   0.000002
    16  C   -0.000054   0.000092  -0.002029  -0.002035   0.000571  -0.003596
    17  H    0.000013  -0.000202   0.000673   0.000219  -0.000277   0.001228
    18  H   -0.000000   0.000043  -0.001417   0.000128  -0.000006  -0.000788
    19  C   -0.000096   0.006083   0.005355  -0.001401   0.004733   0.001643
    20  H    0.000000   0.000013  -0.000165  -0.000004   0.000108  -0.000032
    21  C    0.000032  -0.003351  -0.000839   0.000166  -0.000539   0.000000
    22  H    0.000000  -0.000047  -0.000011   0.000002  -0.000021   0.000000
    23  C    0.000165  -0.001627  -0.000001  -0.000005   0.000168   0.000839
    24  H   -0.000108  -0.000273  -0.000168   0.000005  -0.000000   0.000539
    25  H    0.000004   0.000109   0.000005  -0.000000  -0.000005  -0.000166
    26  C   -0.000078   0.000616  -0.000032  -0.000011   0.000016   0.000180
    27  H   -0.000001  -0.000070  -0.000007   0.000000  -0.000002  -0.000013
    28  H    0.000011   0.001390   0.000180  -0.000026   0.000040   0.000125
              13         14         15         16         17         18
     1  C   -0.000000  -0.000000  -0.000000  -0.000023   0.000017  -0.000000
     2  C   -0.000163  -0.004648   0.000037   0.000239   0.003657  -0.000343
     3  H    0.000000   0.000000   0.000000  -0.000000   0.000000  -0.000000
     4  H    0.000047   0.001620  -0.000005  -0.000617  -0.001391   0.000070
     5  C    0.000842   0.033204   0.000062  -0.001782  -0.003910   0.000498
     6  C   -0.000338  -0.000021  -0.000068   0.000066   0.003136  -0.000613
     7  H   -0.000184   0.000229  -0.000004  -0.000054   0.000013  -0.000000
     8  H    0.000026  -0.000196  -0.000000   0.000092  -0.000202   0.000043
     9  C    0.000126  -0.003015   0.000171  -0.002029   0.000673  -0.001417
    10  H   -0.000028   0.001185   0.000003  -0.002035   0.000219   0.000128
    11  H    0.000003  -0.000220  -0.000003   0.000571  -0.000277  -0.000006
    12  C   -0.000868  -0.005058   0.000002  -0.003596   0.001228  -0.000788
    13  H   -0.006074   0.000327  -0.000136  -0.000063   0.000026  -0.000013
    14  C    0.000327  -0.377231   0.000263   0.018068   0.010780   0.004740
    15  H   -0.000136   0.000263   0.013894  -0.000623  -0.000045  -0.000059
[...]
     2  C    0.004305  -0.000065   0.000612  -0.003134
     3  H   -0.000003   0.000623   0.000059   0.000045
     4  H    0.000291  -0.000092  -0.000043   0.000202
     5  C    0.001401  -0.000937   0.000027   0.000335
     6  C    0.000990  -0.000239   0.000343  -0.003658
     7  H    0.000004  -0.000078  -0.000001   0.000011
     8  H    0.000109   0.000616  -0.000070   0.001390
     9  C    0.000005  -0.000032  -0.000007   0.000180
    10  H   -0.000000  -0.000011   0.000000  -0.000026
    11  H   -0.000005   0.000016  -0.000002   0.000040
    12  C   -0.000166   0.000180  -0.000013   0.000125
    13  H   -0.000002   0.000002  -0.000000   0.000002
    14  C   -0.000060   0.000023   0.000000  -0.000017
    15  H   -0.000000   0.000000   0.000000  -0.000000
    16  C    0.000011  -0.000000  -0.000000   0.000013
    17  H    0.000026  -0.000013   0.000000  -0.000000
    18  H   -0.000000   0.000000  -0.000000  -0.000000
    19  C   -0.001620   0.001783  -0.000498   0.003909
    20  H   -0.000027   0.000054   0.000000  -0.000013
    21  C    0.000714   0.003595   0.000787  -0.001227
    22  H    0.000028   0.000063   0.000013  -0.000026
    23  C   -0.004040   0.002031   0.001418  -0.000675
    24  H    0.002325  -0.000571   0.000006   0.000277
    25  H   -0.011896   0.002036  -0.000128  -0.000219
    26  C    0.002036  -0.021476   0.002773   0.006061
    27  H   -0.000128   0.002773   0.012118  -0.004891
    28  H   -0.000219   0.006061  -0.004891   0.029196
 Mulliken charges and spin densities:
               1          2
     1  C   -0.209304   0.319958
     2  C   -0.182530  -0.221864
     3  H    0.143345  -0.013488
     4  H    0.158533   0.011985
     5  C   -0.150542  -0.423967
     6  C   -0.182552   0.221859
     7  H    0.154507   0.017704
     8  H    0.158542  -0.011985
     9  C   -0.204236  -0.010015
    10  H    0.119400   0.007106
    11  H    0.138149   0.003359
    12  C   -0.175785   0.163224
    13  H    0.144201  -0.006423
    14  C   -0.209380  -0.319958
    15  H    0.143351   0.013488
    16  C   -0.180589   0.021723
    17  H    0.117211  -0.017120
    18  H    0.127690  -0.007765
    19  C   -0.150696   0.423971
    20  H    0.154644  -0.017702
    21  C   -0.175839  -0.163226
    22  H    0.144221   0.006423
    23  C   -0.204251   0.010015
    24  H    0.138192  -0.003359
    25  H    0.119401  -0.007106
    26  C   -0.180587  -0.021723
    27  H    0.127700   0.007765
    28  H    0.117204   0.017121
 Sum of Mulliken charges =  -0.00000   0.00000
 Mulliken charges and spin densities with hydrogens summed into heavy atoms:
               1          2
     1  C   -0.065959   0.306470
     2  C   -0.023996  -0.209879
     5  C    0.003964  -0.406262
     6  C   -0.024010   0.209873
     9  C    0.053313   0.000450
    12  C   -0.031585   0.156801
    14  C   -0.066029  -0.306470
    16  C    0.064312  -0.003161
    19  C    0.003947   0.406269
    21  C   -0.031617  -0.156803
    23  C    0.053342  -0.000449
    26  C    0.064317   0.003162
 Electronic spatial extent (au):  <R**2>=           2193.2577
 Charge=             -0.0000 electrons
 Dipole moment (field-independent basis, Debye):
    X=              0.0002    Y=             -0.0009    Z=             -0.0001  Tot=              0.0010
 Quadrupole moment (field-independent basis, Debye-Ang):
   XX=            -72.5217   YY=            -70.5493   ZZ=            -76.6821
   XY=             -3.0388   XZ=             -3.1383   YZ=             -0.8200
 Traceless Quadrupole moment (field-independent basis, Debye-Ang):
   XX=              0.7294   YY=              2.7017   ZZ=             -3.4311
   XY=             -3.0388   XZ=             -3.1383   YZ=             -0.8200
 Octapole moment (field-independent basis, Debye-Ang**2):
  XXX=              0.0099  YYY=             -0.0070  ZZZ=              0.0002  XYY=             -0.0031
  XXY=             -0.0033  XXZ=             -0.0006  XZZ=              0.0000  YZZ=             -0.0008
  YYZ=             -0.0020  XYZ=              0.0002
 Hexadecapole moment (field-independent basis, Debye-Ang**3):
 XXXX=          -2032.1281 YYYY=           -631.5541 ZZZZ=           -317.3048 XXXY=            -97.2146
 XXXZ=           -116.3634 YYYX=            -58.6112 YYYZ=             -0.2373 ZZZX=            -65.8556
 ZZZY=             -8.5571 XXYY=           -442.1737 XXZZ=           -417.7343 YYZZ=           -173.2726
 XXYZ=            -19.9465 YYXZ=            -24.9761 ZZXY=            -41.4140
 N-N= 6.916068240435D+02 E-N=-2.464787655142D+03  KE= 4.640952918586D+02
                          Isotropic Fermi Contact Couplings
        Atom                 a.u.       MegaHertz       Gauss      10(-4) cm-1
     1  C(13)              0.02430      13.65901       4.87387       4.55616
     2  C(13)             -0.06584     -37.01041     -13.20623     -12.34534
     3  H(1)              -0.00481     -10.75415      -3.83735      -3.58720
     4  H(1)               0.00665      14.85623       5.30107       4.95551
     5  C(13)             -0.03353     -18.84813      -6.72548      -6.28706
     6  C(13)              0.06585      37.01281      13.20709      12.34614
     7  H(1)               0.00637      14.23916       5.08089       4.74967
     8  H(1)              -0.00665     -14.85662      -5.30121      -4.95563
     9  C(13)             -0.00875      -4.91698      -1.75450      -1.64013
    10  H(1)               0.00382       8.53649       3.04603       2.84747
    11  H(1)               0.00086       1.92579       0.68717       0.64237
    12  C(13)              0.02809      15.78821       5.63363       5.26638
    13  H(1)              -0.00211      -4.71377      -1.68199      -1.57234
    14  C(13)             -0.02430     -13.65892      -4.87384      -4.55613
    15  H(1)               0.00481      10.75424       3.83738       3.58723
    16  C(13)              0.01180       6.63083       2.36604       2.21181
    17  H(1)              -0.00831     -18.58241      -6.63067      -6.19843
    18  H(1)              -0.00371      -8.29221      -2.95887      -2.76598
    19  C(13)              0.03353      18.84745       6.72524       6.28683
    20  H(1)              -0.00637     -14.23957      -5.08103      -4.74981
    21  C(13)             -0.02809     -15.78805      -5.63357      -5.26633
    22  H(1)               0.00211       4.71384       1.68201       1.57237
    23  C(13)              0.00875       4.91703       1.75452       1.64014
    24  H(1)              -0.00086      -1.92576      -0.68716      -0.64236
    25  H(1)              -0.00382      -8.53688      -3.04617      -2.84760
    26  C(13)             -0.01180      -6.63089      -2.36607      -2.21183
    27  H(1)               0.00371       8.29214       2.95884       2.76596
    28  H(1)               0.00831      18.58255       6.63072       6.19847
 --------------------------------------------------------
       Center         ----  Spin Dipole Couplings  ----
                      3XX-RR        3YY-RR        3ZZ-RR
 --------------------------------------------------------
     1   Atom       -0.065329     -0.187407      0.252736
     2   Atom        0.052171      0.128289     -0.180460
     3   Atom        0.018156     -0.023699      0.005544
     4   Atom       -0.007891      0.014823     -0.006932
     5   Atom        0.144465      0.252891     -0.397357
     6   Atom       -0.052170     -0.128288      0.180458
     7   Atom        0.009089     -0.008328     -0.000761
     8   Atom        0.007890     -0.014823      0.006932
     9   Atom       -0.000354     -0.004041      0.004395
    10   Atom        0.002665     -0.001788     -0.000876
    11   Atom        0.002778     -0.002450     -0.000328
    12   Atom       -0.047247     -0.075319      0.122566
    13   Atom       -0.006082      0.003451      0.002631
    14   Atom        0.065328      0.187407     -0.252735
    15   Atom       -0.018155      0.023699     -0.005544
    16   Atom        0.002651     -0.002503     -0.000148
    17   Atom        0.003917     -0.004909      0.000992
    18   Atom        0.003696     -0.005702      0.002006
    19   Atom       -0.144466     -0.252890      0.397357
    20   Atom       -0.009089      0.008329      0.000761
    21   Atom        0.047247      0.075319     -0.122565
    22   Atom        0.006081     -0.003451     -0.002631
    23   Atom        0.000353      0.004042     -0.004395
    24   Atom       -0.002778      0.002450      0.000328
    25   Atom       -0.002665      0.001789      0.000876
    26   Atom       -0.002651      0.002503      0.000148
    27   Atom       -0.003696      0.005702     -0.002006
    28   Atom       -0.003917      0.004909     -0.000992
 --------------------------------------------------------
                        XY            XZ            YZ
 --------------------------------------------------------
     1   Atom       -0.003107      0.223191     -0.009283
     2   Atom       -0.027387     -0.157633     -0.069863
     3   Atom        0.004484     -0.009223     -0.002794
     4   Atom        0.001031      0.006518     -0.005765
     5   Atom        0.003595     -0.255493     -0.021506
     6   Atom        0.027386      0.157631      0.069861
     7   Atom        0.029044     -0.005613     -0.010082
     8   Atom       -0.001030     -0.006518      0.005765
     9   Atom        0.006714      0.006048     -0.002744
    10   Atom       -0.000902      0.003008      0.002457
    11   Atom       -0.002932      0.004854      0.000640
    12   Atom        0.007103      0.092797     -0.013166
    13   Atom        0.005505      0.005186     -0.002398
    14   Atom        0.003107     -0.223192      0.009282
    15   Atom       -0.004484      0.009223      0.002793
    16   Atom       -0.001407     -0.006418      0.000645
    17   Atom       -0.002098     -0.001502     -0.002266
    18   Atom        0.000916      0.000093      0.001563
    19   Atom       -0.003596      0.255490      0.021504
    20   Atom       -0.029044      0.005612      0.010082
    21   Atom       -0.007103     -0.092797      0.013165
    22   Atom       -0.005505     -0.005186      0.002398
    23   Atom       -0.006713     -0.006049      0.002745
    24   Atom        0.002932     -0.004854     -0.000640
    25   Atom        0.000902     -0.003008     -0.002458
    26   Atom        0.001407      0.006417     -0.000645
    27   Atom       -0.000916     -0.000093     -0.001563
    28   Atom        0.002098      0.001502      0.002266
 --------------------------------------------------------


 ---------------------------------------------------------------------------------
              Anisotropic Spin Dipole Couplings in Principal Axis System
 ---------------------------------------------------------------------------------

       Atom             a.u.   MegaHertz   Gauss  10(-4) cm-1        Axes

              Baa    -0.1879   -25.210    -8.996    -8.409 -0.1650  0.9808  0.1042
     1 C(13)  Bbb    -0.1801   -24.162    -8.621    -8.059  0.8735  0.1944 -0.4463
              Bcc     0.3679    49.372    17.617    16.469  0.4580 -0.0174  0.8888
 
              Baa    -0.2739   -36.758   -13.116   -12.261  0.4403  0.1827  0.8791
     2 C(13)  Bbb     0.1283    17.217     6.144     5.743  0.8367 -0.4387 -0.3279
              Bcc     0.1456    19.541     6.973     6.518  0.3258  0.8799 -0.3460
 
              Baa    -0.0243   -12.961    -4.625    -4.323 -0.0909  0.9937  0.0650
     3 H(1)   Bbb     0.0007     0.364     0.130     0.121  0.4697 -0.0148  0.8827
              Bcc     0.0236    12.597     4.495     4.202  0.8781  0.1107 -0.4654
 
              Baa    -0.0147    -7.849    -2.801    -2.618 -0.6945  0.1611  0.7013
     4 H(1)   Bbb    -0.0016    -0.832    -0.297    -0.278  0.7191  0.1900  0.6685
              Bcc     0.0163     8.681     3.098     2.896 -0.0255  0.9685 -0.2478
 
              Baa    -0.4993   -67.000   -23.907   -22.349  0.3687  0.0248  0.9292
     5 C(13)  Bbb     0.2378    31.907    11.385    10.643  0.7583 -0.5862 -0.2852
              Bcc     0.2615    35.093    12.522    11.706  0.5376  0.8098 -0.2349
 
              Baa    -0.1456   -19.541    -6.973    -6.518  0.3258  0.8799 -0.3460
     6 C(13)  Bbb    -0.1283   -17.217    -6.143    -5.743  0.8367 -0.4387 -0.3279
              Bcc     0.2739    36.758    13.116    12.261  0.4403  0.1827  0.8791
 
              Baa    -0.0307   -16.400    -5.852    -5.471 -0.5657  0.8078  0.1658
     7 H(1)   Bbb    -0.0032    -1.701    -0.607    -0.567  0.3341  0.0407  0.9417
              Bcc     0.0339    18.102     6.459     6.038  0.7539  0.5881 -0.2929
 
              Baa    -0.0163    -8.681    -3.098    -2.896 -0.0255  0.9685 -0.2478
     8 H(1)   Bbb     0.0016     0.832     0.297     0.278  0.7191  0.1900  0.6684
              Bcc     0.0147     7.849     2.801     2.618 -0.6945  0.1611  0.7013
 
              Baa    -0.0114    -1.531    -0.546    -0.511 -0.6199  0.6981  0.3584
     9 C(13)  Bbb     0.0026     0.354     0.126     0.118  0.4728  0.6967 -0.5395
              Bcc     0.0088     1.177     0.420     0.393  0.6263  0.1650  0.7619
 
              Baa    -0.0048    -2.569    -0.917    -0.857 -0.3495 -0.6513  0.6735
    10 H(1)   Bbb     0.0004     0.210     0.075     0.070 -0.3949  0.7543  0.5245
              Bcc     0.0044     2.359     0.842     0.787  0.8496  0.0826  0.5208
 
              Baa    -0.0056    -3.008    -1.073    -1.003  0.5437  0.6149 -0.5712
    11 H(1)   Bbb    -0.0011    -0.607    -0.216    -0.202 -0.2034  0.7568  0.6212
              Bcc     0.0068     3.614     1.290     1.206  0.8143 -0.2216  0.5365
 
              Baa    -0.0952   -12.780    -4.560    -4.263  0.7763 -0.5161 -0.3619
    12 C(13)  Bbb    -0.0686    -9.200    -3.283    -3.069  0.4863  0.8557 -0.1772
              Bcc     0.1638    21.979     7.843     7.332  0.4011 -0.0385  0.9152
 
              Baa    -0.0110    -5.865    -2.093    -1.956  0.8385 -0.3838 -0.3867
    13 H(1)   Bbb     0.0050     2.682     0.957     0.895  0.3621 -0.1379  0.9219
              Bcc     0.0060     3.183     1.136     1.062  0.4071  0.9131 -0.0233
 
              Baa    -0.3679   -49.372   -17.617   -16.469  0.4580 -0.0174  0.8888
    14 C(13)  Bbb     0.1801    24.162     8.621     8.059  0.8735  0.1944 -0.4463
              Bcc     0.1879    25.210     8.996     8.409 -0.1650  0.9808  0.1042
 
              Baa    -0.0236   -12.597    -4.495    -4.202  0.8781  0.1107 -0.4654
    15 H(1)   Bbb    -0.0007    -0.364    -0.130    -0.121  0.4697 -0.0147  0.8827
              Bcc     0.0243    12.961     4.625     4.323 -0.0909  0.9937  0.0650
 
              Baa    -0.0054    -0.721    -0.257    -0.240  0.6334  0.1395  0.7611
    16 C(13)  Bbb    -0.0027    -0.357    -0.128    -0.119  0.0212  0.9801 -0.1973
              Bcc     0.0080     1.078     0.385     0.360  0.7735 -0.1411 -0.6179
 
              Baa    -0.0063    -3.351    -1.196    -1.118  0.2369  0.9126  0.3333
    17 H(1)   Bbb     0.0016     0.846     0.302     0.282  0.2288 -0.3858  0.8938
              Bcc     0.0047     2.505     0.894     0.836  0.9442 -0.1355 -0.3002
 
              Baa    -0.0061    -3.247    -1.159    -1.083 -0.0898  0.9781 -0.1879
    18 H(1)   Bbb     0.0023     1.208     0.431     0.403 -0.1722  0.1706  0.9702
              Bcc     0.0038     2.039     0.728     0.680  0.9810  0.1195  0.1531
 
              Baa    -0.2615   -35.093   -12.522   -11.706  0.5376  0.8098 -0.2349
    19 C(13)  Bbb    -0.2378   -31.907   -11.385   -10.643  0.7583 -0.5862 -0.2852
              Bcc     0.4993    67.000    23.907    22.349  0.3687  0.0248  0.9292
 
              Baa    -0.0339   -18.101    -6.459    -6.038  0.7539  0.5881 -0.2929
    20 H(1)   Bbb     0.0032     1.701     0.607     0.567  0.3341  0.0407  0.9417
              Bcc     0.0307    16.400     5.852     5.471 -0.5657  0.8078  0.1658
 
              Baa    -0.1638   -21.979    -7.843    -7.331  0.4011 -0.0385  0.9152
    21 C(13)  Bbb     0.0686     9.200     3.283     3.069  0.4863  0.8557 -0.1772
              Bcc     0.0952    12.780     4.560     4.263  0.7763 -0.5161 -0.3619
 
              Baa    -0.0060    -3.183    -1.136    -1.062  0.4071  0.9131 -0.0233
    22 H(1)   Bbb    -0.0050    -2.682    -0.957    -0.895  0.3621 -0.1379  0.9219
              Bcc     0.0110     5.865     2.093     1.956  0.8385 -0.3838 -0.3867
 
              Baa    -0.0088    -1.177    -0.420    -0.393  0.6263  0.1649  0.7619
    23 C(13)  Bbb    -0.0026    -0.354    -0.126    -0.118  0.4728  0.6968 -0.5394
              Bcc     0.0114     1.531     0.546     0.511 -0.6198  0.6981  0.3584
 
              Baa    -0.0068    -3.614    -1.290    -1.206  0.8143 -0.2216  0.5365
    24 H(1)   Bbb     0.0011     0.607     0.216     0.202 -0.2034  0.7568  0.6212
              Bcc     0.0056     3.008     1.073     1.003  0.5437  0.6149 -0.5712
 
              Baa    -0.0044    -2.359    -0.842    -0.787  0.8496  0.0827  0.5209
    25 H(1)   Bbb    -0.0004    -0.210    -0.075    -0.070 -0.3949  0.7543  0.5245
              Bcc     0.0048     2.569     0.917     0.857 -0.3495 -0.6513  0.6735
 
              Baa    -0.0080    -1.078    -0.385    -0.360  0.7735 -0.1411 -0.6179
    26 C(13)  Bbb     0.0027     0.357     0.128     0.119  0.0212  0.9801 -0.1973
              Bcc     0.0054     0.721     0.257     0.240  0.6334  0.1395  0.7611
 
              Baa    -0.0038    -2.039    -0.728    -0.680  0.9810  0.1195  0.1531
    27 H(1)   Bbb    -0.0023    -1.208    -0.431    -0.403 -0.1722  0.1706  0.9702
              Bcc     0.0061     3.248     1.159     1.083 -0.0898  0.9781 -0.1879
 
              Baa    -0.0047    -2.505    -0.894    -0.836  0.9442 -0.1355 -0.3002
    28 H(1)   Bbb    -0.0016    -0.846    -0.302    -0.282  0.2288 -0.3858  0.8938
              Bcc     0.0063     3.351     1.196     1.118  0.2369  0.9126  0.3333
 

 ---------------------------------------------------------------------------------

 No NMR shielding tensors so no spin-rotation constants.
 Leave Link  601 at Mon Aug  3 16:19:42 2020, MaxMem=  6442450944 cpu:               8.1 elap:               0.4
 (Enter /scratch/scicomp/CentOS/7.3.1611/Haswell/software/Gaussian/g16/l9999.exe)
 1\1\GINC-ATLAS-205\SP\UwB97XD\def2TZVP\C12H16\BOCHEN\03-Aug-2020\0\\#p
  uwb97xd guess=mix def2tzvp # scrf=(iefpcm,solvent=Cyclohexane,read) n
 osym 6d 10f\\endo-2 xp-pcm for eta=3\\0,1\C,0,-3.11867,-0.432956,0.247
 226\C,0,-0.509469,-0.167984,-0.858002\H,0,-4.083546,-0.549105,0.726486
 \H,0,0.360157,-0.116106,-1.503444\C,0,1.101339,1.415489,0.68252\C,0,0.
 509469,0.167984,0.858002\H,0,0.540414,2.319583,0.882812\H,0,-0.360157,
 0.116106,1.503444\C,0,1.463271,-0.999883,0.987744\H,0,1.900513,-0.9421
 48,1.990648\H,0,0.926831,-1.947518,0.934189\C,0,2.408817,1.521066,0.11
 6868\H,0,2.824758,2.508464,-0.047474\C,0,3.11867,0.432956,-0.247226\H,
 0,4.083546,0.549105,-0.726486\C,0,2.592153,-0.958523,-0.043594\H,0,2.2
 49577,-1.356847,-1.007017\H,0,3.401074,-1.622064,0.271288\C,0,-1.10133
 9,-1.415489,-0.68252\H,0,-0.540414,-2.319583,-0.882812\C,0,-2.408817,-
 1.521066,-0.116868\H,0,-2.824758,-2.508464,0.047474\C,0,-1.463271,0.99
 9883,-0.987744\H,0,-0.926831,1.947518,-0.934189\H,0,-1.900513,0.942148
 ,-1.990648\C,0,-2.592153,0.958523,0.043594\H,0,-3.401074,1.622064,-0.2
 71288\H,0,-2.249577,1.356847,1.007017\\Version=ES64L-G16RevB.01\HF=-46
 6.8155715\S2=0.515596\S2-1=0.\S2A=0.124282\RMSD=3.572e-09\Dipole=0.000
 0744,-0.0003701,-0.0000368\Quadrupole=0.5422568,2.0086548,-2.5509116,-
 2.2593017,-2.3332827,-0.6096361\PG=CI [X(C12H16)]\\@


 THE ATTENTION SPAN OF A COMPUTER IS AS LONG
 AS ITS EXTENSION CORD.
 Job cpu time:       0 days  2 hours 16 minutes  4.3 seconds.
 Elapsed time:       0 days  0 hours  5 minutes 43.4 seconds.
 File lengths (MBytes):  RWF=    630 Int=      0 D2E=      0 Chk=     23 Scr=      1
 Normal termination of Gaussian 16 at Mon Aug  3 16:19:42 2020.
