 Entering Gaussian System, Link 0=g16
 Input=meso-TS_73_2_pcm.com
 Output=meso-TS_73_2_pcm.log
 Initial command:
 /scratch/scicomp/CentOS/7.3.1611/Haswell/software/Gaussian/g16/l1.exe "/scratch/bochen/cyclohexadiene-dimerization/wb97xd-def2tzvp/xp-pcm/meso/Gau-15407.inp" -scrdir="/scratch/bochen/cyclohexadiene-dimerization/wb97xd-def2tzvp/xp-pcm/meso/"
 Entering Link 1 = /scratch/scicomp/CentOS/7.3.1611/Haswell/software/Gaussian/g16/l1.exe PID=     15412.
  
 Copyright (c) 1988-2017, Gaussian, Inc.  All Rights Reserved.
  
 This is part of the Gaussian(R) 16 program.  It is based on
 the Gaussian(R) 09 system (copyright 2009, Gaussian, Inc.),
 the Gaussian(R) 03 system (copyright 2003, Gaussian, Inc.),
 the Gaussian(R) 98 system (copyright 1998, Gaussian, Inc.),
 the Gaussian(R) 94 system (copyright 1995, Gaussian, Inc.),
 the Gaussian 92(TM) system (copyright 1992, Gaussian, Inc.),
 the Gaussian 90(TM) system (copyright 1990, Gaussian, Inc.),
 the Gaussian 88(TM) system (copyright 1988, Gaussian, Inc.),
 the Gaussian 86(TM) system (copyright 1986, Carnegie Mellon
 University), and the Gaussian 82(TM) system (copyright 1983,
 Carnegie Mellon University). Gaussian is a federally registered
 trademark of Gaussian, Inc.
  
 This software contains proprietary and confidential information,
 including trade secrets, belonging to Gaussian, Inc.
  
 This software is provided under written license and may be
 used, copied, transmitted, or stored only in accord with that
 written license.
  
 The following legend is applicable only to US Government
 contracts under FAR:
  
                    RESTRICTED RIGHTS LEGEND
  
 Use, reproduction and disclosure by the US Government is
 subject to restrictions as set forth in subparagraphs (a)
 and (c) of the Commercial Computer Software - Restricted
 Rights clause in FAR 52.227-19.
  
 Gaussian, Inc.
 340 Quinnipiac St., Bldg. 40, Wallingford CT 06492
  
  
 ---------------------------------------------------------------
 Warning -- This program may not be used in any manner that
 competes with the business of Gaussian, Inc. or will provide
 assistance to any competitor of Gaussian, Inc.  The licensee
 of this program is prohibited from giving any competitor of
 Gaussian, Inc. access to this program.  By using this program,
 the user acknowledges that Gaussian, Inc. is engaged in the
 business of creating and licensing software in the field of
 computational chemistry and represents and warrants to the
 licensee that it is not a competitor of Gaussian, Inc. and that
 it will not use this program in any manner prohibited above.
 ---------------------------------------------------------------
  

 Cite this work as:
 Gaussian 16, Revision B.01,
 M. J. Frisch, G. W. Trucks, H. B. Schlegel, G. E. Scuseria, 
 M. A. Robb, J. R. Cheeseman, G. Scalmani, V. Barone, 
 G. A. Petersson, H. Nakatsuji, X. Li, M. Caricato, A. V. Marenich, 
 J. Bloino, B. G. Janesko, R. Gomperts, B. Mennucci, H. P. Hratchian, 
 J. V. Ortiz, A. F. Izmaylov, J. L. Sonnenberg, D. Williams-Young, 
 F. Ding, F. Lipparini, F. Egidi, J. Goings, B. Peng, A. Petrone, 
 T. Henderson, D. Ranasinghe, V. G. Zakrzewski, J. Gao, N. Rega, 
 G. Zheng, W. Liang, M. Hada, M. Ehara, K. Toyota, R. Fukuda, 
 J. Hasegawa, M. Ishida, T. Nakajima, Y. Honda, O. Kitao, H. Nakai, 
 T. Vreven, K. Throssell, J. A. Montgomery, Jr., J. E. Peralta, 
 F. Ogliaro, M. J. Bearpark, J. J. Heyd, E. N. Brothers, K. N. Kudin, 
 V. N. Staroverov, T. A. Keith, R. Kobayashi, J. Normand, 
 K. Raghavachari, A. P. Rendell, J. C. Burant, S. S. Iyengar, 
 J. Tomasi, M. Cossi, J. M. Millam, M. Klene, C. Adamo, R. Cammi, 
 J. W. Ochterski, R. L. Martin, K. Morokuma, O. Farkas, 
 J. B. Foresman, and D. J. Fox, Gaussian, Inc., Wallingford CT, 2016.
 
 ******************************************
 Gaussian 16:  ES64L-G16RevB.01 20-Dec-2017
                 3-Aug-2020 
 ******************************************
 %nproc=24
 Will use up to   24 processors via shared memory.
 %mem=48GB
 ----------------------------------------------------------------------
 #p uwb97xd guess=mix def2tzvp # scrf=(iefpcm,solvent=Cyclohexane,read)
  nosym 6d 10f
 ----------------------------------------------------------------------
 1/38=1,40=2,172=1/1;
 2/12=2,15=1,17=6,18=5,40=1/2;
 3/5=44,7=101,8=22,11=2,25=1,30=1,70=2203,72=17,74=-58,116=2/1,2,3;
 4/13=-1/1;
 5/5=2,38=5,53=17/2;
 6/7=2,8=2,9=2,10=2,28=1/1;
 99/5=1,9=1/99;
 Leave Link    1 at Mon Aug  3 14:02:16 2020, MaxMem=  6442450944 cpu:               3.1 elap:               0.1
 (Enter /scratch/scicomp/CentOS/7.3.1611/Haswell/software/Gaussian/g16/l101.exe)
 -----------------------
 endo-2 xp-pcm for eta=3
 -----------------------
 Symbolic Z-matrix:
 Charge =  0 Multiplicity = 1
 6                    -3.12017  -0.43952   0.28019 
 6                    -0.808    -0.27048  -1.34917 
 1                    -4.03926  -0.51945   0.84905 
 1                     0.11797  -0.19676  -1.90663 
 6                     1.22127   1.43878   0.86557 
 6                     0.808     0.27048   1.34917 
 1                     0.63426   2.33717   1.01585 
 1                    -0.11797   0.19676   1.90663 
 6                     1.6359   -0.97299   1.19533 
 1                     2.23968  -1.08963   2.10486 
 1                     0.98763  -1.8493    1.1454 
 6                     2.48213   1.53502   0.128 
 1                     2.88292   2.51731  -0.09187 
 6                     3.12017   0.43952  -0.28019 
 1                     4.03926   0.51945  -0.84905 
 6                     2.55127  -0.93067  -0.03115 
 1                     1.99168  -1.23694  -0.92348 
 1                     3.35496  -1.66058   0.08187 
 6                    -1.22127  -1.43878  -0.86557 
 1                    -0.63426  -2.33717  -1.01585 
 6                    -2.48213  -1.53502  -0.128 
 1                    -2.88292  -2.51731   0.09187 
 6                    -1.6359    0.97299  -1.19533 
 1                    -0.98763   1.8493   -1.1454 
 1                    -2.23968   1.08963  -2.10486 
 6                    -2.55127   0.93067   0.03115 
 1                    -3.35496   1.66058  -0.08187 
 1                    -1.99168   1.23694   0.92348 
 
 ITRead=  0  0  0  0  0  0  0  0  0  0  0  0  0  0  0  0  0  0  0  0
 ITRead=  0  0  0  0  0  0  0  0
 MicOpt= -1 -1 -1 -1 -1 -1 -1 -1 -1 -1 -1 -1 -1 -1 -1 -1 -1 -1 -1 -1
 MicOpt= -1 -1 -1 -1 -1 -1 -1 -1
 NAtoms=     28 NQM=       28 NQMF=       0 NMMI=      0 NMMIF=      0
                NMic=       0 NMicF=      0.
                    Isotopes and Nuclear Properties:
 (Nuclear quadrupole moments (NQMom) in fm**2, nuclear magnetic moments (NMagM)
  in nuclear magnetons)

  Atom         1           2           3           4           5           6           7           8           9          10
 IAtWgt=          12          12           1           1          12          12           1           1          12           1
 AtmWgt=  12.0000000  12.0000000   1.0078250   1.0078250  12.0000000  12.0000000   1.0078250   1.0078250  12.0000000   1.0078250
 NucSpn=           0           0           1           1           0           0           1           1           0           1
 AtZEff=  -0.0000000  -0.0000000  -0.0000000  -0.0000000  -0.0000000  -0.0000000  -0.0000000  -0.0000000  -0.0000000  -0.0000000
 NQMom=    0.0000000   0.0000000   0.0000000   0.0000000   0.0000000   0.0000000   0.0000000   0.0000000   0.0000000   0.0000000
 NMagM=    0.0000000   0.0000000   2.7928460   2.7928460   0.0000000   0.0000000   2.7928460   2.7928460   0.0000000   2.7928460
 AtZNuc=   6.0000000   6.0000000   1.0000000   1.0000000   6.0000000   6.0000000   1.0000000   1.0000000   6.0000000   1.0000000

  Atom        11          12          13          14          15          16          17          18          19          20
 IAtWgt=           1          12           1          12           1          12           1           1          12           1
 AtmWgt=   1.0078250  12.0000000   1.0078250  12.0000000   1.0078250  12.0000000   1.0078250   1.0078250  12.0000000   1.0078250
 NucSpn=           1           0           1           0           1           0           1           1           0           1
 AtZEff=  -0.0000000  -0.0000000  -0.0000000  -0.0000000  -0.0000000  -0.0000000  -0.0000000  -0.0000000  -0.0000000  -0.0000000
 NQMom=    0.0000000   0.0000000   0.0000000   0.0000000   0.0000000   0.0000000   0.0000000   0.0000000   0.0000000   0.0000000
 NMagM=    2.7928460   0.0000000   2.7928460   0.0000000   2.7928460   0.0000000   2.7928460   2.7928460   0.0000000   2.7928460
 AtZNuc=   1.0000000   6.0000000   1.0000000   6.0000000   1.0000000   6.0000000   1.0000000   1.0000000   6.0000000   1.0000000

  Atom        21          22          23          24          25          26          27          28
 IAtWgt=          12           1          12           1           1          12           1           1
 AtmWgt=  12.0000000   1.0078250  12.0000000   1.0078250   1.0078250  12.0000000   1.0078250   1.0078250
 NucSpn=           0           1           0           1           1           0           1           1
 AtZEff=  -0.0000000  -0.0000000  -0.0000000  -0.0000000  -0.0000000  -0.0000000  -0.0000000  -0.0000000
 NQMom=    0.0000000   0.0000000   0.0000000   0.0000000   0.0000000   0.0000000   0.0000000   0.0000000
 NMagM=    0.0000000   2.7928460   0.0000000   2.7928460   2.7928460   0.0000000   2.7928460   2.7928460
 AtZNuc=   6.0000000   1.0000000   6.0000000   1.0000000   1.0000000   6.0000000   1.0000000   1.0000000
 Leave Link  101 at Mon Aug  3 14:02:17 2020, MaxMem=  6442450944 cpu:               3.3 elap:               0.2
 (Enter /scratch/scicomp/CentOS/7.3.1611/Haswell/software/Gaussian/g16/l202.exe)
                          Input orientation:                          
 ---------------------------------------------------------------------
 Center     Atomic      Atomic             Coordinates (Angstroms)
 Number     Number       Type             X           Y           Z
 ---------------------------------------------------------------------
      1          6           0       -3.120165   -0.439520    0.280190
      2          6           0       -0.807998   -0.270483   -1.349166
      3          1           0       -4.039260   -0.519446    0.849052
      4          1           0        0.117969   -0.196755   -1.906627
      5          6           0        1.221266    1.438778    0.865571
      6          6           0        0.807998    0.270483    1.349166
      7          1           0        0.634256    2.337167    1.015854
      8          1           0       -0.117969    0.196755    1.906627
      9          6           0        1.635901   -0.972988    1.195334
     10          1           0        2.239675   -1.089626    2.104856
     11          1           0        0.987632   -1.849296    1.145396
     12          6           0        2.482134    1.535015    0.127997
     13          1           0        2.882920    2.517315   -0.091872
     14          6           0        3.120165    0.439520   -0.280190
     15          1           0        4.039260    0.519446   -0.849052
     16          6           0        2.551272   -0.930669   -0.031151
     17          1           0        1.991682   -1.236938   -0.923478
     18          1           0        3.354963   -1.660578    0.081874
     19          6           0       -1.221266   -1.438778   -0.865571
     20          1           0       -0.634256   -2.337167   -1.015854
     21          6           0       -2.482134   -1.535015   -0.127997
     22          1           0       -2.882920   -2.517315    0.091872
     23          6           0       -1.635901    0.972988   -1.195334
     24          1           0       -0.987632    1.849296   -1.145396
     25          1           0       -2.239675    1.089626   -2.104856
     26          6           0       -2.551272    0.930669    0.031151
     27          1           0       -3.354963    1.660578   -0.081874
     28          1           0       -1.991682    1.236938    0.923479
 ---------------------------------------------------------------------
                    Distance matrix (angstroms):
                    1          2          3          4          5
     1  C    0.000000
     2  C    2.833636   0.000000
     3  H    1.083849   3.916018   0.000000
     4  H    3.914922   1.083334   4.998045   0.000000
     5  C    4.766413   3.456088   5.613203   3.402545   0.000000
     6  C    4.132466   3.191408   4.936599   3.360750   1.330251
     7  H    4.727248   3.804373   5.479946   3.902334   1.083637
     8  H    3.473230   3.360750   4.124067   3.840758   2.102372
     9  C    4.872601   3.597310   5.703776   3.539607   2.469267
    10  H    5.699116   4.678629   6.428621   4.625024   2.994296
    11  H    4.428323   3.455398   5.208259   3.577995   3.308220
    12  C    5.942029   4.033212   6.875268   3.567632   1.463921
    13  H    6.702114   4.793275   7.617338   4.278372   2.200235
    14  C    6.326805   4.132466   7.311099   3.473230   2.432509
    15  H    7.311099   4.936599   8.320177   4.124067   3.424353
    16  C    5.701172   3.668474   6.661755   3.158639   2.861347
    17  H    5.311843   2.992232   6.326841   2.357830   3.309636
    18  H    6.592237   4.616328   7.520989   4.071246   3.843547
    19  C    2.432509   1.330251   3.424353   2.102372   4.152486
    20  H    3.385342   2.100587   4.286728   2.437352   4.608740
    21  C    1.331844   2.427556   2.100154   3.422718   4.852401
    22  H    2.099757   3.380850   2.429388   4.287695   5.752706
    23  C    2.524953   1.501768   3.490417   2.224926   3.553547
    24  H    3.437829   2.137113   4.347550   2.447070   3.015252
    25  H    2.966816   2.114394   3.814865   2.693057   4.574216
    26  C    1.504353   2.527260   2.232914   3.485816   3.896983
    27  H    2.143976   3.438322   2.467264   4.340584   4.678538
    28  H    2.120803   2.972935   2.698703   3.809935   3.219802
                    6          7          8          9         10
     6  C    0.000000
     7  H    2.100587   0.000000
     8  H    1.083334   2.437352   0.000000
     9  C    1.501768   3.463038   2.224926   0.000000
    10  H    2.114394   3.937792   2.693057   1.097897   0.000000
    11  H    2.137113   4.203347   2.447070   1.091175   1.750792
    12  C    2.427556   2.201452   3.422718   2.854014   3.294768
    13  H    3.380850   2.513165   4.287695   3.923541   4.271932
    14  C    2.833636   3.385342   3.914922   2.524953   2.966816
    15  H    3.916018   4.286728   4.998045   3.490417   3.814865
    16  C    2.527260   3.930639   3.485816   1.531000   2.164460
    17  H    2.972934   4.286938   3.809934   2.164628   3.042040
    18  H    3.438322   4.925092   4.340584   2.160497   2.379561
    19  C    3.456088   4.608740   3.402545   3.553547   4.574216
    20  H    3.804373   5.252272   3.902334   3.450210   4.422066
    21  C    4.033212   5.100400   3.567632   4.361799   5.242088
    22  H    4.793275   6.065498   4.278372   4.901257   5.686069
    23  C    3.597310   3.450210   3.539607   4.495198   5.492333
    24  H    3.455398   2.745822   3.577995   4.508573   5.442142
    25  H    4.678629   4.422066   4.625024   5.492333   6.521916
    26  C    3.668474   3.618766   3.158639   4.744644   5.597769
    27  H    4.616328   4.192451   4.071246   5.785815   6.606465
    28  H    2.992232   2.848611   2.357830   4.256411   4.971210
                   11         12         13         14         15
    11  H    0.000000
    12  C    3.836952   0.000000
    13  H    4.918357   1.083460   0.000000
    14  C    3.437829   1.331844   2.099757   0.000000
    15  H    4.347550   2.100154   2.429388   1.083849   0.000000
    16  C    2.161737   2.471782   3.464429   1.504353   2.232914
    17  H    2.379777   3.004974   3.947188   2.120803   2.698703
    18  H    2.602105   3.312970   4.208064   2.143976   2.467264
    19  C    3.015252   4.852401   5.752706   4.766413   5.613203
    20  H    2.745822   5.100400   6.065498   4.727248   5.479946
    21  C    3.709391   5.842480   6.723577   5.942029   6.875268
    22  H    4.066612   6.723577   7.656773   6.702114   7.617338
    23  C    4.508573   4.361799   4.901257   4.872601   5.703776
    24  H    4.777968   3.709391   4.066612   4.428323   5.208259
    25  H    5.442142   5.242088   5.686069   5.699116   6.428621
    26  C    4.636118   5.070482   5.662422   5.701172   6.661755
    27  H    5.716952   5.842218   6.296450   6.592237   7.520989
    28  H    4.295393   4.553754   5.141211   5.311843   6.326841
                   16         17         18         19         20
    16  C    0.000000
    17  H    1.096900   0.000000
    18  H    1.091541   1.746064   0.000000
    19  C    3.896983   3.219802   4.678538   0.000000
    20  H    3.618766   2.848612   4.192451   1.083637   0.000000
    21  C    5.070482   4.553753   5.842218   1.463921   2.201452
    22  H    5.662422   5.141211   6.296450   2.200235   2.513165
    23  C    4.744644   4.256411   5.785815   2.469267   3.463038
    24  H    4.636118   4.295393   5.716952   3.308220   4.203347
    25  H    5.597769   4.971211   6.606465   2.994296   3.937792
    26  C    5.431797   5.123306   6.449864   2.861347   3.930639
    27  H    6.449864   6.139260   7.488658   3.843547   4.925092
    28  H    5.123307   5.039693   6.139260   3.309637   4.286939
                   21         22         23         24         25
    21  C    0.000000
    22  H    1.083460   0.000000
    23  C    2.854014   3.923541   0.000000
    24  H    3.836952   4.918357   1.091175   0.000000
    25  H    3.294768   4.271932   1.097897   1.750792   0.000000
    26  C    2.471782   3.464429   1.531000   2.161737   2.164460
    27  H    3.312970   4.208064   2.160497   2.602105   2.379561
    28  H    3.004974   3.947188   2.164629   2.379778   3.042041
                   26         27         28
    26  C    0.000000
    27  H    1.091541   0.000000
    28  H    1.096901   1.746064   0.000000
 Symmetry turned off by external request.
 Stoichiometry    C12H16
 Framework group  CI[X(C12H16)]
 Deg. of freedom    39
 Full point group                 CI      NOp   2
 Rotational constants (GHZ):           1.6858419           0.5750756           0.5283298
 Leave Link  202 at Mon Aug  3 14:02:17 2020, MaxMem=  6442450944 cpu:               0.3 elap:               0.1
 (Enter /scratch/scicomp/CentOS/7.3.1611/Haswell/software/Gaussian/g16/l301.exe)
 Standard basis: def2TZVP (6D, 10F)
 Ernie: Thresh=  0.10000D-02 Tol=  0.10000D-05 Strict=F.
   528 basis functions,   740 primitive gaussians,   528 cartesian basis functions
    44 alpha electrons       44 beta electrons
       nuclear repulsion energy       670.0479989913 Hartrees.
 IExCor= 4639 DFT=T Ex+Corr=wB97XD ExCW=0 ScaHFX=  1.000000
 ScaDFX=  1.000000  1.000000  1.000000  1.000000 ScalE2=  1.000000  1.000000
 IRadAn=      5 IRanWt=     -1 IRanGd=            0 ICorTp=0 IEmpDi=121
 HFx  wShort=  0.000000 wLong=  0.200000 cFull=  0.222036 cShort=  0.000000 cLong=  0.777964
 DFx  wShort=  0.000000 wLong=  0.200000 cFull=  0.000000 cShort=  0.000000 cLong=  1.000000
 NAtoms=   28 NActive=   28 NUniq=   28 SFac= 1.00D+00 NAtFMM=   60 NAOKFM=F Big=F
 Integral buffers will be    131072 words long.
 Raffenetti 2 integral format.
 Two-electron integral symmetry is turned off.
 R6Disp:  Grimme-D2 Dispersion energy=       -0.0211484396 Hartrees.
 Nuclear repulsion after empirical dispersion term =      670.0268505517 Hartrees.
 Using the following non-standard input for PCM:
 norep pcmdoc geomview  nodis nocav g03defaults tsare=0.075
 Warning! Using old PCM defaults because the g03defaults keyword was found.
 These settings can be overridden by following keywords.
 nsfe=28
 NVESolv=36  SolvMW=84.1595   Rsolv=2.815
 eps=2.0165 RhoS=0.7781
 --- end of non-standard input.
 Reading user-defined spheres from input:
 ISph  on   Nord    Re0     Alpha      Xe            Ye            Ze
 --- end of user-defined spheres data.
 ------------------------------------------------------------------------------
 Polarizable Continuum Model (PCM)
 =================================
 Model                : PCM.
 Atomic radii         : UA0 (Simple United Atom Topological Model).
 Polarization charges : Total charges.
 Charge compensation  : None.
 Solution method      : On-the-fly selection.
 Cavity type          : SES (Solvent Excluding Surface) (Alpha=1.000).
 Cavity algorithm     : GePol (RMin=0.200 OFac=0.890).
                        User-defined sphere list used, NSphG=   28.
                        Tesserae with average area of 0.075 Ang**2.
                        Smoothing algorithm: None.
                        Polarization charges: point-like.
                        Self-potential: constant (ISelfS= 1).
                        Self-field    : global E.n sum rule (ISelfD= 3).
 Solvent              : CycloHexane, Eps=   2.016500 Eps(inf)=   2.035188
                        RSolv=   2.815000 Ang.
 ------------------------------------------------------------------------------
 GePol: Number of generator spheres                  =      28
 GePol: Total number of spheres                      =     202
 GePol: Number of exposed spheres                    =     136 ( 67.33%)
 GePol: Number of tesserae                           =    4738
 GePol: Average area of tesserae                     =       0.05 Ang**2
 GePol: Minimum area of tessera                      =   0.10D-02 Ang**2
 GePol: Maximum area of tessera                      =    0.12636 Ang**2
 GePol: Number of small tesserae                     =       0
 GePol: Fraction of small tesserae (<1% of avg)      =       0.00%
 GePol: Total count of vertices                      =   16806
 GePol: Maximum number of vertices in a tessera      =       7
 GePol: Cavity surface area                          =    224.704 Ang**2
 GePol: Cavity volume                                =    257.354 Ang**3
 Leave Link  301 at Mon Aug  3 14:02:19 2020, MaxMem=  6442450944 cpu:              12.0 elap:               0.6
 (Enter /scratch/scicomp/CentOS/7.3.1611/Haswell/software/Gaussian/g16/l302.exe)
 NPDir=0 NMtPBC=     1 NCelOv=     1 NCel=       1 NClECP=     1 NCelD=      1
         NCelK=      1 NCelE2=     1 NClLst=     1 CellRange=     0.0.
 One-electron integrals computed using PRISM.
   1 Symmetry operations used in ECPInt.
 ECPInt:  NShTT=   19306 NPrTT=   56928 LenC2=   18450 LenP2D=   41714.
 LDataN:  DoStor=T MaxTD1= 6 Len=  172
 NBasis=   528 RedAO= T EigKep=  2.00D-05  NBF=   528
 NBsUse=   528 1.00D-06 EigRej= -1.00D+00 NBFU=   528
 Precomputing XC quadrature grid using
 IXCGrd= 4 IRadAn=           5 IRanWt=          -1 IRanGd=           0 AccXCQ= 0.00D+00.
 Generated NRdTot=       0 NPtTot=           0 NUsed=           0 NTot=          32
 NSgBfM=   526   526   526   526   526 MxSgAt=    28 MxSgA2=    28.
 Leave Link  302 at Mon Aug  3 14:02:20 2020, MaxMem=  6442450944 cpu:              13.1 elap:               0.6
 (Enter /scratch/scicomp/CentOS/7.3.1611/Haswell/software/Gaussian/g16/l303.exe)
 DipDrv:  MaxL=1.
 Leave Link  303 at Mon Aug  3 14:02:21 2020, MaxMem=  6442450944 cpu:               1.8 elap:               0.1
 (Enter /scratch/scicomp/CentOS/7.3.1611/Haswell/software/Gaussian/g16/l401.exe)
 ExpMin= 9.52D-02 ExpMax= 1.36D+04 ExpMxC= 4.63D+02 IAcc=3 IRadAn=         5 AccDes= 0.00D+00
 Harris functional with IExCor= 4639 and IRadAn=       5 diagonalized for initial guess.
 HarFok:  IExCor= 4639 AccDes= 0.00D+00 IRadAn=         5 IDoV= 1 UseB2=F ITyADJ=14
 ICtDFT=  3500011 ScaDFX=  1.000000  1.000000  1.000000  1.000000
 FoFCou: FMM=F IPFlag=           0 FMFlag=      100000 FMFlg1=           0
         NFxFlg=           0 DoJE=T BraDBF=F KetDBF=T FulRan=T
         wScrn=  0.000000 ICntrl=       500 IOpCl=  0 I1Cent=   200000004 NGrid=           0
         NMat0=    1 NMatS0=      1 NMatT0=    0 NMatD0=    1 NMtDS0=    0 NMtDT0=    0
 Symmetry not used in FoFCou.
 Harris En= -444.660638443282    
 JPrj=0 DoOrth=F DoCkMO=T.
 Mixing orbitals, IMix= 1 IMixAn=  0 NRI=1 NE=   44 Coef=  7.07106781D-01  7.07106781D-01
 Mixing orbitals, IMix= 1 IMixAn=  0 NRI=1 NE=   44 Coef= -7.07106781D-01  7.07106781D-01
 Initial guess <Sx>= 0.0000 <Sy>= 0.0000 <Sz>= 0.0000 <S**2>= 1.0000 S= 0.6180
 Leave Link  401 at Mon Aug  3 14:02:23 2020, MaxMem=  6442450944 cpu:              49.7 elap:               2.2
 (Enter /scratch/scicomp/CentOS/7.3.1611/Haswell/software/Gaussian/g16/l502.exe)
 Two-electron integral symmetry not used.
 UHF open shell SCF:
 Using DIIS extrapolation, IDIIS=  1040.
 NGot=  6442450944 LenX=  6441877030 LenY=  6441597718
 Requested convergence on RMS density matrix=1.00D-08 within 128 cycles.
 Requested convergence on MAX density matrix=1.00D-06.
 Requested convergence on             energy=1.00D-06.
 No special actions if energy rises.
 Fock matrices will be formed incrementally for  20 cycles.

 Cycle   1  Pass 1  IDiag  1:
 FoFJK:  IHMeth= 1 ICntrl=       0 DoSepK=T KAlg= 0 I1Cent=           0 FoldK=F
 IRaf=         1 NMat=       1 IRICut=       1 DoRegI=T DoRafI=F ISym2E= 0 IDoP0=0 IntGTp=1.
 FoFCou: FMM=F IPFlag=           0 FMFlag=      100000 FMFlg1=           0
         NFxFlg=           0 DoJE=T BraDBF=F KetDBF=F FulRan=T
         wScrn=  0.000000 ICntrl=       500 IOpCl=  0 I1Cent=           0 NGrid=           0
         NMat0=    1 NMatS0=      1 NMatT0=    0 NMatD0=    1 NMtDS0=    0 NMtDT0=    0
 Symmetry not used in FoFCou.
 Inv3:  Mode=1 IEnd=    67345932.
 Iteration    1 A*A^-1 deviation from unit magnitude is 4.11D-15 for   2942.
 Iteration    1 A*A^-1 deviation from orthogonality  is 2.78D-15 for   3080   3072.
 Iteration    1 A^-1*A deviation from unit magnitude is 3.66D-15 for   2942.
 Iteration    1 A^-1*A deviation from orthogonality  is 1.98D-15 for   4224   4203.
 E= -466.573815351201    
 DIIS: error= 4.94D-02 at cycle   1 NSaved=   1.
 NSaved= 1 IEnMin= 1 EnMin= -466.573815351201     IErMin= 1 ErrMin= 4.94D-02
 ErrMax= 4.94D-02  0.00D+00 EMaxC= 1.00D-01 BMatC= 4.12D+00 BMatP= 4.12D+00
 IDIUse=3 WtCom= 5.06D-01 WtEn= 4.94D-01
 Coeff-Com:  0.100D+01
 Coeff-En:   0.100D+01
 Coeff:      0.100D+01
 Gap=     0.179 Goal=   None    Shift=    0.000
 Gap=     0.179 Goal=   None    Shift=    0.000
 GapD=    0.179 DampG=1.000 DampE=0.500 DampFc=0.5000 IDamp=-1.
 Damping current iteration by 5.00D-01
 RMSDP=1.65D-03 MaxDP=9.31D-02              OVMax= 3.63D-01

 Cycle   2  Pass 1  IDiag  1:
 RMSU=  7.87D-04    CP:  9.61D-01
 E= -466.689044470297     Delta-E=       -0.115229119096 Rises=F Damp=T
 DIIS: error= 2.36D-02 at cycle   2 NSaved=   2.
 NSaved= 2 IEnMin= 2 EnMin= -466.689044470297     IErMin= 2 ErrMin= 2.36D-02
 ErrMax= 2.36D-02  0.00D+00 EMaxC= 1.00D-01 BMatC= 9.37D-01 BMatP= 4.12D+00
 IDIUse=3 WtCom= 7.64D-01 WtEn= 2.36D-01
 Coeff-Com: -0.868D+00 0.187D+01
 Coeff-En:   0.000D+00 0.100D+01
 Coeff:     -0.664D+00 0.166D+01
 Gap=     0.284 Goal=   None    Shift=    0.000
 Gap=     0.284 Goal=   None    Shift=    0.000
 RMSDP=1.18D-03 MaxDP=4.88D-02 DE=-1.15D-01 OVMax= 1.40D-01

 Cycle   3  Pass 1  IDiag  1:
 RMSU=  6.13D-04    CP:  9.03D-01  2.20D+00
 E= -466.840026312738     Delta-E=       -0.150981842441 Rises=F Damp=F
 DIIS: error= 7.79D-03 at cycle   3 NSaved=   3.
 NSaved= 3 IEnMin= 3 EnMin= -466.840026312738     IErMin= 3 ErrMin= 7.79D-03
 ErrMax= 7.79D-03  0.00D+00 EMaxC= 1.00D-01 BMatC= 2.48D-02 BMatP= 9.37D-01
 IDIUse=3 WtCom= 9.22D-01 WtEn= 7.79D-02
 Coeff-Com: -0.317D+00 0.680D+00 0.638D+00
 Coeff-En:   0.000D+00 0.000D+00 0.100D+01
 Coeff:     -0.293D+00 0.627D+00 0.666D+00
 Gap=     0.306 Goal=   None    Shift=    0.000
 Gap=     0.306 Goal=   None    Shift=    0.000
 RMSDP=2.07D-04 MaxDP=1.02D-02 DE=-1.51D-01 OVMax= 6.30D-02

 Cycle   4  Pass 1  IDiag  1:
 RMSU=  1.88D-04    CP:  8.97D-01  2.29D+00  9.94D-01
 E= -466.850825535711     Delta-E=       -0.010799222973 Rises=F Damp=F
 DIIS: error= 5.09D-03 at cycle   4 NSaved=   4.
 NSaved= 4 IEnMin= 4 EnMin= -466.850825535711     IErMin= 4 ErrMin= 5.09D-03
 ErrMax= 5.09D-03  0.00D+00 EMaxC= 1.00D-01 BMatC= 2.04D-03 BMatP= 2.48D-02
 IDIUse=3 WtCom= 9.49D-01 WtEn= 5.09D-02
 Coeff-Com:  0.150D+00-0.322D+00-0.786D-01 0.125D+01
 Coeff-En:   0.000D+00 0.000D+00 0.000D+00 0.100D+01
 Coeff:      0.143D+00-0.306D+00-0.746D-01 0.124D+01
 Gap=     0.317 Goal=   None    Shift=    0.000
 Gap=     0.317 Goal=   None    Shift=    0.000
 RMSDP=2.09D-04 MaxDP=1.20D-02 DE=-1.08D-02 OVMax= 7.62D-02

 Cycle   5  Pass 1  IDiag  1:
 RMSU=  8.23D-05    CP:  8.90D-01  2.35D+00  1.22D+00  1.63D+00
 E= -466.855390762700     Delta-E=       -0.004565226989 Rises=F Damp=F
 DIIS: error= 2.20D-03 at cycle   5 NSaved=   5.
 NSaved= 5 IEnMin= 5 EnMin= -466.855390762700     IErMin= 5 ErrMin= 2.20D-03
 ErrMax= 2.20D-03  0.00D+00 EMaxC= 1.00D-01 BMatC= 7.75D-04 BMatP= 2.04D-03
 IDIUse=3 WtCom= 9.78D-01 WtEn= 2.20D-02
 Coeff-Com:  0.541D-01-0.116D+00-0.594D-01 0.296D+00 0.826D+00
 Coeff-En:   0.000D+00 0.000D+00 0.000D+00 0.000D+00 0.100D+01
 Coeff:      0.529D-01-0.114D+00-0.581D-01 0.289D+00 0.830D+00
 Gap=     0.319 Goal=   None    Shift=    0.000
 Gap=     0.319 Goal=   None    Shift=    0.000
 RMSDP=7.09D-05 MaxDP=2.79D-03 DE=-4.57D-03 OVMax= 2.67D-02

 Cycle   6  Pass 1  IDiag  1:
 RMSU=  3.08D-05    CP:  8.88D-01  2.36D+00  1.25D+00  1.90D+00  1.41D+00
 E= -466.856700483966     Delta-E=       -0.001309721266 Rises=F Damp=F
 DIIS: error= 1.56D-03 at cycle   6 NSaved=   6.
 NSaved= 6 IEnMin= 6 EnMin= -466.856700483966     IErMin= 6 ErrMin= 1.56D-03
 ErrMax= 1.56D-03  0.00D+00 EMaxC= 1.00D-01 BMatC= 5.09D-04 BMatP= 7.75D-04
 IDIUse=3 WtCom= 9.84D-01 WtEn= 1.56D-02
 Coeff-Com: -0.842D-01 0.181D+00 0.558D-01-0.631D+00 0.105D+00 0.137D+01
 Coeff-En:   0.000D+00 0.000D+00 0.000D+00 0.000D+00 0.000D+00 0.100D+01
 Coeff:     -0.829D-01 0.178D+00 0.549D-01-0.621D+00 0.104D+00 0.137D+01
 Gap=     0.315 Goal=   None    Shift=    0.000
 Gap=     0.315 Goal=   None    Shift=    0.000
 RMSDP=9.66D-05 MaxDP=3.95D-03 DE=-1.31D-03 OVMax= 3.67D-02

 Cycle   7  Pass 1  IDiag  1:
 RMSU=  3.03D-05    CP:  8.87D-01  2.36D+00  1.29D+00  2.18D+00  2.12D+00
                    CP:  2.30D+00
 E= -466.858279124462     Delta-E=       -0.001578640497 Rises=F Damp=F
 DIIS: error= 9.99D-04 at cycle   7 NSaved=   7.
 NSaved= 7 IEnMin= 7 EnMin= -466.858279124462     IErMin= 7 ErrMin= 9.99D-04
 ErrMax= 9.99D-04  0.00D+00 EMaxC= 1.00D-01 BMatC= 2.53D-04 BMatP= 5.09D-04
 IDIUse=3 WtCom= 9.90D-01 WtEn= 9.99D-03
 Coeff-Com: -0.257D-01 0.556D-01 0.415D-01-0.114D-01-0.780D+00-0.345D+00
 Coeff-Com:  0.207D+01
 Coeff-En:   0.000D+00 0.000D+00 0.000D+00 0.000D+00 0.000D+00 0.000D+00
 Coeff-En:   0.100D+01
 Coeff:     -0.254D-01 0.550D-01 0.410D-01-0.113D-01-0.772D+00-0.342D+00
 Coeff:      0.205D+01
 Gap=     0.316 Goal=   None    Shift=    0.000
 Gap=     0.316 Goal=   None    Shift=    0.000
 RMSDP=1.32D-04 MaxDP=6.24D-03 DE=-1.58D-03 OVMax= 4.94D-02

 Cycle   8  Pass 1  IDiag  1:
 RMSU=  5.61D-05    CP:  8.85D-01  2.36D+00  1.32D+00  2.48D+00  3.00D+00
                    CP:  3.00D+00  2.63D+00
 E= -466.859598581692     Delta-E=       -0.001319457230 Rises=F Damp=F
 DIIS: error= 3.55D-04 at cycle   8 NSaved=   8.
 NSaved= 8 IEnMin= 8 EnMin= -466.859598581692     IErMin= 8 ErrMin= 3.55D-04
 ErrMax= 3.55D-04  0.00D+00 EMaxC= 1.00D-01 BMatC= 5.64D-05 BMatP= 2.53D-04
 IDIUse=3 WtCom= 9.96D-01 WtEn= 3.55D-03
 Coeff-Com:  0.237D-01-0.509D-01-0.602D-02 0.253D+00-0.259D+00-0.633D+00
 Coeff-Com:  0.576D+00 0.110D+01
 Coeff-En:   0.000D+00 0.000D+00 0.000D+00 0.000D+00 0.000D+00 0.000D+00
 Coeff-En:   0.000D+00 0.100D+01
 Coeff:      0.236D-01-0.507D-01-0.600D-02 0.252D+00-0.258D+00-0.631D+00
 Coeff:      0.574D+00 0.110D+01
 Gap=     0.317 Goal=   None    Shift=    0.000
 Gap=     0.317 Goal=   None    Shift=    0.000
 RMSDP=5.72D-05 MaxDP=2.77D-03 DE=-1.32D-03 OVMax= 2.11D-02

 Cycle   9  Pass 1  IDiag  1:
 RMSU=  3.37D-05    CP:  8.84D-01  2.36D+00  1.33D+00  2.58D+00  3.00D+00
                    CP:  3.00D+00  3.00D+00  1.62D+00
 E= -466.859807570367     Delta-E=       -0.000208988675 Rises=F Damp=F
 DIIS: error= 1.13D-04 at cycle   9 NSaved=   9.
 NSaved= 9 IEnMin= 9 EnMin= -466.859807570367     IErMin= 9 ErrMin= 1.13D-04
 ErrMax= 1.13D-04  0.00D+00 EMaxC= 1.00D-01 BMatC= 8.27D-06 BMatP= 5.64D-05
 IDIUse=3 WtCom= 9.99D-01 WtEn= 1.13D-03
 Coeff-Com:  0.119D-01-0.255D-01-0.791D-02 0.833D-01 0.343D-01-0.147D+00
 Coeff-Com: -0.127D+00 0.284D+00 0.894D+00
 Coeff-En:   0.000D+00 0.000D+00 0.000D+00 0.000D+00 0.000D+00 0.000D+00
 Coeff-En:   0.000D+00 0.000D+00 0.100D+01
 Coeff:      0.118D-01-0.255D-01-0.790D-02 0.832D-01 0.342D-01-0.147D+00
 Coeff:     -0.127D+00 0.284D+00 0.894D+00
 Gap=     0.317 Goal=   None    Shift=    0.000
 Gap=     0.317 Goal=   None    Shift=    0.000
 RMSDP=1.44D-05 MaxDP=6.74D-04 DE=-2.09D-04 OVMax= 5.17D-03

 Cycle  10  Pass 1  IDiag  1:
 RMSU=  5.11D-06    CP:  8.83D-01  2.36D+00  1.34D+00  2.60D+00  3.00D+00
                    CP:  3.00D+00  3.00D+00  1.76D+00  1.29D+00
 E= -466.859822613550     Delta-E=       -0.000015043182 Rises=F Damp=F
 DIIS: error= 4.77D-05 at cycle  10 NSaved=  10.
 NSaved=10 IEnMin=10 EnMin= -466.859822613550     IErMin=10 ErrMin= 4.77D-05
 ErrMax= 4.77D-05  0.00D+00 EMaxC= 1.00D-01 BMatC= 1.27D-06 BMatP= 8.27D-06
 IDIUse=1 WtCom= 1.00D+00 WtEn= 0.00D+00
 Coeff-Com: -0.184D-02 0.398D-02-0.341D-03-0.300D-01 0.453D-01 0.832D-01
 Coeff-Com: -0.107D+00-0.184D+00 0.164D+00 0.103D+01
 Coeff:     -0.184D-02 0.398D-02-0.341D-03-0.300D-01 0.453D-01 0.832D-01
 Coeff:     -0.107D+00-0.184D+00 0.164D+00 0.103D+01
 Gap=     0.317 Goal=   None    Shift=    0.000
 Gap=     0.317 Goal=   None    Shift=    0.000
 RMSDP=6.23D-06 MaxDP=2.83D-04 DE=-1.50D-05 OVMax= 2.25D-03

 Cycle  11  Pass 1  IDiag  1:
 RMSU=  1.98D-06    CP:  8.83D-01  2.36D+00  1.34D+00  2.61D+00  3.00D+00
                    CP:  3.00D+00  3.00D+00  1.81D+00  1.41D+00  1.37D+00
 E= -466.859824485307     Delta-E=       -0.000001871758 Rises=F Damp=F
 DIIS: error= 1.75D-05 at cycle  11 NSaved=  11.
 NSaved=11 IEnMin=11 EnMin= -466.859824485307     IErMin=11 ErrMin= 1.75D-05
 ErrMax= 1.75D-05  0.00D+00 EMaxC= 1.00D-01 BMatC= 2.52D-07 BMatP= 1.27D-06
 IDIUse=1 WtCom= 1.00D+00 WtEn= 0.00D+00
 Coeff-Com: -0.123D-02 0.266D-02 0.206D-03-0.150D-01 0.146D-01 0.371D-01
 Coeff-Com: -0.291D-01-0.847D-01 0.402D-02 0.383D+00 0.688D+00
 Coeff:     -0.123D-02 0.266D-02 0.206D-03-0.150D-01 0.146D-01 0.371D-01
 Coeff:     -0.291D-01-0.847D-01 0.402D-02 0.383D+00 0.688D+00
 Gap=     0.317 Goal=   None    Shift=    0.000
 Gap=     0.317 Goal=   None    Shift=    0.000
 RMSDP=7.86D-07 MaxDP=4.24D-05 DE=-1.87D-06 OVMax= 1.61D-04

 Cycle  12  Pass 1  IDiag  1:
 RMSU=  6.22D-07    CP:  8.83D-01  2.36D+00  1.34D+00  2.61D+00  3.00D+00
                    CP:  3.00D+00  3.00D+00  1.81D+00  1.41D+00  1.38D+00
                    CP:  1.17D+00
 E= -466.859824614282     Delta-E=       -0.000000128975 Rises=F Damp=F
 DIIS: error= 1.14D-05 at cycle  12 NSaved=  12.
 NSaved=12 IEnMin=12 EnMin= -466.859824614282     IErMin=12 ErrMin= 1.14D-05
 ErrMax= 1.14D-05  0.00D+00 EMaxC= 1.00D-01 BMatC= 5.82D-08 BMatP= 2.52D-07
 IDIUse=1 WtCom= 1.00D+00 WtEn= 0.00D+00
 Coeff-Com:  0.496D-03-0.108D-02-0.478D-04 0.726D-02-0.885D-02-0.196D-01
 Coeff-Com:  0.239D-01 0.426D-01-0.408D-01-0.256D+00 0.132D+00 0.112D+01
 Coeff:      0.496D-03-0.108D-02-0.478D-04 0.726D-02-0.885D-02-0.196D-01
 Coeff:      0.239D-01 0.426D-01-0.408D-01-0.256D+00 0.132D+00 0.112D+01
 Gap=     0.317 Goal=   None    Shift=    0.000
 Gap=     0.317 Goal=   None    Shift=    0.000
 RMSDP=7.04D-07 MaxDP=2.61D-05 DE=-1.29D-07 OVMax= 1.43D-04

 Cycle  13  Pass 1  IDiag  1:
 RMSU=  3.89D-07    CP:  8.83D-01  2.36D+00  1.34D+00  2.61D+00  3.00D+00
                    CP:  3.00D+00  3.00D+00  1.81D+00  1.41D+00  1.38D+00
                    CP:  1.37D+00  1.61D+00
 E= -466.859824687276     Delta-E=       -0.000000072994 Rises=F Damp=F
 DIIS: error= 6.11D-06 at cycle  13 NSaved=  13.
 NSaved=13 IEnMin=13 EnMin= -466.859824687276     IErMin=13 ErrMin= 6.11D-06
 ErrMax= 6.11D-06  0.00D+00 EMaxC= 1.00D-01 BMatC= 1.19D-08 BMatP= 5.82D-08
 IDIUse=1 WtCom= 1.00D+00 WtEn= 0.00D+00
 Coeff-Com: -0.805D-04 0.175D-03 0.743D-04-0.645D-03 0.308D-03 0.117D-02
 Coeff-Com: -0.156D-02-0.122D-03 0.203D-02-0.174D-02-0.123D+00-0.183D+00
 Coeff-Com:  0.131D+01
 Coeff:     -0.805D-04 0.175D-03 0.743D-04-0.645D-03 0.308D-03 0.117D-02
 Coeff:     -0.156D-02-0.122D-03 0.203D-02-0.174D-02-0.123D+00-0.183D+00
 Coeff:      0.131D+01
 Gap=     0.317 Goal=   None    Shift=    0.000
 Gap=     0.317 Goal=   None    Shift=    0.000
 RMSDP=3.49D-07 MaxDP=1.86D-05 DE=-7.30D-08 OVMax= 8.10D-05

 Cycle  14  Pass 1  IDiag  1:
 RMSU=  2.52D-07    CP:  8.83D-01  2.36D+00  1.34D+00  2.61D+00  3.00D+00
                    CP:  3.00D+00  3.00D+00  1.81D+00  1.41D+00  1.39D+00
                    CP:  1.41D+00  1.77D+00  1.49D+00
 E= -466.859824711474     Delta-E=       -0.000000024199 Rises=F Damp=F
 DIIS: error= 3.43D-06 at cycle  14 NSaved=  14.
 NSaved=14 IEnMin=14 EnMin= -466.859824711474     IErMin=14 ErrMin= 3.43D-06
 ErrMax= 3.43D-06  0.00D+00 EMaxC= 1.00D-01 BMatC= 3.87D-09 BMatP= 1.19D-08
 IDIUse=1 WtCom= 1.00D+00 WtEn= 0.00D+00
 Coeff-Com: -0.195D-03 0.422D-03 0.722D-04-0.236D-02 0.234D-02 0.598D-02
 Coeff-Com: -0.690D-02-0.126D-01 0.127D-01 0.792D-01-0.586D-01-0.380D+00
 Coeff-Com:  0.722D-01 0.129D+01
 Coeff:     -0.195D-03 0.422D-03 0.722D-04-0.236D-02 0.234D-02 0.598D-02
 Coeff:     -0.690D-02-0.126D-01 0.127D-01 0.792D-01-0.586D-01-0.380D+00
 Coeff:      0.722D-01 0.129D+01
 Gap=     0.317 Goal=   None    Shift=    0.000
 Gap=     0.317 Goal=   None    Shift=    0.000
 RMSDP=2.64D-07 MaxDP=1.21D-05 DE=-2.42D-08 OVMax= 6.41D-05

 Cycle  15  Pass 1  IDiag  1:
 RMSU=  9.29D-08    CP:  8.83D-01  2.36D+00  1.34D+00  2.61D+00  3.00D+00
                    CP:  3.00D+00  3.00D+00  1.81D+00  1.41D+00  1.40D+00
                    CP:  1.41D+00  1.86D+00  1.86D+00  1.76D+00
 E= -466.859824720267     Delta-E=       -0.000000008793 Rises=F Damp=F
 DIIS: error= 1.21D-06 at cycle  15 NSaved=  15.
 NSaved=15 IEnMin=15 EnMin= -466.859824720267     IErMin=15 ErrMin= 1.21D-06
 ErrMax= 1.21D-06  0.00D+00 EMaxC= 1.00D-01 BMatC= 6.41D-10 BMatP= 3.87D-09
 IDIUse=1 WtCom= 1.00D+00 WtEn= 0.00D+00
 Coeff-Com:  0.986D-05-0.215D-04-0.229D-04-0.368D-04 0.256D-03 0.324D-03
 Coeff-Com: -0.836D-03-0.127D-02 0.308D-02 0.132D-01 0.151D-01-0.338D-01
 Coeff-Com: -0.302D+00 0.254D+00 0.105D+01
 Coeff:      0.986D-05-0.215D-04-0.229D-04-0.368D-04 0.256D-03 0.324D-03
 Coeff:     -0.836D-03-0.127D-02 0.308D-02 0.132D-01 0.151D-01-0.338D-01
 Coeff:     -0.302D+00 0.254D+00 0.105D+01
 Gap=     0.317 Goal=   None    Shift=    0.000
 Gap=     0.317 Goal=   None    Shift=    0.000
 RMSDP=1.15D-07 MaxDP=4.87D-06 DE=-8.79D-09 OVMax= 2.70D-05

 Cycle  16  Pass 1  IDiag  1:
 RMSU=  4.57D-08    CP:  8.83D-01  2.36D+00  1.34D+00  2.61D+00  3.00D+00
                    CP:  3.00D+00  3.00D+00  1.81D+00  1.41D+00  1.40D+00
                    CP:  1.40D+00  1.88D+00  1.99D+00  2.03D+00  1.57D+00
 E= -466.859824721371     Delta-E=       -0.000000001104 Rises=F Damp=F
 DIIS: error= 2.28D-07 at cycle  16 NSaved=  16.
 NSaved=16 IEnMin=16 EnMin= -466.859824721371     IErMin=16 ErrMin= 2.28D-07
 ErrMax= 2.28D-07  0.00D+00 EMaxC= 1.00D-01 BMatC= 5.55D-11 BMatP= 6.41D-10
 IDIUse=1 WtCom= 1.00D+00 WtEn= 0.00D+00
 Coeff-Com:  0.103D-04-0.221D-04-0.839D-05 0.109D-03-0.654D-04-0.223D-03
 Coeff-Com:  0.178D-03 0.492D-03-0.325D-03-0.288D-02 0.813D-02 0.214D-01
 Coeff-Com: -0.633D-01-0.627D-01 0.211D+00 0.888D+00
 Coeff:      0.103D-04-0.221D-04-0.839D-05 0.109D-03-0.654D-04-0.223D-03
 Coeff:      0.178D-03 0.492D-03-0.325D-03-0.288D-02 0.813D-02 0.214D-01
 Coeff:     -0.633D-01-0.627D-01 0.211D+00 0.888D+00
 Gap=     0.317 Goal=   None    Shift=    0.000
 Gap=     0.317 Goal=   None    Shift=    0.000
 RMSDP=2.67D-08 MaxDP=1.11D-06 DE=-1.10D-09 OVMax= 4.31D-06

 Cycle  17  Pass 1  IDiag  1:
 RMSU=  1.17D-08    CP:  8.83D-01  2.36D+00  1.34D+00  2.61D+00  3.00D+00
                    CP:  3.00D+00  3.00D+00  1.81D+00  1.41D+00  1.40D+00
                    CP:  1.41D+00  1.89D+00  1.99D+00  2.05D+00  1.73D+00
                    CP:  1.33D+00
 E= -466.859824721419     Delta-E=       -0.000000000048 Rises=F Damp=F
 DIIS: error= 8.70D-08 at cycle  17 NSaved=  17.
 NSaved=17 IEnMin=17 EnMin= -466.859824721419     IErMin=17 ErrMin= 8.70D-08
 ErrMax= 8.70D-08  0.00D+00 EMaxC= 1.00D-01 BMatC= 7.68D-12 BMatP= 5.55D-11
 IDIUse=1 WtCom= 1.00D+00 WtEn= 0.00D+00
 Coeff-Com:  0.489D-06-0.102D-05 0.475D-06 0.118D-04-0.279D-04-0.272D-04
 Coeff-Com:  0.687D-04 0.190D-03-0.451D-03-0.194D-02-0.639D-03 0.705D-02
 Coeff-Com:  0.333D-01-0.461D-01-0.120D+00 0.156D+00 0.973D+00
 Coeff:      0.489D-06-0.102D-05 0.475D-06 0.118D-04-0.279D-04-0.272D-04
 Coeff:      0.687D-04 0.190D-03-0.451D-03-0.194D-02-0.639D-03 0.705D-02
 Coeff:      0.333D-01-0.461D-01-0.120D+00 0.156D+00 0.973D+00
 Gap=     0.317 Goal=   None    Shift=    0.000
 Gap=     0.317 Goal=   None    Shift=    0.000
 RMSDP=1.03D-08 MaxDP=3.23D-07 DE=-4.83D-11 OVMax= 1.49D-06

 Cycle  18  Pass 1  IDiag  1:
 RMSU=  5.10D-09    CP:  8.83D-01  2.36D+00  1.34D+00  2.61D+00  3.00D+00
                    CP:  3.00D+00  3.00D+00  1.81D+00  1.41D+00  1.40D+00
                    CP:  1.41D+00  1.89D+00  1.99D+00  2.05D+00  1.79D+00
                    CP:  1.44D+00  1.24D+00
 E= -466.859824721418     Delta-E=        0.000000000001 Rises=F Damp=F
 DIIS: error= 3.20D-08 at cycle  18 NSaved=  18.
 NSaved=18 IEnMin=17 EnMin= -466.859824721419     IErMin=18 ErrMin= 3.20D-08
 ErrMax= 3.20D-08  0.00D+00 EMaxC= 1.00D-01 BMatC= 5.78D-13 BMatP= 7.68D-12
 IDIUse=1 WtCom= 1.00D+00 WtEn= 0.00D+00
 Coeff-Com:  0.596D-06-0.130D-05 0.443D-06 0.703D-05-0.177D-04-0.146D-04
 Coeff-Com:  0.284D-04 0.395D-04-0.493D-04-0.188D-03-0.635D-03-0.504D-03
 Coeff-Com:  0.803D-02 0.657D-03-0.280D-01-0.724D-01 0.847D-01 0.101D+01
 Coeff:      0.596D-06-0.130D-05 0.443D-06 0.703D-05-0.177D-04-0.146D-04
 Coeff:      0.284D-04 0.395D-04-0.493D-04-0.188D-03-0.635D-03-0.504D-03
 Coeff:      0.803D-02 0.657D-03-0.280D-01-0.724D-01 0.847D-01 0.101D+01
 Gap=     0.317 Goal=   None    Shift=    0.000
 Gap=     0.317 Goal=   None    Shift=    0.000
 RMSDP=2.63D-09 MaxDP=9.46D-08 DE= 1.14D-12 OVMax= 3.07D-07

 Error on total polarization charges =  0.01178
 SCF Done:  E(UwB97XD) =  -466.859824721     A.U. after   18 cycles
            NFock= 18  Conv=0.26D-08     -V/T= 2.0058
 <Sx>= 0.0000 <Sy>= 0.0000 <Sz>= 0.0000 <S**2>= 0.0000 S= 0.0000
 <L.S>=  0.00000000000    
 KE= 4.641447801673D+02 PE=-2.421793034932D+03 EE= 8.207615794912D+02
 --------------------------------------------------------------------
 Variational PCM results
 =======================
 <psi(f)|   H    |psi(f)>                     (a.u.) =    -466.858323
 <psi(f)|H+V(f)/2|psi(f)>                     (a.u.) =    -466.859825
 (Polarized solute)-Solvent               (kcal/mol) =      -0.94
 --------------------------------------------------------------------
 Partition over spheres:
 Sphere  on Atom  Surface  Charge   GEl     GCav    GDR
    1      C1       6.98   0.010   -0.05    0.00    0.00
    2      C2       4.77   0.007   -0.04    0.00    0.00
    3      H3       7.52  -0.010   -0.04    0.00    0.00
    4      H4       3.09  -0.004   -0.01    0.00    0.00
    5      C5       4.42   0.008   -0.05    0.00    0.00
    6      C6       4.29   0.005   -0.03    0.00    0.00
    7      H7       4.84  -0.007   -0.03    0.00    0.00
    8      H8       4.16  -0.006   -0.01    0.00    0.00
    9      C9       3.60   0.002    0.00    0.00    0.00
   10      H10      7.17  -0.007   -0.01    0.00    0.00
   11      H11      3.24  -0.003   -0.01    0.00    0.00
   12      C12      6.42   0.010   -0.06    0.00    0.00
   13      H13      7.51  -0.010   -0.03    0.00    0.00
   14      C14      6.98   0.010   -0.05    0.00    0.00
   15      H15      7.52  -0.010   -0.04    0.00    0.00
   16      C16      3.79   0.002    0.00    0.00    0.00
   17      H17      3.28  -0.002   -0.01    0.00    0.00
   18      H18      7.43  -0.008   -0.03    0.00    0.00
   19      C19      5.09   0.009   -0.06    0.00    0.00
   20      H20      5.01  -0.007   -0.03    0.00    0.00
   21      C21      6.63   0.010   -0.06    0.00    0.00
   22      H22      7.51  -0.010   -0.03    0.00    0.00
   23      C23      3.60   0.002    0.00    0.00    0.00
   24      H24      2.95  -0.003   -0.01    0.00    0.00
   25      H25      7.17  -0.007   -0.01    0.00    0.00
   26      C26      3.46   0.002    0.00    0.00    0.00
   27      H27      7.43  -0.008   -0.03    0.00    0.00
   28      H28      2.54  -0.002   -0.01    0.00    0.00
 Added spheres:    76.31   0.015   -0.22    0.00    0.00
 --------------------------------------------------------------------
 After PCM corrections, the energy is  -466.859824721     a.u.
 --------------------------------------------------------------------
 Annihilation of the first spin contaminant:
 S**2 before annihilation     0.0000,   after    -0.0000
 Leave Link  502 at Mon Aug  3 14:07:33 2020, MaxMem=  6442450944 cpu:            7361.7 elap:             309.6
 (Enter /scratch/scicomp/CentOS/7.3.1611/Haswell/software/Gaussian/g16/l601.exe)
 Copying SCF densities to generalized density rwf, IOpCl= 1 IROHF=0.

 **********************************************************************

            Population analysis using the SCF Density.

 **********************************************************************

 Alpha  occ. eigenvalues --  -10.28467 -10.28466 -10.28334 -10.28333 -10.28314
 Alpha  occ. eigenvalues --  -10.28313 -10.28234 -10.28233 -10.28024 -10.28023
 Alpha  occ. eigenvalues --  -10.27721 -10.27720  -0.94165  -0.93761  -0.84179
 Alpha  occ. eigenvalues --   -0.84135  -0.83950  -0.83763  -0.71334  -0.71280
 Alpha  occ. eigenvalues --   -0.67976  -0.67972  -0.59788  -0.59650  -0.57469
 Alpha  occ. eigenvalues --   -0.56918  -0.53482  -0.52755  -0.50973  -0.50913
 Alpha  occ. eigenvalues --   -0.50004  -0.49571  -0.47346  -0.47036  -0.45173
 Alpha  occ. eigenvalues --   -0.45070  -0.41271  -0.41097  -0.39698  -0.39304
 Alpha  occ. eigenvalues --   -0.39294  -0.39119  -0.29818  -0.27884
 Alpha virt. eigenvalues --    0.03778   0.04598   0.10518   0.12217   0.13299
 Alpha virt. eigenvalues --    0.14316   0.14660   0.15513   0.15621   0.15882
 Alpha virt. eigenvalues --    0.16855   0.16888   0.17122   0.18209   0.19902
 Alpha virt. eigenvalues --    0.20826   0.21408   0.22682   0.23138   0.23630
 Alpha virt. eigenvalues --    0.24815   0.25613   0.25821   0.26896   0.27821
 Alpha virt. eigenvalues --    0.28158   0.28855   0.29154   0.29761   0.30430
 Alpha virt. eigenvalues --    0.31172   0.31756   0.31899   0.32126   0.32832
 Alpha virt. eigenvalues --    0.33282   0.34100   0.35115   0.35392   0.37254
 Alpha virt. eigenvalues --    0.37390   0.38333   0.39499   0.40992   0.41220
 Alpha virt. eigenvalues --    0.41315   0.43127   0.43817   0.45079   0.45681
 Alpha virt. eigenvalues --    0.45983   0.46237   0.47474   0.47835   0.48144
 Alpha virt. eigenvalues --    0.48365   0.48856   0.49141   0.49547   0.49722
 Alpha virt. eigenvalues --    0.50400   0.50428   0.51269   0.51743   0.52409
 Alpha virt. eigenvalues --    0.52664   0.53311   0.54231   0.54303   0.54937
 Alpha virt. eigenvalues --    0.56875   0.57389   0.57398   0.59032   0.59185
 Alpha virt. eigenvalues --    0.59583   0.60849   0.62490   0.63008   0.64028
 Alpha virt. eigenvalues --    0.64755   0.66472   0.67723   0.68273   0.69027
 Alpha virt. eigenvalues --    0.70898   0.72101   0.72688   0.73207   0.74876
 Alpha virt. eigenvalues --    0.76501   0.77990   0.78187   0.80455   0.81547
 Alpha virt. eigenvalues --    0.81602   0.81964   0.82652   0.86827   0.87056
 Alpha virt. eigenvalues --    0.87740   0.88263   0.90666   0.91338   0.92078
 Alpha virt. eigenvalues --    0.92356   0.95039   0.95989   0.98421   0.98825
 Alpha virt. eigenvalues --    1.00547   1.03343   1.03725   1.03999   1.04301
 Alpha virt. eigenvalues --    1.06607   1.06776   1.08021   1.09426   1.11333
 Alpha virt. eigenvalues --    1.13189   1.13190   1.14185   1.14580   1.15390
 Alpha virt. eigenvalues --    1.15929   1.16250   1.16554   1.18729   1.20406
 Alpha virt. eigenvalues --    1.21158   1.22348   1.23482   1.23590   1.24591
 Alpha virt. eigenvalues --    1.25141   1.25671   1.26606   1.26831   1.28359
 Alpha virt. eigenvalues --    1.28540   1.30248   1.31907   1.32374   1.32550
 Alpha virt. eigenvalues --    1.34110   1.34610   1.35656   1.36854   1.38135
 Alpha virt. eigenvalues --    1.38679   1.39600   1.40464   1.40808   1.41595
 Alpha virt. eigenvalues --    1.42230   1.42480   1.43707   1.44796   1.45193
 Alpha virt. eigenvalues --    1.45764   1.46501   1.46600   1.46790   1.48637
 Alpha virt. eigenvalues --    1.49893   1.50238   1.50477   1.53241   1.55466
 Alpha virt. eigenvalues --    1.55936   1.57509   1.57925   1.58243   1.60846
 Alpha virt. eigenvalues --    1.60854   1.62455   1.63259   1.64988   1.67504
 Alpha virt. eigenvalues --    1.68416   1.69759   1.70185   1.72631   1.75538
 Alpha virt. eigenvalues --    1.75743   1.79812   1.80236   1.82567   1.83549
 Alpha virt. eigenvalues --    1.86383   1.87781   1.89437   1.89758   1.91311
 Alpha virt. eigenvalues --    1.92425   1.95770   1.99807   2.00951   2.01330
 Alpha virt. eigenvalues --    2.03914   2.05126   2.06768   2.07551   2.08581
 Alpha virt. eigenvalues --    2.08868   2.11565   2.12272   2.13150   2.15352
 Alpha virt. eigenvalues --    2.18504   2.19530   2.19925   2.20523   2.22239
 Alpha virt. eigenvalues --    2.23056   2.23151   2.23998   2.25735   2.26128
 Alpha virt. eigenvalues --    2.28649   2.32624   2.37058   2.37811   2.40295
 Alpha virt. eigenvalues --    2.42671   2.45901   2.46390   2.48509   2.49633
 Alpha virt. eigenvalues --    2.49913   2.50210   2.53030   2.54228   2.54253
 Alpha virt. eigenvalues --    2.55075   2.57117   2.57424   2.60385   2.60903
 Alpha virt. eigenvalues --    2.61992   2.64198   2.64298   2.65071   2.66322
 Alpha virt. eigenvalues --    2.67691   2.68031   2.70258   2.72176   2.72287
 Alpha virt. eigenvalues --    2.73057   2.73163   2.74713   2.75866   2.76824
 Alpha virt. eigenvalues --    2.77496   2.77531   2.78821   2.80481   2.81049
 Alpha virt. eigenvalues --    2.81469   2.81878   2.82302   2.83655   2.84384
 Alpha virt. eigenvalues --    2.84708   2.86024   2.87095   2.88592   2.88773
 Alpha virt. eigenvalues --    2.89800   2.89959   2.92301   2.92696   2.93088
 Alpha virt. eigenvalues --    2.94534   2.94608   2.94966   2.95906   2.98800
 Alpha virt. eigenvalues --    3.01727   3.01814   3.02783   3.04084   3.06196
 Alpha virt. eigenvalues --    3.06314   3.08273   3.08978   3.09402   3.10836
 Alpha virt. eigenvalues --    3.12061   3.12521   3.12713   3.13974   3.14744
 Alpha virt. eigenvalues --    3.14857   3.16946   3.17066   3.18474   3.18698
 Alpha virt. eigenvalues --    3.19399   3.19600   3.20055   3.20854   3.21037
 Alpha virt. eigenvalues --    3.22199   3.22650   3.23229   3.23347   3.24009
 Alpha virt. eigenvalues --    3.25378   3.26041   3.26803   3.27434   3.28052
 Alpha virt. eigenvalues --    3.28753   3.29077   3.30254   3.31115   3.31213
 Alpha virt. eigenvalues --    3.32260   3.32852   3.33001   3.33510   3.34278
 Alpha virt. eigenvalues --    3.34798   3.35433   3.35945   3.37497   3.38226
 Alpha virt. eigenvalues --    3.38854   3.39542   3.41948   3.43549   3.43720
 Alpha virt. eigenvalues --    3.44747   3.45477   3.46364   3.46436   3.46847
 Alpha virt. eigenvalues --    3.48380   3.48823   3.48914   3.49508   3.51005
 Alpha virt. eigenvalues --    3.51218   3.52172   3.53349   3.54444   3.54723
 Alpha virt. eigenvalues --    3.54969   3.55354   3.58816   3.59121   3.62055
 Alpha virt. eigenvalues --    3.63509   3.64578   3.64837   3.64955   3.65250
 Alpha virt. eigenvalues --    3.67919   3.68424   3.70282   3.71587   3.71891
 Alpha virt. eigenvalues --    3.74064   3.76146   3.76565   3.78476   3.79106
 Alpha virt. eigenvalues --    3.84440   3.84646   3.85295   3.86039   3.86239
 Alpha virt. eigenvalues --    3.87840   3.89946   3.90398   3.92662   3.93539
 Alpha virt. eigenvalues --    3.94572   3.95329   3.99477   3.99610   4.01957
 Alpha virt. eigenvalues --    4.04209   4.08141   4.08793   4.08929   4.10538
 Alpha virt. eigenvalues --    4.11719   4.12697   4.13211   4.15906   4.17813
 Alpha virt. eigenvalues --    4.18845   4.19818   4.21430   4.22575   4.23208
 Alpha virt. eigenvalues --    4.24962   4.27132   4.30833   4.30905   4.33329
 Alpha virt. eigenvalues --    4.35141   4.37271   4.37382   4.39158   4.40240
 Alpha virt. eigenvalues --    4.43418   4.44378   4.45813   4.47473   4.48909
 Alpha virt. eigenvalues --    4.49506   4.58869   4.60591   4.61734   4.65127
 Alpha virt. eigenvalues --    4.68911   4.69107   4.71536   4.73977   4.74262
 Alpha virt. eigenvalues --    4.75291   4.77463   4.78198   4.80010   4.82835
 Alpha virt. eigenvalues --    4.84036   4.84391   4.89074   4.89359   4.93940
 Alpha virt. eigenvalues --    4.94038   4.95625   4.97671   5.05572   5.08201
 Alpha virt. eigenvalues --    5.10854   5.11476   5.17802   5.18988   5.22875
 Alpha virt. eigenvalues --    5.23493   5.29569   5.31805   5.39804   5.40373
 Alpha virt. eigenvalues --    5.43209   5.44556   5.48462   5.48854   5.66498
 Alpha virt. eigenvalues --    5.70171   5.74881   5.76910   5.91989   5.98154
 Alpha virt. eigenvalues --    7.93916   7.95544   8.01836   8.03080   8.05828
 Alpha virt. eigenvalues --    8.06884   8.10720   8.11039   8.17325   8.18139
 Alpha virt. eigenvalues --    8.33688   8.35846  34.76091  34.77677  34.80807
 Alpha virt. eigenvalues --   34.81874  34.85503  34.86866  34.97144  34.97698
 Alpha virt. eigenvalues --   35.00282  35.01430  35.15223  35.18548
  Beta  occ. eigenvalues --  -10.28467 -10.28466 -10.28334 -10.28333 -10.28314
  Beta  occ. eigenvalues --  -10.28313 -10.28234 -10.28233 -10.28024 -10.28023
  Beta  occ. eigenvalues --  -10.27721 -10.27720  -0.94165  -0.93761  -0.84179
  Beta  occ. eigenvalues --   -0.84135  -0.83950  -0.83763  -0.71334  -0.71280
  Beta  occ. eigenvalues --   -0.67976  -0.67972  -0.59788  -0.59650  -0.57469
  Beta  occ. eigenvalues --   -0.56918  -0.53482  -0.52755  -0.50973  -0.50913
  Beta  occ. eigenvalues --   -0.50004  -0.49571  -0.47346  -0.47036  -0.45173
  Beta  occ. eigenvalues --   -0.45070  -0.41271  -0.41097  -0.39698  -0.39304
  Beta  occ. eigenvalues --   -0.39294  -0.39119  -0.29818  -0.27884
  Beta virt. eigenvalues --    0.03778   0.04598   0.10518   0.12217   0.13299
  Beta virt. eigenvalues --    0.14316   0.14660   0.15513   0.15621   0.15882
  Beta virt. eigenvalues --    0.16855   0.16888   0.17122   0.18209   0.19902
  Beta virt. eigenvalues --    0.20826   0.21408   0.22682   0.23138   0.23630
  Beta virt. eigenvalues --    0.24815   0.25613   0.25821   0.26896   0.27821
  Beta virt. eigenvalues --    0.28158   0.28855   0.29154   0.29761   0.30430
  Beta virt. eigenvalues --    0.31172   0.31756   0.31899   0.32126   0.32832
  Beta virt. eigenvalues --    0.33282   0.34100   0.35115   0.35392   0.37254
  Beta virt. eigenvalues --    0.37390   0.38333   0.39499   0.40992   0.41220
  Beta virt. eigenvalues --    0.41315   0.43127   0.43817   0.45079   0.45681
  Beta virt. eigenvalues --    0.45983   0.46237   0.47474   0.47835   0.48144
  Beta virt. eigenvalues --    0.48365   0.48856   0.49141   0.49547   0.49722
  Beta virt. eigenvalues --    0.50400   0.50428   0.51269   0.51743   0.52409
  Beta virt. eigenvalues --    0.52664   0.53311   0.54231   0.54303   0.54937
  Beta virt. eigenvalues --    0.56875   0.57389   0.57398   0.59032   0.59185
  Beta virt. eigenvalues --    0.59583   0.60849   0.62490   0.63008   0.64028
  Beta virt. eigenvalues --    0.64755   0.66472   0.67723   0.68273   0.69027
  Beta virt. eigenvalues --    0.70898   0.72101   0.72688   0.73207   0.74876
  Beta virt. eigenvalues --    0.76501   0.77990   0.78187   0.80455   0.81547
  Beta virt. eigenvalues --    0.81602   0.81964   0.82652   0.86827   0.87056
  Beta virt. eigenvalues --    0.87740   0.88263   0.90666   0.91338   0.92078
  Beta virt. eigenvalues --    0.92356   0.95039   0.95989   0.98421   0.98825
  Beta virt. eigenvalues --    1.00547   1.03343   1.03725   1.03999   1.04301
  Beta virt. eigenvalues --    1.06607   1.06776   1.08021   1.09426   1.11333
  Beta virt. eigenvalues --    1.13189   1.13190   1.14185   1.14580   1.15390
  Beta virt. eigenvalues --    1.15929   1.16250   1.16554   1.18729   1.20406
  Beta virt. eigenvalues --    1.21158   1.22348   1.23482   1.23590   1.24591
  Beta virt. eigenvalues --    1.25141   1.25671   1.26606   1.26831   1.28359
  Beta virt. eigenvalues --    1.28540   1.30248   1.31907   1.32374   1.32550
  Beta virt. eigenvalues --    1.34110   1.34610   1.35656   1.36854   1.38135
  Beta virt. eigenvalues --    1.38679   1.39600   1.40464   1.40808   1.41595
  Beta virt. eigenvalues --    1.42230   1.42480   1.43707   1.44796   1.45193
  Beta virt. eigenvalues --    1.45764   1.46501   1.46600   1.46790   1.48637
  Beta virt. eigenvalues --    1.49893   1.50238   1.50477   1.53241   1.55466
  Beta virt. eigenvalues --    1.55936   1.57509   1.57925   1.58243   1.60846
  Beta virt. eigenvalues --    1.60854   1.62455   1.63259   1.64988   1.67504
  Beta virt. eigenvalues --    1.68416   1.69759   1.70185   1.72631   1.75538
  Beta virt. eigenvalues --    1.75743   1.79812   1.80236   1.82567   1.83549
  Beta virt. eigenvalues --    1.86383   1.87781   1.89437   1.89758   1.91311
  Beta virt. eigenvalues --    1.92425   1.95770   1.99807   2.00951   2.01330
  Beta virt. eigenvalues --    2.03914   2.05126   2.06768   2.07551   2.08581
  Beta virt. eigenvalues --    2.08868   2.11565   2.12272   2.13150   2.15352
  Beta virt. eigenvalues --    2.18504   2.19530   2.19925   2.20523   2.22239
  Beta virt. eigenvalues --    2.23056   2.23151   2.23998   2.25735   2.26128
  Beta virt. eigenvalues --    2.28649   2.32624   2.37058   2.37811   2.40295
  Beta virt. eigenvalues --    2.42671   2.45901   2.46390   2.48509   2.49633
  Beta virt. eigenvalues --    2.49913   2.50210   2.53030   2.54228   2.54253
  Beta virt. eigenvalues --    2.55075   2.57117   2.57424   2.60385   2.60903
  Beta virt. eigenvalues --    2.61992   2.64198   2.64298   2.65071   2.66322
  Beta virt. eigenvalues --    2.67691   2.68031   2.70258   2.72176   2.72287
  Beta virt. eigenvalues --    2.73057   2.73163   2.74713   2.75866   2.76824
  Beta virt. eigenvalues --    2.77496   2.77531   2.78821   2.80481   2.81049
  Beta virt. eigenvalues --    2.81469   2.81878   2.82302   2.83655   2.84384
  Beta virt. eigenvalues --    2.84708   2.86024   2.87095   2.88592   2.88773
  Beta virt. eigenvalues --    2.89800   2.89959   2.92301   2.92696   2.93088
  Beta virt. eigenvalues --    2.94534   2.94608   2.94966   2.95906   2.98800
  Beta virt. eigenvalues --    3.01727   3.01814   3.02783   3.04084   3.06196
  Beta virt. eigenvalues --    3.06314   3.08273   3.08978   3.09402   3.10836
  Beta virt. eigenvalues --    3.12061   3.12521   3.12713   3.13974   3.14744
  Beta virt. eigenvalues --    3.14857   3.16946   3.17066   3.18474   3.18698
  Beta virt. eigenvalues --    3.19399   3.19600   3.20055   3.20854   3.21037
  Beta virt. eigenvalues --    3.22199   3.22650   3.23229   3.23347   3.24009
  Beta virt. eigenvalues --    3.25378   3.26041   3.26803   3.27434   3.28052
  Beta virt. eigenvalues --    3.28753   3.29077   3.30254   3.31115   3.31213
  Beta virt. eigenvalues --    3.32260   3.32852   3.33001   3.33510   3.34278
  Beta virt. eigenvalues --    3.34798   3.35433   3.35945   3.37497   3.38226
  Beta virt. eigenvalues --    3.38854   3.39542   3.41948   3.43549   3.43720
  Beta virt. eigenvalues --    3.44747   3.45477   3.46364   3.46436   3.46847
  Beta virt. eigenvalues --    3.48380   3.48823   3.48914   3.49508   3.51005
  Beta virt. eigenvalues --    3.51218   3.52172   3.53349   3.54444   3.54723
  Beta virt. eigenvalues --    3.54969   3.55354   3.58816   3.59121   3.62055
  Beta virt. eigenvalues --    3.63509   3.64578   3.64837   3.64955   3.65250
  Beta virt. eigenvalues --    3.67919   3.68424   3.70282   3.71587   3.71891
  Beta virt. eigenvalues --    3.74064   3.76146   3.76565   3.78476   3.79106
  Beta virt. eigenvalues --    3.84440   3.84646   3.85295   3.86039   3.86239
  Beta virt. eigenvalues --    3.87840   3.89946   3.90398   3.92662   3.93539
  Beta virt. eigenvalues --    3.94572   3.95329   3.99477   3.99610   4.01957
  Beta virt. eigenvalues --    4.04209   4.08141   4.08793   4.08929   4.10538
  Beta virt. eigenvalues --    4.11719   4.12697   4.13211   4.15906   4.17813
  Beta virt. eigenvalues --    4.18845   4.19818   4.21430   4.22575   4.23208
  Beta virt. eigenvalues --    4.24962   4.27132   4.30833   4.30905   4.33329
  Beta virt. eigenvalues --    4.35141   4.37271   4.37382   4.39158   4.40240
  Beta virt. eigenvalues --    4.43418   4.44378   4.45813   4.47473   4.48909
  Beta virt. eigenvalues --    4.49506   4.58869   4.60591   4.61734   4.65127
  Beta virt. eigenvalues --    4.68911   4.69107   4.71536   4.73977   4.74262
  Beta virt. eigenvalues --    4.75291   4.77463   4.78198   4.80010   4.82835
  Beta virt. eigenvalues --    4.84036   4.84391   4.89074   4.89359   4.93940
  Beta virt. eigenvalues --    4.94038   4.95625   4.97671   5.05572   5.08201
  Beta virt. eigenvalues --    5.10854   5.11476   5.17802   5.18988   5.22875
  Beta virt. eigenvalues --    5.23493   5.29569   5.31805   5.39804   5.40373
  Beta virt. eigenvalues --    5.43209   5.44556   5.48462   5.48854   5.66498
  Beta virt. eigenvalues --    5.70171   5.74881   5.76910   5.91989   5.98154
  Beta virt. eigenvalues --    7.93916   7.95544   8.01836   8.03080   8.05828
  Beta virt. eigenvalues --    8.06884   8.10720   8.11039   8.17325   8.18139
  Beta virt. eigenvalues --    8.33688   8.35846  34.76091  34.77677  34.80807
  Beta virt. eigenvalues --   34.81874  34.85503  34.86866  34.97144  34.97698
  Beta virt. eigenvalues --   35.00282  35.01430  35.15223  35.18548
          Condensed to atoms (all electrons):
               1          2          3          4          5          6
     1  C    5.121143   0.011444   0.423097  -0.001781   0.000185  -0.003328
     2  C    0.011444   5.234820  -0.001992   0.423453  -0.019887  -0.046908
     3  H    0.423097  -0.001992   0.497483   0.000036  -0.000045  -0.000034
     4  H   -0.001781   0.423453   0.000036   0.480341  -0.001795   0.001955
     5  C    0.000185  -0.019887  -0.000045  -0.001795   5.094913   0.552770
     6  C   -0.003328  -0.046908  -0.000034   0.001955   0.552770   5.234937
     7  H    0.000222  -0.000851  -0.000000  -0.000075   0.423620  -0.028621
     8  H   -0.000561   0.001953   0.000002   0.000011  -0.042096   0.423462
     9  C    0.001135   0.000795  -0.000003  -0.000751  -0.072079   0.269650
    10  H   -0.000018  -0.000248  -0.000001  -0.000054  -0.003725  -0.033926
    11  H    0.000087  -0.001502   0.000000   0.000019   0.006639  -0.049888
    12  C   -0.000096   0.006391   0.000002   0.001222   0.311973  -0.078020
    13  H   -0.000001   0.000014   0.000000   0.000000  -0.037989   0.005005
    14  C    0.000113  -0.003329  -0.000000  -0.000562  -0.065964   0.011447
    15  H   -0.000000  -0.000034  -0.000000   0.000002   0.007320  -0.001992
    16  C   -0.000528   0.007783  -0.000000   0.000441   0.004352  -0.075275
    17  H   -0.000071  -0.001274  -0.000001  -0.000877   0.010987  -0.001182
    18  H    0.000001   0.000587   0.000000   0.000096  -0.002285   0.010945
    19  C   -0.065982   0.552815   0.007319  -0.042072  -0.000388  -0.019880
    20  H    0.003806  -0.028611  -0.000122  -0.005723   0.000170  -0.000851
    21  C    0.600445  -0.078026  -0.033180   0.005818   0.000442   0.006390
    22  H   -0.027705   0.005003  -0.006390  -0.000084   0.000013   0.000014
    23  C   -0.088919   0.269646   0.005450  -0.016141   0.001912   0.000794
    24  H    0.012323  -0.049903  -0.000140  -0.004114   0.002411  -0.001500
    25  H    0.005815  -0.033929   0.000002   0.000099   0.000274  -0.000248
    26  C    0.290436  -0.075266  -0.030706   0.004106  -0.001812   0.007781
    27  H   -0.036354   0.010944  -0.004609  -0.000142   0.000352   0.000587
    28  H   -0.034653  -0.001179   0.001504  -0.000147  -0.002948  -0.001270
               7          8          9         10         11         12
     1  C    0.000222  -0.000561   0.001135  -0.000018   0.000087  -0.000096
     2  C   -0.000851   0.001953   0.000795  -0.000248  -0.001502   0.006391
     3  H   -0.000000   0.000002  -0.000003  -0.000001   0.000000   0.000002
     4  H   -0.000075   0.000011  -0.000751  -0.000054   0.000019   0.001222
     5  C    0.423620  -0.042096  -0.072079  -0.003725   0.006639   0.311973
     6  C   -0.028621   0.423462   0.269650  -0.033926  -0.049888  -0.078020
     7  H    0.487376  -0.005722   0.003755  -0.000306  -0.000069  -0.031671
     8  H   -0.005722   0.480252  -0.016113   0.000098  -0.004112   0.005819
     9  C    0.003755  -0.016113   4.922996   0.380874   0.444058   0.034462
    10  H   -0.000306   0.000098   0.380874   0.580857  -0.021985   0.001876
    11  H   -0.000069  -0.004112   0.444058  -0.021985   0.543656  -0.003344
    12  C   -0.031671   0.005819   0.034462   0.001876  -0.003344   4.990220
    13  H   -0.003471  -0.000084  -0.000524  -0.000052   0.000038   0.425748
    14  C    0.003806  -0.001782  -0.088933   0.005817   0.012322   0.600437
    15  H   -0.000122   0.000036   0.005450   0.000002  -0.000140  -0.033184
    16  C   -0.000744   0.004105   0.376250  -0.026519  -0.048724  -0.065571
    17  H    0.000023  -0.000147  -0.035360   0.007785  -0.008812  -0.015778
    18  H    0.000040  -0.000142  -0.042517  -0.008536  -0.001335   0.005672
    19  C    0.000171  -0.001795   0.001915   0.000274   0.002412   0.000441
    20  H    0.000007  -0.000075   0.001527   0.000100  -0.000350  -0.000112
    21  C   -0.000112   0.001224  -0.000229   0.000021  -0.000336  -0.000187
    22  H   -0.000001   0.000000  -0.000043  -0.000000   0.000001   0.000000
    23  C    0.001526  -0.000750   0.000224  -0.000012   0.000040  -0.000229
    24  H   -0.000350   0.000019   0.000040   0.000003  -0.000015  -0.000336
    25  H    0.000100  -0.000054  -0.000012   0.000001   0.000003   0.000021
    26  C   -0.001206   0.000434  -0.000654   0.000050  -0.000061   0.000510
    27  H   -0.000019   0.000096  -0.000026   0.000001  -0.000002  -0.000049
    28  H    0.001537  -0.000879   0.000309  -0.000013   0.000023   0.000547
              13         14         15         16         17         18
     1  C   -0.000001   0.000113  -0.000000  -0.000528  -0.000071   0.000001
     2  C    0.000014  -0.003329  -0.000034   0.007783  -0.001274   0.000587
     3  H    0.000000  -0.000000  -0.000000  -0.000000  -0.000001   0.000000
     4  H    0.000000  -0.000562   0.000002   0.000441  -0.000877   0.000096
     5  C   -0.037989  -0.065964   0.007320   0.004352   0.010987  -0.002285
     6  C    0.005005   0.011447  -0.001992  -0.075275  -0.001182   0.010945
     7  H   -0.003471   0.003806  -0.000122  -0.000744   0.000023   0.000040
     8  H   -0.000084  -0.001782   0.000036   0.004105  -0.000147  -0.000142
     9  C   -0.000524  -0.088933   0.005450   0.376250  -0.035360  -0.042517
    10  H   -0.000052   0.005817   0.000002  -0.026519   0.007785  -0.008536
    11  H    0.000038   0.012322  -0.000140  -0.048724  -0.008812  -0.001335
    12  C    0.425748   0.600437  -0.033184  -0.065571  -0.015778   0.005672
    13  H    0.495364  -0.027707  -0.006391   0.004946  -0.000403  -0.000137
    14  C   -0.027707   5.121128   0.423093   0.290425  -0.034645  -0.036355
    15  H   -0.006391   0.423093   0.497490  -0.030699   0.001504  -0.004609
    16  C    0.004946   0.290425  -0.030699   4.911281   0.397120   0.428771
    17  H   -0.000403  -0.034645   0.001504   0.397120   0.595158  -0.022339
    18  H   -0.000137  -0.036355  -0.004609   0.428771  -0.022339   0.546990
    19  C    0.000013   0.000186  -0.000045  -0.001817  -0.002948   0.000352
    20  H   -0.000001   0.000222  -0.000000  -0.001206   0.001536  -0.000019
    21  C    0.000000  -0.000096   0.000002   0.000510   0.000547  -0.000049
    22  H    0.000000  -0.000001   0.000000   0.000010  -0.000004  -0.000001
    23  C   -0.000043   0.001135  -0.000003  -0.000655   0.000308  -0.000026
    24  H    0.000001   0.000087   0.000000  -0.000061   0.000023  -0.000002
    25  H   -0.000000  -0.000018  -0.000001   0.000050  -0.000013   0.000001
    26  C    0.000010  -0.000528  -0.000000   0.000909   0.000136  -0.000002
    27  H   -0.000001   0.000001   0.000000  -0.000002   0.000003  -0.000000
    28  H   -0.000004  -0.000071  -0.000001   0.000136  -0.000029   0.000003
              19         20         21         22         23         24
     1  C   -0.065982   0.003806   0.600445  -0.027705  -0.088919   0.012323
     2  C    0.552815  -0.028611  -0.078026   0.005003   0.269646  -0.049903
     3  H    0.007319  -0.000122  -0.033180  -0.006390   0.005450  -0.000140
     4  H   -0.042072  -0.005723   0.005818  -0.000084  -0.016141  -0.004114
     5  C   -0.000388   0.000170   0.000442   0.000013   0.001912   0.002411
     6  C   -0.019880  -0.000851   0.006390   0.000014   0.000794  -0.001500
     7  H    0.000171   0.000007  -0.000112  -0.000001   0.001526  -0.000350
     8  H   -0.001795  -0.000075   0.001224   0.000000  -0.000750   0.000019
     9  C    0.001915   0.001527  -0.000229  -0.000043   0.000224   0.000040
    10  H    0.000274   0.000100   0.000021  -0.000000  -0.000012   0.000003
    11  H    0.002412  -0.000350  -0.000336   0.000001   0.000040  -0.000015
    12  C    0.000441  -0.000112  -0.000187   0.000000  -0.000229  -0.000336
    13  H    0.000013  -0.000001   0.000000   0.000000  -0.000043   0.000001
    14  C    0.000186   0.000222  -0.000096  -0.000001   0.001135   0.000087
    15  H   -0.000045  -0.000000   0.000002   0.000000  -0.000003   0.000000
    16  C   -0.001817  -0.001206   0.000510   0.000010  -0.000655  -0.000061
    17  H   -0.002948   0.001536   0.000547  -0.000004   0.000308   0.000023
    18  H    0.000352  -0.000019  -0.000049  -0.000001  -0.000026  -0.000002
    19  C    5.094861   0.423613   0.312011  -0.037985  -0.072071   0.006642
    20  H    0.423613   0.487353  -0.031671  -0.003470   0.003754  -0.000069
    21  C    0.312011  -0.031671   4.990192   0.425742   0.034450  -0.003345
    22  H   -0.037985  -0.003470   0.425742   0.495355  -0.000523   0.000038
    23  C   -0.072071   0.003754   0.034450  -0.000523   4.922942   0.444060
    24  H    0.006642  -0.000069  -0.003345   0.000038   0.444060   0.543759
    25  H   -0.003728  -0.000306   0.001879  -0.000052   0.380885  -0.021984
    26  C    0.004361  -0.000744  -0.065575   0.004946   0.376240  -0.048732
    27  H   -0.002285   0.000040   0.005671  -0.000137  -0.042511  -0.001335
    28  H    0.010984   0.000023  -0.015769  -0.000403  -0.035371  -0.008815
              25         26         27         28
     1  C    0.005815   0.290436  -0.036354  -0.034653
     2  C   -0.033929  -0.075266   0.010944  -0.001179
     3  H    0.000002  -0.030706  -0.004609   0.001504
     4  H    0.000099   0.004106  -0.000142  -0.000147
     5  C    0.000274  -0.001812   0.000352  -0.002948
     6  C   -0.000248   0.007781   0.000587  -0.001270
     7  H    0.000100  -0.001206  -0.000019   0.001537
     8  H   -0.000054   0.000434   0.000096  -0.000879
     9  C   -0.000012  -0.000654  -0.000026   0.000309
    10  H    0.000001   0.000050   0.000001  -0.000013
    11  H    0.000003  -0.000061  -0.000002   0.000023
    12  C    0.000021   0.000510  -0.000049   0.000547
    13  H   -0.000000   0.000010  -0.000001  -0.000004
    14  C   -0.000018  -0.000528   0.000001  -0.000071
    15  H   -0.000001  -0.000000   0.000000  -0.000001
    16  C    0.000050   0.000909  -0.000002   0.000136
    17  H   -0.000013   0.000136   0.000003  -0.000029
    18  H    0.000001  -0.000002  -0.000000   0.000003
    19  C   -0.003728   0.004361  -0.002285   0.010984
    20  H   -0.000306  -0.000744   0.000040   0.000023
    21  C    0.001879  -0.065575   0.005671  -0.015769
    22  H   -0.000052   0.004946  -0.000137  -0.000403
    23  C    0.380885   0.376240  -0.042511  -0.035371
    24  H   -0.021984  -0.048732  -0.001335  -0.008815
    25  H    0.580832  -0.026515  -0.008536   0.007786
    26  C   -0.026515   4.911230   0.428770   0.397116
    27  H   -0.008536   0.428770   0.546978  -0.022347
    28  H    0.007786   0.397116  -0.022347   0.595236
          Atomic-Atomic Spin Densities.
               1          2          3          4          5          6
     1  C   -0.000000  -0.000000  -0.000000  -0.000000   0.000000   0.000000
     2  C   -0.000000   0.000000   0.000000   0.000000  -0.000000   0.000000
     3  H   -0.000000   0.000000   0.000000  -0.000000  -0.000000   0.000000
     4  H   -0.000000   0.000000  -0.000000  -0.000000   0.000000  -0.000000
     5  C    0.000000  -0.000000  -0.000000   0.000000   0.000000   0.000000
     6  C    0.000000   0.000000   0.000000  -0.000000   0.000000  -0.000000
     7  H   -0.000000   0.000000   0.000000  -0.000000  -0.000000  -0.000000
     8  H    0.000000   0.000000  -0.000000   0.000000   0.000000  -0.000000
     9  C   -0.000000   0.000000  -0.000000  -0.000000   0.000000   0.000000
    10  H    0.000000  -0.000000  -0.000000   0.000000  -0.000000   0.000000
    11  H    0.000000  -0.000000  -0.000000   0.000000   0.000000   0.000000
    12  C   -0.000000   0.000000   0.000000  -0.000000   0.000000   0.000000
    13  H   -0.000000   0.000000   0.000000   0.000000   0.000000  -0.000000
    14  C   -0.000000  -0.000000  -0.000000  -0.000000  -0.000000   0.000000
    15  H    0.000000  -0.000000   0.000000   0.000000   0.000000  -0.000000
    16  C   -0.000000   0.000000   0.000000   0.000000  -0.000000  -0.000000
    17  H    0.000000  -0.000000  -0.000000   0.000000   0.000000  -0.000000
    18  H   -0.000000  -0.000000   0.000000   0.000000  -0.000000  -0.000000
    19  C    0.000000  -0.000000  -0.000000  -0.000000   0.000000   0.000000
    20  H   -0.000000   0.000000   0.000000   0.000000   0.000000  -0.000000
    21  C    0.000000   0.000000   0.000000  -0.000000  -0.000000  -0.000000
    22  H   -0.000000   0.000000  -0.000000  -0.000000   0.000000  -0.000000
    23  C   -0.000000  -0.000000   0.000000  -0.000000   0.000000  -0.000000
    24  H   -0.000000  -0.000000  -0.000000  -0.000000   0.000000   0.000000
    25  H   -0.000000  -0.000000   0.000000   0.000000  -0.000000   0.000000
    26  C    0.000000   0.000000  -0.000000  -0.000000   0.000000  -0.000000
    27  H    0.000000   0.000000  -0.000000   0.000000   0.000000   0.000000
    28  H   -0.000000   0.000000   0.000000   0.000000  -0.000000   0.000000
               7          8          9         10         11         12
     1  C   -0.000000   0.000000  -0.000000   0.000000   0.000000  -0.000000
     2  C    0.000000   0.000000   0.000000  -0.000000  -0.000000   0.000000
     3  H    0.000000  -0.000000  -0.000000  -0.000000  -0.000000   0.000000
     4  H   -0.000000   0.000000  -0.000000   0.000000   0.000000  -0.000000
     5  C   -0.000000   0.000000   0.000000  -0.000000   0.000000   0.000000
     6  C   -0.000000  -0.000000   0.000000   0.000000   0.000000   0.000000
     7  H    0.000000  -0.000000   0.000000  -0.000000  -0.000000  -0.000000
     8  H   -0.000000   0.000000   0.000000  -0.000000  -0.000000   0.000000
     9  C    0.000000   0.000000  -0.000000  -0.000000   0.000000  -0.000000
    10  H   -0.000000  -0.000000  -0.000000   0.000000  -0.000000  -0.000000
    11  H   -0.000000  -0.000000   0.000000  -0.000000   0.000000  -0.000000
    12  C   -0.000000   0.000000  -0.000000  -0.000000  -0.000000  -0.000000
    13  H    0.000000   0.000000   0.000000  -0.000000  -0.000000  -0.000000
    14  C    0.000000   0.000000   0.000000   0.000000   0.000000  -0.000000
    15  H   -0.000000   0.000000  -0.000000  -0.000000   0.000000  -0.000000
    16  C   -0.000000   0.000000   0.000000  -0.000000  -0.000000   0.000000
    17  H   -0.000000  -0.000000   0.000000   0.000000  -0.000000   0.000000
    18  H    0.000000  -0.000000   0.000000  -0.000000  -0.000000   0.000000
    19  C    0.000000  -0.000000  -0.000000   0.000000  -0.000000   0.000000
    20  H   -0.000000   0.000000   0.000000  -0.000000   0.000000   0.000000
    21  C   -0.000000   0.000000   0.000000  -0.000000   0.000000   0.000000
    22  H    0.000000  -0.000000   0.000000  -0.000000   0.000000   0.000000
    23  C   -0.000000   0.000000   0.000000  -0.000000   0.000000  -0.000000
    24  H   -0.000000  -0.000000  -0.000000   0.000000   0.000000  -0.000000
    25  H    0.000000  -0.000000   0.000000   0.000000  -0.000000   0.000000
    26  C   -0.000000  -0.000000   0.000000   0.000000   0.000000  -0.000000
    27  H    0.000000  -0.000000  -0.000000   0.000000   0.000000  -0.000000
    28  H    0.000000  -0.000000   0.000000  -0.000000  -0.000000   0.000000
              13         14         15         16         17         18
     1  C   -0.000000  -0.000000   0.000000  -0.000000   0.000000  -0.000000
     2  C    0.000000  -0.000000  -0.000000   0.000000  -0.000000  -0.000000
     3  H    0.000000  -0.000000   0.000000   0.000000  -0.000000   0.000000
     4  H    0.000000  -0.000000   0.000000   0.000000   0.000000   0.000000
     5  C    0.000000  -0.000000   0.000000  -0.000000   0.000000  -0.000000
     6  C   -0.000000   0.000000  -0.000000  -0.000000  -0.000000  -0.000000
     7  H    0.000000   0.000000  -0.000000  -0.000000  -0.000000   0.000000
     8  H    0.000000   0.000000   0.000000   0.000000  -0.000000  -0.000000
     9  C    0.000000   0.000000  -0.000000   0.000000   0.000000   0.000000
    10  H   -0.000000   0.000000  -0.000000  -0.000000   0.000000  -0.000000
    11  H   -0.000000   0.000000   0.000000  -0.000000  -0.000000  -0.000000
    12  C   -0.000000  -0.000000  -0.000000   0.000000   0.000000   0.000000
    13  H   -0.000000   0.000000   0.000000  -0.000000  -0.000000   0.000000
    14  C    0.000000   0.000000   0.000000  -0.000000   0.000000  -0.000000
    15  H    0.000000   0.000000  -0.000000   0.000000  -0.000000   0.000000
    16  C   -0.000000  -0.000000   0.000000   0.000000  -0.000000  -0.000000
    17  H   -0.000000   0.000000  -0.000000  -0.000000  -0.000000   0.000000
    18  H    0.000000  -0.000000   0.000000  -0.000000   0.000000  -0.000000
    19  C   -0.000000  -0.000000   0.000000   0.000000   0.000000  -0.000000
    20  H   -0.000000   0.000000  -0.000000   0.000000  -0.000000  -0.000000
    21  C   -0.000000   0.000000  -0.000000   0.000000  -0.000000   0.000000
    22  H    0.000000   0.000000  -0.000000   0.000000  -0.000000   0.000000
    23  C    0.000000   0.000000   0.000000  -0.000000  -0.000000   0.000000
    24  H   -0.000000  -0.000000  -0.000000  -0.000000   0.000000  -0.000000
    25  H    0.000000  -0.000000   0.000000  -0.000000   0.000000  -0.000000
    26  C   -0.000000   0.000000  -0.000000   0.000000   0.000000   0.000000
    27  H   -0.000000   0.000000  -0.000000  -0.000000   0.000000  -0.000000
    28  H    0.000000  -0.000000   0.000000  -0.000000  -0.000000  -0.000000
              19         20         21         22         23         24
     1  C    0.000000  -0.000000   0.000000  -0.000000  -0.000000  -0.000000
     2  C   -0.000000   0.000000   0.000000   0.000000  -0.000000  -0.000000
     3  H   -0.000000   0.000000   0.000000  -0.000000   0.000000  -0.000000
     4  H   -0.000000   0.000000  -0.000000  -0.000000  -0.000000  -0.000000
[...]
     2  C   -0.000000   0.000000   0.000000   0.000000
     3  H    0.000000  -0.000000  -0.000000   0.000000
     4  H    0.000000  -0.000000   0.000000   0.000000
     5  C   -0.000000   0.000000   0.000000  -0.000000
     6  C    0.000000  -0.000000   0.000000   0.000000
     7  H    0.000000  -0.000000   0.000000   0.000000
     8  H   -0.000000  -0.000000  -0.000000  -0.000000
     9  C    0.000000   0.000000  -0.000000   0.000000
    10  H    0.000000   0.000000   0.000000  -0.000000
    11  H   -0.000000   0.000000   0.000000  -0.000000
    12  C    0.000000  -0.000000  -0.000000   0.000000
    13  H    0.000000  -0.000000  -0.000000   0.000000
    14  C   -0.000000   0.000000   0.000000  -0.000000
    15  H    0.000000  -0.000000  -0.000000   0.000000
    16  C   -0.000000   0.000000  -0.000000  -0.000000
    17  H    0.000000   0.000000   0.000000  -0.000000
    18  H   -0.000000   0.000000  -0.000000  -0.000000
    19  C    0.000000   0.000000   0.000000   0.000000
    20  H    0.000000   0.000000  -0.000000   0.000000
    21  C   -0.000000  -0.000000  -0.000000  -0.000000
    22  H    0.000000   0.000000  -0.000000   0.000000
    23  C    0.000000  -0.000000  -0.000000  -0.000000
    24  H    0.000000   0.000000   0.000000   0.000000
    25  H   -0.000000   0.000000   0.000000  -0.000000
    26  C    0.000000  -0.000000   0.000000   0.000000
    27  H    0.000000   0.000000   0.000000  -0.000000
    28  H   -0.000000   0.000000  -0.000000   0.000000
 Mulliken charges and spin densities:
               1          2
     1  C   -0.210255  -0.000000
     2  C   -0.182710   0.000000
     3  H    0.142326   0.000000
     4  H    0.156719  -0.000000
     5  C   -0.167322   0.000000
     6  C   -0.182815  -0.000000
     7  H    0.151158   0.000000
     8  H    0.156800   0.000000
     9  C   -0.186196  -0.000000
    10  H    0.117638   0.000000
    11  H    0.131378   0.000000
    12  C   -0.156762  -0.000000
    13  H    0.145669  -0.000000
    14  C   -0.210226   0.000000
    15  H    0.142321  -0.000000
    16  C   -0.175289   0.000000
    17  H    0.108753  -0.000000
    18  H    0.124895  -0.000000
    19  C   -0.167375   0.000000
    20  H    0.151179  -0.000000
    21  C   -0.156767  -0.000000
    22  H    0.145677   0.000000
    23  C   -0.186115   0.000000
    24  H    0.131296  -0.000000
    25  H    0.117650  -0.000000
    26  C   -0.175233  -0.000000
    27  H    0.124909   0.000000
    28  H    0.108697   0.000000
 Sum of Mulliken charges =  -0.00000  -0.00000
 Mulliken charges and spin densities with hydrogens summed into heavy atoms:
               1          2
     1  C   -0.067929  -0.000000
     2  C   -0.025991   0.000000
     5  C   -0.016163   0.000000
     6  C   -0.026015  -0.000000
     9  C    0.062820  -0.000000
    12  C   -0.011094  -0.000000
    14  C   -0.067905   0.000000
    16  C    0.058360   0.000000
    19  C   -0.016196  -0.000000
    21  C   -0.011091   0.000000
    23  C    0.062831   0.000000
    26  C    0.058373  -0.000000
 Electronic spatial extent (au):  <R**2>=           2349.8327
 Charge=             -0.0000 electrons
 Dipole moment (field-independent basis, Debye):
    X=             -0.0001    Y=             -0.0004    Z=             -0.0000  Tot=              0.0004
 Quadrupole moment (field-independent basis, Debye-Ang):
   XX=            -72.7415   YY=            -69.7571   ZZ=            -76.5114
   XY=             -3.2231   XZ=             -4.0048   YZ=             -1.7035
 Traceless Quadrupole moment (field-independent basis, Debye-Ang):
   XX=              0.2619   YY=              3.2462   ZZ=             -3.5081
   XY=             -3.2231   XZ=             -4.0048   YZ=             -1.7035
 Octapole moment (field-independent basis, Debye-Ang**2):
  XXX=             -0.0034  YYY=             -0.0027  ZZZ=              0.0001  XYY=             -0.0003
  XXY=             -0.0002  XXZ=             -0.0013  XZZ=             -0.0001  YZZ=             -0.0002
  YYZ=             -0.0004  XYZ=              0.0002
 Hexadecapole moment (field-independent basis, Debye-Ang**3):
 XXXX=          -2136.0292 YYYY=           -628.4243 ZZZZ=           -461.9662 XXXY=           -122.1534
 XXXZ=           -176.8447 YYYX=            -71.7144 YYYZ=            -10.4283 ZZZX=           -119.9625
 ZZZY=            -23.7251 XXYY=           -455.1883 XXZZ=           -450.7884 YYZZ=           -196.9353
 XXYZ=            -26.7636 YYXZ=            -42.6964 ZZXY=            -48.3441
 N-N= 6.700268505517D+02 E-N=-2.421793036528D+03  KE= 4.641447801673D+02
                          Isotropic Fermi Contact Couplings
        Atom                 a.u.       MegaHertz       Gauss      10(-4) cm-1
     1  C(13)             -0.00000      -0.00001      -0.00000      -0.00000
     2  C(13)              0.00000       0.00000       0.00000       0.00000
     3  H(1)               0.00000       0.00001       0.00000       0.00000
     4  H(1)              -0.00000      -0.00000      -0.00000      -0.00000
     5  C(13)             -0.00000      -0.00002      -0.00001      -0.00001
     6  C(13)             -0.00000      -0.00001      -0.00000      -0.00000
     7  H(1)               0.00000       0.00006       0.00002       0.00002
     8  H(1)               0.00000       0.00001       0.00000       0.00000
     9  C(13)             -0.00000      -0.00009      -0.00003      -0.00003
    10  H(1)               0.00000       0.00004       0.00001       0.00001
    11  H(1)               0.00000       0.00006       0.00002       0.00002
    12  C(13)              0.00000       0.00002       0.00001       0.00001
    13  H(1)              -0.00000      -0.00005      -0.00002      -0.00002
    14  C(13)              0.00000       0.00002       0.00001       0.00001
    15  H(1)              -0.00000      -0.00001      -0.00000      -0.00000
    16  C(13)              0.00000       0.00006       0.00002       0.00002
    17  H(1)              -0.00000      -0.00001      -0.00000      -0.00000
    18  H(1)              -0.00000      -0.00001      -0.00000      -0.00000
    19  C(13)              0.00000       0.00003       0.00001       0.00001
    20  H(1)              -0.00000      -0.00006      -0.00002      -0.00002
    21  C(13)             -0.00000      -0.00002      -0.00001      -0.00001
    22  H(1)               0.00000       0.00005       0.00002       0.00002
    23  C(13)              0.00000       0.00009       0.00003       0.00003
    24  H(1)              -0.00000      -0.00006      -0.00002      -0.00002
    25  H(1)              -0.00000      -0.00004      -0.00002      -0.00001
    26  C(13)             -0.00000      -0.00006      -0.00002      -0.00002
    27  H(1)               0.00000       0.00001       0.00000       0.00000
    28  H(1)               0.00000       0.00001       0.00000       0.00000
 --------------------------------------------------------
       Center         ----  Spin Dipole Couplings  ----
                      3XX-RR        3YY-RR        3ZZ-RR
 --------------------------------------------------------
     1   Atom       -0.000000      0.000000      0.000000
     2   Atom        0.000000     -0.000000     -0.000000
     3   Atom        0.000000      0.000000     -0.000000
     4   Atom       -0.000000     -0.000000      0.000000
     5   Atom       -0.000000     -0.000000      0.000000
     6   Atom       -0.000000      0.000000      0.000000
     7   Atom        0.000000     -0.000000      0.000000
     8   Atom        0.000000      0.000000     -0.000000
     9   Atom       -0.000000      0.000000     -0.000000
    10   Atom        0.000000      0.000000     -0.000000
    11   Atom        0.000000     -0.000000      0.000000
    12   Atom        0.000000      0.000000     -0.000000
    13   Atom       -0.000000      0.000000     -0.000000
    14   Atom        0.000000     -0.000000     -0.000000
    15   Atom       -0.000000     -0.000000      0.000000
    16   Atom        0.000000     -0.000000      0.000000
    17   Atom       -0.000000     -0.000000      0.000000
    18   Atom        0.000000      0.000000     -0.000000
    19   Atom        0.000000      0.000000     -0.000000
    20   Atom       -0.000000      0.000000     -0.000000
    21   Atom       -0.000000     -0.000000      0.000000
    22   Atom        0.000000     -0.000000      0.000000
    23   Atom        0.000000     -0.000000      0.000000
    24   Atom       -0.000000      0.000000     -0.000000
    25   Atom       -0.000000     -0.000000      0.000000
    26   Atom       -0.000000      0.000000     -0.000000
    27   Atom       -0.000000     -0.000000      0.000000
    28   Atom        0.000000      0.000000     -0.000000
 --------------------------------------------------------
                        XY            XZ            YZ
 --------------------------------------------------------
     1   Atom        0.000000     -0.000000      0.000000
     2   Atom        0.000000      0.000000      0.000000
     3   Atom       -0.000000      0.000000      0.000000
     4   Atom       -0.000000     -0.000000      0.000000
     5   Atom        0.000000      0.000000     -0.000000
     6   Atom       -0.000000     -0.000000     -0.000000
     7   Atom        0.000000      0.000000     -0.000000
     8   Atom        0.000000      0.000000     -0.000000
     9   Atom       -0.000000      0.000000      0.000000
    10   Atom        0.000000     -0.000000      0.000000
    11   Atom       -0.000000     -0.000000     -0.000000
    12   Atom        0.000000     -0.000000     -0.000000
    13   Atom       -0.000000     -0.000000     -0.000000
    14   Atom       -0.000000      0.000000     -0.000000
    15   Atom        0.000000     -0.000000     -0.000000
    16   Atom       -0.000000     -0.000000     -0.000000
    17   Atom        0.000000      0.000000      0.000000
    18   Atom       -0.000000      0.000000     -0.000000
    19   Atom       -0.000000      0.000000      0.000000
    20   Atom       -0.000000     -0.000000      0.000000
    21   Atom       -0.000000     -0.000000      0.000000
    22   Atom       -0.000000      0.000000      0.000000
    23   Atom        0.000000     -0.000000     -0.000000
    24   Atom        0.000000      0.000000      0.000000
    25   Atom       -0.000000      0.000000     -0.000000
    26   Atom        0.000000      0.000000      0.000000
    27   Atom        0.000000     -0.000000      0.000000
    28   Atom       -0.000000     -0.000000     -0.000000
 --------------------------------------------------------


 ---------------------------------------------------------------------------------
              Anisotropic Spin Dipole Couplings in Principal Axis System
 ---------------------------------------------------------------------------------

       Atom             a.u.   MegaHertz   Gauss  10(-4) cm-1        Axes

              Baa    -0.0000    -0.000    -0.000    -0.000  0.8469 -0.2124  0.4875
     1 C(13)  Bbb     0.0000     0.000     0.000     0.000  0.3315  0.9277 -0.1717
              Bcc     0.0000     0.000     0.000     0.000 -0.4157  0.3070  0.8561
 
              Baa    -0.0000    -0.000    -0.000    -0.000 -0.4798  0.1167  0.8696
     2 C(13)  Bbb    -0.0000    -0.000    -0.000    -0.000 -0.2223  0.9426 -0.2491
              Bcc     0.0000     0.000     0.000     0.000  0.8488  0.3128  0.4263
 
              Baa    -0.0000    -0.000    -0.000    -0.000 -0.3102 -0.1759  0.9343
     3 H(1)   Bbb     0.0000     0.000     0.000     0.000 -0.3246  0.9433  0.0698
              Bcc     0.0000     0.000     0.000     0.000  0.8936  0.2816  0.3497
 
              Baa    -0.0000    -0.000    -0.000    -0.000  0.9065  0.0806  0.4144
     4 H(1)   Bbb    -0.0000    -0.000    -0.000    -0.000 -0.0062  0.9840 -0.1779
              Bcc     0.0000     0.000     0.000     0.000 -0.4221  0.1587  0.8925
 
              Baa    -0.0000    -0.000    -0.000    -0.000 -0.3776  0.9249  0.0446
     5 C(13)  Bbb    -0.0000    -0.000    -0.000    -0.000  0.9224  0.3799 -0.0691
              Bcc     0.0000     0.000     0.000     0.000  0.0808 -0.0150  0.9966
 
              Baa    -0.0000    -0.000    -0.000    -0.000  0.7850  0.2896  0.5476
     6 C(13)  Bbb     0.0000     0.000     0.000     0.000  0.0101  0.8779 -0.4787
              Bcc     0.0000     0.000     0.000     0.000 -0.6194  0.3814  0.6863
 
              Baa    -0.0000    -0.000    -0.000    -0.000 -0.4361  0.8659  0.2451
     7 H(1)   Bbb     0.0000     0.000     0.000     0.000  0.8158  0.4953 -0.2986
              Bcc     0.0000     0.000     0.000     0.000  0.3799 -0.0697  0.9224
 
              Baa    -0.0000    -0.000    -0.000    -0.000 -0.4730  0.1292  0.8715
     8 H(1)   Bbb     0.0000     0.000     0.000     0.000  0.8276  0.4045  0.3892
              Bcc     0.0000     0.000     0.000     0.000 -0.3022  0.9054 -0.2983
 
              Baa    -0.0000    -0.000    -0.000    -0.000  0.7572  0.2718 -0.5940
     9 C(13)  Bbb    -0.0000    -0.000    -0.000    -0.000  0.5200  0.2994  0.7999
              Bcc     0.0000     0.000     0.000     0.000 -0.3953  0.9146 -0.0854
 
              Baa    -0.0000    -0.000    -0.000    -0.000  0.5398 -0.1158  0.8338
    10 H(1)   Bbb     0.0000     0.000     0.000     0.000 -0.4573  0.7913  0.4059
              Bcc     0.0000     0.000     0.000     0.000  0.7068  0.6004 -0.3742
 
              Baa    -0.0000    -0.000    -0.000    -0.000  0.5410  0.8341  0.1081
    11 H(1)   Bbb     0.0000     0.000     0.000     0.000 -0.4091  0.1487  0.9003
              Bcc     0.0000     0.000     0.000     0.000  0.7348 -0.5313  0.4217
 
              Baa    -0.0000    -0.000    -0.000    -0.000  0.0785  0.0701  0.9944
    12 C(13)  Bbb     0.0000     0.000     0.000     0.000  0.9226 -0.3829 -0.0458
              Bcc     0.0000     0.000     0.000     0.000  0.3776  0.9211 -0.0947
 
              Baa    -0.0000    -0.000    -0.000    -0.000  0.3901  0.3295  0.8598
    13 H(1)   Bbb    -0.0000    -0.000    -0.000    -0.000  0.9200 -0.1780 -0.3492
              Bcc     0.0000     0.000     0.000     0.000  0.0379  0.9272 -0.3726
 
              Baa    -0.0000    -0.000    -0.000    -0.000 -0.4859  0.3618  0.7956
    14 C(13)  Bbb    -0.0000    -0.000    -0.000    -0.000  0.3515  0.9143 -0.2010
              Bcc     0.0000     0.000     0.000     0.000  0.8002 -0.1820  0.5714
 
              Baa    -0.0000    -0.000    -0.000    -0.000  0.5272  0.7754  0.3477
    15 H(1)   Bbb    -0.0000    -0.000    -0.000    -0.000  0.7697 -0.6091  0.1913
              Bcc     0.0000     0.000     0.000     0.000 -0.3601 -0.1668  0.9179
 
              Baa    -0.0000    -0.000    -0.000    -0.000  0.1440  0.9834  0.1107
    16 C(13)  Bbb    -0.0000    -0.000    -0.000    -0.000  0.6860 -0.1798  0.7050
              Bcc     0.0000     0.000     0.000     0.000  0.7132 -0.0256 -0.7005
 
              Baa    -0.0000    -0.000    -0.000    -0.000 -0.5203  0.8538  0.0159
    17 H(1)   Bbb    -0.0000    -0.000    -0.000    -0.000  0.6713  0.4204 -0.6104
              Bcc     0.0000     0.000     0.000     0.000  0.5279  0.3070  0.7919
 
              Baa    -0.0000    -0.000    -0.000    -0.000  0.5776  0.6271  0.5226
    18 H(1)   Bbb    -0.0000    -0.000    -0.000    -0.000 -0.5235 -0.2067  0.8266
              Bcc     0.0000     0.000     0.000     0.000 -0.6264  0.7510 -0.2088
 
              Baa    -0.0000    -0.000    -0.000    -0.000 -0.0212 -0.0673  0.9975
    19 C(13)  Bbb     0.0000     0.000     0.000     0.000  0.8953  0.4427  0.0489
              Bcc     0.0000     0.000     0.000     0.000 -0.4449  0.8942  0.0509
 
              Baa    -0.0000    -0.000    -0.000    -0.000  0.2781 -0.1238  0.9525
    20 H(1)   Bbb    -0.0000    -0.000    -0.000    -0.000  0.8378  0.5163 -0.1775
              Bcc     0.0000     0.000     0.000     0.000 -0.4698  0.8474  0.2473
 
              Baa    -0.0000    -0.000    -0.000    -0.000  0.9635  0.2678  0.0003
    21 C(13)  Bbb    -0.0000    -0.000    -0.000    -0.000 -0.2664  0.9586 -0.1003
              Bcc     0.0000     0.000     0.000     0.000 -0.0272  0.0966  0.9950
 
              Baa    -0.0000    -0.000    -0.000    -0.000  0.1343  0.9109 -0.3901
    22 H(1)   Bbb     0.0000     0.000     0.000     0.000  0.9525 -0.2272 -0.2026
              Bcc     0.0000     0.000     0.000     0.000  0.2732  0.3443  0.8982
 
              Baa    -0.0000    -0.000    -0.000    -0.000 -0.3998  0.9122 -0.0897
    23 C(13)  Bbb     0.0000     0.000     0.000     0.000  0.5189  0.3059  0.7982
              Bcc     0.0000     0.000     0.000     0.000  0.7556  0.2726 -0.5956
 
              Baa    -0.0000    -0.000    -0.000    -0.000  0.7613 -0.5558  0.3337
    24 H(1)   Bbb    -0.0000    -0.000    -0.000    -0.000 -0.3348  0.1037  0.9366
              Bcc     0.0000     0.000     0.000     0.000  0.5552  0.8248  0.1072
 
              Baa    -0.0000    -0.000    -0.000    -0.000  0.6888  0.6329 -0.3536
    25 H(1)   Bbb    -0.0000    -0.000    -0.000    -0.000 -0.4949  0.7669  0.4086
              Bcc     0.0000     0.000     0.000     0.000  0.5297 -0.1065  0.8414
 
              Baa    -0.0000    -0.000    -0.000    -0.000  0.7119 -0.0277 -0.7017
    26 C(13)  Bbb     0.0000     0.000     0.000     0.000  0.6864 -0.1839  0.7036
              Bcc     0.0000     0.000     0.000     0.000  0.1485  0.9826  0.1119
 
              Baa    -0.0000    -0.000    -0.000    -0.000 -0.6466  0.7354 -0.2026
    27 H(1)   Bbb     0.0000     0.000     0.000     0.000 -0.4508 -0.1542  0.8792
              Bcc     0.0000     0.000     0.000     0.000  0.6154  0.6598  0.4312
 
              Baa    -0.0000    -0.000    -0.000    -0.000  0.5181  0.2844  0.8067
    28 H(1)   Bbb     0.0000     0.000     0.000     0.000  0.8256  0.0803 -0.5585
              Bcc     0.0000     0.000     0.000     0.000 -0.2236  0.9553 -0.1932
 

 ---------------------------------------------------------------------------------

 No NMR shielding tensors so no spin-rotation constants.
 Leave Link  601 at Mon Aug  3 14:07:34 2020, MaxMem=  6442450944 cpu:               7.9 elap:               0.4
 (Enter /scratch/scicomp/CentOS/7.3.1611/Haswell/software/Gaussian/g16/l9999.exe)
 1\1\GINC-ATLAS-205\SP\UwB97XD\def2TZVP\C12H16\BOCHEN\03-Aug-2020\0\\#p
  uwb97xd guess=mix def2tzvp # scrf=(iefpcm,solvent=Cyclohexane,read) n
 osym 6d 10f\\endo-2 xp-pcm for eta=3\\0,1\C,0,-3.120165,-0.43952,0.280
 19\C,0,-0.807998,-0.270483,-1.349166\H,0,-4.03926,-0.519446,0.849052\H
 ,0,0.117969,-0.196755,-1.906627\C,0,1.221266,1.438778,0.865571\C,0,0.8
 07998,0.270483,1.349166\H,0,0.634256,2.337167,1.015854\H,0,-0.117969,0
 .196755,1.906627\C,0,1.635901,-0.972988,1.195334\H,0,2.239675,-1.08962
 6,2.104856\H,0,0.987632,-1.849296,1.145396\C,0,2.482134,1.535015,0.127
 997\H,0,2.88292,2.517315,-0.091872\C,0,3.120165,0.43952,-0.28019\H,0,4
 .03926,0.519446,-0.849052\C,0,2.551272,-0.930669,-0.031151\H,0,1.99168
 2,-1.236938,-0.923478\H,0,3.354963,-1.660578,0.081874\C,0,-1.221266,-1
 .438778,-0.865571\H,0,-0.634256,-2.337167,-1.015854\C,0,-2.482134,-1.5
 35015,-0.127997\H,0,-2.88292,-2.517315,0.091872\C,0,-1.635901,0.972988
 ,-1.195334\H,0,-0.987632,1.849296,-1.145396\H,0,-2.239675,1.089626,-2.
 104856\C,0,-2.551272,0.930669,0.031151\H,0,-3.354963,1.660578,-0.08187
 4\H,0,-1.991682,1.236938,0.923479\\Version=ES64L-G16RevB.01\HF=-466.85
 98247\S2=0.\S2-1=0.\S2A=0.\RMSD=2.632e-09\Dipole=-0.0000423,-0.0001604
 ,-0.00001\Quadrupole=0.1946808,2.4134794,-2.6081602,-2.3963204,-2.9774
 822,-1.266489\PG=CI [X(C12H16)]\\@


 The chemist is a guest at the physicist's table and
 frequently dines well.
                   -- Richard Bersohn
 Job cpu time:       0 days  2 hours  4 minutes 15.2 seconds.
 Elapsed time:       0 days  0 hours  5 minutes 14.0 seconds.
 File lengths (MBytes):  RWF=    649 Int=      0 D2E=      0 Chk=     24 Scr=      1
 Normal termination of Gaussian 16 at Mon Aug  3 14:07:34 2020.
