 Entering Gaussian System, Link 0=g16
 Input=meso-TS_70_2_xp-Vc.com
 Output=meso-TS_70_2_xp-Vc.log
 Initial command:
 /scratch/scicomp/CentOS/7.3.1611/Haswell/software/Gaussian/g16/l1.exe "/scratch/bochen/cyclohexadiene-dimerization/wb97xd-def2tzvp/xp-pcm/meso/Gau-76391.inp" -scrdir="/scratch/bochen/cyclohexadiene-dimerization/wb97xd-def2tzvp/xp-pcm/meso/"
 Entering Link 1 = /scratch/scicomp/CentOS/7.3.1611/Haswell/software/Gaussian/g16/l1.exe PID=     76392.
  
 Copyright (c) 1988-2017, Gaussian, Inc.  All Rights Reserved.
  
 This is part of the Gaussian(R) 16 program.  It is based on
 the Gaussian(R) 09 system (copyright 2009, Gaussian, Inc.),
 the Gaussian(R) 03 system (copyright 2003, Gaussian, Inc.),
 the Gaussian(R) 98 system (copyright 1998, Gaussian, Inc.),
 the Gaussian(R) 94 system (copyright 1995, Gaussian, Inc.),
 the Gaussian 92(TM) system (copyright 1992, Gaussian, Inc.),
 the Gaussian 90(TM) system (copyright 1990, Gaussian, Inc.),
 the Gaussian 88(TM) system (copyright 1988, Gaussian, Inc.),
 the Gaussian 86(TM) system (copyright 1986, Carnegie Mellon
 University), and the Gaussian 82(TM) system (copyright 1983,
 Carnegie Mellon University). Gaussian is a federally registered
 trademark of Gaussian, Inc.
  
 This software contains proprietary and confidential information,
 including trade secrets, belonging to Gaussian, Inc.
  
 This software is provided under written license and may be
 used, copied, transmitted, or stored only in accord with that
 written license.
  
 The following legend is applicable only to US Government
 contracts under FAR:
  
                    RESTRICTED RIGHTS LEGEND
  
 Use, reproduction and disclosure by the US Government is
 subject to restrictions as set forth in subparagraphs (a)
 and (c) of the Commercial Computer Software - Restricted
 Rights clause in FAR 52.227-19.
  
 Gaussian, Inc.
 340 Quinnipiac St., Bldg. 40, Wallingford CT 06492
  
  
 ---------------------------------------------------------------
 Warning -- This program may not be used in any manner that
 competes with the business of Gaussian, Inc. or will provide
 assistance to any competitor of Gaussian, Inc.  The licensee
 of this program is prohibited from giving any competitor of
 Gaussian, Inc. access to this program.  By using this program,
 the user acknowledges that Gaussian, Inc. is engaged in the
 business of creating and licensing software in the field of
 computational chemistry and represents and warrants to the
 licensee that it is not a competitor of Gaussian, Inc. and that
 it will not use this program in any manner prohibited above.
 ---------------------------------------------------------------
  

 Cite this work as:
 Gaussian 16, Revision B.01,
 M. J. Frisch, G. W. Trucks, H. B. Schlegel, G. E. Scuseria, 
 M. A. Robb, J. R. Cheeseman, G. Scalmani, V. Barone, 
 G. A. Petersson, H. Nakatsuji, X. Li, M. Caricato, A. V. Marenich, 
 J. Bloino, B. G. Janesko, R. Gomperts, B. Mennucci, H. P. Hratchian, 
 J. V. Ortiz, A. F. Izmaylov, J. L. Sonnenberg, D. Williams-Young, 
 F. Ding, F. Lipparini, F. Egidi, J. Goings, B. Peng, A. Petrone, 
 T. Henderson, D. Ranasinghe, V. G. Zakrzewski, J. Gao, N. Rega, 
 G. Zheng, W. Liang, M. Hada, M. Ehara, K. Toyota, R. Fukuda, 
 J. Hasegawa, M. Ishida, T. Nakajima, Y. Honda, O. Kitao, H. Nakai, 
 T. Vreven, K. Throssell, J. A. Montgomery, Jr., J. E. Peralta, 
 F. Ogliaro, M. J. Bearpark, J. J. Heyd, E. N. Brothers, K. N. Kudin, 
 V. N. Staroverov, T. A. Keith, R. Kobayashi, J. Normand, 
 K. Raghavachari, A. P. Rendell, J. C. Burant, S. S. Iyengar, 
 J. Tomasi, M. Cossi, J. M. Millam, M. Klene, C. Adamo, R. Cammi, 
 J. W. Ochterski, R. L. Martin, K. Morokuma, O. Farkas, 
 J. B. Foresman, and D. J. Fox, Gaussian, Inc., Wallingford CT, 2016.
 
 ******************************************
 Gaussian 16:  ES64L-G16RevB.01 20-Dec-2017
                 3-Aug-2020 
 ******************************************
 %chk=meso-TS_70_2_xp-12.chk
 %nproc=24
 Will use up to   24 processors via shared memory.
 %mem=48GB
 ----------------------------------------------------------------------
 #p uwb97xd guess=mix def2tzvp # scrf=(iefpcm,solvent=Cyclohexane,read)
  nosym guess=only pop=none
 ----------------------------------------------------------------------
 1/38=1,40=2,172=1/1;
 2/12=2,15=1,17=6,18=5,40=1/2;
 3/5=44,7=101,11=2,25=1,30=1,70=2203,72=17,74=-58,89=1,116=2/1,2;
 4/13=-1/1;
 99/5=2/99;
 Leave Link    1 at Mon Aug  3 17:20:02 2020, MaxMem=  6442450944 cpu:               2.1 elap:               0.1
 (Enter /scratch/scicomp/CentOS/7.3.1611/Haswell/software/Gaussian/g16/l101.exe)
 -----------------------
 endo-2 xp-pcm for eta=3
 -----------------------
 Symbolic Z-matrix:
 Charge =  0 Multiplicity = 1
 6                    -3.12194  -0.43992   0.27777 
 6                    -0.79716  -0.26748  -1.3333 
 1                    -4.04452  -0.52162   0.84073 
 1                     0.13262  -0.19248  -1.88412 
 6                     1.21368   1.43672   0.85501 
 6                     0.79716   0.26748   1.3333 
 1                     0.62547   2.33469   1.00297 
 1                    -0.13262   0.19248   1.88412 
 6                     1.62597  -0.97588   1.18436 
 1                     2.21925  -1.09518   2.10035 
 1                     0.97777  -1.85161   1.12561 
 6                     2.47885   1.53438   0.12517 
 1                     2.87917   2.5172   -0.09322 
 6                     3.12194   0.43992  -0.27777 
 1                     4.04452   0.52162  -0.84073 
 6                     2.55568  -0.9319   -0.03155 
 1                     2.00912  -1.24349  -0.93009 
 1                     3.36134  -1.65779   0.09305 
 6                    -1.21368  -1.43672  -0.85501 
 1                    -0.62547  -2.33469  -1.00297 
 6                    -2.47885  -1.53438  -0.12517 
 1                    -2.87917  -2.5172    0.09322 
 6                    -1.62597   0.97588  -1.18436 
 1                    -0.97777   1.85161  -1.12561 
 1                    -2.21925   1.09518  -2.10035 
 6                    -2.55568   0.9319    0.03155 
 1                    -3.36134   1.65779  -0.09305 
 1                    -2.00912   1.24349   0.93009 
 
 ITRead=  0  0  0  0  0  0  0  0  0  0  0  0  0  0  0  0  0  0  0  0
 ITRead=  0  0  0  0  0  0  0  0
 MicOpt= -1 -1 -1 -1 -1 -1 -1 -1 -1 -1 -1 -1 -1 -1 -1 -1 -1 -1 -1 -1
 MicOpt= -1 -1 -1 -1 -1 -1 -1 -1
 NAtoms=     28 NQM=       28 NQMF=       0 NMMI=      0 NMMIF=      0
                NMic=       0 NMicF=      0.
                    Isotopes and Nuclear Properties:
 (Nuclear quadrupole moments (NQMom) in fm**2, nuclear magnetic moments (NMagM)
  in nuclear magnetons)

  Atom         1           2           3           4           5           6           7           8           9          10
 IAtWgt=          12          12           1           1          12          12           1           1          12           1
 AtmWgt=  12.0000000  12.0000000   1.0078250   1.0078250  12.0000000  12.0000000   1.0078250   1.0078250  12.0000000   1.0078250
 NucSpn=           0           0           1           1           0           0           1           1           0           1
 AtZEff=  -0.0000000  -0.0000000  -0.0000000  -0.0000000  -0.0000000  -0.0000000  -0.0000000  -0.0000000  -0.0000000  -0.0000000
 NQMom=    0.0000000   0.0000000   0.0000000   0.0000000   0.0000000   0.0000000   0.0000000   0.0000000   0.0000000   0.0000000
 NMagM=    0.0000000   0.0000000   2.7928460   2.7928460   0.0000000   0.0000000   2.7928460   2.7928460   0.0000000   2.7928460
 AtZNuc=   6.0000000   6.0000000   1.0000000   1.0000000   6.0000000   6.0000000   1.0000000   1.0000000   6.0000000   1.0000000

  Atom        11          12          13          14          15          16          17          18          19          20
 IAtWgt=           1          12           1          12           1          12           1           1          12           1
 AtmWgt=   1.0078250  12.0000000   1.0078250  12.0000000   1.0078250  12.0000000   1.0078250   1.0078250  12.0000000   1.0078250
 NucSpn=           1           0           1           0           1           0           1           1           0           1
 AtZEff=  -0.0000000  -0.0000000  -0.0000000  -0.0000000  -0.0000000  -0.0000000  -0.0000000  -0.0000000  -0.0000000  -0.0000000
 NQMom=    0.0000000   0.0000000   0.0000000   0.0000000   0.0000000   0.0000000   0.0000000   0.0000000   0.0000000   0.0000000
 NMagM=    2.7928460   0.0000000   2.7928460   0.0000000   2.7928460   0.0000000   2.7928460   2.7928460   0.0000000   2.7928460
 AtZNuc=   1.0000000   6.0000000   1.0000000   6.0000000   1.0000000   6.0000000   1.0000000   1.0000000   6.0000000   1.0000000

  Atom        21          22          23          24          25          26          27          28
 IAtWgt=          12           1          12           1           1          12           1           1
 AtmWgt=  12.0000000   1.0078250  12.0000000   1.0078250   1.0078250  12.0000000   1.0078250   1.0078250
 NucSpn=           0           1           0           1           1           0           1           1
 AtZEff=  -0.0000000  -0.0000000  -0.0000000  -0.0000000  -0.0000000  -0.0000000  -0.0000000  -0.0000000
 NQMom=    0.0000000   0.0000000   0.0000000   0.0000000   0.0000000   0.0000000   0.0000000   0.0000000
 NMagM=    0.0000000   2.7928460   0.0000000   2.7928460   2.7928460   0.0000000   2.7928460   2.7928460
 AtZNuc=   6.0000000   1.0000000   6.0000000   1.0000000   1.0000000   6.0000000   1.0000000   1.0000000
 Leave Link  101 at Mon Aug  3 17:20:02 2020, MaxMem=  6442450944 cpu:               2.4 elap:               0.1
 (Enter /scratch/scicomp/CentOS/7.3.1611/Haswell/software/Gaussian/g16/l202.exe)
                          Input orientation:                          
 ---------------------------------------------------------------------
 Center     Atomic      Atomic             Coordinates (Angstroms)
 Number     Number       Type             X           Y           Z
 ---------------------------------------------------------------------
      1          6           0       -3.121942   -0.439924    0.277771
      2          6           0       -0.797162   -0.267484   -1.333299
      3          1           0       -4.044520   -0.521623    0.840727
      4          1           0        0.132617   -0.192479   -1.884118
      5          6           0        1.213684    1.436717    0.855014
      6          6           0        0.797162    0.267484    1.333299
      7          1           0        0.625474    2.334691    1.002965
      8          1           0       -0.132617    0.192479    1.884118
      9          6           0        1.625967   -0.975882    1.184356
     10          1           0        2.219247   -1.095182    2.100353
     11          1           0        0.977773   -1.851608    1.125614
     12          6           0        2.478853    1.534377    0.125170
     13          1           0        2.879166    2.517204   -0.093218
     14          6           0        3.121942    0.439924   -0.277771
     15          1           0        4.044520    0.521623   -0.840727
     16          6           0        2.555680   -0.931899   -0.031548
     17          1           0        2.009120   -1.243493   -0.930088
     18          1           0        3.361336   -1.657785    0.093053
     19          6           0       -1.213684   -1.436717   -0.855014
     20          1           0       -0.625474   -2.334691   -1.002965
     21          6           0       -2.478853   -1.534377   -0.125170
     22          1           0       -2.879166   -2.517204    0.093218
     23          6           0       -1.625967    0.975882   -1.184356
     24          1           0       -0.977773    1.851608   -1.125614
     25          1           0       -2.219247    1.095182   -2.100353
     26          6           0       -2.555680    0.931899    0.031548
     27          1           0       -3.361336    1.657785   -0.093053
     28          1           0       -2.009120    1.243493    0.930088
 ---------------------------------------------------------------------
                    Distance matrix (angstroms):
                    1          2          3          4          5
     1  C    0.000000
     2  C    2.833705   0.000000
     3  H    1.083856   3.916160   0.000000
     4  H    3.914990   1.083290   4.998159   0.000000
     5  C    4.759479   3.425860   5.611061   3.365387   0.000000
     6  C    4.119944   3.152587   4.930233   3.317372   1.330170
     7  H    4.718847   3.775359   5.476650   3.868429   1.083623
     8  H    3.452006   3.317372   4.111155   3.797123   2.102311
     9  C    4.863310   3.565385   5.699022   3.501335   2.469631
    10  H    5.681502   4.644758   6.414858   4.587473   2.995420
    11  H    4.418071   3.421417   5.203215   3.539136   3.307863
    12  C    5.940543   4.013242   6.877031   3.538940   1.463852
    13  H    6.700413   4.775738   7.618671   4.253614   2.200097
    14  C    6.329996   4.119944   7.316679   3.452006   2.432745
    15  H    7.316679   4.930233   8.327558   4.111155   3.424408
    16  C    5.707286   3.657534   6.670220   3.138470   2.863090
    17  H    5.332208   2.998398   6.348499   2.352885   3.317052
    18  H    6.599258   4.610913   7.529713   4.059674   3.843037
    19  C    2.432745   1.330170   3.424408   2.102311   4.131941
    20  H    3.385673   2.100462   4.286758   2.437254   4.588911
    21  C    1.331823   2.427484   2.099986   3.422625   4.839730
    22  H    2.099546   3.380966   2.428819   4.287778   5.741537
    23  C    2.525918   1.501686   3.491831   2.224264   3.526332
    24  H    3.437742   2.136891   4.347834   2.446750   2.982869
    25  H    2.971007   2.113659   3.820423   2.689999   4.542671
    26  C    1.504386   2.528579   2.232519   3.487254   3.891149
    27  H    2.143642   3.438002   2.467490   4.340403   4.677447
    28  H    2.120798   2.979063   2.695640   3.816911   3.229464
                    6          7          8          9         10
     6  C    0.000000
     7  H    2.100462   0.000000
     8  H    1.083290   2.437254   0.000000
     9  C    1.501686   3.463204   2.224264   0.000000
    10  H    2.113659   3.938071   2.689999   1.097845   0.000000
    11  H    2.136891   4.202887   2.446750   1.091101   1.750301
    12  C    2.427484   2.201372   3.422625   2.854941   3.298988
    13  H    3.380966   2.512779   4.287778   3.924838   4.277450
    14  C    2.833705   3.385673   3.914990   2.525918   2.971007
    15  H    3.916160   4.286758   4.998159   3.491831   3.820423
    16  C    2.528579   3.932750   3.487254   1.531249   2.164452
    17  H    2.979063   4.295878   3.816911   2.165478   3.041336
    18  H    3.438002   4.924708   4.340403   2.160426   2.377003
    19  C    3.425860   4.588911   3.365387   3.526332   4.542671
    20  H    3.775359   5.233713   3.868429   3.420486   4.388554
    21  C    4.013242   5.087162   3.538940   4.344689   5.217086
    22  H    4.775738   6.054009   4.253614   4.884924   5.660791
    23  C    3.565385   3.420486   3.501335   4.471605   5.464823
    24  H    3.421417   2.708250   3.539136   4.484431   5.413998
    25  H    4.644758   4.388554   4.587473   5.464823   6.491830
    26  C    3.657534   3.609878   3.138470   4.738646   5.584706
    27  H    4.610913   4.189763   4.059674   5.782834   6.597936
    28  H    2.998398   2.852562   2.352885   4.266630   4.971721
                   11         12         13         14         15
    11  H    0.000000
    12  C    3.836538   0.000000
    13  H    4.918065   1.083463   0.000000
    14  C    3.437742   1.331823   2.099546   0.000000
    15  H    4.347834   2.099986   2.428819   1.083856   0.000000
    16  C    2.162101   2.472444   3.464788   1.504386   2.232519
    17  H    2.378947   3.008451   3.949705   2.120798   2.695640
    18  H    2.604827   3.312055   4.206866   2.143642   2.467490
    19  C    2.982869   4.839730   5.741537   4.759479   5.611061
    20  H    2.708250   5.087162   6.054009   4.718847   5.476650
    21  C    3.689629   5.835989   6.717492   5.940543   6.877031
    22  H    4.047819   6.717492   7.651040   6.700413   7.618671
    23  C    4.484431   4.344689   4.884924   4.863310   5.699022
    24  H    4.754576   3.689629   4.047819   4.418071   5.203215
    25  H    5.413998   5.217086   5.660791   5.681502   6.414858
    26  C    4.629274   5.071318   5.662712   5.707286   6.670220
    27  H    5.712167   5.845567   6.299402   6.599258   7.529713
    28  H    4.305742   4.568852   5.154109   5.332208   6.348499
                   16         17         18         19         20
    16  C    0.000000
    17  H    1.096901   0.000000
    18  H    1.091567   1.745550   0.000000
    19  C    3.891149   3.229464   4.677447   0.000000
    20  H    3.609878   2.852562   4.189763   1.083623   0.000000
    21  C    5.071318   4.568852   5.845567   1.463852   2.201372
    22  H    5.662712   5.154109   6.299402   2.200097   2.512779
    23  C    4.738646   4.266630   5.782834   2.469631   3.463204
    24  H    4.629274   4.305742   5.712167   3.307863   4.202887
    25  H    5.584706   4.971721   6.597936   2.995420   3.938071
    26  C    5.440931   5.147278   6.459205   2.863090   3.932750
    27  H    6.459205   6.161156   7.498130   3.843037   4.924708
    28  H    5.147278   5.078544   6.161156   3.317052   4.295878
                   21         22         23         24         25
    21  C    0.000000
    22  H    1.083463   0.000000
    23  C    2.854941   3.924838   0.000000
    24  H    3.836538   4.918065   1.091101   0.000000
    25  H    3.298988   4.277450   1.097845   1.750301   0.000000
    26  C    2.472444   3.464788   1.531249   2.162101   2.164452
    27  H    3.312055   4.206866   2.160426   2.604827   2.377003
    28  H    3.008451   3.949705   2.165478   2.378947   3.041336
                   26         27         28
    26  C    0.000000
    27  H    1.091567   0.000000
    28  H    1.096901   1.745550   0.000000
 Symmetry turned off by external request.
 Stoichiometry    C12H16
 Framework group  CI[X(C12H16)]
 Deg. of freedom    39
 Full point group                 CI      NOp   2
 Rotational constants (GHZ):           1.6958170           0.5775969           0.5292964
 Leave Link  202 at Mon Aug  3 17:20:02 2020, MaxMem=  6442450944 cpu:               0.3 elap:               0.0
 (Enter /scratch/scicomp/CentOS/7.3.1611/Haswell/software/Gaussian/g16/l301.exe)
 Standard basis: def2TZVP (5D, 7F)
 Ernie: Thresh=  0.10000D-02 Tol=  0.10000D-05 Strict=F.
   468 basis functions,   740 primitive gaussians,   528 cartesian basis functions
    44 alpha electrons       44 beta electrons
       nuclear repulsion energy       670.8483891011 Hartrees.
 IExCor= 4639 DFT=T Ex+Corr=wB97XD ExCW=0 ScaHFX=  1.000000
 ScaDFX=  1.000000  1.000000  1.000000  1.000000 ScalE2=  1.000000  1.000000
 IRadAn=      5 IRanWt=     -1 IRanGd=            0 ICorTp=0 IEmpDi=121
 HFx  wShort=  0.000000 wLong=  0.200000 cFull=  0.222036 cShort=  0.000000 cLong=  0.777964
 DFx  wShort=  0.000000 wLong=  0.200000 cFull=  0.000000 cShort=  0.000000 cLong=  1.000000
 NAtoms=   28 NActive=   28 NUniq=   28 SFac= 1.00D+00 NAtFMM=   60 NAOKFM=F Big=F
 Integral buffers will be    131072 words long.
 Raffenetti 2 integral format.
 Two-electron integral symmetry is turned off.
 R6Disp:  Grimme-D2 Dispersion energy=       -0.0213014488 Hartrees.
 Nuclear repulsion after empirical dispersion term =      670.8270876523 Hartrees.
 Using the following non-standard input for PCM:
 qrep pcmdoc geomview  nodis nocav g03defaults tsare=0.075
 Warning! Using old PCM defaults because the g03defaults keyword was found.
 These settings can be overridden by following keywords.
 nsfe=28
 NVESolv=36  SolvMW=84.1595   Rsolv=2.815
 eps=2.0165 RhoS=0.7781
 --- end of non-standard input.
 Reading user-defined spheres from input:
 ISph  on   Nord    Re0     Alpha      Xe            Ye            Ze
 --- end of user-defined spheres data.
 ------------------------------------------------------------------------------
 Polarizable Continuum Model (PCM)
 =================================
 Model                : PCM.
 Atomic radii         : UA0 (Simple United Atom Topological Model).
 Polarization charges : Total charges.
 Charge compensation  : None.
 Solution method      : On-the-fly selection.
 Cavity type          : SES (Solvent Excluding Surface) (Alpha=1.000).
 Cavity algorithm     : GePol (RMin=0.200 OFac=0.890).
                        User-defined sphere list used, NSphG=   28.
                        Tesserae with average area of 0.075 Ang**2.
                        Smoothing algorithm: None.
                        Polarization charges: point-like.
                        Self-potential: constant (ISelfS= 1).
                        Self-field    : global E.n sum rule (ISelfD= 3).
 Solvent              : CycloHexane, Eps=   2.016500 Eps(inf)=   2.035188
                        RSolv=   2.815000 Ang.
 ------------------------------------------------------------------------------
 GePol: Number of generator spheres                  =      28
 GePol: Total number of spheres                      =     187
 GePol: Number of exposed spheres                    =     124 ( 66.31%)
 GePol: Number of tesserae                           =    4673
 GePol: Average area of tesserae                     =       0.05 Ang**2
 GePol: Minimum area of tessera                      =   0.10D-02 Ang**2
 GePol: Maximum area of tessera                      =    0.12643 Ang**2
 GePol: Number of small tesserae                     =       0
 GePol: Fraction of small tesserae (<1% of avg)      =       0.00%
 GePol: Total count of vertices                      =   16531
 GePol: Maximum number of vertices in a tessera      =       7
 GePol: Cavity surface area                          =    224.294 Ang**2
 GePol: Cavity volume                                =    256.576 Ang**3
 Leave Link  301 at Mon Aug  3 17:20:03 2020, MaxMem=  6442450944 cpu:               8.0 elap:               0.4
 (Enter /scratch/scicomp/CentOS/7.3.1611/Haswell/software/Gaussian/g16/l302.exe)
 NPDir=0 NMtPBC=     1 NCelOv=     1 NCel=       1 NClECP=     1 NCelD=      1
         NCelK=      1 NCelE2=     1 NClLst=     1 CellRange=     0.0.
 One-electron integrals computed using PRISM.
   1 Symmetry operations used in ECPInt.
 ECPInt:  NShTT=   19306 NPrTT=   56928 LenC2=   18456 LenP2D=   41748.
 LDataN:  DoStor=T MaxTD1= 6 Len=  172
 NBasis=   468 RedAO= T EigKep=  2.62D-05  NBF=   468
 NBsUse=   468 1.00D-06 EigRej= -1.00D+00 NBFU=   468
 Precomputing XC quadrature grid using
 IXCGrd= 4 IRadAn=           5 IRanWt=          -1 IRanGd=           0 AccXCQ= 0.00D+00.
 Generated NRdTot=       0 NPtTot=           0 NUsed=           0 NTot=          32
 NSgBfM=   526   526   526   526   526 MxSgAt=    28 MxSgA2=    28.
 Leave Link  302 at Mon Aug  3 17:20:03 2020, MaxMem=  6442450944 cpu:              11.8 elap:               0.5
 (Enter /scratch/scicomp/CentOS/7.3.1611/Haswell/software/Gaussian/g16/l401.exe)
 ExpMin= 9.52D-02 ExpMax= 1.36D+04 ExpMxC= 4.63D+02 IAcc=3 IRadAn=         5 AccDes= 0.00D+00
 Harris functional with IExCor= 4639 and IRadAn=       5 diagonalized for initial guess.
 HarFok:  IExCor= 4639 AccDes= 0.00D+00 IRadAn=         5 IDoV= 1 UseB2=F ITyADJ=14
 ICtDFT=  3500011 ScaDFX=  1.000000  1.000000  1.000000  1.000000
 FoFCou: FMM=F IPFlag=           0 FMFlag=      100000 FMFlg1=           0
         NFxFlg=           0 DoJE=T BraDBF=F KetDBF=T FulRan=T
         wScrn=  0.000000 ICntrl=       500 IOpCl=  0 I1Cent=   200000004 NGrid=           0
         NMat0=    1 NMatS0=      1 NMatT0=    0 NMatD0=    1 NMtDS0=    0 NMtDT0=    0
 Symmetry not used in FoFCou.
 Harris En= -444.638106381276    
 JPrj=0 DoOrth=F DoCkMO=T.
 Mixing orbitals, IMix= 1 IMixAn=  0 NRI=1 NE=   44 Coef=  7.07106781D-01  7.07106781D-01
 Mixing orbitals, IMix= 1 IMixAn=  0 NRI=1 NE=   44 Coef= -7.07106781D-01  7.07106781D-01
 Initial guess <Sx>= 0.0000 <Sy>= 0.0000 <Sz>= 0.0000 <S**2>= 1.0000 S= 0.6180
 Leave Link  401 at Mon Aug  3 17:20:06 2020, MaxMem=  6442450944 cpu:              47.0 elap:               2.0
 (Enter /scratch/scicomp/CentOS/7.3.1611/Haswell/software/Gaussian/g16/l9999.exe)

 This type of calculation cannot be archived.


 ON A CLEAR DISK YOU CAN SEEK FOREVER.
 Job cpu time:       0 days  0 hours  1 minutes 12.5 seconds.
 Elapsed time:       0 days  0 hours  0 minutes  3.3 seconds.
 File lengths (MBytes):  RWF=    400 Int=      0 D2E=      0 Chk=      1 Scr=      1
 Normal termination of Gaussian 16 at Mon Aug  3 17:20:06 2020.
 Initial command:
 /scratch/scicomp/CentOS/7.3.1611/Haswell/software/Gaussian/g16/l1.exe "/scratch/bochen/cyclohexadiene-dimerization/wb97xd-def2tzvp/xp-pcm/meso/Gau-76391.inp" -scrdir="/scratch/bochen/cyclohexadiene-dimerization/wb97xd-def2tzvp/xp-pcm/meso/"
 Entering Link 1 = /scratch/scicomp/CentOS/7.3.1611/Haswell/software/Gaussian/g16/l1.exe PID=     76554.
  
 Copyright (c) 1988-2017, Gaussian, Inc.  All Rights Reserved.
  
 This is part of the Gaussian(R) 16 program.  It is based on
 the Gaussian(R) 09 system (copyright 2009, Gaussian, Inc.),
 the Gaussian(R) 03 system (copyright 2003, Gaussian, Inc.),
 the Gaussian(R) 98 system (copyright 1998, Gaussian, Inc.),
 the Gaussian(R) 94 system (copyright 1995, Gaussian, Inc.),
 the Gaussian 92(TM) system (copyright 1992, Gaussian, Inc.),
 the Gaussian 90(TM) system (copyright 1990, Gaussian, Inc.),
 the Gaussian 88(TM) system (copyright 1988, Gaussian, Inc.),
 the Gaussian 86(TM) system (copyright 1986, Carnegie Mellon
 University), and the Gaussian 82(TM) system (copyright 1983,
 Carnegie Mellon University). Gaussian is a federally registered
 trademark of Gaussian, Inc.
  
 This software contains proprietary and confidential information,
 including trade secrets, belonging to Gaussian, Inc.
  
 This software is provided under written license and may be
 used, copied, transmitted, or stored only in accord with that
 written license.
  
 The following legend is applicable only to US Government
 contracts under FAR:
  
                    RESTRICTED RIGHTS LEGEND
  
 Use, reproduction and disclosure by the US Government is
 subject to restrictions as set forth in subparagraphs (a)
 and (c) of the Commercial Computer Software - Restricted
 Rights clause in FAR 52.227-19.
  
 Gaussian, Inc.
 340 Quinnipiac St., Bldg. 40, Wallingford CT 06492
  
  
 ---------------------------------------------------------------
 Warning -- This program may not be used in any manner that
 competes with the business of Gaussian, Inc. or will provide
 assistance to any competitor of Gaussian, Inc.  The licensee
 of this program is prohibited from giving any competitor of
 Gaussian, Inc. access to this program.  By using this program,
 the user acknowledges that Gaussian, Inc. is engaged in the
 business of creating and licensing software in the field of
 computational chemistry and represents and warrants to the
 licensee that it is not a competitor of Gaussian, Inc. and that
 it will not use this program in any manner prohibited above.
 ---------------------------------------------------------------
  

 Cite this work as:
 Gaussian 16, Revision B.01,
 M. J. Frisch, G. W. Trucks, H. B. Schlegel, G. E. Scuseria, 
 M. A. Robb, J. R. Cheeseman, G. Scalmani, V. Barone, 
 G. A. Petersson, H. Nakatsuji, X. Li, M. Caricato, A. V. Marenich, 
 J. Bloino, B. G. Janesko, R. Gomperts, B. Mennucci, H. P. Hratchian, 
 J. V. Ortiz, A. F. Izmaylov, J. L. Sonnenberg, D. Williams-Young, 
 F. Ding, F. Lipparini, F. Egidi, J. Goings, B. Peng, A. Petrone, 
 T. Henderson, D. Ranasinghe, V. G. Zakrzewski, J. Gao, N. Rega, 
 G. Zheng, W. Liang, M. Hada, M. Ehara, K. Toyota, R. Fukuda, 
 J. Hasegawa, M. Ishida, T. Nakajima, Y. Honda, O. Kitao, H. Nakai, 
 T. Vreven, K. Throssell, J. A. Montgomery, Jr., J. E. Peralta, 
 F. Ogliaro, M. J. Bearpark, J. J. Heyd, E. N. Brothers, K. N. Kudin, 
 V. N. Staroverov, T. A. Keith, R. Kobayashi, J. Normand, 
 K. Raghavachari, A. P. Rendell, J. C. Burant, S. S. Iyengar, 
 J. Tomasi, M. Cossi, J. M. Millam, M. Klene, C. Adamo, R. Cammi, 
 J. W. Ochterski, R. L. Martin, K. Morokuma, O. Farkas, 
 J. B. Foresman, and D. J. Fox, Gaussian, Inc., Wallingford CT, 2016.
 
 ******************************************
 Gaussian 16:  ES64L-G16RevB.01 20-Dec-2017
                 3-Aug-2020 
 ******************************************
 %chk=meso-TS_70_2_xp-115.chk
 %nproc=24
 Will use up to   24 processors via shared memory.
 %mem=48GB
 ----------------------------------------------------------------------
 #p uwb97xd guess=mix def2tzvp # scrf=(iefpcm,solvent=Cyclohexane,read)
  nosym guess=only pop=none
 ----------------------------------------------------------------------
 1/38=1,40=2,172=1/1;
 2/12=2,15=1,17=6,18=5,40=1/2;
 3/5=44,7=101,11=2,25=1,30=1,70=2203,72=17,74=-58,89=1,116=2/1,2;
 4/13=-1/1;
 99/5=2/99;
 Leave Link    1 at Mon Aug  3 17:20:06 2020, MaxMem=  6442450944 cpu:               1.5 elap:               0.1
 (Enter /scratch/scicomp/CentOS/7.3.1611/Haswell/software/Gaussian/g16/l101.exe)
 -----------------------
 endo-2 xp-pcm for eta=3
 -----------------------
 Symbolic Z-matrix:
 Charge =  0 Multiplicity = 1
 6                    -3.12194  -0.43992   0.27777 
 6                    -0.79716  -0.26748  -1.3333 
 1                    -4.04452  -0.52162   0.84073 
 1                     0.13262  -0.19248  -1.88412 
 6                     1.21368   1.43672   0.85501 
 6                     0.79716   0.26748   1.3333 
 1                     0.62547   2.33469   1.00297 
 1                    -0.13262   0.19248   1.88412 
 6                     1.62597  -0.97588   1.18436 
 1                     2.21925  -1.09518   2.10035 
 1                     0.97777  -1.85161   1.12561 
 6                     2.47885   1.53438   0.12517 
 1                     2.87917   2.5172   -0.09322 
 6                     3.12194   0.43992  -0.27777 
 1                     4.04452   0.52162  -0.84073 
 6                     2.55568  -0.9319   -0.03155 
 1                     2.00912  -1.24349  -0.93009 
 1                     3.36134  -1.65779   0.09305 
 6                    -1.21368  -1.43672  -0.85501 
 1                    -0.62547  -2.33469  -1.00297 
 6                    -2.47885  -1.53438  -0.12517 
 1                    -2.87917  -2.5172    0.09322 
 6                    -1.62597   0.97588  -1.18436 
 1                    -0.97777   1.85161  -1.12561 
 1                    -2.21925   1.09518  -2.10035 
 6                    -2.55568   0.9319    0.03155 
 1                    -3.36134   1.65779  -0.09305 
 1                    -2.00912   1.24349   0.93009 
 
 ITRead=  0  0  0  0  0  0  0  0  0  0  0  0  0  0  0  0  0  0  0  0
 ITRead=  0  0  0  0  0  0  0  0
 MicOpt= -1 -1 -1 -1 -1 -1 -1 -1 -1 -1 -1 -1 -1 -1 -1 -1 -1 -1 -1 -1
 MicOpt= -1 -1 -1 -1 -1 -1 -1 -1
 NAtoms=     28 NQM=       28 NQMF=       0 NMMI=      0 NMMIF=      0
                NMic=       0 NMicF=      0.
                    Isotopes and Nuclear Properties:
 (Nuclear quadrupole moments (NQMom) in fm**2, nuclear magnetic moments (NMagM)
  in nuclear magnetons)

  Atom         1           2           3           4           5           6           7           8           9          10
 IAtWgt=          12          12           1           1          12          12           1           1          12           1
 AtmWgt=  12.0000000  12.0000000   1.0078250   1.0078250  12.0000000  12.0000000   1.0078250   1.0078250  12.0000000   1.0078250
 NucSpn=           0           0           1           1           0           0           1           1           0           1
 AtZEff=  -0.0000000  -0.0000000  -0.0000000  -0.0000000  -0.0000000  -0.0000000  -0.0000000  -0.0000000  -0.0000000  -0.0000000
 NQMom=    0.0000000   0.0000000   0.0000000   0.0000000   0.0000000   0.0000000   0.0000000   0.0000000   0.0000000   0.0000000
 NMagM=    0.0000000   0.0000000   2.7928460   2.7928460   0.0000000   0.0000000   2.7928460   2.7928460   0.0000000   2.7928460
 AtZNuc=   6.0000000   6.0000000   1.0000000   1.0000000   6.0000000   6.0000000   1.0000000   1.0000000   6.0000000   1.0000000

  Atom        11          12          13          14          15          16          17          18          19          20
 IAtWgt=           1          12           1          12           1          12           1           1          12           1
 AtmWgt=   1.0078250  12.0000000   1.0078250  12.0000000   1.0078250  12.0000000   1.0078250   1.0078250  12.0000000   1.0078250
 NucSpn=           1           0           1           0           1           0           1           1           0           1
 AtZEff=  -0.0000000  -0.0000000  -0.0000000  -0.0000000  -0.0000000  -0.0000000  -0.0000000  -0.0000000  -0.0000000  -0.0000000
 NQMom=    0.0000000   0.0000000   0.0000000   0.0000000   0.0000000   0.0000000   0.0000000   0.0000000   0.0000000   0.0000000
 NMagM=    2.7928460   0.0000000   2.7928460   0.0000000   2.7928460   0.0000000   2.7928460   2.7928460   0.0000000   2.7928460
 AtZNuc=   1.0000000   6.0000000   1.0000000   6.0000000   1.0000000   6.0000000   1.0000000   1.0000000   6.0000000   1.0000000

  Atom        21          22          23          24          25          26          27          28
 IAtWgt=          12           1          12           1           1          12           1           1
 AtmWgt=  12.0000000   1.0078250  12.0000000   1.0078250   1.0078250  12.0000000   1.0078250   1.0078250
 NucSpn=           0           1           0           1           1           0           1           1
 AtZEff=  -0.0000000  -0.0000000  -0.0000000  -0.0000000  -0.0000000  -0.0000000  -0.0000000  -0.0000000
 NQMom=    0.0000000   0.0000000   0.0000000   0.0000000   0.0000000   0.0000000   0.0000000   0.0000000
 NMagM=    0.0000000   2.7928460   0.0000000   2.7928460   2.7928460   0.0000000   2.7928460   2.7928460
 AtZNuc=   6.0000000   1.0000000   6.0000000   1.0000000   1.0000000   6.0000000   1.0000000   1.0000000
 Leave Link  101 at Mon Aug  3 17:20:06 2020, MaxMem=  6442450944 cpu:               2.4 elap:               0.1
 (Enter /scratch/scicomp/CentOS/7.3.1611/Haswell/software/Gaussian/g16/l202.exe)
                          Input orientation:                          
 ---------------------------------------------------------------------
 Center     Atomic      Atomic             Coordinates (Angstroms)
 Number     Number       Type             X           Y           Z
 ---------------------------------------------------------------------
      1          6           0       -3.121942   -0.439924    0.277771
      2          6           0       -0.797162   -0.267484   -1.333299
      3          1           0       -4.044520   -0.521623    0.840727
      4          1           0        0.132617   -0.192479   -1.884118
      5          6           0        1.213684    1.436717    0.855014
      6          6           0        0.797162    0.267484    1.333299
      7          1           0        0.625474    2.334691    1.002965
      8          1           0       -0.132617    0.192479    1.884118
      9          6           0        1.625967   -0.975882    1.184356
     10          1           0        2.219247   -1.095182    2.100353
     11          1           0        0.977773   -1.851608    1.125614
     12          6           0        2.478853    1.534377    0.125170
     13          1           0        2.879166    2.517204   -0.093218
     14          6           0        3.121942    0.439924   -0.277771
     15          1           0        4.044520    0.521623   -0.840727
     16          6           0        2.555680   -0.931899   -0.031548
     17          1           0        2.009120   -1.243493   -0.930088
     18          1           0        3.361336   -1.657785    0.093053
     19          6           0       -1.213684   -1.436717   -0.855014
     20          1           0       -0.625474   -2.334691   -1.002965
     21          6           0       -2.478853   -1.534377   -0.125170
     22          1           0       -2.879166   -2.517204    0.093218
     23          6           0       -1.625967    0.975882   -1.184356
     24          1           0       -0.977773    1.851608   -1.125614
     25          1           0       -2.219247    1.095182   -2.100353
     26          6           0       -2.555680    0.931899    0.031548
     27          1           0       -3.361336    1.657785   -0.093053
     28          1           0       -2.009120    1.243493    0.930088
 ---------------------------------------------------------------------
                    Distance matrix (angstroms):
                    1          2          3          4          5
     1  C    0.000000
     2  C    2.833705   0.000000
     3  H    1.083856   3.916160   0.000000
     4  H    3.914990   1.083290   4.998159   0.000000
     5  C    4.759479   3.425860   5.611061   3.365387   0.000000
     6  C    4.119944   3.152587   4.930233   3.317372   1.330170
     7  H    4.718847   3.775359   5.476650   3.868429   1.083623
     8  H    3.452006   3.317372   4.111155   3.797123   2.102311
     9  C    4.863310   3.565385   5.699022   3.501335   2.469631
    10  H    5.681502   4.644758   6.414858   4.587473   2.995420
    11  H    4.418071   3.421417   5.203215   3.539136   3.307863
    12  C    5.940543   4.013242   6.877031   3.538940   1.463852
    13  H    6.700413   4.775738   7.618671   4.253614   2.200097
    14  C    6.329996   4.119944   7.316679   3.452006   2.432745
    15  H    7.316679   4.930233   8.327558   4.111155   3.424408
    16  C    5.707286   3.657534   6.670220   3.138470   2.863090
    17  H    5.332208   2.998398   6.348499   2.352885   3.317052
    18  H    6.599258   4.610913   7.529713   4.059674   3.843037
    19  C    2.432745   1.330170   3.424408   2.102311   4.131941
    20  H    3.385673   2.100462   4.286758   2.437254   4.588911
    21  C    1.331823   2.427484   2.099986   3.422625   4.839730
    22  H    2.099546   3.380966   2.428819   4.287778   5.741537
    23  C    2.525918   1.501686   3.491831   2.224264   3.526332
    24  H    3.437742   2.136891   4.347834   2.446750   2.982869
    25  H    2.971007   2.113659   3.820423   2.689999   4.542671
    26  C    1.504386   2.528579   2.232519   3.487254   3.891149
    27  H    2.143642   3.438002   2.467490   4.340403   4.677447
    28  H    2.120798   2.979063   2.695640   3.816911   3.229464
                    6          7          8          9         10
     6  C    0.000000
     7  H    2.100462   0.000000
     8  H    1.083290   2.437254   0.000000
     9  C    1.501686   3.463204   2.224264   0.000000
    10  H    2.113659   3.938071   2.689999   1.097845   0.000000
    11  H    2.136891   4.202887   2.446750   1.091101   1.750301
    12  C    2.427484   2.201372   3.422625   2.854941   3.298988
    13  H    3.380966   2.512779   4.287778   3.924838   4.277450
    14  C    2.833705   3.385673   3.914990   2.525918   2.971007
    15  H    3.916160   4.286758   4.998159   3.491831   3.820423
    16  C    2.528579   3.932750   3.487254   1.531249   2.164452
    17  H    2.979063   4.295878   3.816911   2.165478   3.041336
    18  H    3.438002   4.924708   4.340403   2.160426   2.377003
    19  C    3.425860   4.588911   3.365387   3.526332   4.542671
    20  H    3.775359   5.233713   3.868429   3.420486   4.388554
    21  C    4.013242   5.087162   3.538940   4.344689   5.217086
    22  H    4.775738   6.054009   4.253614   4.884924   5.660791
    23  C    3.565385   3.420486   3.501335   4.471605   5.464823
    24  H    3.421417   2.708250   3.539136   4.484431   5.413998
    25  H    4.644758   4.388554   4.587473   5.464823   6.491830
    26  C    3.657534   3.609878   3.138470   4.738646   5.584706
    27  H    4.610913   4.189763   4.059674   5.782834   6.597936
    28  H    2.998398   2.852562   2.352885   4.266630   4.971721
                   11         12         13         14         15
    11  H    0.000000
    12  C    3.836538   0.000000
    13  H    4.918065   1.083463   0.000000
    14  C    3.437742   1.331823   2.099546   0.000000
    15  H    4.347834   2.099986   2.428819   1.083856   0.000000
    16  C    2.162101   2.472444   3.464788   1.504386   2.232519
    17  H    2.378947   3.008451   3.949705   2.120798   2.695640
    18  H    2.604827   3.312055   4.206866   2.143642   2.467490
    19  C    2.982869   4.839730   5.741537   4.759479   5.611061
    20  H    2.708250   5.087162   6.054009   4.718847   5.476650
    21  C    3.689629   5.835989   6.717492   5.940543   6.877031
    22  H    4.047819   6.717492   7.651040   6.700413   7.618671
    23  C    4.484431   4.344689   4.884924   4.863310   5.699022
    24  H    4.754576   3.689629   4.047819   4.418071   5.203215
    25  H    5.413998   5.217086   5.660791   5.681502   6.414858
    26  C    4.629274   5.071318   5.662712   5.707286   6.670220
    27  H    5.712167   5.845567   6.299402   6.599258   7.529713
    28  H    4.305742   4.568852   5.154109   5.332208   6.348499
                   16         17         18         19         20
    16  C    0.000000
    17  H    1.096901   0.000000
    18  H    1.091567   1.745550   0.000000
    19  C    3.891149   3.229464   4.677447   0.000000
    20  H    3.609878   2.852562   4.189763   1.083623   0.000000
    21  C    5.071318   4.568852   5.845567   1.463852   2.201372
    22  H    5.662712   5.154109   6.299402   2.200097   2.512779
    23  C    4.738646   4.266630   5.782834   2.469631   3.463204
    24  H    4.629274   4.305742   5.712167   3.307863   4.202887
    25  H    5.584706   4.971721   6.597936   2.995420   3.938071
    26  C    5.440931   5.147278   6.459205   2.863090   3.932750
    27  H    6.459205   6.161156   7.498130   3.843037   4.924708
    28  H    5.147278   5.078544   6.161156   3.317052   4.295878
                   21         22         23         24         25
    21  C    0.000000
    22  H    1.083463   0.000000
    23  C    2.854941   3.924838   0.000000
    24  H    3.836538   4.918065   1.091101   0.000000
    25  H    3.298988   4.277450   1.097845   1.750301   0.000000
    26  C    2.472444   3.464788   1.531249   2.162101   2.164452
    27  H    3.312055   4.206866   2.160426   2.604827   2.377003
    28  H    3.008451   3.949705   2.165478   2.378947   3.041336
                   26         27         28
    26  C    0.000000
    27  H    1.091567   0.000000
    28  H    1.096901   1.745550   0.000000
 Symmetry turned off by external request.
 Stoichiometry    C12H16
 Framework group  CI[X(C12H16)]
 Deg. of freedom    39
 Full point group                 CI      NOp   2
 Rotational constants (GHZ):           1.6958170           0.5775969           0.5292964
 Leave Link  202 at Mon Aug  3 17:20:06 2020, MaxMem=  6442450944 cpu:               0.3 elap:               0.0
 (Enter /scratch/scicomp/CentOS/7.3.1611/Haswell/software/Gaussian/g16/l301.exe)
 Standard basis: def2TZVP (5D, 7F)
 Ernie: Thresh=  0.10000D-02 Tol=  0.10000D-05 Strict=F.
   468 basis functions,   740 primitive gaussians,   528 cartesian basis functions
    44 alpha electrons       44 beta electrons
       nuclear repulsion energy       670.8483891011 Hartrees.
 IExCor= 4639 DFT=T Ex+Corr=wB97XD ExCW=0 ScaHFX=  1.000000
 ScaDFX=  1.000000  1.000000  1.000000  1.000000 ScalE2=  1.000000  1.000000
 IRadAn=      5 IRanWt=     -1 IRanGd=            0 ICorTp=0 IEmpDi=121
 HFx  wShort=  0.000000 wLong=  0.200000 cFull=  0.222036 cShort=  0.000000 cLong=  0.777964
 DFx  wShort=  0.000000 wLong=  0.200000 cFull=  0.000000 cShort=  0.000000 cLong=  1.000000
 NAtoms=   28 NActive=   28 NUniq=   28 SFac= 1.00D+00 NAtFMM=   60 NAOKFM=F Big=F
 Integral buffers will be    131072 words long.
 Raffenetti 2 integral format.
 Two-electron integral symmetry is turned off.
 R6Disp:  Grimme-D2 Dispersion energy=       -0.0213014488 Hartrees.
 Nuclear repulsion after empirical dispersion term =      670.8270876523 Hartrees.
 Using the following non-standard input for PCM:
 qrep pcmdoc geomview  nodis nocav g03defaults tsare=0.075
 Warning! Using old PCM defaults because the g03defaults keyword was found.
 These settings can be overridden by following keywords.
 nsfe=28
 NVESolv=36  SolvMW=84.1595   Rsolv=2.815
 eps=2.0165 RhoS=0.7781
 --- end of non-standard input.
 Reading user-defined spheres from input:
 ISph  on   Nord    Re0     Alpha      Xe            Ye            Ze
 --- end of user-defined spheres data.
 ------------------------------------------------------------------------------
 Polarizable Continuum Model (PCM)
 =================================
 Model                : PCM.
 Atomic radii         : UA0 (Simple United Atom Topological Model).
 Polarization charges : Total charges.
 Charge compensation  : None.
 Solution method      : On-the-fly selection.
 Cavity type          : SES (Solvent Excluding Surface) (Alpha=1.000).
 Cavity algorithm     : GePol (RMin=0.200 OFac=0.890).
                        User-defined sphere list used, NSphG=   28.
                        Tesserae with average area of 0.075 Ang**2.
                        Smoothing algorithm: None.
                        Polarization charges: point-like.
                        Self-potential: constant (ISelfS= 1).
                        Self-field    : global E.n sum rule (ISelfD= 3).
 Solvent              : CycloHexane, Eps=   2.016500 Eps(inf)=   2.035188
                        RSolv=   2.815000 Ang.
 ------------------------------------------------------------------------------
 GePol: Number of generator spheres                  =      28
 GePol: Total number of spheres                      =     221
 GePol: Number of exposed spheres                    =     156 ( 70.59%)
 GePol: Number of tesserae                           =    4860
 GePol: Average area of tesserae                     =       0.04 Ang**2
 GePol: Minimum area of tessera                      =   0.10D-02 Ang**2
 GePol: Maximum area of tessera                      =    0.11898 Ang**2
 GePol: Number of small tesserae                     =       0
 GePol: Fraction of small tesserae (<1% of avg)      =       0.00%
 GePol: Total count of vertices                      =   17313
 GePol: Maximum number of vertices in a tessera      =       8
 GePol: Cavity surface area                          =    216.991 Ang**2
 GePol: Cavity volume                                =    241.371 Ang**3
 Leave Link  301 at Mon Aug  3 17:20:07 2020, MaxMem=  6442450944 cpu:               8.9 elap:               0.4
 (Enter /scratch/scicomp/CentOS/7.3.1611/Haswell/software/Gaussian/g16/l302.exe)
 NPDir=0 NMtPBC=     1 NCelOv=     1 NCel=       1 NClECP=     1 NCelD=      1
         NCelK=      1 NCelE2=     1 NClLst=     1 CellRange=     0.0.
 One-electron integrals computed using PRISM.
   1 Symmetry operations used in ECPInt.
 ECPInt:  NShTT=   19306 NPrTT=   56928 LenC2=   18456 LenP2D=   41748.
 LDataN:  DoStor=T MaxTD1= 6 Len=  172
 NBasis=   468 RedAO= T EigKep=  2.62D-05  NBF=   468
 NBsUse=   468 1.00D-06 EigRej= -1.00D+00 NBFU=   468
 Precomputing XC quadrature grid using
 IXCGrd= 4 IRadAn=           5 IRanWt=          -1 IRanGd=           0 AccXCQ= 0.00D+00.
 Generated NRdTot=       0 NPtTot=           0 NUsed=           0 NTot=          32
 NSgBfM=   526   526   526   526   526 MxSgAt=    28 MxSgA2=    28.
 Leave Link  302 at Mon Aug  3 17:20:07 2020, MaxMem=  6442450944 cpu:              11.7 elap:               0.5
 (Enter /scratch/scicomp/CentOS/7.3.1611/Haswell/software/Gaussian/g16/l401.exe)
 ExpMin= 9.52D-02 ExpMax= 1.36D+04 ExpMxC= 4.63D+02 IAcc=3 IRadAn=         5 AccDes= 0.00D+00
 Harris functional with IExCor= 4639 and IRadAn=       5 diagonalized for initial guess.
 HarFok:  IExCor= 4639 AccDes= 0.00D+00 IRadAn=         5 IDoV= 1 UseB2=F ITyADJ=14
 ICtDFT=  3500011 ScaDFX=  1.000000  1.000000  1.000000  1.000000
 FoFCou: FMM=F IPFlag=           0 FMFlag=      100000 FMFlg1=           0
         NFxFlg=           0 DoJE=T BraDBF=F KetDBF=T FulRan=T
         wScrn=  0.000000 ICntrl=       500 IOpCl=  0 I1Cent=   200000004 NGrid=           0
         NMat0=    1 NMatS0=      1 NMatT0=    0 NMatD0=    1 NMtDS0=    0 NMtDT0=    0
 Symmetry not used in FoFCou.
 Harris En= -444.638106381276    
 JPrj=0 DoOrth=F DoCkMO=T.
 Mixing orbitals, IMix= 1 IMixAn=  0 NRI=1 NE=   44 Coef=  7.07106781D-01  7.07106781D-01
 Mixing orbitals, IMix= 1 IMixAn=  0 NRI=1 NE=   44 Coef= -7.07106781D-01  7.07106781D-01
 Initial guess <Sx>= 0.0000 <Sy>= 0.0000 <Sz>= 0.0000 <S**2>= 1.0000 S= 0.6180
 Leave Link  401 at Mon Aug  3 17:20:09 2020, MaxMem=  6442450944 cpu:              47.1 elap:               2.0
 (Enter /scratch/scicomp/CentOS/7.3.1611/Haswell/software/Gaussian/g16/l9999.exe)

 This type of calculation cannot be archived.


 HAPPINESS IS NOT HAVING WHAT YOU WANT --
 HAPPINESS IS WANTING WHAT YOU HAVE!

              -- FROM MRS. SEVERN'S DESK
 Job cpu time:       0 days  0 hours  1 minutes 13.0 seconds.
 Elapsed time:       0 days  0 hours  0 minutes  3.3 seconds.
 File lengths (MBytes):  RWF=    428 Int=      0 D2E=      0 Chk=      1 Scr=      1
 Normal termination of Gaussian 16 at Mon Aug  3 17:20:09 2020.
 Initial command:
 /scratch/scicomp/CentOS/7.3.1611/Haswell/software/Gaussian/g16/l1.exe "/scratch/bochen/cyclohexadiene-dimerization/wb97xd-def2tzvp/xp-pcm/meso/Gau-76391.inp" -scrdir="/scratch/bochen/cyclohexadiene-dimerization/wb97xd-def2tzvp/xp-pcm/meso/"
 Entering Link 1 = /scratch/scicomp/CentOS/7.3.1611/Haswell/software/Gaussian/g16/l1.exe PID=     76716.
  
 Copyright (c) 1988-2017, Gaussian, Inc.  All Rights Reserved.
  
 This is part of the Gaussian(R) 16 program.  It is based on
 the Gaussian(R) 09 system (copyright 2009, Gaussian, Inc.),
 the Gaussian(R) 03 system (copyright 2003, Gaussian, Inc.),
 the Gaussian(R) 98 system (copyright 1998, Gaussian, Inc.),
 the Gaussian(R) 94 system (copyright 1995, Gaussian, Inc.),
 the Gaussian 92(TM) system (copyright 1992, Gaussian, Inc.),
 the Gaussian 90(TM) system (copyright 1990, Gaussian, Inc.),
 the Gaussian 88(TM) system (copyright 1988, Gaussian, Inc.),
 the Gaussian 86(TM) system (copyright 1986, Carnegie Mellon
 University), and the Gaussian 82(TM) system (copyright 1983,
 Carnegie Mellon University). Gaussian is a federally registered
 trademark of Gaussian, Inc.
  
 This software contains proprietary and confidential information,
 including trade secrets, belonging to Gaussian, Inc.
  
 This software is provided under written license and may be
 used, copied, transmitted, or stored only in accord with that
 written license.
  
 The following legend is applicable only to US Government
 contracts under FAR:
  
                    RESTRICTED RIGHTS LEGEND
  
 Use, reproduction and disclosure by the US Government is
 subject to restrictions as set forth in subparagraphs (a)
 and (c) of the Commercial Computer Software - Restricted
 Rights clause in FAR 52.227-19.
  
 Gaussian, Inc.
 340 Quinnipiac St., Bldg. 40, Wallingford CT 06492
  
  
 ---------------------------------------------------------------
 Warning -- This program may not be used in any manner that
 competes with the business of Gaussian, Inc. or will provide
 assistance to any competitor of Gaussian, Inc.  The licensee
 of this program is prohibited from giving any competitor of
 Gaussian, Inc. access to this program.  By using this program,
 the user acknowledges that Gaussian, Inc. is engaged in the
 business of creating and licensing software in the field of
 computational chemistry and represents and warrants to the
 licensee that it is not a competitor of Gaussian, Inc. and that
 it will not use this program in any manner prohibited above.
 ---------------------------------------------------------------
  

 Cite this work as:
 Gaussian 16, Revision B.01,
 M. J. Frisch, G. W. Trucks, H. B. Schlegel, G. E. Scuseria, 
 M. A. Robb, J. R. Cheeseman, G. Scalmani, V. Barone, 
 G. A. Petersson, H. Nakatsuji, X. Li, M. Caricato, A. V. Marenich, 
 J. Bloino, B. G. Janesko, R. Gomperts, B. Mennucci, H. P. Hratchian, 
 J. V. Ortiz, A. F. Izmaylov, J. L. Sonnenberg, D. Williams-Young, 
 F. Ding, F. Lipparini, F. Egidi, J. Goings, B. Peng, A. Petrone, 
 T. Henderson, D. Ranasinghe, V. G. Zakrzewski, J. Gao, N. Rega, 
 G. Zheng, W. Liang, M. Hada, M. Ehara, K. Toyota, R. Fukuda, 
 J. Hasegawa, M. Ishida, T. Nakajima, Y. Honda, O. Kitao, H. Nakai, 
 T. Vreven, K. Throssell, J. A. Montgomery, Jr., J. E. Peralta, 
 F. Ogliaro, M. J. Bearpark, J. J. Heyd, E. N. Brothers, K. N. Kudin, 
 V. N. Staroverov, T. A. Keith, R. Kobayashi, J. Normand, 
 K. Raghavachari, A. P. Rendell, J. C. Burant, S. S. Iyengar, 
 J. Tomasi, M. Cossi, J. M. Millam, M. Klene, C. Adamo, R. Cammi, 
 J. W. Ochterski, R. L. Martin, K. Morokuma, O. Farkas, 
 J. B. Foresman, and D. J. Fox, Gaussian, Inc., Wallingford CT, 2016.
 
 ******************************************
 Gaussian 16:  ES64L-G16RevB.01 20-Dec-2017
                 3-Aug-2020 
 ******************************************
 %chk=meso-TS_70_2_xp-110.chk
 %nproc=24
 Will use up to   24 processors via shared memory.
 %mem=48GB
 ----------------------------------------------------------------------
 #p uwb97xd guess=mix def2tzvp # scrf=(iefpcm,solvent=Cyclohexane,read)
  nosym guess=only pop=none
 ----------------------------------------------------------------------
 1/38=1,40=2,172=1/1;
 2/12=2,15=1,17=6,18=5,40=1/2;
 3/5=44,7=101,11=2,25=1,30=1,70=2203,72=17,74=-58,89=1,116=2/1,2;
 4/13=-1/1;
 99/5=2/99;
 Leave Link    1 at Mon Aug  3 17:20:10 2020, MaxMem=  6442450944 cpu:               1.4 elap:               0.1
 (Enter /scratch/scicomp/CentOS/7.3.1611/Haswell/software/Gaussian/g16/l101.exe)
 -----------------------
 endo-2 xp-pcm for eta=3
 -----------------------
 Symbolic Z-matrix:
 Charge =  0 Multiplicity = 1
 6                    -3.12194  -0.43992   0.27777 
 6                    -0.79716  -0.26748  -1.3333 
 1                    -4.04452  -0.52162   0.84073 
 1                     0.13262  -0.19248  -1.88412 
 6                     1.21368   1.43672   0.85501 
 6                     0.79716   0.26748   1.3333 
 1                     0.62547   2.33469   1.00297 
 1                    -0.13262   0.19248   1.88412 
 6                     1.62597  -0.97588   1.18436 
 1                     2.21925  -1.09518   2.10035 
 1                     0.97777  -1.85161   1.12561 
 6                     2.47885   1.53438   0.12517 
 1                     2.87917   2.5172   -0.09322 
 6                     3.12194   0.43992  -0.27777 
 1                     4.04452   0.52162  -0.84073 
 6                     2.55568  -0.9319   -0.03155 
 1                     2.00912  -1.24349  -0.93009 
 1                     3.36134  -1.65779   0.09305 
 6                    -1.21368  -1.43672  -0.85501 
 1                    -0.62547  -2.33469  -1.00297 
 6                    -2.47885  -1.53438  -0.12517 
 1                    -2.87917  -2.5172    0.09322 
 6                    -1.62597   0.97588  -1.18436 
 1                    -0.97777   1.85161  -1.12561 
 1                    -2.21925   1.09518  -2.10035 
 6                    -2.55568   0.9319    0.03155 
 1                    -3.36134   1.65779  -0.09305 
 1                    -2.00912   1.24349   0.93009 
 
 ITRead=  0  0  0  0  0  0  0  0  0  0  0  0  0  0  0  0  0  0  0  0
 ITRead=  0  0  0  0  0  0  0  0
 MicOpt= -1 -1 -1 -1 -1 -1 -1 -1 -1 -1 -1 -1 -1 -1 -1 -1 -1 -1 -1 -1
 MicOpt= -1 -1 -1 -1 -1 -1 -1 -1
 NAtoms=     28 NQM=       28 NQMF=       0 NMMI=      0 NMMIF=      0
                NMic=       0 NMicF=      0.
                    Isotopes and Nuclear Properties:
 (Nuclear quadrupole moments (NQMom) in fm**2, nuclear magnetic moments (NMagM)
  in nuclear magnetons)

  Atom         1           2           3           4           5           6           7           8           9          10
 IAtWgt=          12          12           1           1          12          12           1           1          12           1
 AtmWgt=  12.0000000  12.0000000   1.0078250   1.0078250  12.0000000  12.0000000   1.0078250   1.0078250  12.0000000   1.0078250
 NucSpn=           0           0           1           1           0           0           1           1           0           1
 AtZEff=  -0.0000000  -0.0000000  -0.0000000  -0.0000000  -0.0000000  -0.0000000  -0.0000000  -0.0000000  -0.0000000  -0.0000000
 NQMom=    0.0000000   0.0000000   0.0000000   0.0000000   0.0000000   0.0000000   0.0000000   0.0000000   0.0000000   0.0000000
 NMagM=    0.0000000   0.0000000   2.7928460   2.7928460   0.0000000   0.0000000   2.7928460   2.7928460   0.0000000   2.7928460
 AtZNuc=   6.0000000   6.0000000   1.0000000   1.0000000   6.0000000   6.0000000   1.0000000   1.0000000   6.0000000   1.0000000

  Atom        11          12          13          14          15          16          17          18          19          20
 IAtWgt=           1          12           1          12           1          12           1           1          12           1
 AtmWgt=   1.0078250  12.0000000   1.0078250  12.0000000   1.0078250  12.0000000   1.0078250   1.0078250  12.0000000   1.0078250
 NucSpn=           1           0           1           0           1           0           1           1           0           1
 AtZEff=  -0.0000000  -0.0000000  -0.0000000  -0.0000000  -0.0000000  -0.0000000  -0.0000000  -0.0000000  -0.0000000  -0.0000000
 NQMom=    0.0000000   0.0000000   0.0000000   0.0000000   0.0000000   0.0000000   0.0000000   0.0000000   0.0000000   0.0000000
 NMagM=    2.7928460   0.0000000   2.7928460   0.0000000   2.7928460   0.0000000   2.7928460   2.7928460   0.0000000   2.7928460
 AtZNuc=   1.0000000   6.0000000   1.0000000   6.0000000   1.0000000   6.0000000   1.0000000   1.0000000   6.0000000   1.0000000

  Atom        21          22          23          24          25          26          27          28
 IAtWgt=          12           1          12           1           1          12           1           1
 AtmWgt=  12.0000000   1.0078250  12.0000000   1.0078250   1.0078250  12.0000000   1.0078250   1.0078250
 NucSpn=           0           1           0           1           1           0           1           1
 AtZEff=  -0.0000000  -0.0000000  -0.0000000  -0.0000000  -0.0000000  -0.0000000  -0.0000000  -0.0000000
 NQMom=    0.0000000   0.0000000   0.0000000   0.0000000   0.0000000   0.0000000   0.0000000   0.0000000
 NMagM=    0.0000000   2.7928460   0.0000000   2.7928460   2.7928460   0.0000000   2.7928460   2.7928460
 AtZNuc=   6.0000000   1.0000000   6.0000000   1.0000000   1.0000000   6.0000000   1.0000000   1.0000000
 Leave Link  101 at Mon Aug  3 17:20:10 2020, MaxMem=  6442450944 cpu:               2.4 elap:               0.1
 (Enter /scratch/scicomp/CentOS/7.3.1611/Haswell/software/Gaussian/g16/l202.exe)
                          Input orientation:                          
 ---------------------------------------------------------------------
 Center     Atomic      Atomic             Coordinates (Angstroms)
 Number     Number       Type             X           Y           Z
 ---------------------------------------------------------------------
      1          6           0       -3.121942   -0.439924    0.277771
      2          6           0       -0.797162   -0.267484   -1.333299
      3          1           0       -4.044520   -0.521623    0.840727
      4          1           0        0.132617   -0.192479   -1.884118
      5          6           0        1.213684    1.436717    0.855014
      6          6           0        0.797162    0.267484    1.333299
      7          1           0        0.625474    2.334691    1.002965
      8          1           0       -0.132617    0.192479    1.884118
      9          6           0        1.625967   -0.975882    1.184356
     10          1           0        2.219247   -1.095182    2.100353
     11          1           0        0.977773   -1.851608    1.125614
     12          6           0        2.478853    1.534377    0.125170
     13          1           0        2.879166    2.517204   -0.093218
     14          6           0        3.121942    0.439924   -0.277771
     15          1           0        4.044520    0.521623   -0.840727
     16          6           0        2.555680   -0.931899   -0.031548
     17          1           0        2.009120   -1.243493   -0.930088
     18          1           0        3.361336   -1.657785    0.093053
     19          6           0       -1.213684   -1.436717   -0.855014
     20          1           0       -0.625474   -2.334691   -1.002965
     21          6           0       -2.478853   -1.534377   -0.125170
     22          1           0       -2.879166   -2.517204    0.093218
     23          6           0       -1.625967    0.975882   -1.184356
     24          1           0       -0.977773    1.851608   -1.125614
     25          1           0       -2.219247    1.095182   -2.100353
     26          6           0       -2.555680    0.931899    0.031548
     27          1           0       -3.361336    1.657785   -0.093053
     28          1           0       -2.009120    1.243493    0.930088
 ---------------------------------------------------------------------
                    Distance matrix (angstroms):
                    1          2          3          4          5
     1  C    0.000000
     2  C    2.833705   0.000000
     3  H    1.083856   3.916160   0.000000
     4  H    3.914990   1.083290   4.998159   0.000000
     5  C    4.759479   3.425860   5.611061   3.365387   0.000000
     6  C    4.119944   3.152587   4.930233   3.317372   1.330170
     7  H    4.718847   3.775359   5.476650   3.868429   1.083623
     8  H    3.452006   3.317372   4.111155   3.797123   2.102311
     9  C    4.863310   3.565385   5.699022   3.501335   2.469631
    10  H    5.681502   4.644758   6.414858   4.587473   2.995420
    11  H    4.418071   3.421417   5.203215   3.539136   3.307863
    12  C    5.940543   4.013242   6.877031   3.538940   1.463852
    13  H    6.700413   4.775738   7.618671   4.253614   2.200097
    14  C    6.329996   4.119944   7.316679   3.452006   2.432745
    15  H    7.316679   4.930233   8.327558   4.111155   3.424408
    16  C    5.707286   3.657534   6.670220   3.138470   2.863090
    17  H    5.332208   2.998398   6.348499   2.352885   3.317052
    18  H    6.599258   4.610913   7.529713   4.059674   3.843037
    19  C    2.432745   1.330170   3.424408   2.102311   4.131941
    20  H    3.385673   2.100462   4.286758   2.437254   4.588911
    21  C    1.331823   2.427484   2.099986   3.422625   4.839730
    22  H    2.099546   3.380966   2.428819   4.287778   5.741537
    23  C    2.525918   1.501686   3.491831   2.224264   3.526332
    24  H    3.437742   2.136891   4.347834   2.446750   2.982869
    25  H    2.971007   2.113659   3.820423   2.689999   4.542671
    26  C    1.504386   2.528579   2.232519   3.487254   3.891149
    27  H    2.143642   3.438002   2.467490   4.340403   4.677447
    28  H    2.120798   2.979063   2.695640   3.816911   3.229464
                    6          7          8          9         10
     6  C    0.000000
     7  H    2.100462   0.000000
     8  H    1.083290   2.437254   0.000000
     9  C    1.501686   3.463204   2.224264   0.000000
    10  H    2.113659   3.938071   2.689999   1.097845   0.000000
    11  H    2.136891   4.202887   2.446750   1.091101   1.750301
    12  C    2.427484   2.201372   3.422625   2.854941   3.298988
    13  H    3.380966   2.512779   4.287778   3.924838   4.277450
    14  C    2.833705   3.385673   3.914990   2.525918   2.971007
    15  H    3.916160   4.286758   4.998159   3.491831   3.820423
    16  C    2.528579   3.932750   3.487254   1.531249   2.164452
    17  H    2.979063   4.295878   3.816911   2.165478   3.041336
    18  H    3.438002   4.924708   4.340403   2.160426   2.377003
    19  C    3.425860   4.588911   3.365387   3.526332   4.542671
    20  H    3.775359   5.233713   3.868429   3.420486   4.388554
    21  C    4.013242   5.087162   3.538940   4.344689   5.217086
    22  H    4.775738   6.054009   4.253614   4.884924   5.660791
    23  C    3.565385   3.420486   3.501335   4.471605   5.464823
    24  H    3.421417   2.708250   3.539136   4.484431   5.413998
    25  H    4.644758   4.388554   4.587473   5.464823   6.491830
    26  C    3.657534   3.609878   3.138470   4.738646   5.584706
    27  H    4.610913   4.189763   4.059674   5.782834   6.597936
    28  H    2.998398   2.852562   2.352885   4.266630   4.971721
                   11         12         13         14         15
    11  H    0.000000
    12  C    3.836538   0.000000
    13  H    4.918065   1.083463   0.000000
    14  C    3.437742   1.331823   2.099546   0.000000
    15  H    4.347834   2.099986   2.428819   1.083856   0.000000
    16  C    2.162101   2.472444   3.464788   1.504386   2.232519
    17  H    2.378947   3.008451   3.949705   2.120798   2.695640
    18  H    2.604827   3.312055   4.206866   2.143642   2.467490
    19  C    2.982869   4.839730   5.741537   4.759479   5.611061
    20  H    2.708250   5.087162   6.054009   4.718847   5.476650
    21  C    3.689629   5.835989   6.717492   5.940543   6.877031
    22  H    4.047819   6.717492   7.651040   6.700413   7.618671
    23  C    4.484431   4.344689   4.884924   4.863310   5.699022
    24  H    4.754576   3.689629   4.047819   4.418071   5.203215
    25  H    5.413998   5.217086   5.660791   5.681502   6.414858
    26  C    4.629274   5.071318   5.662712   5.707286   6.670220
    27  H    5.712167   5.845567   6.299402   6.599258   7.529713
    28  H    4.305742   4.568852   5.154109   5.332208   6.348499
                   16         17         18         19         20
    16  C    0.000000
    17  H    1.096901   0.000000
    18  H    1.091567   1.745550   0.000000
    19  C    3.891149   3.229464   4.677447   0.000000
    20  H    3.609878   2.852562   4.189763   1.083623   0.000000
    21  C    5.071318   4.568852   5.845567   1.463852   2.201372
    22  H    5.662712   5.154109   6.299402   2.200097   2.512779
    23  C    4.738646   4.266630   5.782834   2.469631   3.463204
    24  H    4.629274   4.305742   5.712167   3.307863   4.202887
    25  H    5.584706   4.971721   6.597936   2.995420   3.938071
    26  C    5.440931   5.147278   6.459205   2.863090   3.932750
    27  H    6.459205   6.161156   7.498130   3.843037   4.924708
    28  H    5.147278   5.078544   6.161156   3.317052   4.295878
                   21         22         23         24         25
    21  C    0.000000
    22  H    1.083463   0.000000
    23  C    2.854941   3.924838   0.000000
    24  H    3.836538   4.918065   1.091101   0.000000
    25  H    3.298988   4.277450   1.097845   1.750301   0.000000
    26  C    2.472444   3.464788   1.531249   2.162101   2.164452
    27  H    3.312055   4.206866   2.160426   2.604827   2.377003
    28  H    3.008451   3.949705   2.165478   2.378947   3.041336
                   26         27         28
    26  C    0.000000
    27  H    1.091567   0.000000
    28  H    1.096901   1.745550   0.000000
 Symmetry turned off by external request.
 Stoichiometry    C12H16
 Framework group  CI[X(C12H16)]
 Deg. of freedom    39
 Full point group                 CI      NOp   2
 Rotational constants (GHZ):           1.6958170           0.5775969           0.5292964
 Leave Link  202 at Mon Aug  3 17:20:10 2020, MaxMem=  6442450944 cpu:               0.3 elap:               0.0
 (Enter /scratch/scicomp/CentOS/7.3.1611/Haswell/software/Gaussian/g16/l301.exe)
 Standard basis: def2TZVP (5D, 7F)
 Ernie: Thresh=  0.10000D-02 Tol=  0.10000D-05 Strict=F.
   468 basis functions,   740 primitive gaussians,   528 cartesian basis functions
    44 alpha electrons       44 beta electrons
       nuclear repulsion energy       670.8483891011 Hartrees.
 IExCor= 4639 DFT=T Ex+Corr=wB97XD ExCW=0 ScaHFX=  1.000000
 ScaDFX=  1.000000  1.000000  1.000000  1.000000 ScalE2=  1.000000  1.000000
 IRadAn=      5 IRanWt=     -1 IRanGd=            0 ICorTp=0 IEmpDi=121
 HFx  wShort=  0.000000 wLong=  0.200000 cFull=  0.222036 cShort=  0.000000 cLong=  0.777964
 DFx  wShort=  0.000000 wLong=  0.200000 cFull=  0.000000 cShort=  0.000000 cLong=  1.000000
 NAtoms=   28 NActive=   28 NUniq=   28 SFac= 1.00D+00 NAtFMM=   60 NAOKFM=F Big=F
 Integral buffers will be    131072 words long.
 Raffenetti 2 integral format.
 Two-electron integral symmetry is turned off.
 R6Disp:  Grimme-D2 Dispersion energy=       -0.0213014488 Hartrees.
 Nuclear repulsion after empirical dispersion term =      670.8270876523 Hartrees.
 Using the following non-standard input for PCM:
 qrep pcmdoc geomview  nodis nocav g03defaults tsare=0.075
 Warning! Using old PCM defaults because the g03defaults keyword was found.
 These settings can be overridden by following keywords.
 nsfe=28
 NVESolv=36  SolvMW=84.1595   Rsolv=2.815
 eps=2.0165 RhoS=0.7781
 --- end of non-standard input.
 Reading user-defined spheres from input:
 ISph  on   Nord    Re0     Alpha      Xe            Ye            Ze
 --- end of user-defined spheres data.
 ------------------------------------------------------------------------------
 Polarizable Continuum Model (PCM)
 =================================
 Model                : PCM.
 Atomic radii         : UA0 (Simple United Atom Topological Model).
 Polarization charges : Total charges.
 Charge compensation  : None.
 Solution method      : On-the-fly selection.
 Cavity type          : SES (Solvent Excluding Surface) (Alpha=1.000).
 Cavity algorithm     : GePol (RMin=0.200 OFac=0.890).
                        User-defined sphere list used, NSphG=   28.
                        Tesserae with average area of 0.075 Ang**2.
                        Smoothing algorithm: None.
                        Polarization charges: point-like.
                        Self-potential: constant (ISelfS= 1).
                        Self-field    : global E.n sum rule (ISelfD= 3).
 Solvent              : CycloHexane, Eps=   2.016500 Eps(inf)=   2.035188
                        RSolv=   2.815000 Ang.
 ------------------------------------------------------------------------------
 GePol: Number of generator spheres                  =      28
 GePol: Total number of spheres                      =     284
 GePol: Number of exposed spheres                    =     187 ( 65.85%)
 GePol: Number of tesserae                           =    4700
 GePol: Average area of tesserae                     =       0.04 Ang**2
 GePol: Minimum area of tessera                      =   0.10D-02 Ang**2
 GePol: Maximum area of tessera                      =    0.12569 Ang**2
 GePol: Number of small tesserae                     =       0
 GePol: Fraction of small tesserae (<1% of avg)      =       0.00%
 GePol: Total count of vertices                      =   16946
 GePol: Maximum number of vertices in a tessera      =       7
 GePol: Cavity surface area                          =    209.871 Ang**2
 GePol: Cavity volume                                =    227.587 Ang**3
 Leave Link  301 at Mon Aug  3 17:20:10 2020, MaxMem=  6442450944 cpu:               9.5 elap:               0.4
 (Enter /scratch/scicomp/CentOS/7.3.1611/Haswell/software/Gaussian/g16/l302.exe)
 NPDir=0 NMtPBC=     1 NCelOv=     1 NCel=       1 NClECP=     1 NCelD=      1
         NCelK=      1 NCelE2=     1 NClLst=     1 CellRange=     0.0.
 One-electron integrals computed using PRISM.
   1 Symmetry operations used in ECPInt.
 ECPInt:  NShTT=   19306 NPrTT=   56928 LenC2=   18456 LenP2D=   41748.
 LDataN:  DoStor=T MaxTD1= 6 Len=  172
 NBasis=   468 RedAO= T EigKep=  2.62D-05  NBF=   468
 NBsUse=   468 1.00D-06 EigRej= -1.00D+00 NBFU=   468
 Precomputing XC quadrature grid using
 IXCGrd= 4 IRadAn=           5 IRanWt=          -1 IRanGd=           0 AccXCQ= 0.00D+00.
 Generated NRdTot=       0 NPtTot=           0 NUsed=           0 NTot=          32
 NSgBfM=   526   526   526   526   526 MxSgAt=    28 MxSgA2=    28.
 Leave Link  302 at Mon Aug  3 17:20:11 2020, MaxMem=  6442450944 cpu:              11.7 elap:               0.5
 (Enter /scratch/scicomp/CentOS/7.3.1611/Haswell/software/Gaussian/g16/l401.exe)
 ExpMin= 9.52D-02 ExpMax= 1.36D+04 ExpMxC= 4.63D+02 IAcc=3 IRadAn=         5 AccDes= 0.00D+00
 Harris functional with IExCor= 4639 and IRadAn=       5 diagonalized for initial guess.
 HarFok:  IExCor= 4639 AccDes= 0.00D+00 IRadAn=         5 IDoV= 1 UseB2=F ITyADJ=14
 ICtDFT=  3500011 ScaDFX=  1.000000  1.000000  1.000000  1.000000
 FoFCou: FMM=F IPFlag=           0 FMFlag=      100000 FMFlg1=           0
         NFxFlg=           0 DoJE=T BraDBF=F KetDBF=T FulRan=T
         wScrn=  0.000000 ICntrl=       500 IOpCl=  0 I1Cent=   200000004 NGrid=           0
         NMat0=    1 NMatS0=      1 NMatT0=    0 NMatD0=    1 NMtDS0=    0 NMtDT0=    0
 Symmetry not used in FoFCou.
 Harris En= -444.638106381276    
 JPrj=0 DoOrth=F DoCkMO=T.
 Mixing orbitals, IMix= 1 IMixAn=  0 NRI=1 NE=   44 Coef=  7.07106781D-01  7.07106781D-01
 Mixing orbitals, IMix= 1 IMixAn=  0 NRI=1 NE=   44 Coef= -7.07106781D-01  7.07106781D-01
 Initial guess <Sx>= 0.0000 <Sy>= 0.0000 <Sz>= 0.0000 <S**2>= 1.0000 S= 0.6180
 Leave Link  401 at Mon Aug  3 17:20:13 2020, MaxMem=  6442450944 cpu:              46.6 elap:               2.0
 (Enter /scratch/scicomp/CentOS/7.3.1611/Haswell/software/Gaussian/g16/l9999.exe)

 This type of calculation cannot be archived.


 ERWIN WITH HIS PSI CAN DO
 CALCULATIONS QUITE A FEW.
 BUT ONE THING HAS NOT BEEN SEEN
 JUST WHAT DOES PSI REALLY MEAN.
 -- WALTER HUCKEL, TRANS. BY FELIX BLOCH
 Job cpu time:       0 days  0 hours  1 minutes 13.0 seconds.
 Elapsed time:       0 days  0 hours  0 minutes  3.3 seconds.
 File lengths (MBytes):  RWF=    405 Int=      0 D2E=      0 Chk=      1 Scr=      1
 Normal termination of Gaussian 16 at Mon Aug  3 17:20:13 2020.
 Initial command:
 /scratch/scicomp/CentOS/7.3.1611/Haswell/software/Gaussian/g16/l1.exe "/scratch/bochen/cyclohexadiene-dimerization/wb97xd-def2tzvp/xp-pcm/meso/Gau-76391.inp" -scrdir="/scratch/bochen/cyclohexadiene-dimerization/wb97xd-def2tzvp/xp-pcm/meso/"
 Entering Link 1 = /scratch/scicomp/CentOS/7.3.1611/Haswell/software/Gaussian/g16/l1.exe PID=     76879.
  
 Copyright (c) 1988-2017, Gaussian, Inc.  All Rights Reserved.
  
 This is part of the Gaussian(R) 16 program.  It is based on
 the Gaussian(R) 09 system (copyright 2009, Gaussian, Inc.),
 the Gaussian(R) 03 system (copyright 2003, Gaussian, Inc.),
 the Gaussian(R) 98 system (copyright 1998, Gaussian, Inc.),
 the Gaussian(R) 94 system (copyright 1995, Gaussian, Inc.),
 the Gaussian 92(TM) system (copyright 1992, Gaussian, Inc.),
 the Gaussian 90(TM) system (copyright 1990, Gaussian, Inc.),
 the Gaussian 88(TM) system (copyright 1988, Gaussian, Inc.),
 the Gaussian 86(TM) system (copyright 1986, Carnegie Mellon
 University), and the Gaussian 82(TM) system (copyright 1983,
 Carnegie Mellon University). Gaussian is a federally registered
 trademark of Gaussian, Inc.
  
 This software contains proprietary and confidential information,
 including trade secrets, belonging to Gaussian, Inc.
  
 This software is provided under written license and may be
 used, copied, transmitted, or stored only in accord with that
 written license.
  
 The following legend is applicable only to US Government
 contracts under FAR:
  
                    RESTRICTED RIGHTS LEGEND
  
 Use, reproduction and disclosure by the US Government is
 subject to restrictions as set forth in subparagraphs (a)
 and (c) of the Commercial Computer Software - Restricted
 Rights clause in FAR 52.227-19.
  
 Gaussian, Inc.
 340 Quinnipiac St., Bldg. 40, Wallingford CT 06492
  
  
 ---------------------------------------------------------------
 Warning -- This program may not be used in any manner that
 competes with the business of Gaussian, Inc. or will provide
 assistance to any competitor of Gaussian, Inc.  The licensee
 of this program is prohibited from giving any competitor of
 Gaussian, Inc. access to this program.  By using this program,
 the user acknowledges that Gaussian, Inc. is engaged in the
 business of creating and licensing software in the field of
 computational chemistry and represents and warrants to the
 licensee that it is not a competitor of Gaussian, Inc. and that
 it will not use this program in any manner prohibited above.
 ---------------------------------------------------------------
  

 Cite this work as:
 Gaussian 16, Revision B.01,
 M. J. Frisch, G. W. Trucks, H. B. Schlegel, G. E. Scuseria, 
 M. A. Robb, J. R. Cheeseman, G. Scalmani, V. Barone, 
 G. A. Petersson, H. Nakatsuji, X. Li, M. Caricato, A. V. Marenich, 
 J. Bloino, B. G. Janesko, R. Gomperts, B. Mennucci, H. P. Hratchian, 
 J. V. Ortiz, A. F. Izmaylov, J. L. Sonnenberg, D. Williams-Young, 
 F. Ding, F. Lipparini, F. Egidi, J. Goings, B. Peng, A. Petrone, 
 T. Henderson, D. Ranasinghe, V. G. Zakrzewski, J. Gao, N. Rega, 
 G. Zheng, W. Liang, M. Hada, M. Ehara, K. Toyota, R. Fukuda, 
 J. Hasegawa, M. Ishida, T. Nakajima, Y. Honda, O. Kitao, H. Nakai, 
 T. Vreven, K. Throssell, J. A. Montgomery, Jr., J. E. Peralta, 
 F. Ogliaro, M. J. Bearpark, J. J. Heyd, E. N. Brothers, K. N. Kudin, 
 V. N. Staroverov, T. A. Keith, R. Kobayashi, J. Normand, 
 K. Raghavachari, A. P. Rendell, J. C. Burant, S. S. Iyengar, 
 J. Tomasi, M. Cossi, J. M. Millam, M. Klene, C. Adamo, R. Cammi, 
 J. W. Ochterski, R. L. Martin, K. Morokuma, O. Farkas, 
 J. B. Foresman, and D. J. Fox, Gaussian, Inc., Wallingford CT, 2016.
 
 ******************************************
 Gaussian 16:  ES64L-G16RevB.01 20-Dec-2017
                 3-Aug-2020 
 ******************************************
 %chk=meso-TS_70_2_xp-105.chk
 %nproc=24
 Will use up to   24 processors via shared memory.
 %mem=48GB
 ----------------------------------------------------------------------
 #p uwb97xd guess=mix def2tzvp # scrf=(iefpcm,solvent=Cyclohexane,read)
  nosym guess=only pop=none
 ----------------------------------------------------------------------
 1/38=1,40=2,172=1/1;
 2/12=2,15=1,17=6,18=5,40=1/2;
 3/5=44,7=101,11=2,25=1,30=1,70=2203,72=17,74=-58,89=1,116=2/1,2;
 4/13=-1/1;
 99/5=2/99;
 Leave Link    1 at Mon Aug  3 17:20:13 2020, MaxMem=  6442450944 cpu:               1.8 elap:               0.1
 (Enter /scratch/scicomp/CentOS/7.3.1611/Haswell/software/Gaussian/g16/l101.exe)
 -----------------------
 endo-2 xp-pcm for eta=3
 -----------------------
 Symbolic Z-matrix:
 Charge =  0 Multiplicity = 1
 6                    -3.12194  -0.43992   0.27777 
 6                    -0.79716  -0.26748  -1.3333 
 1                    -4.04452  -0.52162   0.84073 
 1                     0.13262  -0.19248  -1.88412 
 6                     1.21368   1.43672   0.85501 
 6                     0.79716   0.26748   1.3333 
 1                     0.62547   2.33469   1.00297 
 1                    -0.13262   0.19248   1.88412 
 6                     1.62597  -0.97588   1.18436 
 1                     2.21925  -1.09518   2.10035 
 1                     0.97777  -1.85161   1.12561 
 6                     2.47885   1.53438   0.12517 
 1                     2.87917   2.5172   -0.09322 
 6                     3.12194   0.43992  -0.27777 
 1                     4.04452   0.52162  -0.84073 
 6                     2.55568  -0.9319   -0.03155 
 1                     2.00912  -1.24349  -0.93009 
 1                     3.36134  -1.65779   0.09305 
 6                    -1.21368  -1.43672  -0.85501 
 1                    -0.62547  -2.33469  -1.00297 
 6                    -2.47885  -1.53438  -0.12517 
 1                    -2.87917  -2.5172    0.09322 
 6                    -1.62597   0.97588  -1.18436 
[...]
 6                    -0.79716  -0.26748  -1.3333 
 1                    -4.04452  -0.52162   0.84073 
 1                     0.13262  -0.19248  -1.88412 
 6                     1.21368   1.43672   0.85501 
 6                     0.79716   0.26748   1.3333 
 1                     0.62547   2.33469   1.00297 
 1                    -0.13262   0.19248   1.88412 
 6                     1.62597  -0.97588   1.18436 
 1                     2.21925  -1.09518   2.10035 
 1                     0.97777  -1.85161   1.12561 
 6                     2.47885   1.53438   0.12517 
 1                     2.87917   2.5172   -0.09322 
 6                     3.12194   0.43992  -0.27777 
 1                     4.04452   0.52162  -0.84073 
 6                     2.55568  -0.9319   -0.03155 
 1                     2.00912  -1.24349  -0.93009 
 1                     3.36134  -1.65779   0.09305 
 6                    -1.21368  -1.43672  -0.85501 
 1                    -0.62547  -2.33469  -1.00297 
 6                    -2.47885  -1.53438  -0.12517 
 1                    -2.87917  -2.5172    0.09322 
 6                    -1.62597   0.97588  -1.18436 
 1                    -0.97777   1.85161  -1.12561 
 1                    -2.21925   1.09518  -2.10035 
 6                    -2.55568   0.9319    0.03155 
 1                    -3.36134   1.65779  -0.09305 
 1                    -2.00912   1.24349   0.93009 
 
 ITRead=  0  0  0  0  0  0  0  0  0  0  0  0  0  0  0  0  0  0  0  0
 ITRead=  0  0  0  0  0  0  0  0
 MicOpt= -1 -1 -1 -1 -1 -1 -1 -1 -1 -1 -1 -1 -1 -1 -1 -1 -1 -1 -1 -1
 MicOpt= -1 -1 -1 -1 -1 -1 -1 -1
 NAtoms=     28 NQM=       28 NQMF=       0 NMMI=      0 NMMIF=      0
                NMic=       0 NMicF=      0.
                    Isotopes and Nuclear Properties:
 (Nuclear quadrupole moments (NQMom) in fm**2, nuclear magnetic moments (NMagM)
  in nuclear magnetons)

  Atom         1           2           3           4           5           6           7           8           9          10
 IAtWgt=          12          12           1           1          12          12           1           1          12           1
 AtmWgt=  12.0000000  12.0000000   1.0078250   1.0078250  12.0000000  12.0000000   1.0078250   1.0078250  12.0000000   1.0078250
 NucSpn=           0           0           1           1           0           0           1           1           0           1
 AtZEff=  -0.0000000  -0.0000000  -0.0000000  -0.0000000  -0.0000000  -0.0000000  -0.0000000  -0.0000000  -0.0000000  -0.0000000
 NQMom=    0.0000000   0.0000000   0.0000000   0.0000000   0.0000000   0.0000000   0.0000000   0.0000000   0.0000000   0.0000000
 NMagM=    0.0000000   0.0000000   2.7928460   2.7928460   0.0000000   0.0000000   2.7928460   2.7928460   0.0000000   2.7928460
 AtZNuc=   6.0000000   6.0000000   1.0000000   1.0000000   6.0000000   6.0000000   1.0000000   1.0000000   6.0000000   1.0000000

  Atom        11          12          13          14          15          16          17          18          19          20
 IAtWgt=           1          12           1          12           1          12           1           1          12           1
 AtmWgt=   1.0078250  12.0000000   1.0078250  12.0000000   1.0078250  12.0000000   1.0078250   1.0078250  12.0000000   1.0078250
 NucSpn=           1           0           1           0           1           0           1           1           0           1
 AtZEff=  -0.0000000  -0.0000000  -0.0000000  -0.0000000  -0.0000000  -0.0000000  -0.0000000  -0.0000000  -0.0000000  -0.0000000
 NQMom=    0.0000000   0.0000000   0.0000000   0.0000000   0.0000000   0.0000000   0.0000000   0.0000000   0.0000000   0.0000000
 NMagM=    2.7928460   0.0000000   2.7928460   0.0000000   2.7928460   0.0000000   2.7928460   2.7928460   0.0000000   2.7928460
 AtZNuc=   1.0000000   6.0000000   1.0000000   6.0000000   1.0000000   6.0000000   1.0000000   1.0000000   6.0000000   1.0000000

  Atom        21          22          23          24          25          26          27          28
 IAtWgt=          12           1          12           1           1          12           1           1
 AtmWgt=  12.0000000   1.0078250  12.0000000   1.0078250   1.0078250  12.0000000   1.0078250   1.0078250
 NucSpn=           0           1           0           1           1           0           1           1
 AtZEff=  -0.0000000  -0.0000000  -0.0000000  -0.0000000  -0.0000000  -0.0000000  -0.0000000  -0.0000000
 NQMom=    0.0000000   0.0000000   0.0000000   0.0000000   0.0000000   0.0000000   0.0000000   0.0000000
 NMagM=    0.0000000   2.7928460   0.0000000   2.7928460   2.7928460   0.0000000   2.7928460   2.7928460
 AtZNuc=   6.0000000   1.0000000   6.0000000   1.0000000   1.0000000   6.0000000   1.0000000   1.0000000
 Leave Link  101 at Mon Aug  3 17:20:25 2020, MaxMem=  6442450944 cpu:               2.4 elap:               0.1
 (Enter /scratch/scicomp/CentOS/7.3.1611/Haswell/software/Gaussian/g16/l202.exe)
                          Input orientation:                          
 ---------------------------------------------------------------------
 Center     Atomic      Atomic             Coordinates (Angstroms)
 Number     Number       Type             X           Y           Z
 ---------------------------------------------------------------------
      1          6           0       -3.121942   -0.439924    0.277771
      2          6           0       -0.797162   -0.267484   -1.333299
      3          1           0       -4.044520   -0.521623    0.840727
      4          1           0        0.132617   -0.192479   -1.884118
      5          6           0        1.213684    1.436717    0.855014
      6          6           0        0.797162    0.267484    1.333299
      7          1           0        0.625474    2.334691    1.002965
      8          1           0       -0.132617    0.192479    1.884118
      9          6           0        1.625967   -0.975882    1.184356
     10          1           0        2.219247   -1.095182    2.100353
     11          1           0        0.977773   -1.851608    1.125614
     12          6           0        2.478853    1.534377    0.125170
     13          1           0        2.879166    2.517204   -0.093218
     14          6           0        3.121942    0.439924   -0.277771
     15          1           0        4.044520    0.521623   -0.840727
     16          6           0        2.555680   -0.931899   -0.031548
     17          1           0        2.009120   -1.243493   -0.930088
     18          1           0        3.361336   -1.657785    0.093053
     19          6           0       -1.213684   -1.436717   -0.855014
     20          1           0       -0.625474   -2.334691   -1.002965
     21          6           0       -2.478853   -1.534377   -0.125170
     22          1           0       -2.879166   -2.517204    0.093218
     23          6           0       -1.625967    0.975882   -1.184356
     24          1           0       -0.977773    1.851608   -1.125614
     25          1           0       -2.219247    1.095182   -2.100353
     26          6           0       -2.555680    0.931899    0.031548
     27          1           0       -3.361336    1.657785   -0.093053
     28          1           0       -2.009120    1.243493    0.930088
 ---------------------------------------------------------------------
                    Distance matrix (angstroms):
                    1          2          3          4          5
     1  C    0.000000
     2  C    2.833705   0.000000
     3  H    1.083856   3.916160   0.000000
     4  H    3.914990   1.083290   4.998159   0.000000
     5  C    4.759479   3.425860   5.611061   3.365387   0.000000
     6  C    4.119944   3.152587   4.930233   3.317372   1.330170
     7  H    4.718847   3.775359   5.476650   3.868429   1.083623
     8  H    3.452006   3.317372   4.111155   3.797123   2.102311
     9  C    4.863310   3.565385   5.699022   3.501335   2.469631
    10  H    5.681502   4.644758   6.414858   4.587473   2.995420
    11  H    4.418071   3.421417   5.203215   3.539136   3.307863
    12  C    5.940543   4.013242   6.877031   3.538940   1.463852
    13  H    6.700413   4.775738   7.618671   4.253614   2.200097
    14  C    6.329996   4.119944   7.316679   3.452006   2.432745
    15  H    7.316679   4.930233   8.327558   4.111155   3.424408
    16  C    5.707286   3.657534   6.670220   3.138470   2.863090
    17  H    5.332208   2.998398   6.348499   2.352885   3.317052
    18  H    6.599258   4.610913   7.529713   4.059674   3.843037
    19  C    2.432745   1.330170   3.424408   2.102311   4.131941
    20  H    3.385673   2.100462   4.286758   2.437254   4.588911
    21  C    1.331823   2.427484   2.099986   3.422625   4.839730
    22  H    2.099546   3.380966   2.428819   4.287778   5.741537
    23  C    2.525918   1.501686   3.491831   2.224264   3.526332
    24  H    3.437742   2.136891   4.347834   2.446750   2.982869
    25  H    2.971007   2.113659   3.820423   2.689999   4.542671
    26  C    1.504386   2.528579   2.232519   3.487254   3.891149
    27  H    2.143642   3.438002   2.467490   4.340403   4.677447
    28  H    2.120798   2.979063   2.695640   3.816911   3.229464
                    6          7          8          9         10
     6  C    0.000000
     7  H    2.100462   0.000000
     8  H    1.083290   2.437254   0.000000
     9  C    1.501686   3.463204   2.224264   0.000000
    10  H    2.113659   3.938071   2.689999   1.097845   0.000000
    11  H    2.136891   4.202887   2.446750   1.091101   1.750301
    12  C    2.427484   2.201372   3.422625   2.854941   3.298988
    13  H    3.380966   2.512779   4.287778   3.924838   4.277450
    14  C    2.833705   3.385673   3.914990   2.525918   2.971007
    15  H    3.916160   4.286758   4.998159   3.491831   3.820423
    16  C    2.528579   3.932750   3.487254   1.531249   2.164452
    17  H    2.979063   4.295878   3.816911   2.165478   3.041336
    18  H    3.438002   4.924708   4.340403   2.160426   2.377003
    19  C    3.425860   4.588911   3.365387   3.526332   4.542671
    20  H    3.775359   5.233713   3.868429   3.420486   4.388554
    21  C    4.013242   5.087162   3.538940   4.344689   5.217086
    22  H    4.775738   6.054009   4.253614   4.884924   5.660791
    23  C    3.565385   3.420486   3.501335   4.471605   5.464823
    24  H    3.421417   2.708250   3.539136   4.484431   5.413998
    25  H    4.644758   4.388554   4.587473   5.464823   6.491830
    26  C    3.657534   3.609878   3.138470   4.738646   5.584706
    27  H    4.610913   4.189763   4.059674   5.782834   6.597936
    28  H    2.998398   2.852562   2.352885   4.266630   4.971721
                   11         12         13         14         15
    11  H    0.000000
    12  C    3.836538   0.000000
    13  H    4.918065   1.083463   0.000000
    14  C    3.437742   1.331823   2.099546   0.000000
    15  H    4.347834   2.099986   2.428819   1.083856   0.000000
    16  C    2.162101   2.472444   3.464788   1.504386   2.232519
    17  H    2.378947   3.008451   3.949705   2.120798   2.695640
    18  H    2.604827   3.312055   4.206866   2.143642   2.467490
    19  C    2.982869   4.839730   5.741537   4.759479   5.611061
    20  H    2.708250   5.087162   6.054009   4.718847   5.476650
    21  C    3.689629   5.835989   6.717492   5.940543   6.877031
    22  H    4.047819   6.717492   7.651040   6.700413   7.618671
    23  C    4.484431   4.344689   4.884924   4.863310   5.699022
    24  H    4.754576   3.689629   4.047819   4.418071   5.203215
    25  H    5.413998   5.217086   5.660791   5.681502   6.414858
    26  C    4.629274   5.071318   5.662712   5.707286   6.670220
    27  H    5.712167   5.845567   6.299402   6.599258   7.529713
    28  H    4.305742   4.568852   5.154109   5.332208   6.348499
                   16         17         18         19         20
    16  C    0.000000
    17  H    1.096901   0.000000
    18  H    1.091567   1.745550   0.000000
    19  C    3.891149   3.229464   4.677447   0.000000
    20  H    3.609878   2.852562   4.189763   1.083623   0.000000
    21  C    5.071318   4.568852   5.845567   1.463852   2.201372
    22  H    5.662712   5.154109   6.299402   2.200097   2.512779
    23  C    4.738646   4.266630   5.782834   2.469631   3.463204
    24  H    4.629274   4.305742   5.712167   3.307863   4.202887
    25  H    5.584706   4.971721   6.597936   2.995420   3.938071
    26  C    5.440931   5.147278   6.459205   2.863090   3.932750
    27  H    6.459205   6.161156   7.498130   3.843037   4.924708
    28  H    5.147278   5.078544   6.161156   3.317052   4.295878
                   21         22         23         24         25
    21  C    0.000000
    22  H    1.083463   0.000000
    23  C    2.854941   3.924838   0.000000
    24  H    3.836538   4.918065   1.091101   0.000000
    25  H    3.298988   4.277450   1.097845   1.750301   0.000000
    26  C    2.472444   3.464788   1.531249   2.162101   2.164452
    27  H    3.312055   4.206866   2.160426   2.604827   2.377003
    28  H    3.008451   3.949705   2.165478   2.378947   3.041336
                   26         27         28
    26  C    0.000000
    27  H    1.091567   0.000000
    28  H    1.096901   1.745550   0.000000
 Symmetry turned off by external request.
 Stoichiometry    C12H16
 Framework group  CI[X(C12H16)]
 Deg. of freedom    39
 Full point group                 CI      NOp   2
 Rotational constants (GHZ):           1.6958170           0.5775969           0.5292964
 Leave Link  202 at Mon Aug  3 17:20:25 2020, MaxMem=  6442450944 cpu:               0.3 elap:               0.0
 (Enter /scratch/scicomp/CentOS/7.3.1611/Haswell/software/Gaussian/g16/l301.exe)
 Standard basis: def2TZVP (5D, 7F)
 Ernie: Thresh=  0.10000D-02 Tol=  0.10000D-05 Strict=F.
   468 basis functions,   740 primitive gaussians,   528 cartesian basis functions
    44 alpha electrons       44 beta electrons
       nuclear repulsion energy       670.8483891011 Hartrees.
 IExCor= 4639 DFT=T Ex+Corr=wB97XD ExCW=0 ScaHFX=  1.000000
 ScaDFX=  1.000000  1.000000  1.000000  1.000000 ScalE2=  1.000000  1.000000
 IRadAn=      5 IRanWt=     -1 IRanGd=            0 ICorTp=0 IEmpDi=121
 HFx  wShort=  0.000000 wLong=  0.200000 cFull=  0.222036 cShort=  0.000000 cLong=  0.777964
 DFx  wShort=  0.000000 wLong=  0.200000 cFull=  0.000000 cShort=  0.000000 cLong=  1.000000
 NAtoms=   28 NActive=   28 NUniq=   28 SFac= 1.00D+00 NAtFMM=   60 NAOKFM=F Big=F
 Integral buffers will be    131072 words long.
 Raffenetti 2 integral format.
 Two-electron integral symmetry is turned off.
 R6Disp:  Grimme-D2 Dispersion energy=       -0.0213014488 Hartrees.
 Nuclear repulsion after empirical dispersion term =      670.8270876523 Hartrees.
 Using the following non-standard input for PCM:
 qrep pcmdoc geomview  nodis nocav g03defaults tsare=0.075
 Warning! Using old PCM defaults because the g03defaults keyword was found.
 These settings can be overridden by following keywords.
 nsfe=28
 NVESolv=36  SolvMW=84.1595   Rsolv=2.815
 eps=2.0165 RhoS=0.7781
 --- end of non-standard input.
 Reading user-defined spheres from input:
 ISph  on   Nord    Re0     Alpha      Xe            Ye            Ze
 --- end of user-defined spheres data.
 ------------------------------------------------------------------------------
 Polarizable Continuum Model (PCM)
 =================================
 Model                : PCM.
 Atomic radii         : UA0 (Simple United Atom Topological Model).
 Polarization charges : Total charges.
 Charge compensation  : None.
 Solution method      : On-the-fly selection.
 Cavity type          : SES (Solvent Excluding Surface) (Alpha=1.000).
 Cavity algorithm     : GePol (RMin=0.200 OFac=0.890).
                        User-defined sphere list used, NSphG=   28.
                        Tesserae with average area of 0.075 Ang**2.
                        Smoothing algorithm: None.
                        Polarization charges: point-like.
                        Self-potential: constant (ISelfS= 1).
                        Self-field    : global E.n sum rule (ISelfD= 3).
 Solvent              : CycloHexane, Eps=   2.016500 Eps(inf)=   2.035188
                        RSolv=   2.815000 Ang.
 ------------------------------------------------------------------------------
 GePol: Number of generator spheres                  =      28
 GePol: Total number of spheres                      =     567
 GePol: Number of exposed spheres                    =     348 ( 61.38%)
 GePol: Number of tesserae                           =    4895
 GePol: Average area of tesserae                     =       0.04 Ang**2
 GePol: Minimum area of tessera                      =   0.10D-02 Ang**2
 GePol: Maximum area of tessera                      =    0.12513 Ang**2
 GePol: Number of small tesserae                     =       0
 GePol: Fraction of small tesserae (<1% of avg)      =       0.00%
 GePol: Total count of vertices                      =   18588
 GePol: Maximum number of vertices in a tessera      =       8
 GePol: Cavity surface area                          =    188.694 Ang**2
 GePol: Cavity volume                                =    189.011 Ang**3
 Leave Link  301 at Mon Aug  3 17:20:26 2020, MaxMem=  6442450944 cpu:              13.4 elap:               0.6
 (Enter /scratch/scicomp/CentOS/7.3.1611/Haswell/software/Gaussian/g16/l302.exe)
 NPDir=0 NMtPBC=     1 NCelOv=     1 NCel=       1 NClECP=     1 NCelD=      1
         NCelK=      1 NCelE2=     1 NClLst=     1 CellRange=     0.0.
 One-electron integrals computed using PRISM.
   1 Symmetry operations used in ECPInt.
 ECPInt:  NShTT=   19306 NPrTT=   56928 LenC2=   18456 LenP2D=   41748.
 LDataN:  DoStor=T MaxTD1= 6 Len=  172
 NBasis=   468 RedAO= T EigKep=  2.62D-05  NBF=   468
 NBsUse=   468 1.00D-06 EigRej= -1.00D+00 NBFU=   468
 Precomputing XC quadrature grid using
 IXCGrd= 4 IRadAn=           5 IRanWt=          -1 IRanGd=           0 AccXCQ= 0.00D+00.
 Generated NRdTot=       0 NPtTot=           0 NUsed=           0 NTot=          32
 NSgBfM=   526   526   526   526   526 MxSgAt=    28 MxSgA2=    28.
 Leave Link  302 at Mon Aug  3 17:20:26 2020, MaxMem=  6442450944 cpu:              11.7 elap:               0.5
 (Enter /scratch/scicomp/CentOS/7.3.1611/Haswell/software/Gaussian/g16/l401.exe)
 ExpMin= 9.52D-02 ExpMax= 1.36D+04 ExpMxC= 4.63D+02 IAcc=3 IRadAn=         5 AccDes= 0.00D+00
 Harris functional with IExCor= 4639 and IRadAn=       5 diagonalized for initial guess.
 HarFok:  IExCor= 4639 AccDes= 0.00D+00 IRadAn=         5 IDoV= 1 UseB2=F ITyADJ=14
 ICtDFT=  3500011 ScaDFX=  1.000000  1.000000  1.000000  1.000000
 FoFCou: FMM=F IPFlag=           0 FMFlag=      100000 FMFlg1=           0
         NFxFlg=           0 DoJE=T BraDBF=F KetDBF=T FulRan=T
         wScrn=  0.000000 ICntrl=       500 IOpCl=  0 I1Cent=   200000004 NGrid=           0
         NMat0=    1 NMatS0=      1 NMatT0=    0 NMatD0=    1 NMtDS0=    0 NMtDT0=    0
 Symmetry not used in FoFCou.
 Harris En= -444.638106381276    
 JPrj=0 DoOrth=F DoCkMO=T.
 Mixing orbitals, IMix= 1 IMixAn=  0 NRI=1 NE=   44 Coef=  7.07106781D-01  7.07106781D-01
 Mixing orbitals, IMix= 1 IMixAn=  0 NRI=1 NE=   44 Coef= -7.07106781D-01  7.07106781D-01
 Initial guess <Sx>= 0.0000 <Sy>= 0.0000 <Sz>= 0.0000 <S**2>= 1.0000 S= 0.6180
 Leave Link  401 at Mon Aug  3 17:20:28 2020, MaxMem=  6442450944 cpu:              46.5 elap:               2.0
 (Enter /scratch/scicomp/CentOS/7.3.1611/Haswell/software/Gaussian/g16/l9999.exe)

 This type of calculation cannot be archived.


 THE WISE MAN HAS THE POWER TO REASON AWAY
 WHAT A FOOL BELIEVES.
                     - DOOBIE BROTHERS
 Job cpu time:       0 days  0 hours  1 minutes 16.7 seconds.
 Elapsed time:       0 days  0 hours  0 minutes  3.5 seconds.
 File lengths (MBytes):  RWF=    437 Int=      0 D2E=      0 Chk=      1 Scr=      1
 Normal termination of Gaussian 16 at Mon Aug  3 17:20:28 2020.
