 Entering Gaussian System, Link 0=g16
 Input=meso-TS_67_2_pcm.com
 Output=meso-TS_67_2_pcm.log
 Initial command:
 /scratch/scicomp/CentOS/7.3.1611/Haswell/software/Gaussian/g16/l1.exe "/scratch/bochen/cyclohexadiene-dimerization/wb97xd-def2tzvp/xp-pcm/meso/Gau-18531.inp" -scrdir="/scratch/bochen/cyclohexadiene-dimerization/wb97xd-def2tzvp/xp-pcm/meso/"
 Entering Link 1 = /scratch/scicomp/CentOS/7.3.1611/Haswell/software/Gaussian/g16/l1.exe PID=     18532.
  
 Copyright (c) 1988-2017, Gaussian, Inc.  All Rights Reserved.
  
 This is part of the Gaussian(R) 16 program.  It is based on
 the Gaussian(R) 09 system (copyright 2009, Gaussian, Inc.),
 the Gaussian(R) 03 system (copyright 2003, Gaussian, Inc.),
 the Gaussian(R) 98 system (copyright 1998, Gaussian, Inc.),
 the Gaussian(R) 94 system (copyright 1995, Gaussian, Inc.),
 the Gaussian 92(TM) system (copyright 1992, Gaussian, Inc.),
 the Gaussian 90(TM) system (copyright 1990, Gaussian, Inc.),
 the Gaussian 88(TM) system (copyright 1988, Gaussian, Inc.),
 the Gaussian 86(TM) system (copyright 1986, Carnegie Mellon
 University), and the Gaussian 82(TM) system (copyright 1983,
 Carnegie Mellon University). Gaussian is a federally registered
 trademark of Gaussian, Inc.
  
 This software contains proprietary and confidential information,
 including trade secrets, belonging to Gaussian, Inc.
  
 This software is provided under written license and may be
 used, copied, transmitted, or stored only in accord with that
 written license.
  
 The following legend is applicable only to US Government
 contracts under FAR:
  
                    RESTRICTED RIGHTS LEGEND
  
 Use, reproduction and disclosure by the US Government is
 subject to restrictions as set forth in subparagraphs (a)
 and (c) of the Commercial Computer Software - Restricted
 Rights clause in FAR 52.227-19.
  
 Gaussian, Inc.
 340 Quinnipiac St., Bldg. 40, Wallingford CT 06492
  
  
 ---------------------------------------------------------------
 Warning -- This program may not be used in any manner that
 competes with the business of Gaussian, Inc. or will provide
 assistance to any competitor of Gaussian, Inc.  The licensee
 of this program is prohibited from giving any competitor of
 Gaussian, Inc. access to this program.  By using this program,
 the user acknowledges that Gaussian, Inc. is engaged in the
 business of creating and licensing software in the field of
 computational chemistry and represents and warrants to the
 licensee that it is not a competitor of Gaussian, Inc. and that
 it will not use this program in any manner prohibited above.
 ---------------------------------------------------------------
  

 Cite this work as:
 Gaussian 16, Revision B.01,
 M. J. Frisch, G. W. Trucks, H. B. Schlegel, G. E. Scuseria, 
 M. A. Robb, J. R. Cheeseman, G. Scalmani, V. Barone, 
 G. A. Petersson, H. Nakatsuji, X. Li, M. Caricato, A. V. Marenich, 
 J. Bloino, B. G. Janesko, R. Gomperts, B. Mennucci, H. P. Hratchian, 
 J. V. Ortiz, A. F. Izmaylov, J. L. Sonnenberg, D. Williams-Young, 
 F. Ding, F. Lipparini, F. Egidi, J. Goings, B. Peng, A. Petrone, 
 T. Henderson, D. Ranasinghe, V. G. Zakrzewski, J. Gao, N. Rega, 
 G. Zheng, W. Liang, M. Hada, M. Ehara, K. Toyota, R. Fukuda, 
 J. Hasegawa, M. Ishida, T. Nakajima, Y. Honda, O. Kitao, H. Nakai, 
 T. Vreven, K. Throssell, J. A. Montgomery, Jr., J. E. Peralta, 
 F. Ogliaro, M. J. Bearpark, J. J. Heyd, E. N. Brothers, K. N. Kudin, 
 V. N. Staroverov, T. A. Keith, R. Kobayashi, J. Normand, 
 K. Raghavachari, A. P. Rendell, J. C. Burant, S. S. Iyengar, 
 J. Tomasi, M. Cossi, J. M. Millam, M. Klene, C. Adamo, R. Cammi, 
 J. W. Ochterski, R. L. Martin, K. Morokuma, O. Farkas, 
 J. B. Foresman, and D. J. Fox, Gaussian, Inc., Wallingford CT, 2016.
 
 ******************************************
 Gaussian 16:  ES64L-G16RevB.01 20-Dec-2017
                 3-Aug-2020 
 ******************************************
 %nproc=24
 Will use up to   24 processors via shared memory.
 %mem=48GB
 ----------------------------------------------------------------------
 #p uwb97xd guess=mix def2tzvp # scrf=(iefpcm,solvent=Cyclohexane,read)
  nosym 6d 10f
 ----------------------------------------------------------------------
 1/38=1,40=2,172=1/1;
 2/12=2,15=1,17=6,18=5,40=1/2;
 3/5=44,7=101,8=22,11=2,25=1,30=1,70=2203,72=17,74=-58,116=2/1,2,3;
 4/13=-1/1;
 5/5=2,38=5,53=17/2;
 6/7=2,8=2,9=2,10=2,28=1/1;
 99/5=1,9=1/99;
 Leave Link    1 at Mon Aug  3 14:12:34 2020, MaxMem=  6442450944 cpu:               1.8 elap:               0.1
 (Enter /scratch/scicomp/CentOS/7.3.1611/Haswell/software/Gaussian/g16/l101.exe)
 -----------------------
 endo-2 xp-pcm for eta=3
 -----------------------
 Symbolic Z-matrix:
 Charge =  0 Multiplicity = 1
 6                    -3.12343  -0.44032   0.2754 
 6                    -0.78646  -0.26471  -1.31772 
 1                    -4.04944  -0.52376   0.83246 
 1                     0.14721  -0.18845  -1.86168 
 6                     1.2061    1.43479   0.84454 
 6                     0.78646   0.26471   1.31772 
 1                     0.61672   2.33237   0.99012 
 1                    -0.14721   0.18845   1.86168 
 6                     1.61569  -0.97881   1.17309 
 1                     2.1983   -1.10144   2.0954 
 1                     0.96723  -1.85357   1.10508 
 6                     2.47542   1.53376   0.12229 
 1                     2.87531   2.51708  -0.09466 
 6                     3.12343   0.44032  -0.2754 
 1                     4.04944   0.52376  -0.83246 
 6                     2.55976  -0.93311  -0.032 
 1                     2.02643  -1.24996  -0.93664 
 1                     3.36718  -1.65495   0.10431 
 6                    -1.2061   -1.43479  -0.84454 
 1                    -0.61672  -2.33237  -0.99012 
 6                    -2.47542  -1.53376  -0.12229 
 1                    -2.87531  -2.51708   0.09466 
 6                    -1.61569   0.97881  -1.17309 
 1                    -0.96723   1.85357  -1.10508 
 1                    -2.1983    1.10144  -2.0954 
 6                    -2.55976   0.93311   0.032 
 1                    -3.36718   1.65495  -0.10431 
 1                    -2.02643   1.24996   0.93664 
 
 ITRead=  0  0  0  0  0  0  0  0  0  0  0  0  0  0  0  0  0  0  0  0
 ITRead=  0  0  0  0  0  0  0  0
 MicOpt= -1 -1 -1 -1 -1 -1 -1 -1 -1 -1 -1 -1 -1 -1 -1 -1 -1 -1 -1 -1
 MicOpt= -1 -1 -1 -1 -1 -1 -1 -1
 NAtoms=     28 NQM=       28 NQMF=       0 NMMI=      0 NMMIF=      0
                NMic=       0 NMicF=      0.
                    Isotopes and Nuclear Properties:
 (Nuclear quadrupole moments (NQMom) in fm**2, nuclear magnetic moments (NMagM)
  in nuclear magnetons)

  Atom         1           2           3           4           5           6           7           8           9          10
 IAtWgt=          12          12           1           1          12          12           1           1          12           1
 AtmWgt=  12.0000000  12.0000000   1.0078250   1.0078250  12.0000000  12.0000000   1.0078250   1.0078250  12.0000000   1.0078250
 NucSpn=           0           0           1           1           0           0           1           1           0           1
 AtZEff=  -0.0000000  -0.0000000  -0.0000000  -0.0000000  -0.0000000  -0.0000000  -0.0000000  -0.0000000  -0.0000000  -0.0000000
 NQMom=    0.0000000   0.0000000   0.0000000   0.0000000   0.0000000   0.0000000   0.0000000   0.0000000   0.0000000   0.0000000
 NMagM=    0.0000000   0.0000000   2.7928460   2.7928460   0.0000000   0.0000000   2.7928460   2.7928460   0.0000000   2.7928460
 AtZNuc=   6.0000000   6.0000000   1.0000000   1.0000000   6.0000000   6.0000000   1.0000000   1.0000000   6.0000000   1.0000000

  Atom        11          12          13          14          15          16          17          18          19          20
 IAtWgt=           1          12           1          12           1          12           1           1          12           1
 AtmWgt=   1.0078250  12.0000000   1.0078250  12.0000000   1.0078250  12.0000000   1.0078250   1.0078250  12.0000000   1.0078250
 NucSpn=           1           0           1           0           1           0           1           1           0           1
 AtZEff=  -0.0000000  -0.0000000  -0.0000000  -0.0000000  -0.0000000  -0.0000000  -0.0000000  -0.0000000  -0.0000000  -0.0000000
 NQMom=    0.0000000   0.0000000   0.0000000   0.0000000   0.0000000   0.0000000   0.0000000   0.0000000   0.0000000   0.0000000
 NMagM=    2.7928460   0.0000000   2.7928460   0.0000000   2.7928460   0.0000000   2.7928460   2.7928460   0.0000000   2.7928460
 AtZNuc=   1.0000000   6.0000000   1.0000000   6.0000000   1.0000000   6.0000000   1.0000000   1.0000000   6.0000000   1.0000000

  Atom        21          22          23          24          25          26          27          28
 IAtWgt=          12           1          12           1           1          12           1           1
 AtmWgt=  12.0000000   1.0078250  12.0000000   1.0078250   1.0078250  12.0000000   1.0078250   1.0078250
 NucSpn=           0           1           0           1           1           0           1           1
 AtZEff=  -0.0000000  -0.0000000  -0.0000000  -0.0000000  -0.0000000  -0.0000000  -0.0000000  -0.0000000
 NQMom=    0.0000000   0.0000000   0.0000000   0.0000000   0.0000000   0.0000000   0.0000000   0.0000000
 NMagM=    0.0000000   2.7928460   0.0000000   2.7928460   2.7928460   0.0000000   2.7928460   2.7928460
 AtZNuc=   6.0000000   1.0000000   6.0000000   1.0000000   1.0000000   6.0000000   1.0000000   1.0000000
 Leave Link  101 at Mon Aug  3 14:12:34 2020, MaxMem=  6442450944 cpu:               2.4 elap:               0.1
 (Enter /scratch/scicomp/CentOS/7.3.1611/Haswell/software/Gaussian/g16/l202.exe)
                          Input orientation:                          
 ---------------------------------------------------------------------
 Center     Atomic      Atomic             Coordinates (Angstroms)
 Number     Number       Type             X           Y           Z
 ---------------------------------------------------------------------
      1          6           0       -3.123434   -0.440315    0.275397
      2          6           0       -0.786456   -0.264710   -1.317722
      3          1           0       -4.049438   -0.523755    0.832457
      4          1           0        0.147212   -0.188449   -1.861678
      5          6           0        1.206095    1.434790    0.844539
      6          6           0        0.786456    0.264710    1.317722
      7          1           0        0.616717    2.332368    0.990121
      8          1           0       -0.147212    0.188449    1.861678
      9          6           0        1.615689   -0.978810    1.173085
     10          1           0        2.198299   -1.101438    2.095398
     11          1           0        0.967232   -1.853572    1.105075
     12          6           0        2.475417    1.533757    0.122289
     13          1           0        2.875313    2.517075   -0.094658
     14          6           0        3.123434    0.440315   -0.275397
     15          1           0        4.049438    0.523755   -0.832457
     16          6           0        2.559757   -0.933106   -0.031997
     17          1           0        2.026432   -1.249959   -0.936638
     18          1           0        3.367180   -1.654954    0.104310
     19          6           0       -1.206095   -1.434790   -0.844539
     20          1           0       -0.616717   -2.332368   -0.990121
     21          6           0       -2.475417   -1.533757   -0.122289
     22          1           0       -2.875313   -2.517076    0.094658
     23          6           0       -1.615689    0.978810   -1.173085
     24          1           0       -0.967232    1.853572   -1.105075
     25          1           0       -2.198299    1.101438   -2.095398
     26          6           0       -2.559757    0.933106    0.031997
     27          1           0       -3.367180    1.654954   -0.104310
     28          1           0       -2.026432    1.249959    0.936638
 ---------------------------------------------------------------------
                    Distance matrix (angstroms):
                    1          2          3          4          5
     1  C    0.000000
     2  C    2.833784   0.000000
     3  H    1.083864   3.916303   0.000000
     4  H    3.915054   1.083254   4.998266   0.000000
     5  C    4.752343   3.396164   5.608625   3.328626   0.000000
     6  C    4.107401   3.114467   4.923721   3.274534   1.330070
     7  H    4.710343   3.746979   5.473143   3.835063   1.083608
     8  H    3.430675   3.274534   4.098036   3.753947   2.102232
     9  C    4.853360   3.533321   5.693572   3.462785   2.470056
    10  H    5.663067   4.610669   6.400231   4.549611   2.996927
    11  H    4.406723   3.386717   5.197087   3.499527   3.307304
    12  C    5.938648   3.993486   6.878330   3.510364   1.463768
    13  H    6.698363   4.758442   7.619604   4.229037   2.199936
    14  C    6.332633   4.107401   7.321671   3.430675   2.432987
    15  H    7.321671   4.923721   8.334327   4.098036   3.424456
    16  C    5.712792   3.646503   6.678047   3.118112   2.864899
    17  H    5.352165   3.004710   6.369715   2.348184   3.324669
    18  H    6.605504   4.605176   7.537641   4.047708   3.842492
    19  C    2.432987   1.330070   3.424456   2.102232   4.111707
    20  H    3.386005   2.100320   4.286776   2.437127   4.569475
    21  C    1.331802   2.427371   2.099806   3.422501   4.827065
    22  H    2.099325   3.381020   2.428219   4.287821   5.730398
    23  C    2.526917   1.501629   3.493284   2.223617   3.498741
    24  H    3.437561   2.136590   4.348069   2.446279   2.949529
    25  H    2.975491   2.112922   3.826265   2.686979   4.510460
    26  C    1.504414   2.530040   2.232113   3.488778   3.885042
    27  H    2.143302   3.437676   2.467748   4.340211   4.675856
    28  H    2.120773   2.985616   2.692484   3.824175   3.239116
                    6          7          8          9         10
     6  C    0.000000
     7  H    2.100320   0.000000
     8  H    1.083254   2.437127   0.000000
     9  C    1.501629   3.463426   2.223617   0.000000
    10  H    2.112922   3.938789   2.686979   1.097786   0.000000
    11  H    2.136590   4.202162   2.446279   1.091023   1.749849
    12  C    2.427371   2.201290   3.422501   2.855923   3.303666
    13  H    3.381019   2.512393   4.287821   3.926199   4.283495
    14  C    2.833784   3.386005   3.915054   2.526917   2.975491
    15  H    3.916303   4.286776   4.998266   3.493284   3.826265
    16  C    2.530040   3.934902   3.488778   1.531527   2.164439
    17  H    2.985616   4.304970   3.824175   2.166371   3.040533
    18  H    3.437676   4.924271   4.340211   2.160364   2.374257
    19  C    3.396164   4.569475   3.328626   3.498741   4.510460
    20  H    3.746979   5.215600   3.835063   3.390460   4.354300
    21  C    3.993486   5.074019   3.510364   4.327021   5.191210
    22  H    4.758442   6.042618   4.229038   4.868097   5.634583
    23  C    3.533321   3.390460   3.462785   4.447313   5.436627
    24  H    3.386717   2.669829   3.499527   4.459135   5.384765
    25  H    4.610669   4.354300   4.549611   5.436627   6.461076
    26  C    3.646503   3.600823   3.118112   4.732003   5.571004
    27  H    4.605176   4.186658   4.047708   5.779051   6.588700
    28  H    3.004710   2.856695   2.348184   4.276490   4.971936
                   11         12         13         14         15
    11  H    0.000000
    12  C    3.835947   0.000000
    13  H    4.917590   1.083465   0.000000
    14  C    3.437561   1.331802   2.099324   0.000000
    15  H    4.348069   2.099806   2.428218   1.083864   0.000000
    16  C    2.162482   2.473122   3.465148   1.504414   2.232113
    17  H    2.377992   3.011974   3.952224   2.120773   2.692484
    18  H    2.607821   3.311109   4.205633   2.143302   2.467748
    19  C    2.949529   4.827065   5.730397   4.752343   5.608625
    20  H    2.669829   5.074019   6.042617   4.710343   5.473143
    21  C    3.668860   5.829255   6.711208   5.938648   6.878330
    22  H    4.028192   6.711209   7.645143   6.698363   7.619604
    23  C    4.459135   4.327021   4.868096   4.853360   5.693572
    24  H    4.729676   3.668860   4.028192   4.406723   5.197087
    25  H    5.384765   5.191210   5.634583   5.663067   6.400231
    26  C    4.621333   5.071677   5.662595   5.712792   6.678047
    27  H    5.706093   5.848246   6.301751   6.605504   7.537641
    28  H    4.315356   4.583705   5.166842   5.352165   6.369715
                   16         17         18         19         20
    16  C    0.000000
    17  H    1.096908   0.000000
    18  H    1.091593   1.745050   0.000000
    19  C    3.885042   3.239116   4.675856   0.000000
    20  H    3.600823   2.856695   4.186658   1.083608   0.000000
    21  C    5.071677   4.583705   5.848246   1.463768   2.201290
    22  H    5.662596   5.166842   6.301751   2.199937   2.512393
    23  C    4.732003   4.276490   5.779051   2.470056   3.463426
    24  H    4.621333   4.315356   5.706093   3.307304   4.202162
    25  H    5.571004   4.971936   6.588700   2.996927   3.938789
    26  C    5.449428   5.170798   6.467756   2.864899   3.934902
    27  H    6.467756   6.182422   7.506705   3.842492   4.924271
    28  H    5.170798   5.117075   6.182422   3.324669   4.304970
                   21         22         23         24         25
    21  C    0.000000
    22  H    1.083466   0.000000
    23  C    2.855923   3.926200   0.000000
    24  H    3.835947   4.917590   1.091023   0.000000
    25  H    3.303666   4.283496   1.097786   1.749849   0.000000
    26  C    2.473122   3.465149   1.531527   2.162482   2.164439
    27  H    3.311109   4.205634   2.160364   2.607821   2.374257
    28  H    3.011974   3.952225   2.166371   2.377992   3.040533
                   26         27         28
    26  C    0.000000
    27  H    1.091593   0.000000
    28  H    1.096908   1.745050   0.000000
 Symmetry turned off by external request.
 Stoichiometry    C12H16
 Framework group  CI[X(C12H16)]
 Deg. of freedom    39
 Full point group                 CI      NOp   2
 Rotational constants (GHZ):           1.7058037           0.5802000           0.5303182
 Leave Link  202 at Mon Aug  3 14:12:34 2020, MaxMem=  6442450944 cpu:               0.3 elap:               0.1
 (Enter /scratch/scicomp/CentOS/7.3.1611/Haswell/software/Gaussian/g16/l301.exe)
 Standard basis: def2TZVP (6D, 10F)
 Ernie: Thresh=  0.10000D-02 Tol=  0.10000D-05 Strict=F.
   528 basis functions,   740 primitive gaussians,   528 cartesian basis functions
    44 alpha electrons       44 beta electrons
       nuclear repulsion energy       671.6703455441 Hartrees.
 IExCor= 4639 DFT=T Ex+Corr=wB97XD ExCW=0 ScaHFX=  1.000000
 ScaDFX=  1.000000  1.000000  1.000000  1.000000 ScalE2=  1.000000  1.000000
 IRadAn=      5 IRanWt=     -1 IRanGd=            0 ICorTp=0 IEmpDi=121
 HFx  wShort=  0.000000 wLong=  0.200000 cFull=  0.222036 cShort=  0.000000 cLong=  0.777964
 DFx  wShort=  0.000000 wLong=  0.200000 cFull=  0.000000 cShort=  0.000000 cLong=  1.000000
 NAtoms=   28 NActive=   28 NUniq=   28 SFac= 1.00D+00 NAtFMM=   60 NAOKFM=F Big=F
 Integral buffers will be    131072 words long.
 Raffenetti 2 integral format.
 Two-electron integral symmetry is turned off.
 R6Disp:  Grimme-D2 Dispersion energy=       -0.0214549178 Hartrees.
 Nuclear repulsion after empirical dispersion term =      671.6488906263 Hartrees.
 Using the following non-standard input for PCM:
 norep pcmdoc geomview  nodis nocav g03defaults tsare=0.075
 Warning! Using old PCM defaults because the g03defaults keyword was found.
 These settings can be overridden by following keywords.
 nsfe=28
 NVESolv=36  SolvMW=84.1595   Rsolv=2.815
 eps=2.0165 RhoS=0.7781
 --- end of non-standard input.
 Reading user-defined spheres from input:
 ISph  on   Nord    Re0     Alpha      Xe            Ye            Ze
 --- end of user-defined spheres data.
 ------------------------------------------------------------------------------
 Polarizable Continuum Model (PCM)
 =================================
 Model                : PCM.
 Atomic radii         : UA0 (Simple United Atom Topological Model).
 Polarization charges : Total charges.
 Charge compensation  : None.
 Solution method      : On-the-fly selection.
 Cavity type          : SES (Solvent Excluding Surface) (Alpha=1.000).
 Cavity algorithm     : GePol (RMin=0.200 OFac=0.890).
                        User-defined sphere list used, NSphG=   28.
                        Tesserae with average area of 0.075 Ang**2.
                        Smoothing algorithm: None.
                        Polarization charges: point-like.
                        Self-potential: constant (ISelfS= 1).
                        Self-field    : global E.n sum rule (ISelfD= 3).
 Solvent              : CycloHexane, Eps=   2.016500 Eps(inf)=   2.035188
                        RSolv=   2.815000 Ang.
 ------------------------------------------------------------------------------
 GePol: Number of generator spheres                  =      28
 GePol: Total number of spheres                      =     188
 GePol: Number of exposed spheres                    =     125 ( 66.49%)
 GePol: Number of tesserae                           =    4668
 GePol: Average area of tesserae                     =       0.05 Ang**2
 GePol: Minimum area of tessera                      =   0.10D-02 Ang**2
 GePol: Maximum area of tessera                      =    0.12651 Ang**2
 GePol: Number of small tesserae                     =       0
 GePol: Fraction of small tesserae (<1% of avg)      =       0.00%
 GePol: Total count of vertices                      =   16513
 GePol: Maximum number of vertices in a tessera      =       7
 GePol: Cavity surface area                          =    223.959 Ang**2
 GePol: Cavity volume                                =    255.990 Ang**3
 Leave Link  301 at Mon Aug  3 14:12:35 2020, MaxMem=  6442450944 cpu:               8.2 elap:               0.4
 (Enter /scratch/scicomp/CentOS/7.3.1611/Haswell/software/Gaussian/g16/l302.exe)
 NPDir=0 NMtPBC=     1 NCelOv=     1 NCel=       1 NClECP=     1 NCelD=      1
         NCelK=      1 NCelE2=     1 NClLst=     1 CellRange=     0.0.
 One-electron integrals computed using PRISM.
   1 Symmetry operations used in ECPInt.
 ECPInt:  NShTT=   19306 NPrTT=   56928 LenC2=   18453 LenP2D=   41775.
 LDataN:  DoStor=T MaxTD1= 6 Len=  172
 NBasis=   528 RedAO= T EigKep=  1.96D-05  NBF=   528
 NBsUse=   528 1.00D-06 EigRej= -1.00D+00 NBFU=   528
 Precomputing XC quadrature grid using
 IXCGrd= 4 IRadAn=           5 IRanWt=          -1 IRanGd=           0 AccXCQ= 0.00D+00.
 Generated NRdTot=       0 NPtTot=           0 NUsed=           0 NTot=          32
 NSgBfM=   525   524   524   524   525 MxSgAt=    28 MxSgA2=    28.
 Leave Link  302 at Mon Aug  3 14:12:35 2020, MaxMem=  6442450944 cpu:              12.9 elap:               0.6
 (Enter /scratch/scicomp/CentOS/7.3.1611/Haswell/software/Gaussian/g16/l303.exe)
 DipDrv:  MaxL=1.
 Leave Link  303 at Mon Aug  3 14:12:36 2020, MaxMem=  6442450944 cpu:               1.6 elap:               0.1
 (Enter /scratch/scicomp/CentOS/7.3.1611/Haswell/software/Gaussian/g16/l401.exe)
 ExpMin= 9.52D-02 ExpMax= 1.36D+04 ExpMxC= 4.63D+02 IAcc=3 IRadAn=         5 AccDes= 0.00D+00
 Harris functional with IExCor= 4639 and IRadAn=       5 diagonalized for initial guess.
 HarFok:  IExCor= 4639 AccDes= 0.00D+00 IRadAn=         5 IDoV= 1 UseB2=F ITyADJ=14
 ICtDFT=  3500011 ScaDFX=  1.000000  1.000000  1.000000  1.000000
 FoFCou: FMM=F IPFlag=           0 FMFlag=      100000 FMFlg1=           0
         NFxFlg=           0 DoJE=T BraDBF=F KetDBF=T FulRan=T
         wScrn=  0.000000 ICntrl=       500 IOpCl=  0 I1Cent=   200000004 NGrid=           0
         NMat0=    1 NMatS0=      1 NMatT0=    0 NMatD0=    1 NMtDS0=    0 NMtDT0=    0
 Symmetry not used in FoFCou.
 Harris En= -444.659936660098    
 JPrj=0 DoOrth=F DoCkMO=T.
 Mixing orbitals, IMix= 1 IMixAn=  0 NRI=1 NE=   44 Coef=  7.07106781D-01  7.07106781D-01
 Mixing orbitals, IMix= 1 IMixAn=  0 NRI=1 NE=   44 Coef= -7.07106781D-01  7.07106781D-01
 Initial guess <Sx>= 0.0000 <Sy>= 0.0000 <Sz>= 0.0000 <S**2>= 1.0000 S= 0.6180
 Leave Link  401 at Mon Aug  3 14:12:38 2020, MaxMem=  6442450944 cpu:              48.7 elap:               2.1
 (Enter /scratch/scicomp/CentOS/7.3.1611/Haswell/software/Gaussian/g16/l502.exe)
 Two-electron integral symmetry not used.
 UHF open shell SCF:
 Using DIIS extrapolation, IDIIS=  1040.
 NGot=  6442450944 LenX=  6441877030 LenY=  6441597718
 Requested convergence on RMS density matrix=1.00D-08 within 128 cycles.
 Requested convergence on MAX density matrix=1.00D-06.
 Requested convergence on             energy=1.00D-06.
 No special actions if energy rises.
 Fock matrices will be formed incrementally for  20 cycles.

 Cycle   1  Pass 1  IDiag  1:
 FoFJK:  IHMeth= 1 ICntrl=       0 DoSepK=T KAlg= 0 I1Cent=           0 FoldK=F
 IRaf=         1 NMat=       1 IRICut=       1 DoRegI=T DoRafI=F ISym2E= 0 IDoP0=0 IntGTp=1.
 FoFCou: FMM=F IPFlag=           0 FMFlag=      100000 FMFlg1=           0
         NFxFlg=           0 DoJE=T BraDBF=F KetDBF=F FulRan=T
         wScrn=  0.000000 ICntrl=       500 IOpCl=  0 I1Cent=           0 NGrid=           0
         NMat0=    1 NMatS0=      1 NMatT0=    0 NMatD0=    1 NMtDS0=    0 NMtDT0=    0
 Symmetry not used in FoFCou.
 Inv3:  Mode=1 IEnd=    65370672.
 Iteration    1 A*A^-1 deviation from unit magnitude is 4.00D-15 for   3805.
 Iteration    1 A*A^-1 deviation from orthogonality  is 1.78D-15 for   3260   2952.
 Iteration    1 A^-1*A deviation from unit magnitude is 4.00D-15 for   3805.
 Iteration    1 A^-1*A deviation from orthogonality  is 1.78D-15 for    273    242.
 E= -466.575276371953    
 DIIS: error= 4.73D-02 at cycle   1 NSaved=   1.
 NSaved= 1 IEnMin= 1 EnMin= -466.575276371953     IErMin= 1 ErrMin= 4.73D-02
 ErrMax= 4.73D-02  0.00D+00 EMaxC= 1.00D-01 BMatC= 4.12D+00 BMatP= 4.12D+00
 IDIUse=3 WtCom= 5.27D-01 WtEn= 4.73D-01
 Coeff-Com:  0.100D+01
 Coeff-En:   0.100D+01
 Coeff:      0.100D+01
 Gap=     0.180 Goal=   None    Shift=    0.000
 Gap=     0.180 Goal=   None    Shift=    0.000
 GapD=    0.180 DampG=1.000 DampE=0.500 DampFc=0.5000 IDamp=-1.
 Damping current iteration by 5.00D-01
 RMSDP=1.64D-03 MaxDP=9.30D-02              OVMax= 3.60D-01

 Cycle   2  Pass 1  IDiag  1:
 RMSU=  7.86D-04    CP:  9.62D-01
 E= -466.689616849958     Delta-E=       -0.114340478004 Rises=F Damp=T
 DIIS: error= 2.25D-02 at cycle   2 NSaved=   2.
 NSaved= 2 IEnMin= 2 EnMin= -466.689616849958     IErMin= 2 ErrMin= 2.25D-02
 ErrMax= 2.25D-02  0.00D+00 EMaxC= 1.00D-01 BMatC= 9.37D-01 BMatP= 4.12D+00
 IDIUse=3 WtCom= 7.75D-01 WtEn= 2.25D-01
 Coeff-Com: -0.868D+00 0.187D+01
 Coeff-En:   0.000D+00 0.100D+01
 Coeff:     -0.673D+00 0.167D+01
 Gap=     0.282 Goal=   None    Shift=    0.000
 Gap=     0.282 Goal=   None    Shift=    0.000
 RMSDP=1.18D-03 MaxDP=5.07D-02 DE=-1.14D-01 OVMax= 1.41D-01

 Cycle   3  Pass 1  IDiag  1:
 RMSU=  6.17D-04    CP:  9.05D-01  2.20D+00
 E= -466.839244005043     Delta-E=       -0.149627155086 Rises=F Damp=F
 DIIS: error= 7.78D-03 at cycle   3 NSaved=   3.
 NSaved= 3 IEnMin= 3 EnMin= -466.839244005043     IErMin= 3 ErrMin= 7.78D-03
 ErrMax= 7.78D-03  0.00D+00 EMaxC= 1.00D-01 BMatC= 2.54D-02 BMatP= 9.37D-01
 IDIUse=3 WtCom= 9.22D-01 WtEn= 7.78D-02
 Coeff-Com: -0.321D+00 0.687D+00 0.634D+00
 Coeff-En:   0.000D+00 0.000D+00 0.100D+01
 Coeff:     -0.296D+00 0.634D+00 0.662D+00
 Gap=     0.304 Goal=   None    Shift=    0.000
 Gap=     0.304 Goal=   None    Shift=    0.000
 RMSDP=2.11D-04 MaxDP=1.08D-02 DE=-1.50D-01 OVMax= 6.28D-02

 Cycle   4  Pass 1  IDiag  1:
 RMSU=  1.93D-04    CP:  8.98D-01  2.29D+00  9.88D-01
 E= -466.850174190939     Delta-E=       -0.010930185895 Rises=F Damp=F
 DIIS: error= 5.12D-03 at cycle   4 NSaved=   4.
 NSaved= 4 IEnMin= 4 EnMin= -466.850174190939     IErMin= 4 ErrMin= 5.12D-03
 ErrMax= 5.12D-03  0.00D+00 EMaxC= 1.00D-01 BMatC= 2.06D-03 BMatP= 2.54D-02
 IDIUse=3 WtCom= 9.49D-01 WtEn= 5.12D-02
 Coeff-Com:  0.150D+00-0.320D+00-0.760D-01 0.125D+01
 Coeff-En:   0.000D+00 0.000D+00 0.000D+00 0.100D+01
 Coeff:      0.142D+00-0.304D+00-0.721D-01 0.123D+01
 Gap=     0.316 Goal=   None    Shift=    0.000
 Gap=     0.316 Goal=   None    Shift=    0.000
 RMSDP=2.11D-04 MaxDP=1.25D-02 DE=-1.09D-02 OVMax= 7.68D-02

 Cycle   5  Pass 1  IDiag  1:
 RMSU=  8.44D-05    CP:  8.91D-01  2.35D+00  1.21D+00  1.64D+00
 E= -466.854794855723     Delta-E=       -0.004620664784 Rises=F Damp=F
 DIIS: error= 2.24D-03 at cycle   5 NSaved=   5.
 NSaved= 5 IEnMin= 5 EnMin= -466.854794855723     IErMin= 5 ErrMin= 2.24D-03
 ErrMax= 2.24D-03  0.00D+00 EMaxC= 1.00D-01 BMatC= 8.00D-04 BMatP= 2.06D-03
 IDIUse=3 WtCom= 9.78D-01 WtEn= 2.24D-02
 Coeff-Com:  0.588D-01-0.126D+00-0.627D-01 0.323D+00 0.807D+00
 Coeff-En:   0.000D+00 0.000D+00 0.000D+00 0.000D+00 0.100D+01
 Coeff:      0.574D-01-0.123D+00-0.613D-01 0.316D+00 0.811D+00
 Gap=     0.317 Goal=   None    Shift=    0.000
 Gap=     0.317 Goal=   None    Shift=    0.000
 RMSDP=7.18D-05 MaxDP=2.84D-03 DE=-4.62D-03 OVMax= 2.69D-02

 Cycle   6  Pass 1  IDiag  1:
 RMSU=  3.13D-05    CP:  8.90D-01  2.35D+00  1.24D+00  1.90D+00  1.40D+00
 E= -466.856113133237     Delta-E=       -0.001318277514 Rises=F Damp=F
 DIIS: error= 1.61D-03 at cycle   6 NSaved=   6.
 NSaved= 6 IEnMin= 6 EnMin= -466.856113133237     IErMin= 6 ErrMin= 1.61D-03
 ErrMax= 1.61D-03  0.00D+00 EMaxC= 1.00D-01 BMatC= 5.15D-04 BMatP= 8.00D-04
 IDIUse=3 WtCom= 9.84D-01 WtEn= 1.61D-02
 Coeff-Com: -0.832D-01 0.178D+00 0.552D-01-0.617D+00 0.903D-01 0.138D+01
 Coeff-En:   0.000D+00 0.000D+00 0.000D+00 0.000D+00 0.000D+00 0.100D+01
 Coeff:     -0.819D-01 0.175D+00 0.544D-01-0.607D+00 0.889D-01 0.137D+01
 Gap=     0.314 Goal=   None    Shift=    0.000
 Gap=     0.314 Goal=   None    Shift=    0.000
 RMSDP=9.76D-05 MaxDP=4.01D-03 DE=-1.32D-03 OVMax= 3.70D-02

 Cycle   7  Pass 1  IDiag  1:
 RMSU=  3.10D-05    CP:  8.88D-01  2.36D+00  1.28D+00  2.17D+00  2.10D+00
                    CP:  2.30D+00
 E= -466.857706682016     Delta-E=       -0.001593548779 Rises=F Damp=F
 DIIS: error= 1.03D-03 at cycle   7 NSaved=   7.
 NSaved= 7 IEnMin= 7 EnMin= -466.857706682016     IErMin= 7 ErrMin= 1.03D-03
 ErrMax= 1.03D-03  0.00D+00 EMaxC= 1.00D-01 BMatC= 2.59D-04 BMatP= 5.15D-04
 IDIUse=3 WtCom= 9.90D-01 WtEn= 1.03D-02
 Coeff-Com: -0.263D-01 0.568D-01 0.419D-01-0.109D-01-0.755D+00-0.408D+00
 Coeff-Com:  0.210D+01
 Coeff-En:   0.000D+00 0.000D+00 0.000D+00 0.000D+00 0.000D+00 0.000D+00
 Coeff-En:   0.100D+01
 Coeff:     -0.260D-01 0.562D-01 0.415D-01-0.108D-01-0.748D+00-0.404D+00
 Coeff:      0.209D+01
 Gap=     0.314 Goal=   None    Shift=    0.000
 Gap=     0.314 Goal=   None    Shift=    0.000
 RMSDP=1.34D-04 MaxDP=6.39D-03 DE=-1.59D-03 OVMax= 5.04D-02

 Cycle   8  Pass 1  IDiag  1:
 RMSU=  5.66D-05    CP:  8.86D-01  2.35D+00  1.31D+00  2.48D+00  2.97D+00
                    CP:  3.00D+00  2.59D+00
 E= -466.859068672317     Delta-E=       -0.001361990301 Rises=F Damp=F
 DIIS: error= 3.50D-04 at cycle   8 NSaved=   8.
 NSaved= 8 IEnMin= 8 EnMin= -466.859068672317     IErMin= 8 ErrMin= 3.50D-04
 ErrMax= 3.50D-04  0.00D+00 EMaxC= 1.00D-01 BMatC= 5.91D-05 BMatP= 2.59D-04
 IDIUse=3 WtCom= 9.97D-01 WtEn= 3.50D-03
 Coeff-Com:  0.240D-01-0.515D-01-0.610D-02 0.256D+00-0.247D+00-0.668D+00
 Coeff-Com:  0.587D+00 0.111D+01
 Coeff-En:   0.000D+00 0.000D+00 0.000D+00 0.000D+00 0.000D+00 0.000D+00
 Coeff-En:   0.000D+00 0.100D+01
 Coeff:      0.239D-01-0.513D-01-0.608D-02 0.255D+00-0.247D+00-0.665D+00
 Coeff:      0.585D+00 0.111D+01
 Gap=     0.316 Goal=   None    Shift=    0.000
 Gap=     0.316 Goal=   None    Shift=    0.000
 RMSDP=5.99D-05 MaxDP=2.94D-03 DE=-1.36D-03 OVMax= 2.22D-02

 Cycle   9  Pass 1  IDiag  1:
 RMSU=  3.21D-05    CP:  8.85D-01  2.35D+00  1.33D+00  2.58D+00  3.00D+00
                    CP:  3.00D+00  3.00D+00  1.66D+00
 E= -466.859292465670     Delta-E=       -0.000223793353 Rises=F Damp=F
 DIIS: error= 1.15D-04 at cycle   9 NSaved=   9.
 NSaved= 9 IEnMin= 9 EnMin= -466.859292465670     IErMin= 9 ErrMin= 1.15D-04
 ErrMax= 1.15D-04  0.00D+00 EMaxC= 1.00D-01 BMatC= 8.96D-06 BMatP= 5.91D-05
 IDIUse=3 WtCom= 9.99D-01 WtEn= 1.15D-03
 Coeff-Com:  0.127D-01-0.272D-01-0.830D-02 0.896D-01 0.321D-01-0.161D+00
 Coeff-Com: -0.125D+00 0.314D+00 0.873D+00
 Coeff-En:   0.000D+00 0.000D+00 0.000D+00 0.000D+00 0.000D+00 0.000D+00
 Coeff-En:   0.000D+00 0.000D+00 0.100D+01
 Coeff:      0.126D-01-0.272D-01-0.829D-02 0.895D-01 0.321D-01-0.161D+00
 Coeff:     -0.124D+00 0.314D+00 0.873D+00
 Gap=     0.315 Goal=   None    Shift=    0.000
 Gap=     0.315 Goal=   None    Shift=    0.000
 RMSDP=1.44D-05 MaxDP=7.14D-04 DE=-2.24D-04 OVMax= 5.33D-03

 Cycle  10  Pass 1  IDiag  1:
 RMSU=  5.18D-06    CP:  8.85D-01  2.35D+00  1.33D+00  2.60D+00  3.00D+00
                    CP:  3.00D+00  3.00D+00  1.81D+00  1.28D+00
 E= -466.859308204567     Delta-E=       -0.000015738897 Rises=F Damp=F
 DIIS: error= 4.89D-05 at cycle  10 NSaved=  10.
 NSaved=10 IEnMin=10 EnMin= -466.859308204567     IErMin=10 ErrMin= 4.89D-05
 ErrMax= 4.89D-05  0.00D+00 EMaxC= 1.00D-01 BMatC= 1.39D-06 BMatP= 8.96D-06
 IDIUse=1 WtCom= 1.00D+00 WtEn= 0.00D+00
 Coeff-Com: -0.141D-02 0.306D-02-0.605D-03-0.268D-01 0.435D-01 0.815D-01
 Coeff-Com: -0.108D+00-0.170D+00 0.161D+00 0.102D+01
 Coeff:     -0.141D-02 0.306D-02-0.605D-03-0.268D-01 0.435D-01 0.815D-01
 Coeff:     -0.108D+00-0.170D+00 0.161D+00 0.102D+01
 Gap=     0.315 Goal=   None    Shift=    0.000
 Gap=     0.315 Goal=   None    Shift=    0.000
 RMSDP=6.05D-06 MaxDP=2.87D-04 DE=-1.57D-05 OVMax= 2.24D-03

 Cycle  11  Pass 1  IDiag  1:
 RMSU=  2.17D-06    CP:  8.85D-01  2.35D+00  1.34D+00  2.60D+00  3.00D+00
                    CP:  3.00D+00  3.00D+00  1.87D+00  1.40D+00  1.43D+00
 E= -466.859310198925     Delta-E=       -0.000001994358 Rises=F Damp=F
 DIIS: error= 1.97D-05 at cycle  11 NSaved=  11.
 NSaved=11 IEnMin=11 EnMin= -466.859310198925     IErMin=11 ErrMin= 1.97D-05
 ErrMax= 1.97D-05  0.00D+00 EMaxC= 1.00D-01 BMatC= 3.14D-07 BMatP= 1.39D-06
 IDIUse=1 WtCom= 1.00D+00 WtEn= 0.00D+00
 Coeff-Com: -0.135D-02 0.291D-02 0.274D-03-0.159D-01 0.134D-01 0.401D-01
 Coeff-Com: -0.266D-01-0.881D-01-0.156D-01 0.386D+00 0.705D+00
 Coeff:     -0.135D-02 0.291D-02 0.274D-03-0.159D-01 0.134D-01 0.401D-01
 Coeff:     -0.266D-01-0.881D-01-0.156D-01 0.386D+00 0.705D+00
 Gap=     0.315 Goal=   None    Shift=    0.000
 Gap=     0.315 Goal=   None    Shift=    0.000
 RMSDP=9.02D-07 MaxDP=5.34D-05 DE=-1.99D-06 OVMax= 2.33D-04

 Cycle  12  Pass 1  IDiag  1:
 RMSU=  6.79D-07    CP:  8.85D-01  2.35D+00  1.34D+00  2.61D+00  3.00D+00
                    CP:  3.00D+00  3.00D+00  1.87D+00  1.41D+00  1.48D+00
                    CP:  1.14D+00
 E= -466.859310370322     Delta-E=       -0.000000171397 Rises=F Damp=F
 DIIS: error= 1.24D-05 at cycle  12 NSaved=  12.
 NSaved=12 IEnMin=12 EnMin= -466.859310370322     IErMin=12 ErrMin= 1.24D-05
 ErrMax= 1.24D-05  0.00D+00 EMaxC= 1.00D-01 BMatC= 6.63D-08 BMatP= 3.14D-07
 IDIUse=1 WtCom= 1.00D+00 WtEn= 0.00D+00
 Coeff-Com:  0.321D-03-0.698D-03-0.461D-05 0.523D-02-0.659D-02-0.155D-01
 Coeff-Com:  0.199D-01 0.309D-01-0.354D-01-0.206D+00 0.131D+00 0.108D+01
 Coeff:      0.321D-03-0.698D-03-0.461D-05 0.523D-02-0.659D-02-0.155D-01
 Coeff:      0.199D-01 0.309D-01-0.354D-01-0.206D+00 0.131D+00 0.108D+01
 Gap=     0.315 Goal=   None    Shift=    0.000
 Gap=     0.315 Goal=   None    Shift=    0.000
 RMSDP=7.13D-07 MaxDP=3.95D-05 DE=-1.71D-07 OVMax= 1.40D-04

 Cycle  13  Pass 1  IDiag  1:
 RMSU=  4.65D-07    CP:  8.85D-01  2.35D+00  1.34D+00  2.61D+00  3.00D+00
                    CP:  3.00D+00  3.00D+00  1.87D+00  1.40D+00  1.48D+00
                    CP:  1.27D+00  1.63D+00
 E= -466.859310452540     Delta-E=       -0.000000082218 Rises=F Damp=F
 DIIS: error= 6.86D-06 at cycle  13 NSaved=  13.
 NSaved=13 IEnMin=13 EnMin= -466.859310452540     IErMin=13 ErrMin= 6.86D-06
 ErrMax= 6.86D-06  0.00D+00 EMaxC= 1.00D-01 BMatC= 1.49D-08 BMatP= 6.63D-08
 IDIUse=1 WtCom= 1.00D+00 WtEn= 0.00D+00
 Coeff-Com: -0.759D-04 0.166D-03 0.767D-04-0.634D-03 0.479D-03 0.135D-02
 Coeff-Com: -0.279D-02-0.705D-04 0.844D-02 0.671D-02-0.158D+00-0.308D+00
 Coeff-Com:  0.145D+01
 Coeff:     -0.759D-04 0.166D-03 0.767D-04-0.634D-03 0.479D-03 0.135D-02
 Coeff:     -0.279D-02-0.705D-04 0.844D-02 0.671D-02-0.158D+00-0.308D+00
 Coeff:      0.145D+01
 Gap=     0.315 Goal=   None    Shift=    0.000
 Gap=     0.315 Goal=   None    Shift=    0.000
 RMSDP=4.23D-07 MaxDP=2.34D-05 DE=-8.22D-08 OVMax= 1.01D-04

 Cycle  14  Pass 1  IDiag  1:
 RMSU=  2.37D-07    CP:  8.85D-01  2.35D+00  1.34D+00  2.61D+00  3.00D+00
                    CP:  3.00D+00  3.00D+00  1.87D+00  1.40D+00  1.48D+00
                    CP:  1.31D+00  1.96D+00  1.54D+00
 E= -466.859310485509     Delta-E=       -0.000000032969 Rises=F Damp=F
 DIIS: error= 3.61D-06 at cycle  14 NSaved=  14.
 NSaved=14 IEnMin=14 EnMin= -466.859310485509     IErMin=14 ErrMin= 3.61D-06
 ErrMax= 3.61D-06  0.00D+00 EMaxC= 1.00D-01 BMatC= 4.28D-09 BMatP= 1.49D-08
 IDIUse=1 WtCom= 1.00D+00 WtEn= 0.00D+00
 Coeff-Com: -0.123D-03 0.265D-03 0.575D-04-0.148D-02 0.142D-02 0.401D-02
 Coeff-Com: -0.511D-02-0.740D-02 0.107D-01 0.556D-01-0.614D-01-0.341D+00
 Coeff-Com:  0.149D+00 0.119D+01
 Coeff:     -0.123D-03 0.265D-03 0.575D-04-0.148D-02 0.142D-02 0.401D-02
 Coeff:     -0.511D-02-0.740D-02 0.107D-01 0.556D-01-0.614D-01-0.341D+00
 Coeff:      0.149D+00 0.119D+01
 Gap=     0.315 Goal=   None    Shift=    0.000
 Gap=     0.315 Goal=   None    Shift=    0.000
 RMSDP=2.58D-07 MaxDP=1.23D-05 DE=-3.30D-08 OVMax= 6.38D-05

 Cycle  15  Pass 1  IDiag  1:
 RMSU=  9.51D-08    CP:  8.85D-01  2.35D+00  1.34D+00  2.61D+00  3.00D+00
                    CP:  3.00D+00  3.00D+00  1.87D+00  1.40D+00  1.48D+00
                    CP:  1.31D+00  2.09D+00  1.83D+00  1.75D+00
 E= -466.859310494773     Delta-E=       -0.000000009264 Rises=F Damp=F
 DIIS: error= 1.36D-06 at cycle  15 NSaved=  15.
 NSaved=15 IEnMin=15 EnMin= -466.859310494773     IErMin=15 ErrMin= 1.36D-06
 ErrMax= 1.36D-06  0.00D+00 EMaxC= 1.00D-01 BMatC= 7.36D-10 BMatP= 4.28D-09
 IDIUse=1 WtCom= 1.00D+00 WtEn= 0.00D+00
 Coeff-Com:  0.323D-04-0.700D-04-0.323D-04 0.213D-03 0.118D-05-0.293D-03
 Coeff-Com: -0.432D-04 0.157D-03 0.580D-03 0.389D-02 0.276D-01 0.242D-01
 Coeff-Com: -0.353D+00 0.191D+00 0.110D+01
 Coeff:      0.323D-04-0.700D-04-0.323D-04 0.213D-03 0.118D-05-0.293D-03
 Coeff:     -0.432D-04 0.157D-03 0.580D-03 0.389D-02 0.276D-01 0.242D-01
 Coeff:     -0.353D+00 0.191D+00 0.110D+01
 Gap=     0.315 Goal=   None    Shift=    0.000
 Gap=     0.315 Goal=   None    Shift=    0.000
 RMSDP=1.29D-07 MaxDP=5.55D-06 DE=-9.26D-09 OVMax= 2.96D-05

 Cycle  16  Pass 1  IDiag  1:
 RMSU=  4.20D-08    CP:  8.85D-01  2.35D+00  1.34D+00  2.61D+00  3.00D+00
                    CP:  3.00D+00  3.00D+00  1.87D+00  1.40D+00  1.49D+00
                    CP:  1.31D+00  2.11D+00  1.93D+00  2.16D+00  1.50D+00
 E= -466.859310496069     Delta-E=       -0.000000001296 Rises=F Damp=F
 DIIS: error= 2.41D-07 at cycle  16 NSaved=  16.
 NSaved=16 IEnMin=16 EnMin= -466.859310496069     IErMin=16 ErrMin= 2.41D-07
 ErrMax= 2.41D-07  0.00D+00 EMaxC= 1.00D-01 BMatC= 6.42D-11 BMatP= 7.36D-10
 IDIUse=1 WtCom= 1.00D+00 WtEn= 0.00D+00
 Coeff-Com:  0.110D-04-0.237D-04-0.963D-05 0.116D-03-0.806D-04-0.247D-03
 Coeff-Com:  0.284D-03 0.472D-03-0.860D-03-0.348D-02 0.124D-01 0.341D-01
 Coeff-Com: -0.960D-01-0.621D-01 0.263D+00 0.852D+00
 Coeff:      0.110D-04-0.237D-04-0.963D-05 0.116D-03-0.806D-04-0.247D-03
 Coeff:      0.284D-03 0.472D-03-0.860D-03-0.348D-02 0.124D-01 0.341D-01
 Coeff:     -0.960D-01-0.621D-01 0.263D+00 0.852D+00
 Gap=     0.315 Goal=   None    Shift=    0.000
 Gap=     0.315 Goal=   None    Shift=    0.000
 RMSDP=2.84D-08 MaxDP=1.28D-06 DE=-1.30D-09 OVMax= 4.48D-06

 Cycle  17  Pass 1  IDiag  1:
 RMSU=  1.24D-08    CP:  8.85D-01  2.35D+00  1.34D+00  2.61D+00  3.00D+00
                    CP:  3.00D+00  3.00D+00  1.87D+00  1.40D+00  1.49D+00
                    CP:  1.31D+00  2.11D+00  1.93D+00  2.21D+00  1.62D+00
                    CP:  1.32D+00
 E= -466.859310496108     Delta-E=       -0.000000000039 Rises=F Damp=F
 DIIS: error= 8.32D-08 at cycle  17 NSaved=  17.
 NSaved=17 IEnMin=17 EnMin= -466.859310496108     IErMin=17 ErrMin= 8.32D-08
 ErrMax= 8.32D-08  0.00D+00 EMaxC= 1.00D-01 BMatC= 7.38D-12 BMatP= 6.42D-11
 IDIUse=1 WtCom= 1.00D+00 WtEn= 0.00D+00
 Coeff-Com: -0.158D-05 0.347D-05 0.108D-05-0.128D-04-0.333D-05 0.380D-04
 Coeff-Com: -0.103D-04 0.103D-04-0.180D-03-0.755D-03-0.150D-02 0.974D-03
 Coeff-Com:  0.310D-01-0.324D-01-0.104D+00 0.129D+00 0.978D+00
 Coeff:     -0.158D-05 0.347D-05 0.108D-05-0.128D-04-0.333D-05 0.380D-04
 Coeff:     -0.103D-04 0.103D-04-0.180D-03-0.755D-03-0.150D-02 0.974D-03
 Coeff:      0.310D-01-0.324D-01-0.104D+00 0.129D+00 0.978D+00
 Gap=     0.315 Goal=   None    Shift=    0.000
 Gap=     0.315 Goal=   None    Shift=    0.000
 RMSDP=1.01D-08 MaxDP=3.70D-07 DE=-3.93D-11 OVMax= 1.44D-06

 Cycle  18  Pass 1  IDiag  1:
 RMSU=  4.37D-09    CP:  8.85D-01  2.35D+00  1.34D+00  2.61D+00  3.00D+00
                    CP:  3.00D+00  3.00D+00  1.87D+00  1.40D+00  1.49D+00
                    CP:  1.31D+00  2.11D+00  1.94D+00  2.21D+00  1.67D+00
                    CP:  1.46D+00  1.22D+00
 E= -466.859310496119     Delta-E=       -0.000000000010 Rises=F Damp=F
 DIIS: error= 3.18D-08 at cycle  18 NSaved=  18.
 NSaved=18 IEnMin=18 EnMin= -466.859310496119     IErMin=18 ErrMin= 3.18D-08
 ErrMax= 3.18D-08  0.00D+00 EMaxC= 1.00D-01 BMatC= 6.47D-13 BMatP= 7.38D-12
 IDIUse=1 WtCom= 1.00D+00 WtEn= 0.00D+00
 Coeff-Com:  0.170D-07-0.462D-07 0.720D-06-0.455D-06-0.807D-05 0.369D-05
 Coeff-Com: -0.446D-05-0.479D-07 0.669D-04 0.150D-03-0.139D-02-0.322D-02
 Coeff-Com:  0.128D-01 0.350D-02-0.364D-01-0.857D-01 0.869D-01 0.102D+01
 Coeff:      0.170D-07-0.462D-07 0.720D-06-0.455D-06-0.807D-05 0.369D-05
 Coeff:     -0.446D-05-0.479D-07 0.669D-04 0.150D-03-0.139D-02-0.322D-02
 Coeff:      0.128D-01 0.350D-02-0.364D-01-0.857D-01 0.869D-01 0.102D+01
 Gap=     0.315 Goal=   None    Shift=    0.000
 Gap=     0.315 Goal=   None    Shift=    0.000
 RMSDP=2.99D-09 MaxDP=1.04D-07 DE=-1.03D-11 OVMax= 3.47D-07

 Error on total polarization charges =  0.01182
 SCF Done:  E(UwB97XD) =  -466.859310496     A.U. after   18 cycles
            NFock= 18  Conv=0.30D-08     -V/T= 2.0058
 <Sx>= 0.0000 <Sy>= 0.0000 <Sz>= 0.0000 <S**2>= 0.0000 S= 0.0000
 <L.S>=  0.00000000000    
 KE= 4.641511331277D+02 PE=-2.425040114675D+03 EE= 8.223807804246D+02
 --------------------------------------------------------------------
 Variational PCM results
 =======================
 <psi(f)|   H    |psi(f)>                     (a.u.) =    -466.857802
 <psi(f)|H+V(f)/2|psi(f)>                     (a.u.) =    -466.859310
 (Polarized solute)-Solvent               (kcal/mol) =      -0.95
 --------------------------------------------------------------------
 Partition over spheres:
 Sphere  on Atom  Surface  Charge   GEl     GCav    GDR
    1      C1       7.02   0.010   -0.05    0.00    0.00
    2      C2       5.03   0.007   -0.04    0.00    0.00
    3      H3       7.52  -0.010   -0.04    0.00    0.00
    4      H4       3.57  -0.004   -0.01    0.00    0.00
    5      C5       4.05   0.007   -0.05    0.00    0.00
    6      C6       4.26   0.005   -0.03    0.00    0.00
    7      H7       4.81  -0.007   -0.03    0.00    0.00
    8      H8       3.99  -0.005   -0.01    0.00    0.00
    9      C9       3.60   0.002    0.00    0.00    0.00
   10      H10      7.18  -0.007   -0.01    0.00    0.00
   11      H11      3.15  -0.003   -0.01    0.00    0.00
   12      C12      6.30   0.010   -0.06    0.00    0.00
   13      H13      7.52  -0.010   -0.03    0.00    0.00
   14      C14      7.02   0.010   -0.05    0.00    0.00
   15      H15      7.52  -0.010   -0.04    0.00    0.00
   16      C16      3.55   0.002    0.00    0.00    0.00
   17      H17      2.83  -0.003   -0.01    0.00    0.00
   18      H18      7.42  -0.008   -0.03    0.00    0.00
   19      C19      5.09   0.009   -0.06    0.00    0.00
   20      H20      4.98  -0.007   -0.03    0.00    0.00
   21      C21      6.53   0.010   -0.06    0.00    0.00
   22      H22      7.51  -0.010   -0.03    0.00    0.00
   23      C23      3.60   0.002    0.00    0.00    0.00
   24      H24      2.93  -0.003   -0.01    0.00    0.00
   25      H25      7.18  -0.007   -0.01    0.00    0.00
   26      C26      3.48   0.002    0.00    0.00    0.00
   27      H27      7.42  -0.008   -0.03    0.00    0.00
   28      H28      2.86  -0.003   -0.01    0.00    0.00
 Added spheres:    76.06   0.016   -0.23    0.00    0.00
 --------------------------------------------------------------------
 After PCM corrections, the energy is  -466.859310496     a.u.
 --------------------------------------------------------------------
 Annihilation of the first spin contaminant:
 S**2 before annihilation     0.0000,   after    -0.0000
 Leave Link  502 at Mon Aug  3 14:17:49 2020, MaxMem=  6442450944 cpu:            7392.2 elap:             310.8
 (Enter /scratch/scicomp/CentOS/7.3.1611/Haswell/software/Gaussian/g16/l601.exe)
 Copying SCF densities to generalized density rwf, IOpCl= 1 IROHF=0.

 **********************************************************************

            Population analysis using the SCF Density.

 **********************************************************************

 Alpha  occ. eigenvalues --  -10.28491 -10.28490 -10.28330 -10.28328 -10.28312
 Alpha  occ. eigenvalues --  -10.28311 -10.28226 -10.28225 -10.28022 -10.28021
 Alpha  occ. eigenvalues --  -10.27687 -10.27686  -0.94177  -0.93726  -0.84218
 Alpha  occ. eigenvalues --   -0.84154  -0.83932  -0.83759  -0.71380  -0.71273
 Alpha  occ. eigenvalues --   -0.67991  -0.67975  -0.59791  -0.59649  -0.57449
 Alpha  occ. eigenvalues --   -0.56857  -0.53542  -0.52779  -0.50990  -0.50933
 Alpha  occ. eigenvalues --   -0.49985  -0.49538  -0.47363  -0.47009  -0.45152
 Alpha  occ. eigenvalues --   -0.45125  -0.41291  -0.41085  -0.39725  -0.39323
 Alpha  occ. eigenvalues --   -0.39290  -0.39093  -0.29825  -0.27811
 Alpha virt. eigenvalues --    0.03692   0.04691   0.10514   0.12228   0.13316
 Alpha virt. eigenvalues --    0.14356   0.14720   0.15543   0.15648   0.15859
 Alpha virt. eigenvalues --    0.16839   0.16885   0.17130   0.18206   0.19919
 Alpha virt. eigenvalues --    0.20927   0.21392   0.22753   0.23304   0.23603
 Alpha virt. eigenvalues --    0.24760   0.25576   0.25789   0.26870   0.27914
 Alpha virt. eigenvalues --    0.28179   0.28833   0.29204   0.29833   0.30473
 Alpha virt. eigenvalues --    0.31255   0.31718   0.32054   0.32193   0.32968
 Alpha virt. eigenvalues --    0.33428   0.34093   0.35263   0.35567   0.37240
 Alpha virt. eigenvalues --    0.37479   0.38607   0.39364   0.41081   0.41224
 Alpha virt. eigenvalues --    0.41403   0.43259   0.43876   0.45084   0.45753
 Alpha virt. eigenvalues --    0.46154   0.46271   0.47531   0.47829   0.48258
 Alpha virt. eigenvalues --    0.48359   0.48871   0.49147   0.49556   0.49773
 Alpha virt. eigenvalues --    0.50343   0.50418   0.51393   0.51807   0.52457
 Alpha virt. eigenvalues --    0.52801   0.53518   0.54215   0.54421   0.54961
 Alpha virt. eigenvalues --    0.56871   0.57415   0.57626   0.58835   0.59299
 Alpha virt. eigenvalues --    0.59699   0.60714   0.62590   0.62909   0.64096
 Alpha virt. eigenvalues --    0.65037   0.66612   0.67746   0.68260   0.68836
 Alpha virt. eigenvalues --    0.71154   0.71916   0.72578   0.73206   0.74721
 Alpha virt. eigenvalues --    0.76602   0.78049   0.78206   0.80467   0.81163
 Alpha virt. eigenvalues --    0.81763   0.82051   0.82530   0.87281   0.87354
 Alpha virt. eigenvalues --    0.88147   0.88623   0.90485   0.91434   0.91992
 Alpha virt. eigenvalues --    0.92397   0.94988   0.96057   0.98534   0.98734
 Alpha virt. eigenvalues --    1.00505   1.03509   1.03936   1.04243   1.04465
 Alpha virt. eigenvalues --    1.06614   1.06879   1.07850   1.09189   1.11429
 Alpha virt. eigenvalues --    1.13083   1.13357   1.14172   1.14701   1.15469
 Alpha virt. eigenvalues --    1.15759   1.16571   1.16575   1.18695   1.20522
 Alpha virt. eigenvalues --    1.21002   1.21978   1.23778   1.23830   1.24732
 Alpha virt. eigenvalues --    1.25401   1.25487   1.26489   1.27116   1.28438
 Alpha virt. eigenvalues --    1.28484   1.30358   1.31781   1.32447   1.32525
 Alpha virt. eigenvalues --    1.33969   1.34612   1.36131   1.36926   1.37927
 Alpha virt. eigenvalues --    1.38676   1.39937   1.40311   1.40976   1.41327
 Alpha virt. eigenvalues --    1.42575   1.42614   1.43779   1.44346   1.45195
 Alpha virt. eigenvalues --    1.45768   1.46528   1.46770   1.47155   1.48443
 Alpha virt. eigenvalues --    1.49896   1.50140   1.50455   1.53562   1.55514
 Alpha virt. eigenvalues --    1.56230   1.57686   1.58273   1.58383   1.60899
 Alpha virt. eigenvalues --    1.61161   1.62649   1.63428   1.65270   1.67692
 Alpha virt. eigenvalues --    1.68455   1.70037   1.70639   1.73661   1.75924
 Alpha virt. eigenvalues --    1.76291   1.79993   1.80027   1.82976   1.83911
 Alpha virt. eigenvalues --    1.86097   1.87790   1.89715   1.90161   1.91387
 Alpha virt. eigenvalues --    1.92655   1.95942   1.99515   2.00682   2.01312
 Alpha virt. eigenvalues --    2.03933   2.05549   2.06319   2.07762   2.08473
 Alpha virt. eigenvalues --    2.08979   2.11651   2.12517   2.13082   2.15383
 Alpha virt. eigenvalues --    2.18215   2.19601   2.20037   2.20762   2.22322
 Alpha virt. eigenvalues --    2.23042   2.23667   2.24362   2.26178   2.26306
 Alpha virt. eigenvalues --    2.29022   2.33412   2.37103   2.37883   2.40577
 Alpha virt. eigenvalues --    2.42925   2.45813   2.45855   2.48730   2.49888
 Alpha virt. eigenvalues --    2.49953   2.50219   2.53452   2.53992   2.54835
 Alpha virt. eigenvalues --    2.55146   2.57305   2.57524   2.60540   2.61244
 Alpha virt. eigenvalues --    2.62152   2.64348   2.64471   2.65067   2.66178
 Alpha virt. eigenvalues --    2.67597   2.67787   2.70449   2.72225   2.72367
 Alpha virt. eigenvalues --    2.73111   2.73208   2.74688   2.75845   2.77071
 Alpha virt. eigenvalues --    2.77551   2.77570   2.78990   2.80683   2.81117
 Alpha virt. eigenvalues --    2.81376   2.82125   2.82434   2.83667   2.84757
 Alpha virt. eigenvalues --    2.84783   2.86249   2.87262   2.88281   2.89097
 Alpha virt. eigenvalues --    2.90058   2.90211   2.92443   2.92686   2.93247
 Alpha virt. eigenvalues --    2.94658   2.94875   2.95123   2.96015   2.99285
 Alpha virt. eigenvalues --    3.01625   3.01981   3.02838   3.04238   3.06195
 Alpha virt. eigenvalues --    3.06565   3.08530   3.09304   3.09422   3.10745
 Alpha virt. eigenvalues --    3.12000   3.12743   3.12994   3.14183   3.14872
 Alpha virt. eigenvalues --    3.14904   3.16947   3.17029   3.18693   3.18704
 Alpha virt. eigenvalues --    3.19608   3.19774   3.20188   3.20866   3.21216
 Alpha virt. eigenvalues --    3.22086   3.22962   3.23146   3.23465   3.23945
 Alpha virt. eigenvalues --    3.25623   3.26069   3.26792   3.27105   3.28074
 Alpha virt. eigenvalues --    3.28745   3.29047   3.30602   3.31174   3.31219
 Alpha virt. eigenvalues --    3.32175   3.32900   3.32946   3.33487   3.34206
 Alpha virt. eigenvalues --    3.34923   3.35778   3.35958   3.37553   3.38136
 Alpha virt. eigenvalues --    3.38861   3.40154   3.42222   3.43591   3.43605
 Alpha virt. eigenvalues --    3.44815   3.45466   3.46322   3.46473   3.46817
 Alpha virt. eigenvalues --    3.48563   3.48979   3.49147   3.49792   3.50890
 Alpha virt. eigenvalues --    3.51243   3.52641   3.53300   3.54731   3.55106
 Alpha virt. eigenvalues --    3.55324   3.56370   3.58207   3.58963   3.62857
 Alpha virt. eigenvalues --    3.64123   3.64856   3.65050   3.65250   3.65996
 Alpha virt. eigenvalues --    3.68213   3.68405   3.70747   3.71738   3.72388
 Alpha virt. eigenvalues --    3.74682   3.76100   3.77137   3.79127   3.79978
 Alpha virt. eigenvalues --    3.84711   3.84979   3.85570   3.86041   3.86248
 Alpha virt. eigenvalues --    3.88075   3.90721   3.90758   3.93192   3.93666
 Alpha virt. eigenvalues --    3.95365   3.95488   3.99981   4.00238   4.02443
 Alpha virt. eigenvalues --    4.04594   4.08265   4.08555   4.08869   4.10457
 Alpha virt. eigenvalues --    4.11722   4.12819   4.13463   4.15774   4.17902
 Alpha virt. eigenvalues --    4.18622   4.19703   4.21077   4.22763   4.23713
 Alpha virt. eigenvalues --    4.25081   4.27360   4.30713   4.30930   4.33523
 Alpha virt. eigenvalues --    4.34977   4.37646   4.37903   4.39072   4.40946
 Alpha virt. eigenvalues --    4.43292   4.43802   4.46238   4.47880   4.49566
 Alpha virt. eigenvalues --    4.50681   4.58782   4.60764   4.62223   4.65799
 Alpha virt. eigenvalues --    4.68415   4.69038   4.71875   4.73836   4.75237
 Alpha virt. eigenvalues --    4.75667   4.78294   4.78589   4.80965   4.83800
 Alpha virt. eigenvalues --    4.84520   4.84585   4.89309   4.90201   4.93794
 Alpha virt. eigenvalues --    4.93936   4.96239   4.98399   5.05931   5.08030
 Alpha virt. eigenvalues --    5.12234   5.12358   5.18036   5.19136   5.22785
 Alpha virt. eigenvalues --    5.23344   5.30298   5.32119   5.40267   5.40643
 Alpha virt. eigenvalues --    5.43122   5.44492   5.49051   5.49166   5.67080
 Alpha virt. eigenvalues --    5.70460   5.75223   5.77543   5.92662   5.99525
 Alpha virt. eigenvalues --    7.93886   7.95482   8.01617   8.04021   8.06045
 Alpha virt. eigenvalues --    8.06443   8.10402   8.11214   8.17569   8.18158
 Alpha virt. eigenvalues --    8.34033   8.35956  34.76081  34.77648  34.80797
 Alpha virt. eigenvalues --   34.81842  34.86419  34.86639  34.96969  34.97823
 Alpha virt. eigenvalues --   35.00450  35.01634  35.15404  35.18734
  Beta  occ. eigenvalues --  -10.28491 -10.28490 -10.28330 -10.28328 -10.28312
  Beta  occ. eigenvalues --  -10.28311 -10.28226 -10.28225 -10.28022 -10.28021
  Beta  occ. eigenvalues --  -10.27687 -10.27686  -0.94177  -0.93726  -0.84218
  Beta  occ. eigenvalues --   -0.84154  -0.83932  -0.83759  -0.71380  -0.71273
  Beta  occ. eigenvalues --   -0.67991  -0.67975  -0.59791  -0.59649  -0.57449
  Beta  occ. eigenvalues --   -0.56857  -0.53542  -0.52779  -0.50990  -0.50933
  Beta  occ. eigenvalues --   -0.49985  -0.49538  -0.47363  -0.47009  -0.45152
  Beta  occ. eigenvalues --   -0.45125  -0.41291  -0.41085  -0.39725  -0.39323
  Beta  occ. eigenvalues --   -0.39290  -0.39093  -0.29825  -0.27811
  Beta virt. eigenvalues --    0.03692   0.04691   0.10514   0.12228   0.13316
  Beta virt. eigenvalues --    0.14356   0.14720   0.15543   0.15648   0.15859
  Beta virt. eigenvalues --    0.16839   0.16885   0.17130   0.18206   0.19919
  Beta virt. eigenvalues --    0.20927   0.21392   0.22753   0.23304   0.23603
  Beta virt. eigenvalues --    0.24760   0.25576   0.25789   0.26870   0.27914
  Beta virt. eigenvalues --    0.28179   0.28833   0.29204   0.29833   0.30473
  Beta virt. eigenvalues --    0.31255   0.31718   0.32054   0.32193   0.32968
  Beta virt. eigenvalues --    0.33428   0.34093   0.35263   0.35567   0.37240
  Beta virt. eigenvalues --    0.37479   0.38607   0.39364   0.41081   0.41224
  Beta virt. eigenvalues --    0.41403   0.43259   0.43876   0.45084   0.45753
  Beta virt. eigenvalues --    0.46154   0.46271   0.47531   0.47829   0.48258
  Beta virt. eigenvalues --    0.48359   0.48871   0.49147   0.49556   0.49773
  Beta virt. eigenvalues --    0.50343   0.50418   0.51393   0.51807   0.52457
  Beta virt. eigenvalues --    0.52801   0.53518   0.54215   0.54421   0.54961
  Beta virt. eigenvalues --    0.56871   0.57415   0.57626   0.58835   0.59299
  Beta virt. eigenvalues --    0.59699   0.60714   0.62590   0.62909   0.64096
  Beta virt. eigenvalues --    0.65037   0.66612   0.67746   0.68260   0.68836
  Beta virt. eigenvalues --    0.71154   0.71916   0.72578   0.73206   0.74721
  Beta virt. eigenvalues --    0.76602   0.78049   0.78206   0.80467   0.81163
  Beta virt. eigenvalues --    0.81763   0.82051   0.82530   0.87281   0.87354
  Beta virt. eigenvalues --    0.88147   0.88623   0.90485   0.91434   0.91992
  Beta virt. eigenvalues --    0.92397   0.94988   0.96057   0.98534   0.98734
  Beta virt. eigenvalues --    1.00505   1.03509   1.03936   1.04243   1.04465
  Beta virt. eigenvalues --    1.06614   1.06879   1.07850   1.09189   1.11429
  Beta virt. eigenvalues --    1.13083   1.13357   1.14172   1.14701   1.15469
  Beta virt. eigenvalues --    1.15759   1.16571   1.16575   1.18695   1.20522
  Beta virt. eigenvalues --    1.21002   1.21978   1.23778   1.23830   1.24732
  Beta virt. eigenvalues --    1.25401   1.25487   1.26489   1.27116   1.28438
  Beta virt. eigenvalues --    1.28484   1.30358   1.31781   1.32447   1.32525
  Beta virt. eigenvalues --    1.33969   1.34612   1.36131   1.36926   1.37927
  Beta virt. eigenvalues --    1.38676   1.39937   1.40311   1.40976   1.41327
  Beta virt. eigenvalues --    1.42575   1.42614   1.43779   1.44346   1.45195
  Beta virt. eigenvalues --    1.45768   1.46528   1.46770   1.47155   1.48443
  Beta virt. eigenvalues --    1.49896   1.50140   1.50455   1.53562   1.55514
  Beta virt. eigenvalues --    1.56230   1.57686   1.58273   1.58383   1.60899
  Beta virt. eigenvalues --    1.61161   1.62649   1.63428   1.65270   1.67692
  Beta virt. eigenvalues --    1.68455   1.70037   1.70639   1.73661   1.75924
  Beta virt. eigenvalues --    1.76291   1.79993   1.80027   1.82976   1.83911
  Beta virt. eigenvalues --    1.86097   1.87790   1.89715   1.90161   1.91387
  Beta virt. eigenvalues --    1.92655   1.95942   1.99515   2.00682   2.01312
  Beta virt. eigenvalues --    2.03933   2.05549   2.06319   2.07762   2.08473
  Beta virt. eigenvalues --    2.08979   2.11651   2.12517   2.13082   2.15383
  Beta virt. eigenvalues --    2.18215   2.19601   2.20037   2.20762   2.22322
  Beta virt. eigenvalues --    2.23042   2.23667   2.24362   2.26178   2.26306
  Beta virt. eigenvalues --    2.29022   2.33412   2.37103   2.37883   2.40577
  Beta virt. eigenvalues --    2.42925   2.45813   2.45855   2.48730   2.49888
  Beta virt. eigenvalues --    2.49953   2.50219   2.53452   2.53992   2.54835
  Beta virt. eigenvalues --    2.55146   2.57305   2.57524   2.60540   2.61244
  Beta virt. eigenvalues --    2.62152   2.64348   2.64471   2.65067   2.66178
  Beta virt. eigenvalues --    2.67597   2.67787   2.70449   2.72225   2.72367
  Beta virt. eigenvalues --    2.73111   2.73208   2.74688   2.75845   2.77071
  Beta virt. eigenvalues --    2.77551   2.77570   2.78990   2.80683   2.81117
  Beta virt. eigenvalues --    2.81376   2.82125   2.82434   2.83667   2.84757
  Beta virt. eigenvalues --    2.84783   2.86249   2.87262   2.88281   2.89097
  Beta virt. eigenvalues --    2.90058   2.90211   2.92443   2.92686   2.93247
  Beta virt. eigenvalues --    2.94658   2.94875   2.95123   2.96015   2.99285
  Beta virt. eigenvalues --    3.01625   3.01981   3.02838   3.04238   3.06195
  Beta virt. eigenvalues --    3.06565   3.08530   3.09304   3.09422   3.10745
  Beta virt. eigenvalues --    3.12000   3.12743   3.12994   3.14183   3.14872
  Beta virt. eigenvalues --    3.14904   3.16947   3.17029   3.18693   3.18704
  Beta virt. eigenvalues --    3.19608   3.19774   3.20188   3.20866   3.21216
  Beta virt. eigenvalues --    3.22086   3.22962   3.23146   3.23465   3.23945
  Beta virt. eigenvalues --    3.25623   3.26069   3.26792   3.27105   3.28074
  Beta virt. eigenvalues --    3.28745   3.29047   3.30602   3.31174   3.31219
  Beta virt. eigenvalues --    3.32175   3.32900   3.32946   3.33487   3.34206
  Beta virt. eigenvalues --    3.34923   3.35778   3.35958   3.37553   3.38136
  Beta virt. eigenvalues --    3.38861   3.40154   3.42222   3.43591   3.43605
  Beta virt. eigenvalues --    3.44815   3.45466   3.46322   3.46473   3.46817
  Beta virt. eigenvalues --    3.48563   3.48979   3.49147   3.49792   3.50890
  Beta virt. eigenvalues --    3.51243   3.52641   3.53300   3.54731   3.55106
  Beta virt. eigenvalues --    3.55324   3.56370   3.58207   3.58963   3.62857
  Beta virt. eigenvalues --    3.64123   3.64856   3.65050   3.65250   3.65996
  Beta virt. eigenvalues --    3.68213   3.68405   3.70747   3.71738   3.72388
  Beta virt. eigenvalues --    3.74682   3.76100   3.77137   3.79127   3.79978
  Beta virt. eigenvalues --    3.84711   3.84979   3.85570   3.86041   3.86248
  Beta virt. eigenvalues --    3.88075   3.90721   3.90758   3.93192   3.93666
  Beta virt. eigenvalues --    3.95365   3.95488   3.99981   4.00238   4.02443
  Beta virt. eigenvalues --    4.04594   4.08265   4.08555   4.08869   4.10457
  Beta virt. eigenvalues --    4.11722   4.12819   4.13463   4.15774   4.17902
  Beta virt. eigenvalues --    4.18622   4.19703   4.21077   4.22763   4.23713
  Beta virt. eigenvalues --    4.25081   4.27360   4.30713   4.30930   4.33523
  Beta virt. eigenvalues --    4.34977   4.37646   4.37903   4.39072   4.40946
  Beta virt. eigenvalues --    4.43292   4.43802   4.46238   4.47880   4.49566
  Beta virt. eigenvalues --    4.50681   4.58782   4.60764   4.62223   4.65799
  Beta virt. eigenvalues --    4.68415   4.69038   4.71875   4.73836   4.75237
  Beta virt. eigenvalues --    4.75667   4.78294   4.78589   4.80965   4.83800
  Beta virt. eigenvalues --    4.84520   4.84585   4.89309   4.90201   4.93794
  Beta virt. eigenvalues --    4.93936   4.96239   4.98399   5.05931   5.08030
  Beta virt. eigenvalues --    5.12234   5.12358   5.18036   5.19136   5.22785
  Beta virt. eigenvalues --    5.23344   5.30298   5.32119   5.40267   5.40643
  Beta virt. eigenvalues --    5.43122   5.44492   5.49051   5.49166   5.67080
  Beta virt. eigenvalues --    5.70460   5.75223   5.77543   5.92662   5.99525
  Beta virt. eigenvalues --    7.93886   7.95482   8.01617   8.04021   8.06045
  Beta virt. eigenvalues --    8.06443   8.10402   8.11214   8.17569   8.18158
  Beta virt. eigenvalues --    8.34033   8.35956  34.76081  34.77648  34.80797
  Beta virt. eigenvalues --   34.81842  34.86419  34.86639  34.96969  34.97823
  Beta virt. eigenvalues --   35.00450  35.01634  35.15404  35.18734
          Condensed to atoms (all electrons):
               1          2          3          4          5          6
     1  C    5.120971   0.009539   0.423558  -0.001785   0.000365  -0.003524
     2  C    0.009539   5.254536  -0.002093   0.424055  -0.022447  -0.050017
     3  H    0.423558  -0.002093   0.497701   0.000036  -0.000045  -0.000022
     4  H   -0.001785   0.424055   0.000036   0.479009  -0.002199   0.002548
     5  C    0.000365  -0.022447  -0.000045  -0.002199   5.108937   0.545622
     6  C   -0.003524  -0.050017  -0.000022   0.002548   0.545622   5.254679
     7  H    0.000249  -0.001021   0.000000  -0.000084   0.424107  -0.028599
     8  H   -0.000812   0.002547  -0.000004   0.000011  -0.042361   0.424056
     9  C    0.001308   0.000326  -0.000003  -0.000903  -0.070087   0.261661
    10  H   -0.000024  -0.000173  -0.000001  -0.000066  -0.003859  -0.034132
    11  H    0.000089  -0.002052   0.000000   0.000041   0.006860  -0.051466
    12  C   -0.000108   0.006918   0.000002   0.001377   0.308106  -0.077431
    13  H   -0.000001   0.000008   0.000000   0.000005  -0.038533   0.005166
    14  C    0.000120  -0.003524  -0.000000  -0.000812  -0.063451   0.009542
    15  H   -0.000000  -0.000022  -0.000000  -0.000004   0.007448  -0.002093
    16  C   -0.000552   0.008767  -0.000000   0.000405   0.002698  -0.073215
    17  H   -0.000065  -0.001121  -0.000001  -0.000957   0.010787  -0.001141
    18  H    0.000002   0.000569   0.000000   0.000119  -0.002376   0.011025
    19  C   -0.063467   0.545650   0.007448  -0.042353  -0.001928  -0.022438
    20  H    0.003880  -0.028544  -0.000118  -0.005622   0.000221  -0.001022
    21  C    0.600324  -0.077433  -0.033368   0.005778   0.000522   0.006918
    22  H   -0.028014   0.005173  -0.006454  -0.000080   0.000015   0.000008
    23  C   -0.088381   0.261682   0.005545  -0.015970   0.003103   0.000324
    24  H    0.012488  -0.051478  -0.000136  -0.004106   0.002048  -0.002050
    25  H    0.005493  -0.034138  -0.000014   0.000027   0.000340  -0.000173
    26  C    0.289634  -0.073196  -0.031162   0.004086  -0.002506   0.008768
    27  H   -0.036278   0.011022  -0.004573  -0.000138   0.000336   0.000569
    28  H   -0.034544  -0.001142   0.001487  -0.000149  -0.003255  -0.001115
               7          8          9         10         11         12
     1  C    0.000249  -0.000812   0.001308  -0.000024   0.000089  -0.000108
     2  C   -0.001021   0.002547   0.000326  -0.000173  -0.002052   0.006918
     3  H    0.000000  -0.000004  -0.000003  -0.000001   0.000000   0.000002
     4  H   -0.000084   0.000011  -0.000903  -0.000066   0.000041   0.001377
     5  C    0.424107  -0.042361  -0.070087  -0.003859   0.006860   0.308106
     6  C   -0.028599   0.424056   0.261661  -0.034132  -0.051466  -0.077431
     7  H    0.486354  -0.005619   0.003708  -0.000305  -0.000065  -0.031906
     8  H   -0.005619   0.478877  -0.015940   0.000026  -0.004103   0.005778
     9  C    0.003708  -0.015940   4.931631   0.380785   0.447033   0.034971
    10  H   -0.000305   0.000026   0.380785   0.580655  -0.022086   0.001838
    11  H   -0.000065  -0.004103   0.447033  -0.022086   0.542644  -0.003497
    12  C   -0.031906   0.005778   0.034971   0.001838  -0.003497   4.990775
    13  H   -0.003496  -0.000080  -0.000544  -0.000052   0.000037   0.426331
    14  C    0.003877  -0.001785  -0.088400   0.005498   0.012488   0.600318
    15  H   -0.000118   0.000036   0.005545  -0.000014  -0.000136  -0.033378
    16  C   -0.000780   0.004084   0.372690  -0.025466  -0.050108  -0.064358
    17  H    0.000021  -0.000149  -0.034892   0.007680  -0.008908  -0.015781
    18  H    0.000039  -0.000137  -0.042427  -0.008792  -0.001165   0.005633
    19  C    0.000221  -0.002202   0.003106   0.000340   0.002048   0.000522
    20  H    0.000008  -0.000084   0.001785   0.000126  -0.000507  -0.000130
    21  C   -0.000130   0.001380  -0.000437   0.000016  -0.000253  -0.000196
    22  H   -0.000001   0.000005  -0.000049  -0.000001   0.000005   0.000000
    23  C    0.001782  -0.000900   0.000379  -0.000015   0.000066  -0.000436
    24  H   -0.000506   0.000041   0.000066   0.000001  -0.000016  -0.000253
    25  H    0.000126  -0.000066  -0.000016   0.000001   0.000001   0.000016
    26  C   -0.001363   0.000395  -0.000738   0.000060  -0.000077   0.000571
    27  H   -0.000020   0.000119  -0.000026   0.000001  -0.000002  -0.000049
    28  H    0.001599  -0.000962   0.000357  -0.000013   0.000021   0.000544
              13         14         15         16         17         18
     1  C   -0.000001   0.000120  -0.000000  -0.000552  -0.000065   0.000002
     2  C    0.000008  -0.003524  -0.000022   0.008767  -0.001121   0.000569
     3  H    0.000000  -0.000000  -0.000000  -0.000000  -0.000001   0.000000
     4  H    0.000005  -0.000812  -0.000004   0.000405  -0.000957   0.000119
     5  C   -0.038533  -0.063451   0.007448   0.002698   0.010787  -0.002376
     6  C    0.005166   0.009542  -0.002093  -0.073215  -0.001141   0.011025
     7  H   -0.003496   0.003877  -0.000118  -0.000780   0.000021   0.000039
     8  H   -0.000080  -0.001785   0.000036   0.004084  -0.000149  -0.000137
     9  C   -0.000544  -0.088400   0.005545   0.372690  -0.034892  -0.042427
    10  H   -0.000052   0.005498  -0.000014  -0.025466   0.007680  -0.008792
    11  H    0.000037   0.012488  -0.000136  -0.050108  -0.008908  -0.001165
    12  C    0.426331   0.600318  -0.033378  -0.064358  -0.015781   0.005633
    13  H    0.495481  -0.028040  -0.006453   0.005054  -0.000408  -0.000137
    14  C   -0.028040   5.120937   0.423557   0.289611  -0.034536  -0.036278
    15  H   -0.006453   0.423557   0.497711  -0.031154   0.001488  -0.004573
    16  C    0.005054   0.289611  -0.031154   4.914164   0.397341   0.428944
    17  H   -0.000408  -0.034536   0.001488   0.397341   0.594251  -0.022538
    18  H   -0.000137  -0.036278  -0.004573   0.428944  -0.022538   0.546716
    19  C    0.000015   0.000365  -0.000045  -0.002509  -0.003256   0.000336
    20  H   -0.000001   0.000249   0.000000  -0.001364   0.001597  -0.000020
    21  C    0.000000  -0.000108   0.000002   0.000571   0.000543  -0.000049
    22  H    0.000000  -0.000001   0.000000   0.000012  -0.000003  -0.000001
    23  C   -0.000049   0.001308  -0.000003  -0.000738   0.000356  -0.000026
    24  H    0.000005   0.000089   0.000000  -0.000077   0.000021  -0.000002
    25  H   -0.000001  -0.000024  -0.000001   0.000060  -0.000013   0.000001
    26  C    0.000012  -0.000552  -0.000000   0.000908   0.000124  -0.000002
    27  H   -0.000001   0.000002   0.000000  -0.000002   0.000003  -0.000000
    28  H   -0.000003  -0.000065  -0.000001   0.000124  -0.000028   0.000003
              19         20         21         22         23         24
     1  C   -0.063467   0.003880   0.600324  -0.028014  -0.088381   0.012488
     2  C    0.545650  -0.028544  -0.077433   0.005173   0.261682  -0.051478
     3  H    0.007448  -0.000118  -0.033368  -0.006454   0.005545  -0.000136
     4  H   -0.042353  -0.005622   0.005778  -0.000080  -0.015970  -0.004106
     5  C   -0.001928   0.000221   0.000522   0.000015   0.003103   0.002048
     6  C   -0.022438  -0.001022   0.006918   0.000008   0.000324  -0.002050
     7  H    0.000221   0.000008  -0.000130  -0.000001   0.001782  -0.000506
     8  H   -0.002202  -0.000084   0.001380   0.000005  -0.000900   0.000041
     9  C    0.003106   0.001785  -0.000437  -0.000049   0.000379   0.000066
    10  H    0.000340   0.000126   0.000016  -0.000001  -0.000015   0.000001
    11  H    0.002048  -0.000507  -0.000253   0.000005   0.000066  -0.000016
    12  C    0.000522  -0.000130  -0.000196   0.000000  -0.000436  -0.000253
    13  H    0.000015  -0.000001   0.000000   0.000000  -0.000049   0.000005
    14  C    0.000365   0.000249  -0.000108  -0.000001   0.001308   0.000089
    15  H   -0.000045   0.000000   0.000002   0.000000  -0.000003   0.000000
    16  C   -0.002509  -0.001364   0.000571   0.000012  -0.000738  -0.000077
    17  H   -0.003256   0.001597   0.000543  -0.000003   0.000356   0.000021
    18  H    0.000336  -0.000020  -0.000049  -0.000001  -0.000026  -0.000002
    19  C    5.108934   0.424078   0.308112  -0.038558  -0.070080   0.006865
    20  H    0.424078   0.486346  -0.031930  -0.003495   0.003708  -0.000065
    21  C    0.308112  -0.031930   4.990735   0.426322   0.034949  -0.003497
    22  H   -0.038558  -0.003495   0.426322   0.495494  -0.000544   0.000037
    23  C   -0.070080   0.003708   0.034949  -0.000544   4.931560   0.447032
    24  H    0.006865  -0.000065  -0.003497   0.000037   0.447032   0.542744
    25  H   -0.003863  -0.000305   0.001844  -0.000052   0.380800  -0.022086
    26  C    0.002694  -0.000781  -0.064368   0.005055   0.372682  -0.050117
    27  H   -0.002375   0.000039   0.005632  -0.000137  -0.042420  -0.001164
    28  H    0.010779   0.000021  -0.015760  -0.000408  -0.034897  -0.008910
              25         26         27         28
     1  C    0.005493   0.289634  -0.036278  -0.034544
     2  C   -0.034138  -0.073196   0.011022  -0.001142
     3  H   -0.000014  -0.031162  -0.004573   0.001487
     4  H    0.000027   0.004086  -0.000138  -0.000149
     5  C    0.000340  -0.002506   0.000336  -0.003255
     6  C   -0.000173   0.008768   0.000569  -0.001115
     7  H    0.000126  -0.001363  -0.000020   0.001599
     8  H   -0.000066   0.000395   0.000119  -0.000962
     9  C   -0.000016  -0.000738  -0.000026   0.000357
    10  H    0.000001   0.000060   0.000001  -0.000013
    11  H    0.000001  -0.000077  -0.000002   0.000021
    12  C    0.000016   0.000571  -0.000049   0.000544
    13  H   -0.000001   0.000012  -0.000001  -0.000003
    14  C   -0.000024  -0.000552   0.000002  -0.000065
    15  H   -0.000001  -0.000000   0.000000  -0.000001
    16  C    0.000060   0.000908  -0.000002   0.000124
    17  H   -0.000013   0.000124   0.000003  -0.000028
    18  H    0.000001  -0.000002  -0.000000   0.000003
    19  C   -0.003863   0.002694  -0.002375   0.010779
    20  H   -0.000305  -0.000781   0.000039   0.000021
    21  C    0.001844  -0.064368   0.005632  -0.015760
    22  H   -0.000052   0.005055  -0.000137  -0.000408
    23  C    0.380800   0.372682  -0.042420  -0.034897
    24  H   -0.022086  -0.050117  -0.001164  -0.008910
    25  H    0.580629  -0.025461  -0.008793   0.007680
    26  C   -0.025461   4.914105   0.428939   0.397341
    27  H   -0.008793   0.428939   0.546716  -0.022547
    28  H    0.007680   0.397341  -0.022547   0.594281
          Atomic-Atomic Spin Densities.
               1          2          3          4          5          6
     1  C   -0.000000  -0.000000  -0.000000  -0.000000   0.000000   0.000000
     2  C   -0.000000   0.000000   0.000000   0.000000  -0.000000  -0.000000
     3  H   -0.000000   0.000000   0.000000  -0.000000  -0.000000   0.000000
     4  H   -0.000000   0.000000  -0.000000  -0.000000   0.000000  -0.000000
     5  C    0.000000  -0.000000  -0.000000   0.000000  -0.000000   0.000000
     6  C    0.000000  -0.000000   0.000000  -0.000000   0.000000  -0.000000
     7  H   -0.000000   0.000000   0.000000  -0.000000  -0.000000  -0.000000
     8  H    0.000000   0.000000  -0.000000  -0.000000   0.000000  -0.000000
     9  C   -0.000000   0.000000  -0.000000  -0.000000   0.000000   0.000000
    10  H    0.000000  -0.000000  -0.000000   0.000000  -0.000000  -0.000000
    11  H    0.000000  -0.000000   0.000000   0.000000   0.000000   0.000000
    12  C   -0.000000   0.000000   0.000000  -0.000000  -0.000000   0.000000
    13  H   -0.000000   0.000000   0.000000   0.000000   0.000000  -0.000000
    14  C    0.000000  -0.000000  -0.000000  -0.000000  -0.000000   0.000000
    15  H    0.000000  -0.000000  -0.000000   0.000000   0.000000  -0.000000
    16  C   -0.000000   0.000000   0.000000   0.000000  -0.000000  -0.000000
    17  H    0.000000  -0.000000  -0.000000   0.000000   0.000000  -0.000000
    18  H   -0.000000  -0.000000   0.000000   0.000000  -0.000000  -0.000000
    19  C    0.000000  -0.000000  -0.000000  -0.000000  -0.000000   0.000000
    20  H   -0.000000   0.000000   0.000000   0.000000  -0.000000  -0.000000
    21  C    0.000000  -0.000000   0.000000  -0.000000  -0.000000  -0.000000
    22  H   -0.000000   0.000000  -0.000000  -0.000000   0.000000  -0.000000
    23  C   -0.000000  -0.000000   0.000000  -0.000000   0.000000  -0.000000
    24  H   -0.000000  -0.000000  -0.000000  -0.000000   0.000000   0.000000
    25  H   -0.000000  -0.000000   0.000000   0.000000  -0.000000   0.000000
    26  C    0.000000   0.000000  -0.000000  -0.000000   0.000000  -0.000000
    27  H    0.000000   0.000000  -0.000000   0.000000   0.000000   0.000000
    28  H   -0.000000   0.000000   0.000000   0.000000  -0.000000   0.000000
               7          8          9         10         11         12
     1  C   -0.000000   0.000000  -0.000000   0.000000   0.000000  -0.000000
     2  C    0.000000   0.000000   0.000000  -0.000000  -0.000000   0.000000
     3  H    0.000000  -0.000000  -0.000000  -0.000000   0.000000   0.000000
     4  H   -0.000000  -0.000000  -0.000000   0.000000   0.000000  -0.000000
     5  C   -0.000000   0.000000   0.000000  -0.000000   0.000000  -0.000000
     6  C   -0.000000  -0.000000   0.000000  -0.000000   0.000000   0.000000
     7  H    0.000000  -0.000000   0.000000  -0.000000  -0.000000  -0.000000
     8  H   -0.000000   0.000000   0.000000  -0.000000   0.000000   0.000000
     9  C    0.000000   0.000000  -0.000001  -0.000000   0.000000  -0.000000
    10  H   -0.000000  -0.000000  -0.000000   0.000000  -0.000000  -0.000000
    11  H   -0.000000   0.000000   0.000000  -0.000000   0.000000  -0.000000
    12  C   -0.000000   0.000000  -0.000000  -0.000000  -0.000000   0.000000
    13  H    0.000000   0.000000   0.000000  -0.000000  -0.000000  -0.000000
    14  C    0.000000   0.000000   0.000000   0.000000   0.000000  -0.000000
    15  H   -0.000000   0.000000  -0.000000  -0.000000  -0.000000  -0.000000
    16  C   -0.000000   0.000000   0.000000  -0.000000  -0.000000   0.000000
    17  H   -0.000000  -0.000000   0.000000   0.000000  -0.000000   0.000000
    18  H    0.000000  -0.000000   0.000000  -0.000000  -0.000000  -0.000000
    19  C   -0.000000  -0.000000  -0.000000   0.000000  -0.000000   0.000000
    20  H    0.000000   0.000000   0.000000  -0.000000   0.000000   0.000000
    21  C   -0.000000  -0.000000  -0.000000  -0.000000   0.000000  -0.000000
    22  H    0.000000  -0.000000  -0.000000  -0.000000   0.000000   0.000000
    23  C   -0.000000   0.000000  -0.000000  -0.000000   0.000000   0.000000
    24  H   -0.000000  -0.000000  -0.000000   0.000000  -0.000000  -0.000000
    25  H    0.000000  -0.000000   0.000000  -0.000000  -0.000000   0.000000
    26  C   -0.000000  -0.000000   0.000000   0.000000  -0.000000  -0.000000
    27  H   -0.000000  -0.000000  -0.000000   0.000000  -0.000000  -0.000000
    28  H    0.000000  -0.000000   0.000000  -0.000000  -0.000000   0.000000
              13         14         15         16         17         18
     1  C   -0.000000   0.000000   0.000000  -0.000000   0.000000  -0.000000
     2  C    0.000000  -0.000000  -0.000000   0.000000  -0.000000  -0.000000
     3  H    0.000000  -0.000000  -0.000000   0.000000  -0.000000   0.000000
     4  H    0.000000  -0.000000   0.000000   0.000000   0.000000   0.000000
     5  C    0.000000  -0.000000   0.000000  -0.000000   0.000000  -0.000000
     6  C   -0.000000   0.000000  -0.000000  -0.000000  -0.000000  -0.000000
     7  H    0.000000   0.000000  -0.000000  -0.000000  -0.000000   0.000000
     8  H    0.000000   0.000000   0.000000   0.000000  -0.000000  -0.000000
     9  C    0.000000   0.000000  -0.000000   0.000000   0.000000   0.000000
    10  H   -0.000000   0.000000  -0.000000  -0.000000   0.000000  -0.000000
    11  H   -0.000000   0.000000  -0.000000  -0.000000  -0.000000  -0.000000
    12  C   -0.000000  -0.000000  -0.000000   0.000000   0.000000  -0.000000
    13  H   -0.000000   0.000000   0.000000  -0.000000  -0.000000   0.000000
    14  C    0.000000   0.000000   0.000000  -0.000000   0.000000  -0.000000
    15  H    0.000000   0.000000  -0.000000   0.000000  -0.000000   0.000000
    16  C   -0.000000  -0.000000   0.000000   0.000000  -0.000000  -0.000000
    17  H   -0.000000   0.000000  -0.000000  -0.000000  -0.000000   0.000000
    18  H    0.000000  -0.000000   0.000000  -0.000000   0.000000  -0.000000
    19  C   -0.000000  -0.000000   0.000000  -0.000000   0.000000  -0.000000
    20  H   -0.000000   0.000000  -0.000000   0.000000  -0.000000   0.000000
    21  C   -0.000000   0.000000  -0.000000   0.000000  -0.000000   0.000000
    22  H   -0.000000   0.000000  -0.000000   0.000000  -0.000000   0.000000
    23  C    0.000000   0.000000   0.000000  -0.000000  -0.000000   0.000000
    24  H   -0.000000  -0.000000  -0.000000  -0.000000   0.000000   0.000000
    25  H    0.000000  -0.000000   0.000000  -0.000000   0.000000  -0.000000
    26  C   -0.000000   0.000000  -0.000000  -0.000000   0.000000   0.000000
    27  H   -0.000000   0.000000  -0.000000  -0.000000   0.000000   0.000000
    28  H    0.000000  -0.000000   0.000000  -0.000000   0.000000  -0.000000
              19         20         21         22         23         24
     1  C    0.000000  -0.000000   0.000000  -0.000000  -0.000000  -0.000000
     2  C   -0.000000   0.000000  -0.000000   0.000000  -0.000000  -0.000000
     3  H   -0.000000   0.000000   0.000000  -0.000000   0.000000  -0.000000
     4  H   -0.000000   0.000000  -0.000000  -0.000000  -0.000000  -0.000000
[...]
     1  C   -0.000000   0.000000   0.000000  -0.000000
     2  C   -0.000000   0.000000   0.000000   0.000000
     3  H    0.000000  -0.000000  -0.000000   0.000000
     4  H    0.000000  -0.000000   0.000000   0.000000
     5  C   -0.000000   0.000000   0.000000  -0.000000
     6  C    0.000000  -0.000000   0.000000   0.000000
     7  H    0.000000  -0.000000  -0.000000   0.000000
     8  H   -0.000000  -0.000000  -0.000000  -0.000000
     9  C    0.000000   0.000000  -0.000000   0.000000
    10  H   -0.000000   0.000000   0.000000  -0.000000
    11  H   -0.000000  -0.000000  -0.000000  -0.000000
    12  C    0.000000  -0.000000  -0.000000   0.000000
    13  H    0.000000  -0.000000  -0.000000   0.000000
    14  C   -0.000000   0.000000   0.000000  -0.000000
    15  H    0.000000  -0.000000  -0.000000   0.000000
    16  C   -0.000000  -0.000000  -0.000000  -0.000000
    17  H    0.000000   0.000000   0.000000   0.000000
    18  H   -0.000000   0.000000   0.000000  -0.000000
    19  C    0.000000   0.000000   0.000000  -0.000000
    20  H    0.000000   0.000000  -0.000000   0.000000
    21  C    0.000000  -0.000000   0.000000  -0.000000
    22  H    0.000000   0.000000  -0.000000   0.000000
    23  C    0.000000  -0.000000  -0.000000  -0.000000
    24  H    0.000000   0.000000   0.000000   0.000000
    25  H   -0.000000   0.000000   0.000000  -0.000000
    26  C    0.000000  -0.000000   0.000000   0.000000
    27  H    0.000000   0.000000   0.000000  -0.000000
    28  H   -0.000000   0.000000  -0.000000   0.000000
 Mulliken charges and spin densities:
               1          2
     1  C   -0.210466  -0.000000
     2  C   -0.182390   0.000000
     3  H    0.142217   0.000000
     4  H    0.157732  -0.000000
     5  C   -0.168466  -0.000000
     6  C   -0.182447  -0.000000
     7  H    0.151925   0.000000
     8  H    0.157851   0.000000
     9  C   -0.190889  -0.000000
    10  H    0.117973   0.000000
    11  H    0.133108   0.000000
    12  C   -0.156177   0.000000
    13  H    0.145684  -0.000000
    14  C   -0.210384   0.000000
    15  H    0.142209  -0.000000
    16  C   -0.175107   0.000000
    17  H    0.109587  -0.000000
    18  H    0.125137  -0.000000
    19  C   -0.168441  -0.000000
    20  H    0.151932  -0.000000
    21  C   -0.156115   0.000000
    22  H    0.145671   0.000000
    23  C   -0.190815   0.000000
    24  H    0.133026  -0.000000
    25  H    0.117987  -0.000000
    26  C   -0.175050  -0.000000
    27  H    0.125146   0.000000
    28  H    0.109564   0.000000
 Sum of Mulliken charges =  -0.00000   0.00000
 Mulliken charges and spin densities with hydrogens summed into heavy atoms:
               1          2
     1  C   -0.068249  -0.000000
     2  C   -0.024659   0.000000
     5  C   -0.016541   0.000000
     6  C   -0.024595  -0.000000
     9  C    0.060192  -0.000000
    12  C   -0.010493  -0.000000
    14  C   -0.068176   0.000000
    16  C    0.059617   0.000000
    19  C   -0.016509  -0.000000
    21  C   -0.010445   0.000000
    23  C    0.060198   0.000000
    26  C    0.059660  -0.000000
 Electronic spatial extent (au):  <R**2>=           2335.5474
 Charge=              0.0000 electrons
 Dipole moment (field-independent basis, Debye):
    X=             -0.0001    Y=              0.0003    Z=              0.0002  Tot=              0.0003
 Quadrupole moment (field-independent basis, Debye-Ang):
   XX=            -72.6329   YY=            -69.7743   ZZ=            -76.6318
   XY=             -3.2512   XZ=             -3.9384   YZ=             -1.7208
 Traceless Quadrupole moment (field-independent basis, Debye-Ang):
   XX=              0.3801   YY=              3.2387   ZZ=             -3.6188
   XY=             -3.2512   XZ=             -3.9384   YZ=             -1.7208
 Octapole moment (field-independent basis, Debye-Ang**2):
  XXX=             -0.0054  YYY=              0.0023  ZZZ=              0.0003  XYY=              0.0019
  XXY=              0.0015  XXZ=              0.0002  XZZ=             -0.0005  YZZ=              0.0004
  YYZ=              0.0006  XYZ=              0.0008
 Hexadecapole moment (field-independent basis, Debye-Ang**3):
 XXXX=          -2125.6559 YYYY=           -628.9978 ZZZZ=           -447.7686 XXXY=           -119.9889
 XXXZ=           -169.8732 YYYX=            -70.0163 YYYZ=             -9.1417 ZZZX=           -113.5759
 ZZZY=            -22.0575 XXYY=           -454.2930 XXZZ=           -447.7404 YYZZ=           -194.6652
 XXYZ=            -26.1729 YYXZ=            -40.6671 ZZXY=            -47.7614
 N-N= 6.716488906263D+02 E-N=-2.425040116345D+03  KE= 4.641511331277D+02
                          Isotropic Fermi Contact Couplings
        Atom                 a.u.       MegaHertz       Gauss      10(-4) cm-1
     1  C(13)             -0.00000      -0.00002      -0.00001      -0.00001
     2  C(13)             -0.00000      -0.00000      -0.00000      -0.00000
     3  H(1)               0.00000       0.00001       0.00000       0.00000
     4  H(1)              -0.00000      -0.00000      -0.00000      -0.00000
     5  C(13)             -0.00000      -0.00003      -0.00001      -0.00001
     6  C(13)              0.00000       0.00001       0.00000       0.00000
     7  H(1)               0.00000       0.00006       0.00002       0.00002
     8  H(1)              -0.00000      -0.00000      -0.00000      -0.00000
     9  C(13)             -0.00000      -0.00010      -0.00004      -0.00003
    10  H(1)               0.00000       0.00005       0.00002       0.00002
    11  H(1)               0.00000       0.00007       0.00002       0.00002
    12  C(13)              0.00000       0.00003       0.00001       0.00001
    13  H(1)              -0.00000      -0.00005      -0.00002      -0.00002
    14  C(13)              0.00000       0.00001       0.00000       0.00000
    15  H(1)              -0.00000      -0.00001      -0.00000      -0.00000
    16  C(13)              0.00000       0.00006       0.00002       0.00002
    17  H(1)              -0.00000      -0.00001      -0.00000      -0.00000
    18  H(1)              -0.00000      -0.00001      -0.00000      -0.00000
    19  C(13)              0.00000       0.00002       0.00001       0.00001
    20  H(1)              -0.00000      -0.00006      -0.00002      -0.00002
    21  C(13)             -0.00000      -0.00002      -0.00001      -0.00001
    22  H(1)               0.00000       0.00005       0.00002       0.00002
    23  C(13)              0.00000       0.00010       0.00003       0.00003
    24  H(1)              -0.00000      -0.00007      -0.00002      -0.00002
    25  H(1)              -0.00000      -0.00004      -0.00002      -0.00001
    26  C(13)             -0.00000      -0.00006      -0.00002      -0.00002
    27  H(1)               0.00000       0.00001       0.00000       0.00000
    28  H(1)               0.00000       0.00001       0.00000       0.00000
 --------------------------------------------------------
       Center         ----  Spin Dipole Couplings  ----
                      3XX-RR        3YY-RR        3ZZ-RR
 --------------------------------------------------------
     1   Atom       -0.000000      0.000000      0.000000
     2   Atom        0.000000     -0.000000     -0.000000
     3   Atom        0.000000      0.000000     -0.000000
     4   Atom       -0.000000     -0.000000      0.000000
     5   Atom       -0.000000     -0.000000      0.000000
     6   Atom       -0.000000      0.000000      0.000000
     7   Atom        0.000000     -0.000000      0.000000
     8   Atom        0.000000      0.000000     -0.000000
     9   Atom       -0.000000      0.000000     -0.000000
    10   Atom        0.000000      0.000000     -0.000000
    11   Atom        0.000000     -0.000000      0.000000
    12   Atom        0.000000      0.000000     -0.000000
    13   Atom       -0.000000      0.000000     -0.000000
    14   Atom        0.000000     -0.000000     -0.000000
    15   Atom       -0.000000     -0.000000      0.000000
    16   Atom        0.000000     -0.000000      0.000000
    17   Atom       -0.000000     -0.000000      0.000000
    18   Atom        0.000000      0.000000     -0.000000
    19   Atom        0.000000      0.000000     -0.000000
    20   Atom       -0.000000      0.000000     -0.000000
    21   Atom       -0.000000     -0.000000      0.000000
    22   Atom        0.000000     -0.000000      0.000000
    23   Atom        0.000000     -0.000000      0.000000
    24   Atom       -0.000000      0.000000     -0.000000
    25   Atom       -0.000000     -0.000000      0.000000
    26   Atom       -0.000000      0.000000     -0.000000
    27   Atom       -0.000000     -0.000000      0.000000
    28   Atom        0.000000      0.000000     -0.000000
 --------------------------------------------------------
                        XY            XZ            YZ
 --------------------------------------------------------
     1   Atom        0.000000     -0.000000      0.000000
     2   Atom        0.000000      0.000000      0.000000
     3   Atom       -0.000000      0.000000      0.000000
     4   Atom       -0.000000     -0.000000      0.000000
     5   Atom        0.000000     -0.000000     -0.000000
     6   Atom       -0.000000     -0.000000     -0.000000
     7   Atom        0.000000      0.000000     -0.000000
     8   Atom        0.000000      0.000000     -0.000000
     9   Atom       -0.000000      0.000000      0.000000
    10   Atom        0.000000     -0.000000      0.000000
    11   Atom       -0.000000     -0.000000     -0.000000
    12   Atom        0.000000      0.000000     -0.000000
    13   Atom        0.000000     -0.000000     -0.000000
    14   Atom       -0.000000      0.000000     -0.000000
    15   Atom       -0.000000     -0.000000     -0.000000
    16   Atom       -0.000000     -0.000000     -0.000000
    17   Atom        0.000000      0.000000      0.000000
    18   Atom       -0.000000      0.000000     -0.000000
    19   Atom       -0.000000     -0.000000      0.000000
    20   Atom       -0.000000     -0.000000      0.000000
    21   Atom        0.000000      0.000000      0.000000
    22   Atom        0.000000      0.000000      0.000000
    23   Atom        0.000000     -0.000000     -0.000000
    24   Atom        0.000000      0.000000      0.000000
    25   Atom       -0.000000      0.000000     -0.000000
    26   Atom        0.000000      0.000000      0.000000
    27   Atom        0.000000     -0.000000      0.000000
    28   Atom       -0.000000     -0.000000     -0.000000
 --------------------------------------------------------


 ---------------------------------------------------------------------------------
              Anisotropic Spin Dipole Couplings in Principal Axis System
 ---------------------------------------------------------------------------------

       Atom             a.u.   MegaHertz   Gauss  10(-4) cm-1        Axes

              Baa    -0.0000    -0.000    -0.000    -0.000  0.7928 -0.1769  0.5833
     1 C(13)  Bbb     0.0000     0.000     0.000     0.000  0.3571  0.9103 -0.2092
              Bcc     0.0000     0.000     0.000     0.000 -0.4940  0.3742  0.7848
 
              Baa    -0.0000    -0.000    -0.000    -0.000  0.6074 -0.5569 -0.5665
     2 C(13)  Bbb    -0.0000    -0.000    -0.000    -0.000  0.1736  0.7890 -0.5894
              Bcc     0.0000     0.000     0.000     0.000  0.7752  0.2597  0.5759
 
              Baa    -0.0000    -0.000    -0.000    -0.000 -0.3747 -0.1647  0.9124
     3 H(1)   Bbb     0.0000     0.000     0.000     0.000  0.8122 -0.5329  0.2374
              Bcc     0.0000     0.000     0.000     0.000  0.4471  0.8300  0.3334
 
              Baa    -0.0000    -0.000    -0.000    -0.000 -0.1910  0.9499 -0.2474
     4 H(1)   Bbb    -0.0000    -0.000    -0.000    -0.000  0.8664  0.2816  0.4123
              Bcc     0.0000     0.000     0.000     0.000 -0.4613  0.1356  0.8768
 
              Baa    -0.0000    -0.000    -0.000    -0.000 -0.6304  0.7758  0.0281
     5 C(13)  Bbb    -0.0000    -0.000    -0.000    -0.000  0.7754  0.6276  0.0695
              Bcc     0.0000     0.000     0.000     0.000 -0.0363 -0.0657  0.9972
 
              Baa    -0.0000    -0.000    -0.000    -0.000  0.8572  0.2845  0.4292
     6 C(13)  Bbb     0.0000     0.000     0.000     0.000 -0.1002  0.9097 -0.4030
              Bcc     0.0000     0.000     0.000     0.000 -0.5051  0.3025  0.8083
 
              Baa    -0.0000    -0.000    -0.000    -0.000 -0.4687  0.8493  0.2430
     7 H(1)   Bbb     0.0000     0.000     0.000     0.000  0.8337  0.5162 -0.1962
              Bcc     0.0000     0.000     0.000     0.000  0.2921 -0.1106  0.9500
 
              Baa    -0.0000    -0.000    -0.000    -0.000 -0.3935  0.1760  0.9023
     8 H(1)   Bbb     0.0000     0.000     0.000     0.000 -0.0417  0.9771 -0.2088
              Bcc     0.0000     0.000     0.000     0.000  0.9184  0.1198  0.3772
 
              Baa    -0.0000    -0.000    -0.000    -0.000  0.7959  0.3347 -0.5044
     9 C(13)  Bbb    -0.0000    -0.000    -0.000    -0.000  0.4189  0.2970  0.8581
              Bcc     0.0000     0.000     0.000     0.000 -0.4371  0.8943 -0.0962
 
              Baa    -0.0000    -0.000    -0.000    -0.000  0.5068 -0.1055  0.8556
    10 H(1)   Bbb     0.0000     0.000     0.000     0.000 -0.4619  0.8048  0.3729
              Bcc     0.0000     0.000     0.000     0.000  0.7279  0.5842 -0.3591
 
              Baa    -0.0000    -0.000    -0.000    -0.000  0.5591  0.8213  0.1134
    11 H(1)   Bbb     0.0000     0.000     0.000     0.000 -0.2468  0.0343  0.9685
              Bcc     0.0000     0.000     0.000     0.000  0.7915 -0.5695  0.2219
 
              Baa    -0.0000    -0.000    -0.000    -0.000 -0.0642  0.1271  0.9898
    12 C(13)  Bbb     0.0000     0.000     0.000     0.000  0.1286  0.9846 -0.1181
              Bcc     0.0000     0.000     0.000     0.000  0.9896 -0.1197  0.0795
 
              Baa    -0.0000    -0.000    -0.000    -0.000  0.1973  0.3360  0.9210
    13 H(1)   Bbb    -0.0000    -0.000    -0.000    -0.000  0.9672 -0.2200 -0.1269
              Bcc     0.0000     0.000     0.000     0.000  0.1600  0.9158 -0.3684
 
              Baa    -0.0000    -0.000    -0.000    -0.000 -0.4146  0.3094  0.8558
    14 C(13)  Bbb    -0.0000    -0.000    -0.000    -0.000  0.3319  0.9271 -0.1743
              Bcc     0.0000     0.000     0.000     0.000  0.8473 -0.2117  0.4871
 
              Baa    -0.0000    -0.000    -0.000    -0.000  0.8821  0.3083  0.3562
    15 H(1)   Bbb    -0.0000    -0.000    -0.000    -0.000 -0.3500  0.9350  0.0574
              Bcc     0.0000     0.000     0.000     0.000 -0.3154 -0.1753  0.9326
 
              Baa    -0.0000    -0.000    -0.000    -0.000  0.1185  0.9880  0.0987
    16 C(13)  Bbb    -0.0000    -0.000    -0.000    -0.000  0.6838 -0.1533  0.7134
              Bcc     0.0000     0.000     0.000     0.000  0.7200 -0.0171 -0.6938
 
              Baa    -0.0000    -0.000    -0.000    -0.000 -0.2155  0.9545 -0.2060
    17 H(1)   Bbb    -0.0000    -0.000    -0.000    -0.000  0.8429  0.0754 -0.5327
              Bcc     0.0000     0.000     0.000     0.000  0.4930  0.2885  0.8208
 
              Baa    -0.0000    -0.000    -0.000    -0.000  0.5930  0.6710  0.4451
    18 H(1)   Bbb    -0.0000    -0.000    -0.000    -0.000 -0.4726 -0.1575  0.8671
              Bcc     0.0000     0.000     0.000     0.000 -0.6519  0.7245 -0.2238
 
              Baa    -0.0000    -0.000    -0.000    -0.000  0.0839 -0.0032  0.9965
    19 C(13)  Bbb     0.0000     0.000     0.000     0.000  0.8625  0.5011 -0.0710
              Bcc     0.0000     0.000     0.000     0.000 -0.4991  0.8654  0.0448
 
              Baa    -0.0000    -0.000    -0.000    -0.000  0.4028 -0.0525  0.9138
    20 H(1)   Bbb    -0.0000    -0.000    -0.000    -0.000  0.8070  0.4915 -0.3274
              Bcc     0.0000     0.000     0.000     0.000 -0.4320  0.8693  0.2403
 
              Baa    -0.0000    -0.000    -0.000    -0.000  0.1131  0.9886 -0.0997
    21 C(13)  Bbb    -0.0000    -0.000    -0.000    -0.000  0.9918 -0.1183 -0.0481
              Bcc     0.0000     0.000     0.000     0.000  0.0594  0.0934  0.9939
 
              Baa    -0.0000    -0.000    -0.000    -0.000  0.0573  0.9342 -0.3520
    22 H(1)   Bbb     0.0000     0.000     0.000     0.000  0.9365 -0.1724 -0.3052
              Bcc     0.0000     0.000     0.000     0.000  0.3459  0.3122  0.8848
 
              Baa    -0.0000    -0.000    -0.000    -0.000 -0.4320  0.8974 -0.0897
    23 C(13)  Bbb     0.0000     0.000     0.000     0.000  0.4176  0.2872  0.8620
              Bcc     0.0000     0.000     0.000     0.000  0.7994  0.3349 -0.4989
 
              Baa    -0.0000    -0.000    -0.000    -0.000  0.7836 -0.5525  0.2843
    24 H(1)   Bbb    -0.0000    -0.000    -0.000    -0.000 -0.2991  0.0655  0.9520
              Bcc     0.0000     0.000     0.000     0.000  0.5446  0.8309  0.1139
 
              Baa    -0.0000    -0.000    -0.000    -0.000  0.7352  0.5668 -0.3716
    25 H(1)   Bbb    -0.0000    -0.000    -0.000    -0.000 -0.4381  0.8158  0.3776
              Bcc     0.0000     0.000     0.000     0.000  0.5172 -0.1148  0.8481
 
              Baa    -0.0000    -0.000    -0.000    -0.000  0.7211 -0.0146 -0.6927
    26 C(13)  Bbb     0.0000     0.000     0.000     0.000  0.6834 -0.1493  0.7146
              Bcc     0.0000     0.000     0.000     0.000  0.1138  0.9887  0.0977
 
              Baa    -0.0000    -0.000    -0.000    -0.000 -0.6295  0.7421 -0.2304
    27 H(1)   Bbb     0.0000     0.000     0.000     0.000 -0.5532 -0.2197  0.8035
              Bcc     0.0000     0.000     0.000     0.000  0.5456  0.6333  0.5488
 
              Baa    -0.0000    -0.000    -0.000    -0.000  0.5039  0.3117  0.8055
    28 H(1)   Bbb     0.0000     0.000     0.000     0.000  0.6596  0.4632 -0.5919
              Bcc     0.0000     0.000     0.000     0.000 -0.5577  0.8296  0.0278
 

 ---------------------------------------------------------------------------------

 No NMR shielding tensors so no spin-rotation constants.
 Leave Link  601 at Mon Aug  3 14:17:49 2020, MaxMem=  6442450944 cpu:               8.0 elap:               0.4
 (Enter /scratch/scicomp/CentOS/7.3.1611/Haswell/software/Gaussian/g16/l9999.exe)
 1\1\GINC-ATLAS-205\SP\UwB97XD\def2TZVP\C12H16\BOCHEN\03-Aug-2020\0\\#p
  uwb97xd guess=mix def2tzvp # scrf=(iefpcm,solvent=Cyclohexane,read) n
 osym 6d 10f\\endo-2 xp-pcm for eta=3\\0,1\C,0,-3.123434,-0.440315,0.27
 5397\C,0,-0.786456,-0.26471,-1.317722\H,0,-4.049438,-0.523755,0.832457
 \H,0,0.147212,-0.188449,-1.861678\C,0,1.206095,1.43479,0.844539\C,0,0.
 786456,0.26471,1.317722\H,0,0.616717,2.332368,0.990121\H,0,-0.147212,0
 .188449,1.861678\C,0,1.615689,-0.97881,1.173085\H,0,2.198299,-1.101438
 ,2.095398\H,0,0.967232,-1.853572,1.105075\C,0,2.475417,1.533757,0.1222
 89\H,0,2.875313,2.517075,-0.094658\C,0,3.123434,0.440315,-0.275397\H,0
 ,4.049438,0.523755,-0.832457\C,0,2.559757,-0.933106,-0.031997\H,0,2.02
 6432,-1.249959,-0.936638\H,0,3.36718,-1.654954,0.10431\C,0,-1.206095,-
 1.43479,-0.844539\H,0,-0.616717,-2.332368,-0.990121\C,0,-2.475417,-1.5
 33757,-0.122289\H,0,-2.875313,-2.517076,0.094658\C,0,-1.615689,0.97881
 ,-1.173085\H,0,-0.967232,1.853572,-1.105075\H,0,-2.198299,1.101438,-2.
 095398\C,0,-2.559757,0.933106,0.031997\H,0,-3.36718,1.654954,-0.10431\
 H,0,-2.026432,1.249959,0.936638\\Version=ES64L-G16RevB.01\HF=-466.8593
 105\S2=0.\S2-1=0.\S2A=0.\RMSD=2.992e-09\Dipole=-0.0000333,0.0001089,0.
 0000768\Quadrupole=0.2826028,2.4078915,-2.6904943,-2.4172138,-2.928118
 1,-1.2793443\PG=CI [X(C12H16)]\\@


 DEPRESSION IS WAITING FOR YOUR SHIP TO COME IN,
 AND FINDING OUT IT'S THE TITANIC.
 Job cpu time:       0 days  2 hours  4 minutes 38.0 seconds.
 Elapsed time:       0 days  0 hours  5 minutes 14.8 seconds.
 File lengths (MBytes):  RWF=    634 Int=      0 D2E=      0 Chk=     23 Scr=      1
 Normal termination of Gaussian 16 at Mon Aug  3 14:17:49 2020.
