 Entering Gaussian System, Link 0=g16
 Input=meso-TS_88_2_pcm.com
 Output=meso-TS_88_2_pcm.log
 Initial command:
 /scratch/scicomp/CentOS/7.3.1611/Haswell/software/Gaussian/g16/l1.exe "/scratch/bochen/cyclohexadiene-dimerization/wb97xd-def2tzvp/xp-pcm/meso/Gau-9092.inp" -scrdir="/scratch/bochen/cyclohexadiene-dimerization/wb97xd-def2tzvp/xp-pcm/meso/"
 Entering Link 1 = /scratch/scicomp/CentOS/7.3.1611/Haswell/software/Gaussian/g16/l1.exe PID=      9093.
  
 Copyright (c) 1988-2017, Gaussian, Inc.  All Rights Reserved.
  
 This is part of the Gaussian(R) 16 program.  It is based on
 the Gaussian(R) 09 system (copyright 2009, Gaussian, Inc.),
 the Gaussian(R) 03 system (copyright 2003, Gaussian, Inc.),
 the Gaussian(R) 98 system (copyright 1998, Gaussian, Inc.),
 the Gaussian(R) 94 system (copyright 1995, Gaussian, Inc.),
 the Gaussian 92(TM) system (copyright 1992, Gaussian, Inc.),
 the Gaussian 90(TM) system (copyright 1990, Gaussian, Inc.),
 the Gaussian 88(TM) system (copyright 1988, Gaussian, Inc.),
 the Gaussian 86(TM) system (copyright 1986, Carnegie Mellon
 University), and the Gaussian 82(TM) system (copyright 1983,
 Carnegie Mellon University). Gaussian is a federally registered
 trademark of Gaussian, Inc.
  
 This software contains proprietary and confidential information,
 including trade secrets, belonging to Gaussian, Inc.
  
 This software is provided under written license and may be
 used, copied, transmitted, or stored only in accord with that
 written license.
  
 The following legend is applicable only to US Government
 contracts under FAR:
  
                    RESTRICTED RIGHTS LEGEND
  
 Use, reproduction and disclosure by the US Government is
 subject to restrictions as set forth in subparagraphs (a)
 and (c) of the Commercial Computer Software - Restricted
 Rights clause in FAR 52.227-19.
  
 Gaussian, Inc.
 340 Quinnipiac St., Bldg. 40, Wallingford CT 06492
  
  
 ---------------------------------------------------------------
 Warning -- This program may not be used in any manner that
 competes with the business of Gaussian, Inc. or will provide
 assistance to any competitor of Gaussian, Inc.  The licensee
 of this program is prohibited from giving any competitor of
 Gaussian, Inc. access to this program.  By using this program,
 the user acknowledges that Gaussian, Inc. is engaged in the
 business of creating and licensing software in the field of
 computational chemistry and represents and warrants to the
 licensee that it is not a competitor of Gaussian, Inc. and that
 it will not use this program in any manner prohibited above.
 ---------------------------------------------------------------
  

 Cite this work as:
 Gaussian 16, Revision B.01,
 M. J. Frisch, G. W. Trucks, H. B. Schlegel, G. E. Scuseria, 
 M. A. Robb, J. R. Cheeseman, G. Scalmani, V. Barone, 
 G. A. Petersson, H. Nakatsuji, X. Li, M. Caricato, A. V. Marenich, 
 J. Bloino, B. G. Janesko, R. Gomperts, B. Mennucci, H. P. Hratchian, 
 J. V. Ortiz, A. F. Izmaylov, J. L. Sonnenberg, D. Williams-Young, 
 F. Ding, F. Lipparini, F. Egidi, J. Goings, B. Peng, A. Petrone, 
 T. Henderson, D. Ranasinghe, V. G. Zakrzewski, J. Gao, N. Rega, 
 G. Zheng, W. Liang, M. Hada, M. Ehara, K. Toyota, R. Fukuda, 
 J. Hasegawa, M. Ishida, T. Nakajima, Y. Honda, O. Kitao, H. Nakai, 
 T. Vreven, K. Throssell, J. A. Montgomery, Jr., J. E. Peralta, 
 F. Ogliaro, M. J. Bearpark, J. J. Heyd, E. N. Brothers, K. N. Kudin, 
 V. N. Staroverov, T. A. Keith, R. Kobayashi, J. Normand, 
 K. Raghavachari, A. P. Rendell, J. C. Burant, S. S. Iyengar, 
 J. Tomasi, M. Cossi, J. M. Millam, M. Klene, C. Adamo, R. Cammi, 
 J. W. Ochterski, R. L. Martin, K. Morokuma, O. Farkas, 
 J. B. Foresman, and D. J. Fox, Gaussian, Inc., Wallingford CT, 2016.
 
 ******************************************
 Gaussian 16:  ES64L-G16RevB.01 20-Dec-2017
                 3-Aug-2020 
 ******************************************
 %nproc=24
 Will use up to   24 processors via shared memory.
 %mem=48GB
 ----------------------------------------------------------------------
 #p uwb97xd guess=mix def2tzvp # scrf=(iefpcm,solvent=Cyclohexane,read)
  nosym 6d 10f
 ----------------------------------------------------------------------
 1/38=1,40=2,172=1/1;
 2/12=2,15=1,17=6,18=5,40=1/2;
 3/5=44,7=101,8=22,11=2,25=1,30=1,70=2203,72=17,74=-58,116=2/1,2,3;
 4/13=-1/1;
 5/5=2,38=5,53=17/2;
 6/7=2,8=2,9=2,10=2,28=1/1;
 99/5=1,9=1/99;
 Leave Link    1 at Mon Aug  3 13:37:11 2020, MaxMem=  6442450944 cpu:               2.0 elap:               0.1
 (Enter /scratch/scicomp/CentOS/7.3.1611/Haswell/software/Gaussian/g16/l101.exe)
 -----------------------
 endo-2 xp-pcm for eta=3
 -----------------------
 Symbolic Z-matrix:
 Charge =  0 Multiplicity = 1
 6                    -3.10074  -0.43673   0.29582 
 6                    -0.85798  -0.28632  -1.42891 
 1                    -3.99899  -0.5072    0.89819 
 1                     0.04492  -0.22043  -2.02422 
 6                     1.25679   1.45045   0.9223 
 6                     0.85798   0.28632   1.42891 
 1                     0.67993   2.35239   1.08982 
 1                    -0.04492   0.22043   2.02422 
 6                     1.67802  -0.95902   1.24721 
 1                     2.33356  -1.06405   2.12193 
 1                     1.03075  -1.83759   1.24221 
 6                     2.49165   1.53793   0.14061 
 1                     2.89475   2.51704  -0.08896 
 6                     3.10074   0.43673  -0.29582 
 1                     3.99899   0.5072   -0.89819 
 6                     2.52005  -0.9251   -0.0297 
 1                     1.89813  -1.20658  -0.88823 
 1                     3.31245  -1.67345   0.02771 
 6                    -1.25679  -1.45045  -0.9223 
 1                    -0.67993  -2.35239  -1.08982 
 6                    -2.49165  -1.53793  -0.14061 
 1                    -2.89475  -2.51704   0.08896 
 6                    -1.67802   0.95902  -1.24721 
 1                    -1.03075   1.83759  -1.24221 
 1                    -2.33356   1.06405  -2.12193 
 6                    -2.52005   0.9251    0.0297 
 1                    -3.31245   1.67345  -0.02771 
 1                    -1.89813   1.20658   0.88823 
 
 ITRead=  0  0  0  0  0  0  0  0  0  0  0  0  0  0  0  0  0  0  0  0
 ITRead=  0  0  0  0  0  0  0  0
 MicOpt= -1 -1 -1 -1 -1 -1 -1 -1 -1 -1 -1 -1 -1 -1 -1 -1 -1 -1 -1 -1
 MicOpt= -1 -1 -1 -1 -1 -1 -1 -1
 NAtoms=     28 NQM=       28 NQMF=       0 NMMI=      0 NMMIF=      0
                NMic=       0 NMicF=      0.
                    Isotopes and Nuclear Properties:
 (Nuclear quadrupole moments (NQMom) in fm**2, nuclear magnetic moments (NMagM)
  in nuclear magnetons)

  Atom         1           2           3           4           5           6           7           8           9          10
 IAtWgt=          12          12           1           1          12          12           1           1          12           1
 AtmWgt=  12.0000000  12.0000000   1.0078250   1.0078250  12.0000000  12.0000000   1.0078250   1.0078250  12.0000000   1.0078250
 NucSpn=           0           0           1           1           0           0           1           1           0           1
 AtZEff=  -0.0000000  -0.0000000  -0.0000000  -0.0000000  -0.0000000  -0.0000000  -0.0000000  -0.0000000  -0.0000000  -0.0000000
 NQMom=    0.0000000   0.0000000   0.0000000   0.0000000   0.0000000   0.0000000   0.0000000   0.0000000   0.0000000   0.0000000
 NMagM=    0.0000000   0.0000000   2.7928460   2.7928460   0.0000000   0.0000000   2.7928460   2.7928460   0.0000000   2.7928460
 AtZNuc=   6.0000000   6.0000000   1.0000000   1.0000000   6.0000000   6.0000000   1.0000000   1.0000000   6.0000000   1.0000000

  Atom        11          12          13          14          15          16          17          18          19          20
 IAtWgt=           1          12           1          12           1          12           1           1          12           1
 AtmWgt=   1.0078250  12.0000000   1.0078250  12.0000000   1.0078250  12.0000000   1.0078250   1.0078250  12.0000000   1.0078250
 NucSpn=           1           0           1           0           1           0           1           1           0           1
 AtZEff=  -0.0000000  -0.0000000  -0.0000000  -0.0000000  -0.0000000  -0.0000000  -0.0000000  -0.0000000  -0.0000000  -0.0000000
 NQMom=    0.0000000   0.0000000   0.0000000   0.0000000   0.0000000   0.0000000   0.0000000   0.0000000   0.0000000   0.0000000
 NMagM=    2.7928460   0.0000000   2.7928460   0.0000000   2.7928460   0.0000000   2.7928460   2.7928460   0.0000000   2.7928460
 AtZNuc=   1.0000000   6.0000000   1.0000000   6.0000000   1.0000000   6.0000000   1.0000000   1.0000000   6.0000000   1.0000000

  Atom        21          22          23          24          25          26          27          28
 IAtWgt=          12           1          12           1           1          12           1           1
 AtmWgt=  12.0000000   1.0078250  12.0000000   1.0078250   1.0078250  12.0000000   1.0078250   1.0078250
 NucSpn=           0           1           0           1           1           0           1           1
 AtZEff=  -0.0000000  -0.0000000  -0.0000000  -0.0000000  -0.0000000  -0.0000000  -0.0000000  -0.0000000
 NQMom=    0.0000000   0.0000000   0.0000000   0.0000000   0.0000000   0.0000000   0.0000000   0.0000000
 NMagM=    0.0000000   2.7928460   0.0000000   2.7928460   2.7928460   0.0000000   2.7928460   2.7928460
 AtZNuc=   6.0000000   1.0000000   6.0000000   1.0000000   1.0000000   6.0000000   1.0000000   1.0000000
 Leave Link  101 at Mon Aug  3 13:37:11 2020, MaxMem=  6442450944 cpu:               2.4 elap:               0.1
 (Enter /scratch/scicomp/CentOS/7.3.1611/Haswell/software/Gaussian/g16/l202.exe)
                          Input orientation:                          
 ---------------------------------------------------------------------
 Center     Atomic      Atomic             Coordinates (Angstroms)
 Number     Number       Type             X           Y           Z
 ---------------------------------------------------------------------
      1          6           0       -3.100740   -0.436725    0.295815
      2          6           0       -0.857979   -0.286324   -1.428905
      3          1           0       -3.998989   -0.507198    0.898194
      4          1           0        0.044923   -0.220426   -2.024218
      5          6           0        1.256794    1.450448    0.922302
      6          6           0        0.857979    0.286324    1.428905
      7          1           0        0.679926    2.352386    1.089821
      8          1           0       -0.044923    0.220426    2.024218
      9          6           0        1.678016   -0.959021    1.247210
     10          1           0        2.333558   -1.064055    2.121932
     11          1           0        1.030749   -1.837588    1.242211
     12          6           0        2.491654    1.537925    0.140607
     13          1           0        2.894748    2.517041   -0.088961
     14          6           0        3.100740    0.436725   -0.295815
     15          1           0        3.998989    0.507198   -0.898194
     16          6           0        2.520053   -0.925099   -0.029697
     17          1           0        1.898127   -1.206584   -0.888225
     18          1           0        3.312455   -1.673451    0.027707
     19          6           0       -1.256794   -1.450448   -0.922302
     20          1           0       -0.679926   -2.352386   -1.089821
     21          6           0       -2.491654   -1.537925   -0.140607
     22          1           0       -2.894748   -2.517041    0.088961
     23          6           0       -1.678016    0.959021   -1.247210
     24          1           0       -1.030749    1.837588   -1.242211
     25          1           0       -2.333558    1.064055   -2.121932
     26          6           0       -2.520053    0.925099    0.029697
     27          1           0       -3.312455    1.673451   -0.027707
     28          1           0       -1.898127    1.206584    0.888225
 ---------------------------------------------------------------------
                    Distance matrix (angstroms):
                    1          2          3          4          5
     1  C    0.000000
     2  C    2.833241   0.000000
     3  H    1.083826   3.915370   0.000000
     4  H    3.914656   1.083500   4.997595   0.000000
     5  C    4.789782   3.607883   5.608584   3.597559   0.000000
     6  C    4.180688   3.382235   4.949896   3.583562   1.330746
     7  H    4.764769   3.958778   5.486911   4.088989   1.083666
     8  H    3.571728   3.583562   4.175165   4.073359   2.102770
     9  C    4.900455   3.747717   5.705641   3.730249   2.467496
    10  H    5.767135   4.837274   6.473699   4.810418   2.986848
    11  H    4.463999   3.620576   5.214072   3.775795   3.311287
    12  C    5.932807   4.124475   6.847256   3.710089   1.464096
    13  H    6.694674   4.872090   7.592372   4.400051   2.200720
    14  C    6.290572   4.180688   7.261047   3.571728   2.431374
    15  H    7.261047   4.949896   8.259762   4.175165   3.423968
    16  C    5.651352   3.711727   6.597995   3.255909   2.854006
    17  H    5.194546   2.955560   6.201323   2.386913   3.278587
    18  H    6.536853   4.630158   7.454871   4.122917   3.845099
    19  C    2.431374   1.330746   3.423968   2.102770   4.258625
    20  H    3.383797   2.101260   4.286386   2.437982   4.718164
    21  C    1.331950   2.427985   2.100849   3.423159   4.910296
    22  H    2.100699   3.380598   2.431805   4.287380   5.802648
    23  C    2.520551   1.502118   3.484175   2.227859   3.682580
    24  H    3.438442   2.139090   4.346240   2.450312   3.172987
    25  H    2.947272   2.116871   3.789942   2.704924   4.723059
    26  C    1.504188   2.521419   2.234505   3.479928   3.916288
    27  H    2.145305   3.439262   2.466547   4.341061   4.672289
    28  H    2.120776   2.946146   2.711230   3.780757   3.164515
                    6          7          8          9         10
     6  C    0.000000
     7  H    2.101260   0.000000
     8  H    1.083500   2.437982   0.000000
     9  C    1.502118   3.462134   2.227859   0.000000
    10  H    2.116871   3.933424   2.704924   1.098138   0.000000
    11  H    2.139090   4.207396   2.450312   1.091265   1.752020
    12  C    2.427985   2.201525   3.423159   2.849792   3.274285
    13  H    3.380598   2.514374   4.287380   3.917754   4.245849
    14  C    2.833241   3.383797   3.914656   2.520551   2.947272
    15  H    3.915370   4.286386   4.997595   3.484175   3.789942
    16  C    2.521419   3.921900   3.479928   1.529924   2.164162
    17  H    2.946146   4.250053   3.780757   2.160976   3.044825
    18  H    3.439262   4.926019   4.341061   2.160784   2.390686
    19  C    3.607883   4.718164   3.597559   3.682580   4.723059
    20  H    3.958778   5.360496   4.088989   3.600426   4.588708
    21  C    4.124475   5.167920   3.710089   4.432529   5.350356
    22  H    4.872090   6.123017   4.400051   4.967810   5.794767
    23  C    3.747717   3.600426   3.730249   4.600431   5.615753
    24  H    3.620576   2.937652   3.775795   4.621217   5.572751
    25  H    4.837274   4.588708   4.810418   5.615753   6.657417
    26  C    3.711727   3.660721   3.255909   4.759835   5.647276
    27  H    4.630158   4.201063   4.122917   5.784473   6.632673
    28  H    2.955560   2.828402   2.386913   4.196131   4.958326
                   11         12         13         14         15
    11  H    0.000000
    12  C    3.839513   0.000000
    13  H    4.920295   1.083446   0.000000
    14  C    3.438442   1.331950   2.100699   0.000000
    15  H    4.346240   2.100849   2.431805   1.083826   0.000000
    16  C    2.160651   2.469068   3.462981   1.504188   2.234505
    17  H    2.385219   2.990502   3.936681   2.120776   2.711230
    18  H    2.590008   3.316534   4.212875   2.145305   2.466547
    19  C    3.172987   4.910296   5.802648   4.789782   5.608584
    20  H    2.937652   5.167920   6.123017   4.764769   5.486911
    21  C    3.795959   5.862874   6.742310   5.932807   6.847256
    22  H    4.147429   6.742310   7.674106   6.694674   7.592372
    23  C    4.621217   4.432529   4.967810   4.900455   5.705641
    24  H    4.891732   3.795959   4.147429   4.463999   5.214072
    25  H    5.572751   5.350356   5.794767   5.767135   6.473699
    26  C    4.659488   5.050254   5.645213   5.651352   6.597995
    27  H    5.727435   5.808130   6.264564   6.536853   7.454871
    28  H    4.239175   4.465299   5.063975   5.194546   6.201323
                   16         17         18         19         20
    16  C    0.000000
    17  H    1.096857   0.000000
    18  H    1.091433   1.748491   0.000000
    19  C    3.916288   3.164515   4.672289   0.000000
    20  H    3.660721   2.828402   4.201063   1.083666   0.000000
    21  C    5.050254   4.465299   5.808130   1.464096   2.201525
    22  H    5.645213   5.063975   6.264564   2.200720   2.514374
    23  C    4.759835   4.196131   5.784473   2.467496   3.462134
    24  H    4.659488   4.239175   5.727435   3.311287   4.207396
    25  H    5.647276   4.958326   6.632673   2.986848   3.933424
    26  C    5.369304   4.990688   6.385187   2.854006   3.921900
    27  H    6.385187   6.015418   7.422551   3.845099   4.926019
    28  H    4.990688   4.836393   6.015418   3.278587   4.250053
                   21         22         23         24         25
    21  C    0.000000
    22  H    1.083446   0.000000
    23  C    2.849792   3.917754   0.000000
    24  H    3.839513   4.920295   1.091265   0.000000
    25  H    3.274285   4.245849   1.098138   1.752020   0.000000
    26  C    2.469068   3.462981   1.529924   2.160651   2.164162
    27  H    3.316534   4.212875   2.160784   2.590008   2.390686
    28  H    2.990502   3.936681   2.160976   2.385219   3.044825
                   26         27         28
    26  C    0.000000
    27  H    1.091433   0.000000
    28  H    1.096857   1.748491   0.000000
 Symmetry turned off by external request.
 Stoichiometry    C12H16
 Framework group  CI[X(C12H16)]
 Deg. of freedom    39
 Full point group                 CI      NOp   2
 Rotational constants (GHZ):           1.6353234           0.5653914           0.5259215
 Leave Link  202 at Mon Aug  3 13:37:11 2020, MaxMem=  6442450944 cpu:               0.3 elap:               0.1
 (Enter /scratch/scicomp/CentOS/7.3.1611/Haswell/software/Gaussian/g16/l301.exe)
 Standard basis: def2TZVP (6D, 10F)
 Ernie: Thresh=  0.10000D-02 Tol=  0.10000D-05 Strict=F.
   528 basis functions,   740 primitive gaussians,   528 cartesian basis functions
    44 alpha electrons       44 beta electrons
       nuclear repulsion energy       666.6918323575 Hartrees.
 IExCor= 4639 DFT=T Ex+Corr=wB97XD ExCW=0 ScaHFX=  1.000000
 ScaDFX=  1.000000  1.000000  1.000000  1.000000 ScalE2=  1.000000  1.000000
 IRadAn=      5 IRanWt=     -1 IRanGd=            0 ICorTp=0 IEmpDi=121
 HFx  wShort=  0.000000 wLong=  0.200000 cFull=  0.222036 cShort=  0.000000 cLong=  0.777964
 DFx  wShort=  0.000000 wLong=  0.200000 cFull=  0.000000 cShort=  0.000000 cLong=  1.000000
 NAtoms=   28 NActive=   28 NUniq=   28 SFac= 1.00D+00 NAtFMM=   60 NAOKFM=F Big=F
 Integral buffers will be    131072 words long.
 Raffenetti 2 integral format.
 Two-electron integral symmetry is turned off.
 R6Disp:  Grimme-D2 Dispersion energy=       -0.0204319638 Hartrees.
 Nuclear repulsion after empirical dispersion term =      666.6714003937 Hartrees.
 Using the following non-standard input for PCM:
 norep pcmdoc geomview  nodis nocav g03defaults tsare=0.075
 Warning! Using old PCM defaults because the g03defaults keyword was found.
 These settings can be overridden by following keywords.
 nsfe=28
 NVESolv=36  SolvMW=84.1595   Rsolv=2.815
 eps=2.0165 RhoS=0.7781
 --- end of non-standard input.
 Reading user-defined spheres from input:
 ISph  on   Nord    Re0     Alpha      Xe            Ye            Ze
 --- end of user-defined spheres data.
 ------------------------------------------------------------------------------
 Polarizable Continuum Model (PCM)
 =================================
 Model                : PCM.
 Atomic radii         : UA0 (Simple United Atom Topological Model).
 Polarization charges : Total charges.
 Charge compensation  : None.
 Solution method      : On-the-fly selection.
 Cavity type          : SES (Solvent Excluding Surface) (Alpha=1.000).
 Cavity algorithm     : GePol (RMin=0.200 OFac=0.890).
                        User-defined sphere list used, NSphG=   28.
                        Tesserae with average area of 0.075 Ang**2.
                        Smoothing algorithm: None.
                        Polarization charges: point-like.
                        Self-potential: constant (ISelfS= 1).
                        Self-field    : global E.n sum rule (ISelfD= 3).
 Solvent              : CycloHexane, Eps=   2.016500 Eps(inf)=   2.035188
                        RSolv=   2.815000 Ang.
 ------------------------------------------------------------------------------
 GePol: Number of generator spheres                  =      28
 GePol: Total number of spheres                      =     206
 GePol: Number of exposed spheres                    =     140 ( 67.96%)
 GePol: Number of tesserae                           =    4789
 GePol: Average area of tesserae                     =       0.05 Ang**2
 GePol: Minimum area of tessera                      =   0.10D-02 Ang**2
 GePol: Maximum area of tessera                      =    0.12443 Ang**2
 GePol: Number of small tesserae                     =       0
 GePol: Fraction of small tesserae (<1% of avg)      =       0.00%
 GePol: Total count of vertices                      =   16946
 GePol: Maximum number of vertices in a tessera      =       7
 GePol: Cavity surface area                          =    226.431 Ang**2
 GePol: Cavity volume                                =    260.287 Ang**3
 Leave Link  301 at Mon Aug  3 13:37:12 2020, MaxMem=  6442450944 cpu:               8.8 elap:               0.4
 (Enter /scratch/scicomp/CentOS/7.3.1611/Haswell/software/Gaussian/g16/l302.exe)
 NPDir=0 NMtPBC=     1 NCelOv=     1 NCel=       1 NClECP=     1 NCelD=      1
         NCelK=      1 NCelE2=     1 NClLst=     1 CellRange=     0.0.
 One-electron integrals computed using PRISM.
   1 Symmetry operations used in ECPInt.
 ECPInt:  NShTT=   19306 NPrTT=   56928 LenC2=   18446 LenP2D=   41568.
 LDataN:  DoStor=T MaxTD1= 6 Len=  172
 NBasis=   528 RedAO= T EigKep=  2.12D-05  NBF=   528
 NBsUse=   528 1.00D-06 EigRej= -1.00D+00 NBFU=   528
 Precomputing XC quadrature grid using
 IXCGrd= 4 IRadAn=           5 IRanWt=          -1 IRanGd=           0 AccXCQ= 0.00D+00.
 Generated NRdTot=       0 NPtTot=           0 NUsed=           0 NTot=          32
 NSgBfM=   526   526   526   526   526 MxSgAt=    28 MxSgA2=    28.
 Leave Link  302 at Mon Aug  3 13:37:13 2020, MaxMem=  6442450944 cpu:              13.1 elap:               0.6
 (Enter /scratch/scicomp/CentOS/7.3.1611/Haswell/software/Gaussian/g16/l303.exe)
 DipDrv:  MaxL=1.
 Leave Link  303 at Mon Aug  3 13:37:13 2020, MaxMem=  6442450944 cpu:               1.5 elap:               0.1
 (Enter /scratch/scicomp/CentOS/7.3.1611/Haswell/software/Gaussian/g16/l401.exe)
 ExpMin= 9.52D-02 ExpMax= 1.36D+04 ExpMxC= 4.63D+02 IAcc=3 IRadAn=         5 AccDes= 0.00D+00
 Harris functional with IExCor= 4639 and IRadAn=       5 diagonalized for initial guess.
 HarFok:  IExCor= 4639 AccDes= 0.00D+00 IRadAn=         5 IDoV= 1 UseB2=F ITyADJ=14
 ICtDFT=  3500011 ScaDFX=  1.000000  1.000000  1.000000  1.000000
 FoFCou: FMM=F IPFlag=           0 FMFlag=      100000 FMFlg1=           0
         NFxFlg=           0 DoJE=T BraDBF=F KetDBF=T FulRan=T
         wScrn=  0.000000 ICntrl=       500 IOpCl=  0 I1Cent=   200000004 NGrid=           0
         NMat0=    1 NMatS0=      1 NMatT0=    0 NMatD0=    1 NMtDS0=    0 NMtDT0=    0
 Symmetry not used in FoFCou.
 Harris En= -444.661620177890    
 JPrj=0 DoOrth=F DoCkMO=T.
 Mixing orbitals, IMix= 1 IMixAn=  0 NRI=1 NE=   44 Coef=  7.07106781D-01  7.07106781D-01
 Mixing orbitals, IMix= 1 IMixAn=  0 NRI=1 NE=   44 Coef= -7.07106781D-01  7.07106781D-01
 Initial guess <Sx>= 0.0000 <Sy>= 0.0000 <Sz>= 0.0000 <S**2>= 1.0000 S= 0.6180
 Leave Link  401 at Mon Aug  3 13:37:15 2020, MaxMem=  6442450944 cpu:              48.3 elap:               2.1
 (Enter /scratch/scicomp/CentOS/7.3.1611/Haswell/software/Gaussian/g16/l502.exe)
 Two-electron integral symmetry not used.
 UHF open shell SCF:
 Using DIIS extrapolation, IDIIS=  1040.
 NGot=  6442450944 LenX=  6441877030 LenY=  6441597718
 Requested convergence on RMS density matrix=1.00D-08 within 128 cycles.
 Requested convergence on MAX density matrix=1.00D-06.
 Requested convergence on             energy=1.00D-06.
 No special actions if energy rises.
 Fock matrices will be formed incrementally for  20 cycles.

 Cycle   1  Pass 1  IDiag  1:
 FoFJK:  IHMeth= 1 ICntrl=       0 DoSepK=T KAlg= 0 I1Cent=           0 FoldK=F
 IRaf=         1 NMat=       1 IRICut=       1 DoRegI=T DoRafI=F ISym2E= 0 IDoP0=0 IntGTp=1.
 FoFCou: FMM=F IPFlag=           0 FMFlag=      100000 FMFlg1=           0
         NFxFlg=           0 DoJE=T BraDBF=F KetDBF=F FulRan=T
         wScrn=  0.000000 ICntrl=       500 IOpCl=  0 I1Cent=           0 NGrid=           0
         NMat0=    1 NMatS0=      1 NMatT0=    0 NMatD0=    1 NMtDS0=    0 NMtDT0=    0
 Symmetry not used in FoFCou.
 Inv3:  Mode=1 IEnd=    68803563.
 Iteration    1 A*A^-1 deviation from unit magnitude is 3.33D-15 for    195.
 Iteration    1 A*A^-1 deviation from orthogonality  is 2.55D-15 for   2104   1245.
 Iteration    1 A^-1*A deviation from unit magnitude is 3.77D-15 for    629.
 Iteration    1 A^-1*A deviation from orthogonality  is 1.66D-15 for   3917   3298.
 E= -466.570582086345    
 DIIS: error= 5.30D-02 at cycle   1 NSaved=   1.
 NSaved= 1 IEnMin= 1 EnMin= -466.570582086345     IErMin= 1 ErrMin= 5.30D-02
 ErrMax= 5.30D-02  0.00D+00 EMaxC= 1.00D-01 BMatC= 4.12D+00 BMatP= 4.12D+00
 IDIUse=3 WtCom= 4.70D-01 WtEn= 5.30D-01
 Coeff-Com:  0.100D+01
 Coeff-En:   0.100D+01
 Coeff:      0.100D+01
 Gap=     0.178 Goal=   None    Shift=    0.000
 Gap=     0.178 Goal=   None    Shift=    0.000
 GapD=    0.178 DampG=1.000 DampE=0.500 DampFc=0.5000 IDamp=-1.
 Damping current iteration by 5.00D-01
 RMSDP=1.67D-03 MaxDP=9.34D-02              OVMax= 3.70D-01

 Cycle   2  Pass 1  IDiag  1:
 RMSU=  7.95D-04    CP:  9.60D-01
 E= -466.687547127826     Delta-E=       -0.116965041481 Rises=F Damp=T
 DIIS: error= 2.53D-02 at cycle   2 NSaved=   2.
 NSaved= 2 IEnMin= 2 EnMin= -466.687547127826     IErMin= 2 ErrMin= 2.53D-02
 ErrMax= 2.53D-02  0.00D+00 EMaxC= 1.00D-01 BMatC= 9.38D-01 BMatP= 4.12D+00
 IDIUse=3 WtCom= 7.47D-01 WtEn= 2.53D-01
 Coeff-Com: -0.868D+00 0.187D+01
 Coeff-En:   0.000D+00 0.100D+01
 Coeff:     -0.649D+00 0.165D+01
 Gap=     0.286 Goal=   None    Shift=    0.000
 Gap=     0.286 Goal=   None    Shift=    0.000
 RMSDP=1.20D-03 MaxDP=4.89D-02 DE=-1.17D-01 OVMax= 1.39D-01

 Cycle   3  Pass 1  IDiag  1:
 RMSU=  6.12D-04    CP:  8.99D-01  2.21D+00
 E= -466.841104502973     Delta-E=       -0.153557375147 Rises=F Damp=F
 DIIS: error= 7.81D-03 at cycle   3 NSaved=   3.
 NSaved= 3 IEnMin= 3 EnMin= -466.841104502973     IErMin= 3 ErrMin= 7.81D-03
 ErrMax= 7.81D-03  0.00D+00 EMaxC= 1.00D-01 BMatC= 2.39D-02 BMatP= 9.38D-01
 IDIUse=3 WtCom= 9.22D-01 WtEn= 7.81D-02
 Coeff-Com: -0.311D+00 0.667D+00 0.644D+00
 Coeff-En:   0.000D+00 0.000D+00 0.100D+01
 Coeff:     -0.287D+00 0.615D+00 0.672D+00
 Gap=     0.309 Goal=   None    Shift=    0.000
 Gap=     0.309 Goal=   None    Shift=    0.000
 RMSDP=2.04D-04 MaxDP=9.45D-03 DE=-1.54D-01 OVMax= 6.33D-02

 Cycle   4  Pass 1  IDiag  1:
 RMSU=  1.84D-04    CP:  8.92D-01  2.30D+00  1.01D+00
 E= -466.851693195846     Delta-E=       -0.010588692873 Rises=F Damp=F
 DIIS: error= 5.03D-03 at cycle   4 NSaved=   4.
 NSaved= 4 IEnMin= 4 EnMin= -466.851693195846     IErMin= 4 ErrMin= 5.03D-03
 ErrMax= 5.03D-03  0.00D+00 EMaxC= 1.00D-01 BMatC= 2.00D-03 BMatP= 2.39D-02
 IDIUse=3 WtCom= 9.50D-01 WtEn= 5.03D-02
 Coeff-Com:  0.151D+00-0.324D+00-0.822D-01 0.125D+01
 Coeff-En:   0.000D+00 0.000D+00 0.000D+00 0.100D+01
 Coeff:      0.144D+00-0.308D+00-0.781D-01 0.124D+01
 Gap=     0.320 Goal=   None    Shift=    0.000
 Gap=     0.320 Goal=   None    Shift=    0.000
 RMSDP=2.06D-04 MaxDP=1.05D-02 DE=-1.06D-02 OVMax= 7.50D-02

 Cycle   5  Pass 1  IDiag  1:
 RMSU=  7.99D-05    CP:  8.85D-01  2.36D+00  1.23D+00  1.63D+00
 E= -466.856150906008     Delta-E=       -0.004457710162 Rises=F Damp=F
 DIIS: error= 2.13D-03 at cycle   5 NSaved=   5.
 NSaved= 5 IEnMin= 5 EnMin= -466.856150906008     IErMin= 5 ErrMin= 2.13D-03
 ErrMax= 2.13D-03  0.00D+00 EMaxC= 1.00D-01 BMatC= 7.32D-04 BMatP= 2.00D-03
 IDIUse=3 WtCom= 9.79D-01 WtEn= 2.13D-02
 Coeff-Com:  0.447D-01-0.961D-01-0.526D-01 0.235D+00 0.869D+00
 Coeff-En:   0.000D+00 0.000D+00 0.000D+00 0.000D+00 0.100D+01
 Coeff:      0.437D-01-0.940D-01-0.515D-01 0.230D+00 0.872D+00
 Gap=     0.322 Goal=   None    Shift=    0.000
 Gap=     0.322 Goal=   None    Shift=    0.000
 RMSDP=6.84D-05 MaxDP=2.68D-03 DE=-4.46D-03 OVMax= 2.64D-02

 Cycle   6  Pass 1  IDiag  1:
 RMSU=  3.07D-05    CP:  8.84D-01  2.37D+00  1.26D+00  1.88D+00  1.42D+00
 E= -466.857454041188     Delta-E=       -0.001303135180 Rises=F Damp=F
 DIIS: error= 1.45D-03 at cycle   6 NSaved=   6.
 NSaved= 6 IEnMin= 6 EnMin= -466.857454041188     IErMin= 6 ErrMin= 1.45D-03
 ErrMax= 1.45D-03  0.00D+00 EMaxC= 1.00D-01 BMatC= 4.94D-04 BMatP= 7.32D-04
 IDIUse=3 WtCom= 9.86D-01 WtEn= 1.45D-02
 Coeff-Com: -0.855D-01 0.183D+00 0.562D-01-0.650D+00 0.134D+00 0.136D+01
 Coeff-En:   0.000D+00 0.000D+00 0.000D+00 0.000D+00 0.000D+00 0.100D+01
 Coeff:     -0.843D-01 0.181D+00 0.554D-01-0.641D+00 0.132D+00 0.136D+01
 Gap=     0.318 Goal=   None    Shift=    0.000
 Gap=     0.318 Goal=   None    Shift=    0.000
 RMSDP=9.30D-05 MaxDP=3.86D-03 DE=-1.30D-03 OVMax= 3.58D-02

 Cycle   7  Pass 1  IDiag  1:
 RMSU=  2.87D-05    CP:  8.82D-01  2.37D+00  1.30D+00  2.14D+00  2.13D+00
                    CP:  2.36D+00
 E= -466.858997532347     Delta-E=       -0.001543491159 Rises=F Damp=F
 DIIS: error= 1.06D-03 at cycle   7 NSaved=   7.
 NSaved= 7 IEnMin= 7 EnMin= -466.858997532347     IErMin= 7 ErrMin= 1.06D-03
 ErrMax= 1.06D-03  0.00D+00 EMaxC= 1.00D-01 BMatC= 2.43D-04 BMatP= 4.94D-04
 IDIUse=3 WtCom= 9.89D-01 WtEn= 1.06D-02
 Coeff-Com: -0.252D-01 0.547D-01 0.409D-01-0.169D-01-0.828D+00-0.221D+00
 Coeff-Com:  0.200D+01
 Coeff-En:   0.000D+00 0.000D+00 0.000D+00 0.000D+00 0.000D+00 0.000D+00
 Coeff-En:   0.100D+01
 Coeff:     -0.250D-01 0.541D-01 0.405D-01-0.167D-01-0.819D+00-0.218D+00
 Coeff:      0.198D+01
 Gap=     0.319 Goal=   None    Shift=    0.000
 Gap=     0.319 Goal=   None    Shift=    0.000
 RMSDP=1.26D-04 MaxDP=5.83D-03 DE=-1.54D-03 OVMax= 4.74D-02

 Cycle   8  Pass 1  IDiag  1:
 RMSU=  5.75D-05    CP:  8.80D-01  2.37D+00  1.33D+00  2.43D+00  2.99D+00
                    CP:  3.00D+00  2.48D+00
 E= -466.860246621484     Delta-E=       -0.001249089137 Rises=F Damp=F
 DIIS: error= 3.64D-04 at cycle   8 NSaved=   8.
 NSaved= 8 IEnMin= 8 EnMin= -466.860246621484     IErMin= 8 ErrMin= 3.64D-04
 ErrMax= 3.64D-04  0.00D+00 EMaxC= 1.00D-01 BMatC= 5.16D-05 BMatP= 2.43D-04
 IDIUse=3 WtCom= 9.96D-01 WtEn= 3.64D-03
 Coeff-Com:  0.231D-01-0.497D-01-0.586D-02 0.247D+00-0.274D+00-0.570D+00
 Coeff-Com:  0.539D+00 0.109D+01
 Coeff-En:   0.000D+00 0.000D+00 0.000D+00 0.000D+00 0.000D+00 0.000D+00
 Coeff-En:   0.000D+00 0.100D+01
 Coeff:      0.231D-01-0.495D-01-0.583D-02 0.246D+00-0.273D+00-0.567D+00
 Coeff:      0.537D+00 0.109D+01
 Gap=     0.320 Goal=   None    Shift=    0.000
 Gap=     0.320 Goal=   None    Shift=    0.000
 RMSDP=5.28D-05 MaxDP=2.51D-03 DE=-1.25D-03 OVMax= 1.95D-02

 Cycle   9  Pass 1  IDiag  1:
 RMSU=  2.79D-05    CP:  8.79D-01  2.37D+00  1.34D+00  2.52D+00  3.00D+00
                    CP:  3.00D+00  3.00D+00  1.59D+00
 E= -466.860430561294     Delta-E=       -0.000183939810 Rises=F Damp=F
 DIIS: error= 1.05D-04 at cycle   9 NSaved=   9.
 NSaved= 9 IEnMin= 9 EnMin= -466.860430561294     IErMin= 9 ErrMin= 1.05D-04
 ErrMax= 1.05D-04  0.00D+00 EMaxC= 1.00D-01 BMatC= 7.11D-06 BMatP= 5.16D-05
 IDIUse=3 WtCom= 9.99D-01 WtEn= 1.05D-03
 Coeff-Com:  0.109D-01-0.236D-01-0.754D-02 0.758D-01 0.413D-01-0.131D+00
 Coeff-Com: -0.139D+00 0.264D+00 0.909D+00
 Coeff-En:   0.000D+00 0.000D+00 0.000D+00 0.000D+00 0.000D+00 0.000D+00
 Coeff-En:   0.000D+00 0.000D+00 0.100D+01
 Coeff:      0.109D-01-0.235D-01-0.753D-02 0.758D-01 0.413D-01-0.131D+00
 Coeff:     -0.139D+00 0.264D+00 0.909D+00
 Gap=     0.320 Goal=   None    Shift=    0.000
 Gap=     0.320 Goal=   None    Shift=    0.000
 RMSDP=1.25D-05 MaxDP=5.90D-04 DE=-1.84D-04 OVMax= 4.65D-03

 Cycle  10  Pass 1  IDiag  1:
 RMSU=  4.95D-06    CP:  8.79D-01  2.37D+00  1.35D+00  2.54D+00  3.00D+00
                    CP:  3.00D+00  3.00D+00  1.73D+00  1.26D+00
 E= -466.860442838043     Delta-E=       -0.000012276749 Rises=F Damp=F
 DIIS: error= 4.27D-05 at cycle  10 NSaved=  10.
 NSaved=10 IEnMin=10 EnMin= -466.860442838043     IErMin=10 ErrMin= 4.27D-05
 ErrMax= 4.27D-05  0.00D+00 EMaxC= 1.00D-01 BMatC= 9.83D-07 BMatP= 7.11D-06
 IDIUse=1 WtCom= 1.00D+00 WtEn= 0.00D+00
 Coeff-Com: -0.207D-02 0.448D-02-0.155D-03-0.308D-01 0.457D-01 0.763D-01
 Coeff-Com: -0.957D-01-0.180D+00 0.139D+00 0.104D+01
 Coeff:     -0.207D-02 0.448D-02-0.155D-03-0.308D-01 0.457D-01 0.763D-01
 Coeff:     -0.957D-01-0.180D+00 0.139D+00 0.104D+01
 Gap=     0.320 Goal=   None    Shift=    0.000
 Gap=     0.320 Goal=   None    Shift=    0.000
 RMSDP=4.87D-06 MaxDP=2.23D-04 DE=-1.23D-05 OVMax= 1.84D-03

 Cycle  11  Pass 1  IDiag  1:
 RMSU=  1.70D-06    CP:  8.79D-01  2.37D+00  1.35D+00  2.55D+00  3.00D+00
                    CP:  3.00D+00  3.00D+00  1.77D+00  1.36D+00  1.34D+00
 E= -466.860444211307     Delta-E=       -0.000001373264 Rises=F Damp=F
 DIIS: error= 1.45D-05 at cycle  11 NSaved=  11.
 NSaved=11 IEnMin=11 EnMin= -466.860444211307     IErMin=11 ErrMin= 1.45D-05
 ErrMax= 1.45D-05  0.00D+00 EMaxC= 1.00D-01 BMatC= 1.36D-07 BMatP= 9.83D-07
 IDIUse=1 WtCom= 1.00D+00 WtEn= 0.00D+00
 Coeff-Com: -0.813D-03 0.175D-02 0.145D-03-0.934D-02 0.872D-02 0.212D-01
 Coeff-Com: -0.129D-01-0.522D-01-0.166D-01 0.227D+00 0.833D+00
 Coeff:     -0.813D-03 0.175D-02 0.145D-03-0.934D-02 0.872D-02 0.212D-01
 Coeff:     -0.129D-01-0.522D-01-0.166D-01 0.227D+00 0.833D+00
 Gap=     0.320 Goal=   None    Shift=    0.000
 Gap=     0.320 Goal=   None    Shift=    0.000
 RMSDP=6.91D-07 MaxDP=3.04D-05 DE=-1.37D-06 OVMax= 1.36D-04

 Cycle  12  Pass 1  IDiag  1:
 RMSU=  5.36D-07    CP:  8.79D-01  2.37D+00  1.35D+00  2.55D+00  3.00D+00
                    CP:  3.00D+00  3.00D+00  1.77D+00  1.36D+00  1.36D+00
                    CP:  1.21D+00
 E= -466.860444307786     Delta-E=       -0.000000096479 Rises=F Damp=F
 DIIS: error= 1.00D-05 at cycle  12 NSaved=  12.
 NSaved=12 IEnMin=12 EnMin= -466.860444307786     IErMin=12 ErrMin= 1.00D-05
 ErrMax= 1.00D-05  0.00D+00 EMaxC= 1.00D-01 BMatC= 6.13D-08 BMatP= 1.36D-07
 IDIUse=1 WtCom= 1.00D+00 WtEn= 0.00D+00
 Coeff-Com:  0.359D-03-0.779D-03 0.107D-04 0.578D-02-0.872D-02-0.146D-01
 Coeff-Com:  0.217D-01 0.332D-01-0.454D-01-0.230D+00 0.356D+00 0.882D+00
 Coeff:      0.359D-03-0.779D-03 0.107D-04 0.578D-02-0.872D-02-0.146D-01
 Coeff:      0.217D-01 0.332D-01-0.454D-01-0.230D+00 0.356D+00 0.882D+00
 Gap=     0.320 Goal=   None    Shift=    0.000
 Gap=     0.320 Goal=   None    Shift=    0.000
 RMSDP=5.28D-07 MaxDP=2.38D-05 DE=-9.65D-08 OVMax= 1.19D-04

 Cycle  13  Pass 1  IDiag  1:
 RMSU=  3.00D-07    CP:  8.79D-01  2.37D+00  1.35D+00  2.55D+00  3.00D+00
                    CP:  3.00D+00  3.00D+00  1.76D+00  1.36D+00  1.37D+00
                    CP:  1.39D+00  1.49D+00
 E= -466.860444363989     Delta-E=       -0.000000056203 Rises=F Damp=F
 DIIS: error= 5.83D-06 at cycle  13 NSaved=  13.
 NSaved=13 IEnMin=13 EnMin= -466.860444363989     IErMin=13 ErrMin= 5.83D-06
 ErrMax= 5.83D-06  0.00D+00 EMaxC= 1.00D-01 BMatC= 1.14D-08 BMatP= 6.13D-08
 IDIUse=1 WtCom= 1.00D+00 WtEn= 0.00D+00
 Coeff-Com: -0.538D-04 0.118D-03 0.543D-04-0.566D-03 0.793D-03 0.930D-03
 Coeff-Com: -0.285D-02-0.275D-03 0.842D-02 0.889D-02-0.232D+00-0.142D+00
 Coeff-Com:  0.136D+01
 Coeff:     -0.538D-04 0.118D-03 0.543D-04-0.566D-03 0.793D-03 0.930D-03
 Coeff:     -0.285D-02-0.275D-03 0.842D-02 0.889D-02-0.232D+00-0.142D+00
 Coeff:      0.136D+01
 Gap=     0.320 Goal=   None    Shift=    0.000
 Gap=     0.320 Goal=   None    Shift=    0.000
 RMSDP=3.30D-07 MaxDP=1.85D-05 DE=-5.62D-08 OVMax= 8.41D-05

 Cycle  14  Pass 1  IDiag  1:
 RMSU=  1.91D-07    CP:  8.79D-01  2.37D+00  1.35D+00  2.55D+00  3.00D+00
                    CP:  3.00D+00  3.00D+00  1.76D+00  1.36D+00  1.37D+00
                    CP:  1.45D+00  1.82D+00  1.58D+00
 E= -466.860444387314     Delta-E=       -0.000000023324 Rises=F Damp=F
 DIIS: error= 3.16D-06 at cycle  14 NSaved=  14.
 NSaved=14 IEnMin=14 EnMin= -466.860444387314     IErMin=14 ErrMin= 3.16D-06
 ErrMax= 3.16D-06  0.00D+00 EMaxC= 1.00D-01 BMatC= 3.47D-09 BMatP= 1.14D-08
 IDIUse=1 WtCom= 1.00D+00 WtEn= 0.00D+00
 Coeff-Com: -0.147D-03 0.317D-03 0.443D-04-0.195D-02 0.250D-02 0.459D-02
 Coeff-Com: -0.677D-02-0.994D-02 0.157D-01 0.731D-01-0.157D+00-0.310D+00
 Coeff-Com:  0.183D+00 0.121D+01
 Coeff:     -0.147D-03 0.317D-03 0.443D-04-0.195D-02 0.250D-02 0.459D-02
 Coeff:     -0.677D-02-0.994D-02 0.157D-01 0.731D-01-0.157D+00-0.310D+00
 Coeff:      0.183D+00 0.121D+01
 Gap=     0.320 Goal=   None    Shift=    0.000
 Gap=     0.320 Goal=   None    Shift=    0.000
 RMSDP=2.30D-07 MaxDP=1.15D-05 DE=-2.33D-08 OVMax= 6.10D-05

 Cycle  15  Pass 1  IDiag  1:
 RMSU=  8.26D-08    CP:  8.79D-01  2.37D+00  1.35D+00  2.55D+00  3.00D+00
                    CP:  3.00D+00  3.00D+00  1.76D+00  1.36D+00  1.38D+00
                    CP:  1.46D+00  1.98D+00  1.96D+00  1.80D+00
 E= -466.860444394890     Delta-E=       -0.000000007577 Rises=F Damp=F
 DIIS: error= 1.11D-06 at cycle  15 NSaved=  15.
 NSaved=15 IEnMin=15 EnMin= -466.860444394890     IErMin=15 ErrMin= 1.11D-06
 ErrMax= 1.11D-06  0.00D+00 EMaxC= 1.00D-01 BMatC= 5.27D-10 BMatP= 3.47D-09
 IDIUse=1 WtCom= 1.00D+00 WtEn= 0.00D+00
 Coeff-Com:  0.171D-04-0.372D-04-0.245D-04 0.873D-04 0.538D-04-0.216D-05
 Coeff-Com: -0.223D-03-0.339D-03 0.110D-02 0.562D-02 0.302D-01-0.136D-01
 Coeff-Com: -0.295D+00 0.169D+00 0.110D+01
 Coeff:      0.171D-04-0.372D-04-0.245D-04 0.873D-04 0.538D-04-0.216D-05
 Coeff:     -0.223D-03-0.339D-03 0.110D-02 0.562D-02 0.302D-01-0.136D-01
 Coeff:     -0.295D+00 0.169D+00 0.110D+01
 Gap=     0.320 Goal=   None    Shift=    0.000
 Gap=     0.320 Goal=   None    Shift=    0.000
 RMSDP=1.06D-07 MaxDP=4.88D-06 DE=-7.58D-09 OVMax= 2.56D-05

 Cycle  16  Pass 1  IDiag  1:
 RMSU=  3.27D-08    CP:  8.79D-01  2.37D+00  1.35D+00  2.55D+00  3.00D+00
                    CP:  3.00D+00  3.00D+00  1.76D+00  1.36D+00  1.38D+00
                    CP:  1.46D+00  2.01D+00  2.08D+00  2.21D+00  1.47D+00
 E= -466.860444395829     Delta-E=       -0.000000000939 Rises=F Damp=F
 DIIS: error= 2.17D-07 at cycle  16 NSaved=  16.
 NSaved=16 IEnMin=16 EnMin= -466.860444395829     IErMin=16 ErrMin= 2.17D-07
 ErrMax= 2.17D-07  0.00D+00 EMaxC= 1.00D-01 BMatC= 5.20D-11 BMatP= 5.27D-10
 IDIUse=1 WtCom= 1.00D+00 WtEn= 0.00D+00
 Coeff-Com:  0.117D-04-0.253D-04-0.819D-05 0.144D-03-0.162D-03-0.282D-03
 Coeff-Com:  0.418D-03 0.634D-03-0.117D-02-0.466D-02 0.214D-01 0.232D-01
 Coeff-Com: -0.843D-01-0.722D-01 0.257D+00 0.860D+00
 Coeff:      0.117D-04-0.253D-04-0.819D-05 0.144D-03-0.162D-03-0.282D-03
 Coeff:      0.418D-03 0.634D-03-0.117D-02-0.466D-02 0.214D-01 0.232D-01
 Coeff:     -0.843D-01-0.722D-01 0.257D+00 0.860D+00
 Gap=     0.320 Goal=   None    Shift=    0.000
 Gap=     0.320 Goal=   None    Shift=    0.000
 RMSDP=2.39D-08 MaxDP=9.22D-07 DE=-9.39D-10 OVMax= 3.93D-06

 Cycle  17  Pass 1  IDiag  1:
 RMSU=  1.08D-08    CP:  8.79D-01  2.37D+00  1.35D+00  2.55D+00  3.00D+00
                    CP:  3.00D+00  3.00D+00  1.76D+00  1.36D+00  1.38D+00
                    CP:  1.46D+00  2.01D+00  2.09D+00  2.27D+00  1.58D+00
                    CP:  1.32D+00
 E= -466.860444395869     Delta-E=       -0.000000000039 Rises=F Damp=F
 DIIS: error= 9.32D-08 at cycle  17 NSaved=  17.
 NSaved=17 IEnMin=17 EnMin= -466.860444395869     IErMin=17 ErrMin= 9.32D-08
 ErrMax= 9.32D-08  0.00D+00 EMaxC= 1.00D-01 BMatC= 6.68D-12 BMatP= 5.20D-11
 IDIUse=1 WtCom= 1.00D+00 WtEn= 0.00D+00
 Coeff-Com: -0.270D-06 0.619D-06 0.102D-05 0.340D-05-0.207D-04-0.486D-05
 Coeff-Com:  0.419D-04 0.969D-04-0.336D-03-0.118D-02-0.927D-03 0.463D-02
 Coeff-Com:  0.291D-01-0.339D-01-0.121D+00 0.140D+00 0.983D+00
 Coeff:     -0.270D-06 0.619D-06 0.102D-05 0.340D-05-0.207D-04-0.486D-05
 Coeff:      0.419D-04 0.969D-04-0.336D-03-0.118D-02-0.927D-03 0.463D-02
 Coeff:      0.291D-01-0.339D-01-0.121D+00 0.140D+00 0.983D+00
 Gap=     0.320 Goal=   None    Shift=    0.000
 Gap=     0.320 Goal=   None    Shift=    0.000
 RMSDP=8.79D-09 MaxDP=3.02D-07 DE=-3.93D-11 OVMax= 1.27D-06

 Error on total polarization charges =  0.01172
 SCF Done:  E(UwB97XD) =  -466.860444396     A.U. after   17 cycles
            NFock= 17  Conv=0.88D-08     -V/T= 2.0059
 <Sx>= 0.0000 <Sy>= 0.0000 <Sz>= 0.0000 <S**2>= 0.0000 S= 0.0000
 <L.S>=  0.00000000000    
 KE= 4.641341877691D+02 PE=-2.415079348421D+03 EE= 8.174133158624D+02
 --------------------------------------------------------------------
 Variational PCM results
 =======================
 <psi(f)|   H    |psi(f)>                     (a.u.) =    -466.858959
 <psi(f)|H+V(f)/2|psi(f)>                     (a.u.) =    -466.860444
 (Polarized solute)-Solvent               (kcal/mol) =      -0.93
 --------------------------------------------------------------------
 Partition over spheres:
 Sphere  on Atom  Surface  Charge   GEl     GCav    GDR
    1      C1       7.08   0.010   -0.05    0.00    0.00
    2      C2       4.67   0.007   -0.04    0.00    0.00
    3      H3       7.52  -0.010   -0.04    0.00    0.00
    4      H4       4.23  -0.006   -0.02    0.00    0.00
    5      C5       4.67   0.007   -0.05    0.00    0.00
    6      C6       4.22   0.005   -0.03    0.00    0.00
    7      H7       5.88  -0.008   -0.03    0.00    0.00
    8      H8       4.53  -0.006   -0.02    0.00    0.00
    9      C9       3.59   0.002    0.00    0.00    0.00
   10      H10      7.15  -0.007   -0.01    0.00    0.00
   11      H11      3.45  -0.003   -0.01    0.00    0.00
   12      C12      6.69   0.010   -0.06    0.00    0.00
   13      H13      7.52  -0.010   -0.03    0.00    0.00
   14      C14      6.82   0.010   -0.05    0.00    0.00
   15      H15      7.51  -0.010   -0.04    0.00    0.00
   16      C16      3.62   0.002    0.00    0.00    0.00
   17      H17      2.48  -0.001   -0.00    0.00    0.00
   18      H18      7.34  -0.008   -0.03    0.00    0.00
   19      C19      4.99   0.009   -0.06    0.00    0.00
   20      H20      5.12  -0.007   -0.03    0.00    0.00
   21      C21      6.40   0.010   -0.06    0.00    0.00
   22      H22      7.51  -0.010   -0.03    0.00    0.00
   23      C23      3.60   0.002    0.00    0.00    0.00
   24      H24      3.48  -0.003   -0.01    0.00    0.00
   25      H25      7.15  -0.007   -0.01    0.00    0.00
   26      C26      3.60   0.002    0.00    0.00    0.00
   27      H27      7.45  -0.008   -0.03    0.00    0.00
   28      H28      2.36  -0.001   -0.00    0.00    0.00
 Added spheres:    75.80   0.021   -0.21    0.00    0.00
 --------------------------------------------------------------------
 After PCM corrections, the energy is  -466.860444396     a.u.
 --------------------------------------------------------------------
 Annihilation of the first spin contaminant:
 S**2 before annihilation     0.0000,   after     0.0000
 Leave Link  502 at Mon Aug  3 13:42:10 2020, MaxMem=  6442450944 cpu:            7003.2 elap:             294.7
 (Enter /scratch/scicomp/CentOS/7.3.1611/Haswell/software/Gaussian/g16/l601.exe)
 Copying SCF densities to generalized density rwf, IOpCl= 1 IROHF=0.

 **********************************************************************

            Population analysis using the SCF Density.

 **********************************************************************

 Alpha  occ. eigenvalues --  -10.28401 -10.28400 -10.28333 -10.28333 -10.28314
 Alpha  occ. eigenvalues --  -10.28313 -10.28251 -10.28251 -10.28020 -10.28019
 Alpha  occ. eigenvalues --  -10.27790 -10.27788  -0.94145  -0.93829  -0.84104
 Alpha  occ. eigenvalues --   -0.84103  -0.83967  -0.83763  -0.71285  -0.71235
 Alpha  occ. eigenvalues --   -0.67972  -0.67938  -0.59785  -0.59652  -0.57508
 Alpha  occ. eigenvalues --   -0.57037  -0.53351  -0.52696  -0.50928  -0.50869
 Alpha  occ. eigenvalues --   -0.50034  -0.49636  -0.47315  -0.47092  -0.45210
 Alpha  occ. eigenvalues --   -0.44946  -0.41228  -0.41120  -0.39633  -0.39309
 Alpha  occ. eigenvalues --   -0.39227  -0.39174  -0.29793  -0.28024
 Alpha virt. eigenvalues --    0.03943   0.04426   0.10533   0.12234   0.13263
 Alpha virt. eigenvalues --    0.14238   0.14483   0.15474   0.15553   0.15973
 Alpha virt. eigenvalues --    0.16887   0.16924   0.17117   0.18235   0.19864
 Alpha virt. eigenvalues --    0.20577   0.21473   0.22447   0.22671   0.23726
 Alpha virt. eigenvalues --    0.24966   0.25688   0.25924   0.26882   0.27588
 Alpha virt. eigenvalues --    0.28047   0.29028   0.29045   0.29630   0.30293
 Alpha virt. eigenvalues --    0.30977   0.31462   0.31592   0.31995   0.32694
 Alpha virt. eigenvalues --    0.32924   0.34264   0.34781   0.35060   0.37129
 Alpha virt. eigenvalues --    0.37443   0.37906   0.39744   0.40780   0.41130
 Alpha virt. eigenvalues --    0.41304   0.42845   0.43718   0.45047   0.45460
 Alpha virt. eigenvalues --    0.45683   0.46231   0.47318   0.47824   0.47956
 Alpha virt. eigenvalues --    0.48434   0.48778   0.49041   0.49615   0.49718
 Alpha virt. eigenvalues --    0.50417   0.50564   0.50974   0.51608   0.52198
 Alpha virt. eigenvalues --    0.52313   0.52916   0.54057   0.54215   0.54902
 Alpha virt. eigenvalues --    0.56820   0.56874   0.57235   0.59073   0.59077
 Alpha virt. eigenvalues --    0.59769   0.61222   0.62266   0.62943   0.63910
 Alpha virt. eigenvalues --    0.64257   0.66141   0.67650   0.68308   0.69371
 Alpha virt. eigenvalues --    0.70171   0.72552   0.72921   0.73493   0.75187
 Alpha virt. eigenvalues --    0.76298   0.78151   0.78279   0.79727   0.81242
 Alpha virt. eigenvalues --    0.81631   0.82308   0.83655   0.85616   0.85742
 Alpha virt. eigenvalues --    0.86258   0.88829   0.90713   0.90945   0.92456
 Alpha virt. eigenvalues --    0.92745   0.95005   0.95790   0.98167   0.98830
 Alpha virt. eigenvalues --    1.00845   1.02491   1.03670   1.03681   1.04033
 Alpha virt. eigenvalues --    1.06365   1.07284   1.08383   1.09752   1.10980
 Alpha virt. eigenvalues --    1.12529   1.12822   1.14085   1.14652   1.15506
 Alpha virt. eigenvalues --    1.15834   1.16003   1.16919   1.18994   1.20093
 Alpha virt. eigenvalues --    1.21229   1.22546   1.22741   1.23566   1.24314
 Alpha virt. eigenvalues --    1.24667   1.25633   1.26419   1.27389   1.28710
 Alpha virt. eigenvalues --    1.29079   1.30037   1.31999   1.32079   1.32964
 Alpha virt. eigenvalues --    1.34504   1.34649   1.35006   1.36907   1.38196
 Alpha virt. eigenvalues --    1.38910   1.38932   1.40257   1.40721   1.41457
 Alpha virt. eigenvalues --    1.42062   1.42264   1.43467   1.44777   1.45409
 Alpha virt. eigenvalues --    1.45498   1.46090   1.46344   1.47004   1.47739
 Alpha virt. eigenvalues --    1.49720   1.50570   1.52132   1.52612   1.55365
 Alpha virt. eigenvalues --    1.56142   1.56966   1.57210   1.58284   1.60191
 Alpha virt. eigenvalues --    1.60747   1.62120   1.62540   1.64486   1.65485
 Alpha virt. eigenvalues --    1.68497   1.68984   1.69356   1.70985   1.74797
 Alpha virt. eigenvalues --    1.75677   1.79444   1.80774   1.81943   1.82543
 Alpha virt. eigenvalues --    1.87138   1.87971   1.88456   1.89160   1.91020
 Alpha virt. eigenvalues --    1.91860   1.95862   2.00014   2.01036   2.01749
 Alpha virt. eigenvalues --    2.03739   2.04496   2.06264   2.07290   2.08881
 Alpha virt. eigenvalues --    2.08932   2.11698   2.12193   2.13176   2.15182
 Alpha virt. eigenvalues --    2.18918   2.19103   2.20005   2.20203   2.21980
 Alpha virt. eigenvalues --    2.22853   2.22939   2.23445   2.24659   2.25849
 Alpha virt. eigenvalues --    2.28589   2.31009   2.37092   2.37883   2.39800
 Alpha virt. eigenvalues --    2.41869   2.45807   2.47342   2.48384   2.49049
 Alpha virt. eigenvalues --    2.49970   2.49998   2.51371   2.54036   2.54814
 Alpha virt. eigenvalues --    2.55471   2.57132   2.57359   2.59890   2.59937
 Alpha virt. eigenvalues --    2.61738   2.63589   2.64237   2.65145   2.66645
 Alpha virt. eigenvalues --    2.67605   2.68960   2.69620   2.71995   2.72174
 Alpha virt. eigenvalues --    2.73146   2.73165   2.75093   2.75768   2.76138
 Alpha virt. eigenvalues --    2.77150   2.78134   2.78747   2.79753   2.80708
 Alpha virt. eigenvalues --    2.80829   2.81519   2.82644   2.83569   2.83734
 Alpha virt. eigenvalues --    2.84960   2.85338   2.86401   2.88681   2.88698
 Alpha virt. eigenvalues --    2.89490   2.89698   2.91886   2.92398   2.92769
 Alpha virt. eigenvalues --    2.93719   2.94547   2.94581   2.95732   2.98854
 Alpha virt. eigenvalues --    3.00998   3.01679   3.02956   3.03360   3.06420
 Alpha virt. eigenvalues --    3.06536   3.07707   3.08220   3.09395   3.10516
 Alpha virt. eigenvalues --    3.11601   3.11882   3.12312   3.13674   3.14611
 Alpha virt. eigenvalues --    3.14824   3.16616   3.16984   3.18275   3.18430
 Alpha virt. eigenvalues --    3.19175   3.19278   3.19788   3.20647   3.20882
 Alpha virt. eigenvalues --    3.21800   3.22370   3.23264   3.23524   3.24043
 Alpha virt. eigenvalues --    3.25101   3.25323   3.27147   3.28028   3.28164
 Alpha virt. eigenvalues --    3.28667   3.28957   3.29610   3.30991   3.31225
 Alpha virt. eigenvalues --    3.32564   3.32991   3.33339   3.33726   3.34265
 Alpha virt. eigenvalues --    3.34507   3.34980   3.35974   3.37917   3.38301
 Alpha virt. eigenvalues --    3.38933   3.38980   3.41399   3.42732   3.43547
 Alpha virt. eigenvalues --    3.44782   3.45841   3.46106   3.46993   3.47059
 Alpha virt. eigenvalues --    3.47618   3.48253   3.49027   3.49319   3.50487
 Alpha virt. eigenvalues --    3.51346   3.51428   3.52156   3.52538   3.53683
 Alpha virt. eigenvalues --    3.54881   3.55559   3.60006   3.60258   3.60366
 Alpha virt. eigenvalues --    3.62750   3.63633   3.64084   3.64317   3.64586
 Alpha virt. eigenvalues --    3.67304   3.68205   3.69200   3.71015   3.71267
 Alpha virt. eigenvalues --    3.73304   3.75375   3.76158   3.76925   3.77161
 Alpha virt. eigenvalues --    3.83350   3.84101   3.84884   3.86008   3.86056
 Alpha virt. eigenvalues --    3.87055   3.88226   3.89271   3.92186   3.93149
 Alpha virt. eigenvalues --    3.93452   3.95071   3.98587   3.98782   4.01085
 Alpha virt. eigenvalues --    4.03376   4.07853   4.09167   4.09629   4.10533
 Alpha virt. eigenvalues --    4.11835   4.12242   4.13087   4.14788   4.18617
 Alpha virt. eigenvalues --    4.19516   4.20363   4.21625   4.22352   4.22713
 Alpha virt. eigenvalues --    4.24264   4.26551   4.30625   4.31118   4.33243
 Alpha virt. eigenvalues --    4.35591   4.36030   4.36971   4.39097   4.39142
 Alpha virt. eigenvalues --    4.43868   4.44883   4.45601   4.46239   4.47009
 Alpha virt. eigenvalues --    4.47808   4.59319   4.60154   4.60996   4.63469
 Alpha virt. eigenvalues --    4.69071   4.69743   4.71639   4.72078   4.73738
 Alpha virt. eigenvalues --    4.73973   4.75835   4.77037   4.78540   4.80896
 Alpha virt. eigenvalues --    4.83094   4.84202   4.88437   4.88961   4.94020
 Alpha virt. eigenvalues --    4.94531   4.94550   4.95537   5.04569   5.07280
 Alpha virt. eigenvalues --    5.08547   5.09805   5.17886   5.18626   5.23103
 Alpha virt. eigenvalues --    5.23868   5.28179   5.30933   5.39457   5.39725
 Alpha virt. eigenvalues --    5.43545   5.44633   5.47385   5.48198   5.65769
 Alpha virt. eigenvalues --    5.69288   5.74265   5.75480   5.90859   5.94981
 Alpha virt. eigenvalues --    7.94095   7.95739   8.00296   8.02388   8.05818
 Alpha virt. eigenvalues --    8.07317   8.10942   8.11343   8.17023   8.17748
 Alpha virt. eigenvalues --    8.33158   8.35261  34.76182  34.77818  34.81095
 Alpha virt. eigenvalues --   34.81841  34.83555  34.86747  34.97324  34.97698
 Alpha virt. eigenvalues --   35.00104  35.00869  35.15100  35.17822
  Beta  occ. eigenvalues --  -10.28401 -10.28400 -10.28333 -10.28333 -10.28314
  Beta  occ. eigenvalues --  -10.28313 -10.28251 -10.28251 -10.28020 -10.28019
  Beta  occ. eigenvalues --  -10.27790 -10.27788  -0.94145  -0.93829  -0.84104
  Beta  occ. eigenvalues --   -0.84103  -0.83967  -0.83763  -0.71285  -0.71235
  Beta  occ. eigenvalues --   -0.67972  -0.67938  -0.59785  -0.59652  -0.57508
  Beta  occ. eigenvalues --   -0.57037  -0.53351  -0.52696  -0.50928  -0.50869
  Beta  occ. eigenvalues --   -0.50034  -0.49636  -0.47315  -0.47092  -0.45210
  Beta  occ. eigenvalues --   -0.44946  -0.41228  -0.41120  -0.39633  -0.39309
  Beta  occ. eigenvalues --   -0.39227  -0.39174  -0.29793  -0.28024
  Beta virt. eigenvalues --    0.03943   0.04426   0.10533   0.12234   0.13263
  Beta virt. eigenvalues --    0.14238   0.14483   0.15474   0.15553   0.15973
  Beta virt. eigenvalues --    0.16887   0.16924   0.17117   0.18235   0.19864
  Beta virt. eigenvalues --    0.20577   0.21473   0.22447   0.22671   0.23726
  Beta virt. eigenvalues --    0.24966   0.25688   0.25924   0.26882   0.27588
  Beta virt. eigenvalues --    0.28047   0.29028   0.29045   0.29630   0.30293
  Beta virt. eigenvalues --    0.30977   0.31462   0.31592   0.31995   0.32694
  Beta virt. eigenvalues --    0.32924   0.34264   0.34781   0.35060   0.37129
  Beta virt. eigenvalues --    0.37443   0.37906   0.39744   0.40780   0.41130
  Beta virt. eigenvalues --    0.41304   0.42845   0.43718   0.45047   0.45460
  Beta virt. eigenvalues --    0.45683   0.46231   0.47318   0.47824   0.47956
  Beta virt. eigenvalues --    0.48434   0.48778   0.49041   0.49615   0.49718
  Beta virt. eigenvalues --    0.50417   0.50564   0.50974   0.51608   0.52198
  Beta virt. eigenvalues --    0.52313   0.52916   0.54057   0.54215   0.54902
  Beta virt. eigenvalues --    0.56820   0.56874   0.57235   0.59073   0.59077
  Beta virt. eigenvalues --    0.59769   0.61222   0.62266   0.62943   0.63910
  Beta virt. eigenvalues --    0.64257   0.66141   0.67650   0.68308   0.69371
  Beta virt. eigenvalues --    0.70171   0.72552   0.72921   0.73493   0.75187
  Beta virt. eigenvalues --    0.76298   0.78151   0.78279   0.79727   0.81242
  Beta virt. eigenvalues --    0.81631   0.82308   0.83655   0.85616   0.85742
  Beta virt. eigenvalues --    0.86258   0.88829   0.90713   0.90945   0.92456
  Beta virt. eigenvalues --    0.92745   0.95005   0.95790   0.98167   0.98830
  Beta virt. eigenvalues --    1.00845   1.02491   1.03670   1.03681   1.04033
  Beta virt. eigenvalues --    1.06365   1.07284   1.08383   1.09752   1.10980
  Beta virt. eigenvalues --    1.12529   1.12822   1.14085   1.14652   1.15506
  Beta virt. eigenvalues --    1.15834   1.16003   1.16919   1.18994   1.20093
  Beta virt. eigenvalues --    1.21229   1.22546   1.22741   1.23566   1.24314
  Beta virt. eigenvalues --    1.24667   1.25633   1.26419   1.27389   1.28710
  Beta virt. eigenvalues --    1.29079   1.30037   1.31999   1.32079   1.32964
  Beta virt. eigenvalues --    1.34504   1.34649   1.35006   1.36907   1.38196
  Beta virt. eigenvalues --    1.38910   1.38932   1.40257   1.40721   1.41457
  Beta virt. eigenvalues --    1.42062   1.42264   1.43467   1.44777   1.45409
  Beta virt. eigenvalues --    1.45498   1.46090   1.46344   1.47004   1.47739
  Beta virt. eigenvalues --    1.49720   1.50570   1.52132   1.52612   1.55365
  Beta virt. eigenvalues --    1.56142   1.56966   1.57210   1.58284   1.60191
  Beta virt. eigenvalues --    1.60747   1.62120   1.62540   1.64486   1.65485
  Beta virt. eigenvalues --    1.68497   1.68984   1.69356   1.70985   1.74797
  Beta virt. eigenvalues --    1.75677   1.79444   1.80774   1.81943   1.82543
  Beta virt. eigenvalues --    1.87138   1.87971   1.88456   1.89160   1.91020
  Beta virt. eigenvalues --    1.91860   1.95862   2.00014   2.01036   2.01749
  Beta virt. eigenvalues --    2.03739   2.04496   2.06264   2.07290   2.08881
  Beta virt. eigenvalues --    2.08932   2.11698   2.12193   2.13176   2.15182
  Beta virt. eigenvalues --    2.18918   2.19103   2.20005   2.20203   2.21980
  Beta virt. eigenvalues --    2.22853   2.22939   2.23445   2.24659   2.25849
  Beta virt. eigenvalues --    2.28589   2.31009   2.37092   2.37883   2.39800
  Beta virt. eigenvalues --    2.41869   2.45807   2.47342   2.48384   2.49049
  Beta virt. eigenvalues --    2.49970   2.49998   2.51371   2.54036   2.54814
  Beta virt. eigenvalues --    2.55471   2.57132   2.57359   2.59890   2.59937
  Beta virt. eigenvalues --    2.61738   2.63589   2.64237   2.65145   2.66645
  Beta virt. eigenvalues --    2.67605   2.68960   2.69620   2.71995   2.72174
  Beta virt. eigenvalues --    2.73146   2.73165   2.75093   2.75768   2.76138
  Beta virt. eigenvalues --    2.77150   2.78134   2.78747   2.79753   2.80708
  Beta virt. eigenvalues --    2.80829   2.81519   2.82644   2.83569   2.83734
  Beta virt. eigenvalues --    2.84960   2.85338   2.86401   2.88681   2.88698
  Beta virt. eigenvalues --    2.89490   2.89698   2.91886   2.92398   2.92769
  Beta virt. eigenvalues --    2.93719   2.94547   2.94581   2.95732   2.98854
  Beta virt. eigenvalues --    3.00998   3.01679   3.02956   3.03360   3.06420
  Beta virt. eigenvalues --    3.06536   3.07707   3.08220   3.09395   3.10516
  Beta virt. eigenvalues --    3.11601   3.11882   3.12312   3.13674   3.14611
  Beta virt. eigenvalues --    3.14824   3.16616   3.16984   3.18275   3.18430
  Beta virt. eigenvalues --    3.19175   3.19278   3.19788   3.20647   3.20882
  Beta virt. eigenvalues --    3.21800   3.22370   3.23264   3.23524   3.24043
  Beta virt. eigenvalues --    3.25101   3.25323   3.27147   3.28028   3.28164
  Beta virt. eigenvalues --    3.28667   3.28957   3.29610   3.30991   3.31225
  Beta virt. eigenvalues --    3.32564   3.32991   3.33339   3.33726   3.34265
  Beta virt. eigenvalues --    3.34507   3.34980   3.35974   3.37917   3.38301
  Beta virt. eigenvalues --    3.38933   3.38980   3.41399   3.42732   3.43547
  Beta virt. eigenvalues --    3.44782   3.45841   3.46106   3.46993   3.47059
  Beta virt. eigenvalues --    3.47618   3.48253   3.49027   3.49319   3.50487
  Beta virt. eigenvalues --    3.51346   3.51428   3.52156   3.52538   3.53683
  Beta virt. eigenvalues --    3.54881   3.55559   3.60006   3.60258   3.60366
  Beta virt. eigenvalues --    3.62750   3.63633   3.64084   3.64317   3.64586
  Beta virt. eigenvalues --    3.67304   3.68205   3.69200   3.71015   3.71267
  Beta virt. eigenvalues --    3.73304   3.75375   3.76158   3.76925   3.77161
  Beta virt. eigenvalues --    3.83350   3.84101   3.84884   3.86008   3.86056
  Beta virt. eigenvalues --    3.87055   3.88226   3.89271   3.92186   3.93149
  Beta virt. eigenvalues --    3.93452   3.95071   3.98587   3.98782   4.01085
  Beta virt. eigenvalues --    4.03376   4.07853   4.09167   4.09629   4.10533
  Beta virt. eigenvalues --    4.11835   4.12242   4.13087   4.14788   4.18617
  Beta virt. eigenvalues --    4.19516   4.20363   4.21625   4.22352   4.22713
  Beta virt. eigenvalues --    4.24264   4.26551   4.30625   4.31118   4.33243
  Beta virt. eigenvalues --    4.35591   4.36030   4.36971   4.39097   4.39142
  Beta virt. eigenvalues --    4.43868   4.44883   4.45601   4.46239   4.47009
  Beta virt. eigenvalues --    4.47808   4.59319   4.60154   4.60996   4.63469
  Beta virt. eigenvalues --    4.69071   4.69743   4.71639   4.72078   4.73738
  Beta virt. eigenvalues --    4.73973   4.75835   4.77037   4.78540   4.80896
  Beta virt. eigenvalues --    4.83094   4.84202   4.88437   4.88961   4.94020
  Beta virt. eigenvalues --    4.94531   4.94550   4.95537   5.04569   5.07280
  Beta virt. eigenvalues --    5.08547   5.09805   5.17886   5.18626   5.23103
  Beta virt. eigenvalues --    5.23868   5.28179   5.30933   5.39457   5.39725
  Beta virt. eigenvalues --    5.43545   5.44633   5.47385   5.48198   5.65769
  Beta virt. eigenvalues --    5.69288   5.74265   5.75480   5.90859   5.94981
  Beta virt. eigenvalues --    7.94095   7.95739   8.00296   8.02388   8.05818
  Beta virt. eigenvalues --    8.07317   8.10942   8.11343   8.17023   8.17748
  Beta virt. eigenvalues --    8.33158   8.35261  34.76182  34.77818  34.81095
  Beta virt. eigenvalues --   34.81841  34.83555  34.86747  34.97324  34.97698
  Beta virt. eigenvalues --   35.00104  35.00869  35.15100  35.17822
          Condensed to atoms (all electrons):
               1          2          3          4          5          6
     1  C    5.121536   0.014737   0.422102  -0.001812   0.000023  -0.002695
     2  C    0.014737   5.194425  -0.001798   0.422421  -0.013623  -0.034798
     3  H    0.422102  -0.001798   0.497124   0.000036  -0.000044  -0.000057
     4  H   -0.001812   0.422421   0.000036   0.482466  -0.001178   0.000694
     5  C    0.000023  -0.013623  -0.000044  -0.001178   5.068085   0.565855
     6  C   -0.002695  -0.034798  -0.000057   0.000694   0.565855   5.194365
     7  H    0.000159  -0.000490  -0.000001  -0.000054   0.423166  -0.028994
     8  H    0.000011   0.000694   0.000015   0.000023  -0.041548   0.422422
     9  C    0.000858   0.000373   0.000000  -0.000372  -0.076611   0.286825
    10  H   -0.000005  -0.000305  -0.000001  -0.000035  -0.003535  -0.033426
    11  H    0.000114  -0.000710   0.000000  -0.000020   0.006427  -0.046834
    12  C   -0.000095   0.004870   0.000002   0.000943   0.319433  -0.077935
    13  H   -0.000001   0.000013   0.000000  -0.000010  -0.036799   0.004658
    14  C    0.000097  -0.002695  -0.000000   0.000011  -0.070849   0.014703
    15  H   -0.000000  -0.000057  -0.000000   0.000016   0.007069  -0.001796
    16  C   -0.000447   0.004142  -0.000001   0.000395   0.007677  -0.078962
    17  H   -0.000072  -0.001198  -0.000001  -0.000801   0.011371  -0.000735
    18  H   -0.000000   0.000635   0.000000   0.000051  -0.002096   0.010754
    19  C   -0.070844   0.565838   0.007072  -0.041545   0.001841  -0.013622
    20  H    0.003797  -0.028993  -0.000127  -0.005855   0.000068  -0.000491
    21  C    0.599099  -0.077950  -0.032889   0.005937   0.000242   0.004869
    22  H   -0.027181   0.004666  -0.006269  -0.000092   0.000007   0.000013
    23  C   -0.090070   0.286858   0.005252  -0.016584  -0.000806   0.000374
    24  H    0.012022  -0.046830  -0.000147  -0.004141   0.003215  -0.000709
    25  H    0.006677  -0.033428   0.000043   0.000185   0.000147  -0.000305
    26  C    0.292123  -0.078961  -0.029705   0.004244  -0.001178   0.004145
    27  H   -0.036333   0.010750  -0.004678  -0.000151   0.000378   0.000635
    28  H   -0.034339  -0.000730   0.001540  -0.000157  -0.001656  -0.001195
               7          8          9         10         11         12
     1  C    0.000159   0.000011   0.000858  -0.000005   0.000114  -0.000095
     2  C   -0.000490   0.000694   0.000373  -0.000305  -0.000710   0.004870
     3  H   -0.000001   0.000015   0.000000  -0.000001   0.000000   0.000002
     4  H   -0.000054   0.000023  -0.000372  -0.000035  -0.000020   0.000943
     5  C    0.423166  -0.041548  -0.076611  -0.003535   0.006427   0.319433
     6  C   -0.028994   0.422422   0.286825  -0.033426  -0.046834  -0.077935
     7  H    0.488989  -0.005856   0.003853  -0.000303  -0.000079  -0.031286
     8  H   -0.005856   0.482605  -0.016605   0.000184  -0.004142   0.005938
     9  C    0.003853  -0.016605   4.903865   0.381362   0.438102   0.032920
    10  H   -0.000303   0.000184   0.381362   0.581641  -0.021790   0.001861
    11  H   -0.000079  -0.004142   0.438102  -0.021790   0.546024  -0.003049
    12  C   -0.031286   0.005938   0.032920   0.001861  -0.003049   4.991854
    13  H   -0.003447  -0.000092  -0.000467  -0.000054   0.000039   0.424603
    14  C    0.003788  -0.001812  -0.090047   0.006680   0.012022   0.599142
    15  H   -0.000127   0.000036   0.005252   0.000043  -0.000147  -0.032855
    16  C   -0.000730   0.004245   0.383073  -0.029232  -0.045854  -0.067409
    17  H    0.000028  -0.000157  -0.037051   0.008013  -0.008509  -0.015831
    18  H    0.000040  -0.000151  -0.042220  -0.008021  -0.001699   0.005750
    19  C    0.000068  -0.001178  -0.000808   0.000147   0.003217   0.000241
    20  H    0.000005  -0.000054   0.000889   0.000051  -0.000024  -0.000073
    21  C   -0.000073   0.000943  -0.000101   0.000024  -0.000580  -0.000126
    22  H   -0.000000  -0.000010  -0.000029  -0.000000  -0.000012   0.000000
    23  C    0.000890  -0.000372   0.000175  -0.000009   0.000028  -0.000100
    24  H   -0.000024  -0.000020   0.000028   0.000005  -0.000013  -0.000579
    25  H    0.000051  -0.000035  -0.000009   0.000000   0.000005   0.000024
    26  C   -0.000817   0.000395  -0.000454   0.000019  -0.000036   0.000494
    27  H   -0.000015   0.000051  -0.000026   0.000001  -0.000001  -0.000051
    28  H    0.001378  -0.000802   0.000164  -0.000006   0.000028   0.000458
              13         14         15         16         17         18
     1  C   -0.000001   0.000097  -0.000000  -0.000447  -0.000072  -0.000000
     2  C    0.000013  -0.002695  -0.000057   0.004142  -0.001198   0.000635
     3  H    0.000000  -0.000000  -0.000000  -0.000001  -0.000001   0.000000
     4  H   -0.000010   0.000011   0.000016   0.000395  -0.000801   0.000051
     5  C   -0.036799  -0.070849   0.007069   0.007677   0.011371  -0.002096
     6  C    0.004658   0.014703  -0.001796  -0.078962  -0.000735   0.010754
     7  H   -0.003447   0.003788  -0.000127  -0.000730   0.000028   0.000040
     8  H   -0.000092  -0.001812   0.000036   0.004245  -0.000157  -0.000151
     9  C   -0.000467  -0.090047   0.005252   0.383073  -0.037051  -0.042220
    10  H   -0.000054   0.006680   0.000043  -0.029232   0.008013  -0.008021
    11  H    0.000039   0.012022  -0.000147  -0.045854  -0.008509  -0.001699
    12  C    0.424603   0.599142  -0.032855  -0.067409  -0.015831   0.005750
    13  H    0.495220  -0.027201  -0.006268   0.004726  -0.000393  -0.000136
    14  C   -0.027201   5.121457   0.422074   0.292110  -0.034334  -0.036355
    15  H   -0.006268   0.422074   0.497137  -0.029714   0.001540  -0.004679
    16  C    0.004726   0.292110  -0.029714   4.906857   0.395942   0.427662
    17  H   -0.000393  -0.034334   0.001540   0.395942   0.597631  -0.021879
    18  H   -0.000136  -0.036355  -0.004679   0.427662  -0.021879   0.547746
    19  C    0.000007   0.000022  -0.000044  -0.001168  -0.001653   0.000378
    20  H   -0.000000   0.000159  -0.000001  -0.000816   0.001377  -0.000015
    21  C    0.000000  -0.000095   0.000002   0.000493   0.000458  -0.000051
    22  H    0.000000  -0.000001   0.000000   0.000005  -0.000007  -0.000001
    23  C   -0.000029   0.000858   0.000000  -0.000454   0.000163  -0.000026
    24  H   -0.000011   0.000114   0.000000  -0.000036   0.000028  -0.000001
    25  H   -0.000000  -0.000005  -0.000001   0.000019  -0.000006   0.000001
    26  C    0.000005  -0.000447  -0.000001   0.000869   0.000137  -0.000001
    27  H   -0.000001  -0.000000   0.000000  -0.000001   0.000004  -0.000000
    28  H   -0.000007  -0.000072  -0.000001   0.000137  -0.000021   0.000004
              19         20         21         22         23         24
     1  C   -0.070844   0.003797   0.599099  -0.027181  -0.090070   0.012022
     2  C    0.565838  -0.028993  -0.077950   0.004666   0.286858  -0.046830
     3  H    0.007072  -0.000127  -0.032889  -0.006269   0.005252  -0.000147
     4  H   -0.041545  -0.005855   0.005937  -0.000092  -0.016584  -0.004141
     5  C    0.001841   0.000068   0.000242   0.000007  -0.000806   0.003215
     6  C   -0.013622  -0.000491   0.004869   0.000013   0.000374  -0.000709
     7  H    0.000068   0.000005  -0.000073  -0.000000   0.000890  -0.000024
     8  H   -0.001178  -0.000054   0.000943  -0.000010  -0.000372  -0.000020
     9  C   -0.000808   0.000889  -0.000101  -0.000029   0.000175   0.000028
    10  H    0.000147   0.000051   0.000024  -0.000000  -0.000009   0.000005
    11  H    0.003217  -0.000024  -0.000580  -0.000012   0.000028  -0.000013
    12  C    0.000241  -0.000073  -0.000126   0.000000  -0.000100  -0.000579
    13  H    0.000007  -0.000000   0.000000   0.000000  -0.000029  -0.000011
    14  C    0.000022   0.000159  -0.000095  -0.000001   0.000858   0.000114
    15  H   -0.000044  -0.000001   0.000002   0.000000   0.000000   0.000000
    16  C   -0.001168  -0.000816   0.000493   0.000005  -0.000454  -0.000036
    17  H   -0.001653   0.001377   0.000458  -0.000007   0.000163   0.000028
    18  H    0.000378  -0.000015  -0.000051  -0.000001  -0.000026  -0.000001
    19  C    5.068077   0.423188   0.319384  -0.036834  -0.076630   0.006425
    20  H    0.423188   0.489151  -0.031331  -0.003451   0.003854  -0.000079
    21  C    0.319384  -0.031331   4.991819   0.424606   0.032932  -0.003048
    22  H   -0.036834  -0.003451   0.424606   0.495250  -0.000468   0.000039
    23  C   -0.076630   0.003854   0.032932  -0.000468   4.903849   0.438094
    24  H    0.006425  -0.000079  -0.003048   0.000039   0.438094   0.546059
    25  H   -0.003537  -0.000303   0.001866  -0.000054   0.381362  -0.021793
    26  C    0.007667  -0.000733  -0.067400   0.004729   0.383077  -0.045857
    27  H   -0.002091   0.000040   0.005736  -0.000136  -0.042225  -0.001698
    28  H    0.011366   0.000028  -0.015816  -0.000393  -0.037064  -0.008510
              25         26         27         28
     1  C    0.006677   0.292123  -0.036333  -0.034339
     2  C   -0.033428  -0.078961   0.010750  -0.000730
     3  H    0.000043  -0.029705  -0.004678   0.001540
     4  H    0.000185   0.004244  -0.000151  -0.000157
     5  C    0.000147  -0.001178   0.000378  -0.001656
     6  C   -0.000305   0.004145   0.000635  -0.001195
     7  H    0.000051  -0.000817  -0.000015   0.001378
     8  H   -0.000035   0.000395   0.000051  -0.000802
     9  C   -0.000009  -0.000454  -0.000026   0.000164
    10  H    0.000000   0.000019   0.000001  -0.000006
    11  H    0.000005  -0.000036  -0.000001   0.000028
    12  C    0.000024   0.000494  -0.000051   0.000458
    13  H   -0.000000   0.000005  -0.000001  -0.000007
    14  C   -0.000005  -0.000447  -0.000000  -0.000072
    15  H   -0.000001  -0.000001   0.000000  -0.000001
    16  C    0.000019   0.000869  -0.000001   0.000137
    17  H   -0.000006   0.000137   0.000004  -0.000021
    18  H    0.000001  -0.000001  -0.000000   0.000004
    19  C   -0.003537   0.007667  -0.002091   0.011366
    20  H   -0.000303  -0.000733   0.000040   0.000028
    21  C    0.001866  -0.067400   0.005736  -0.015816
    22  H   -0.000054   0.004729  -0.000136  -0.000393
    23  C    0.381362   0.383077  -0.042225  -0.037064
    24  H   -0.021793  -0.045857  -0.001698  -0.008510
    25  H    0.581647  -0.029231  -0.008023   0.008014
    26  C   -0.029231   4.906831   0.427652   0.395939
    27  H   -0.008023   0.427652   0.547742  -0.021878
    28  H    0.008014   0.395939  -0.021878   0.597663
          Atomic-Atomic Spin Densities.
               1          2          3          4          5          6
     1  C   -0.000001  -0.000000   0.000000   0.000000   0.000000  -0.000000
     2  C   -0.000000   0.000000   0.000000   0.000000  -0.000000   0.000000
     3  H    0.000000   0.000000   0.000000  -0.000000  -0.000000   0.000000
     4  H    0.000000   0.000000  -0.000000   0.000000   0.000000  -0.000000
     5  C    0.000000  -0.000000  -0.000000   0.000000  -0.000001   0.000000
     6  C   -0.000000   0.000000   0.000000  -0.000000   0.000000  -0.000000
     7  H   -0.000000   0.000000   0.000000  -0.000000  -0.000000  -0.000000
     8  H    0.000000   0.000000  -0.000000   0.000000  -0.000000  -0.000000
     9  C   -0.000000   0.000000  -0.000000  -0.000000  -0.000000   0.000000
    10  H   -0.000000  -0.000000  -0.000000   0.000000  -0.000000   0.000000
    11  H    0.000000  -0.000000   0.000000   0.000000   0.000000  -0.000000
    12  C   -0.000000   0.000000   0.000000  -0.000000   0.000000  -0.000000
    13  H    0.000000   0.000000   0.000000   0.000000   0.000000  -0.000000
    14  C   -0.000000   0.000000  -0.000000  -0.000000   0.000000   0.000000
    15  H    0.000000  -0.000000  -0.000000   0.000000  -0.000000  -0.000000
    16  C   -0.000000  -0.000000   0.000000   0.000000  -0.000000  -0.000000
    17  H   -0.000000  -0.000000  -0.000000   0.000000   0.000000   0.000000
    18  H   -0.000000  -0.000000   0.000000   0.000000   0.000000  -0.000000
    19  C   -0.000000  -0.000000   0.000000   0.000000   0.000000   0.000000
    20  H   -0.000000   0.000000   0.000000   0.000000  -0.000000  -0.000000
    21  C    0.000000   0.000000  -0.000000  -0.000000   0.000000  -0.000000
    22  H   -0.000000   0.000000  -0.000000  -0.000000   0.000000  -0.000000
    23  C   -0.000000  -0.000000   0.000000  -0.000000   0.000000  -0.000000
    24  H   -0.000000   0.000000   0.000000   0.000000   0.000000   0.000000
    25  H   -0.000000  -0.000000   0.000000   0.000000  -0.000000   0.000000
    26  C    0.000000   0.000000   0.000000  -0.000000  -0.000000   0.000000
    27  H    0.000000   0.000000  -0.000000   0.000000   0.000000   0.000000
    28  H    0.000000  -0.000000  -0.000000   0.000000  -0.000000   0.000000
               7          8          9         10         11         12
     1  C   -0.000000   0.000000  -0.000000  -0.000000   0.000000  -0.000000
     2  C    0.000000   0.000000   0.000000  -0.000000  -0.000000   0.000000
     3  H    0.000000  -0.000000  -0.000000  -0.000000   0.000000   0.000000
     4  H   -0.000000   0.000000  -0.000000   0.000000   0.000000  -0.000000
     5  C   -0.000000  -0.000000  -0.000000  -0.000000   0.000000   0.000000
     6  C   -0.000000  -0.000000   0.000000   0.000000  -0.000000  -0.000000
     7  H    0.000000  -0.000000   0.000000  -0.000000  -0.000000  -0.000000
     8  H   -0.000000  -0.000000   0.000000  -0.000000  -0.000000   0.000000
     9  C    0.000000   0.000000  -0.000001  -0.000000   0.000000  -0.000000
    10  H   -0.000000  -0.000000  -0.000000   0.000000  -0.000000   0.000000
    11  H   -0.000000  -0.000000   0.000000  -0.000000   0.000000  -0.000000
    12  C   -0.000000   0.000000  -0.000000   0.000000  -0.000000   0.000000
    13  H    0.000000   0.000000   0.000000  -0.000000  -0.000000  -0.000000
    14  C    0.000000  -0.000000   0.000000   0.000000   0.000000  -0.000000
    15  H   -0.000000   0.000000  -0.000000  -0.000000  -0.000000   0.000000
    16  C   -0.000000   0.000000   0.000000  -0.000000  -0.000000   0.000000
    17  H   -0.000000  -0.000000   0.000000   0.000000  -0.000000   0.000000
    18  H    0.000000  -0.000000   0.000000   0.000000  -0.000000  -0.000000
    19  C    0.000000  -0.000000  -0.000000   0.000000  -0.000000  -0.000000
    20  H   -0.000000   0.000000   0.000000  -0.000000   0.000000   0.000000
    21  C   -0.000000   0.000000  -0.000000  -0.000000   0.000000   0.000000
    22  H    0.000000  -0.000000  -0.000000   0.000000   0.000000   0.000000
    23  C   -0.000000   0.000000   0.000000   0.000000   0.000000   0.000000
    24  H   -0.000000  -0.000000  -0.000000   0.000000   0.000000  -0.000000
    25  H    0.000000  -0.000000  -0.000000   0.000000  -0.000000   0.000000
    26  C   -0.000000  -0.000000   0.000000   0.000000   0.000000  -0.000000
    27  H   -0.000000  -0.000000  -0.000000   0.000000  -0.000000  -0.000000
    28  H    0.000000  -0.000000   0.000000   0.000000  -0.000000  -0.000000
              13         14         15         16         17         18
     1  C    0.000000  -0.000000   0.000000  -0.000000  -0.000000  -0.000000
     2  C    0.000000   0.000000  -0.000000  -0.000000  -0.000000  -0.000000
     3  H    0.000000  -0.000000  -0.000000   0.000000  -0.000000   0.000000
     4  H    0.000000  -0.000000   0.000000   0.000000   0.000000   0.000000
     5  C    0.000000   0.000000  -0.000000  -0.000000   0.000000   0.000000
     6  C   -0.000000   0.000000  -0.000000  -0.000000   0.000000  -0.000000
     7  H    0.000000   0.000000  -0.000000  -0.000000  -0.000000   0.000000
     8  H    0.000000  -0.000000   0.000000   0.000000  -0.000000  -0.000000
     9  C    0.000000   0.000000  -0.000000   0.000000   0.000000   0.000000
    10  H   -0.000000   0.000000  -0.000000  -0.000000   0.000000   0.000000
    11  H   -0.000000   0.000000  -0.000000  -0.000000  -0.000000  -0.000000
    12  C   -0.000000  -0.000000   0.000000   0.000000   0.000000  -0.000000
    13  H   -0.000000   0.000000   0.000000  -0.000000  -0.000000   0.000000
    14  C    0.000000   0.000001  -0.000000  -0.000000  -0.000000  -0.000000
    15  H    0.000000  -0.000000  -0.000000  -0.000000   0.000000   0.000000
    16  C   -0.000000  -0.000000  -0.000000   0.000001  -0.000000  -0.000000
    17  H   -0.000000  -0.000000   0.000000  -0.000000   0.000000   0.000000
    18  H    0.000000  -0.000000   0.000000  -0.000000   0.000000  -0.000000
    19  C   -0.000000  -0.000000   0.000000   0.000000   0.000000  -0.000000
    20  H   -0.000000   0.000000  -0.000000   0.000000  -0.000000   0.000000
    21  C   -0.000000   0.000000  -0.000000   0.000000   0.000000   0.000000
    22  H    0.000000  -0.000000  -0.000000   0.000000  -0.000000   0.000000
    23  C    0.000000   0.000000   0.000000  -0.000000  -0.000000   0.000000
    24  H   -0.000000  -0.000000  -0.000000  -0.000000   0.000000   0.000000
    25  H   -0.000000   0.000000   0.000000  -0.000000  -0.000000  -0.000000
    26  C   -0.000000   0.000000  -0.000000   0.000000   0.000000   0.000000
    27  H   -0.000000   0.000000  -0.000000  -0.000000   0.000000  -0.000000
    28  H    0.000000   0.000000   0.000000  -0.000000  -0.000000  -0.000000
              19         20         21         22         23         24
     1  C   -0.000000  -0.000000   0.000000  -0.000000  -0.000000  -0.000000
     2  C   -0.000000   0.000000   0.000000   0.000000  -0.000000   0.000000
     3  H    0.000000   0.000000  -0.000000  -0.000000   0.000000   0.000000
     4  H    0.000000   0.000000  -0.000000  -0.000000  -0.000000   0.000000
     5  C    0.000000  -0.000000   0.000000   0.000000   0.000000   0.000000
     6  C    0.000000  -0.000000  -0.000000  -0.000000  -0.000000   0.000000
     7  H    0.000000  -0.000000  -0.000000   0.000000  -0.000000  -0.000000
     8  H   -0.000000   0.000000   0.000000  -0.000000   0.000000  -0.000000
     9  C   -0.000000   0.000000  -0.000000  -0.000000   0.000000  -0.000000
    10  H    0.000000  -0.000000  -0.000000   0.000000   0.000000   0.000000
    11  H   -0.000000   0.000000   0.000000   0.000000   0.000000   0.000000
    12  C   -0.000000   0.000000   0.000000   0.000000   0.000000  -0.000000
    13  H   -0.000000  -0.000000  -0.000000   0.000000   0.000000  -0.000000
    14  C   -0.000000   0.000000   0.000000  -0.000000   0.000000  -0.000000
    15  H    0.000000  -0.000000  -0.000000  -0.000000   0.000000  -0.000000
    16  C    0.000000   0.000000   0.000000   0.000000  -0.000000  -0.000000
    17  H    0.000000  -0.000000   0.000000  -0.000000  -0.000000   0.000000
    18  H   -0.000000   0.000000   0.000000   0.000000   0.000000   0.000000
    19  C    0.000001   0.000000  -0.000000  -0.000000   0.000000  -0.000000
[...]
     2  C   -0.000000   0.000000   0.000000  -0.000000
     3  H    0.000000   0.000000  -0.000000  -0.000000
     4  H    0.000000  -0.000000   0.000000   0.000000
     5  C   -0.000000  -0.000000   0.000000  -0.000000
     6  C    0.000000   0.000000   0.000000   0.000000
     7  H    0.000000  -0.000000  -0.000000   0.000000
     8  H   -0.000000  -0.000000  -0.000000  -0.000000
     9  C   -0.000000   0.000000  -0.000000   0.000000
    10  H    0.000000   0.000000   0.000000   0.000000
    11  H   -0.000000   0.000000  -0.000000  -0.000000
    12  C    0.000000  -0.000000  -0.000000  -0.000000
    13  H   -0.000000  -0.000000  -0.000000   0.000000
    14  C    0.000000   0.000000   0.000000   0.000000
    15  H    0.000000  -0.000000  -0.000000   0.000000
    16  C   -0.000000   0.000000  -0.000000  -0.000000
    17  H   -0.000000   0.000000   0.000000  -0.000000
    18  H   -0.000000   0.000000  -0.000000  -0.000000
    19  C    0.000000   0.000000  -0.000000  -0.000000
    20  H    0.000000   0.000000  -0.000000   0.000000
    21  C   -0.000000  -0.000000   0.000000  -0.000000
    22  H    0.000000   0.000000  -0.000000   0.000000
    23  C    0.000000  -0.000000  -0.000000  -0.000000
    24  H    0.000000   0.000000   0.000000   0.000000
    25  H   -0.000000   0.000000  -0.000000  -0.000000
    26  C    0.000000  -0.000001   0.000000   0.000000
    27  H   -0.000000   0.000000   0.000000  -0.000000
    28  H   -0.000000   0.000000  -0.000000  -0.000000
 Mulliken charges and spin densities:
               1          2
     1  C   -0.209460  -0.000001
     2  C   -0.187856  -0.000000
     3  H    0.142527   0.000000
     4  H    0.155387   0.000000
     5  C   -0.165081  -0.000001
     6  C   -0.187758   0.000000
     7  H    0.149883   0.000000
     8  H    0.155271  -0.000000
     9  C   -0.172937  -0.000001
    10  H    0.116694   0.000000
    11  H    0.127494   0.000000
    12  C   -0.159145   0.000000
    13  H    0.145645  -0.000000
    14  C   -0.209323   0.000001
    15  H    0.142520  -0.000000
    16  C   -0.173529   0.000000
    17  H    0.105957  -0.000000
    18  H    0.124310  -0.000000
    19  C   -0.164983   0.000001
    20  H    0.149739  -0.000000
    21  C   -0.158948  -0.000000
    22  H    0.145621   0.000000
    23  C   -0.172928   0.000001
    24  H    0.127469  -0.000000
    25  H    0.116690  -0.000000
    26  C   -0.173508  -0.000000
    27  H    0.124317   0.000000
    28  H    0.105931   0.000000
 Sum of Mulliken charges =  -0.00000  -0.00000
 Mulliken charges and spin densities with hydrogens summed into heavy atoms:
               1          2
     1  C   -0.066933  -0.000001
     2  C   -0.032469  -0.000000
     5  C   -0.015198  -0.000000
     6  C   -0.032487   0.000000
     9  C    0.071251  -0.000000
    12  C   -0.013500  -0.000000
    14  C   -0.066803   0.000001
    16  C    0.056738   0.000000
    19  C   -0.015244   0.000000
    21  C   -0.013327   0.000000
    23  C    0.071232   0.000000
    26  C    0.056740  -0.000000
 Electronic spatial extent (au):  <R**2>=           2377.3118
 Charge=             -0.0000 electrons
 Dipole moment (field-independent basis, Debye):
    X=             -0.0004    Y=              0.0011    Z=              0.0001  Tot=              0.0011
 Quadrupole moment (field-independent basis, Debye-Ang):
   XX=            -73.0943   YY=            -69.7011   ZZ=            -76.1634
   XY=             -3.1380   XZ=             -4.1835   YZ=             -1.6402
 Traceless Quadrupole moment (field-independent basis, Debye-Ang):
   XX=             -0.1081   YY=              3.2852   ZZ=             -3.1771
   XY=             -3.1380   XZ=             -4.1835   YZ=             -1.6402
 Octapole moment (field-independent basis, Debye-Ang**2):
  XXX=             -0.0144  YYY=              0.0078  ZZZ=             -0.0014  XYY=              0.0030
  XXY=              0.0031  XXZ=              0.0029  XZZ=             -0.0001  YZZ=              0.0008
  YYZ=              0.0023  XYZ=              0.0006
 Hexadecapole moment (field-independent basis, Debye-Ang**3):
 XXXX=          -2150.3650 YYYY=           -627.4679 ZZZZ=           -498.9476 XXXY=           -127.4803
 XXXZ=           -193.1545 YYYX=            -75.9500 YYYZ=            -14.0383 ZZZX=           -135.5035
 ZZZY=            -28.3485 XXYY=           -455.3871 XXZZ=           -456.1405 YYZZ=           -202.7556
 XXYZ=            -28.3876 YYXZ=            -47.5244 ZZXY=            -49.7702
 N-N= 6.666714003937D+02 E-N=-2.415079343498D+03  KE= 4.641341877691D+02
                          Isotropic Fermi Contact Couplings
        Atom                 a.u.       MegaHertz       Gauss      10(-4) cm-1
     1  C(13)             -0.00000      -0.00003      -0.00001      -0.00001
     2  C(13)             -0.00000      -0.00005      -0.00002      -0.00002
     3  H(1)              -0.00000      -0.00000      -0.00000      -0.00000
     4  H(1)               0.00000       0.00006       0.00002       0.00002
     5  C(13)             -0.00000      -0.00017      -0.00006      -0.00006
     6  C(13)              0.00000       0.00005       0.00002       0.00002
     7  H(1)               0.00000       0.00027       0.00009       0.00009
     8  H(1)              -0.00000      -0.00006      -0.00002      -0.00002
     9  C(13)             -0.00000      -0.00020      -0.00007      -0.00007
    10  H(1)               0.00000       0.00009       0.00003       0.00003
    11  H(1)               0.00000       0.00010       0.00004       0.00003
    12  C(13)              0.00000       0.00012       0.00004       0.00004
    13  H(1)              -0.00000      -0.00022      -0.00008      -0.00007
    14  C(13)              0.00000       0.00003       0.00001       0.00001
    15  H(1)               0.00000       0.00000       0.00000       0.00000
    16  C(13)              0.00000       0.00012       0.00004       0.00004
    17  H(1)              -0.00000      -0.00004      -0.00001      -0.00001
    18  H(1)              -0.00000      -0.00005      -0.00002      -0.00002
    19  C(13)              0.00000       0.00017       0.00006       0.00006
    20  H(1)              -0.00000      -0.00027      -0.00010      -0.00009
    21  C(13)             -0.00000      -0.00013      -0.00004      -0.00004
    22  H(1)               0.00000       0.00022       0.00008       0.00008
    23  C(13)              0.00000       0.00020       0.00007       0.00007
    24  H(1)              -0.00000      -0.00010      -0.00004      -0.00003
    25  H(1)              -0.00000      -0.00009      -0.00003      -0.00003
    26  C(13)             -0.00000      -0.00012      -0.00004      -0.00004
    27  H(1)               0.00000       0.00005       0.00002       0.00002
    28  H(1)               0.00000       0.00004       0.00002       0.00001
 --------------------------------------------------------
       Center         ----  Spin Dipole Couplings  ----
                      3XX-RR        3YY-RR        3ZZ-RR
 --------------------------------------------------------
     1   Atom       -0.000000      0.000000      0.000000
     2   Atom        0.000000      0.000000     -0.000000
     3   Atom        0.000000      0.000000     -0.000000
     4   Atom       -0.000000      0.000000      0.000000
     5   Atom       -0.000000     -0.000000      0.000001
     6   Atom       -0.000000      0.000000      0.000000
     7   Atom        0.000000     -0.000000      0.000000
     8   Atom        0.000000      0.000000     -0.000000
     9   Atom       -0.000000      0.000000     -0.000000
    10   Atom        0.000000      0.000000     -0.000000
    11   Atom        0.000000     -0.000000      0.000000
    12   Atom        0.000000      0.000001     -0.000001
    13   Atom       -0.000000      0.000000     -0.000000
    14   Atom        0.000000     -0.000000     -0.000000
    15   Atom       -0.000000     -0.000000      0.000000
    16   Atom        0.000000     -0.000000      0.000000
    17   Atom        0.000000     -0.000000      0.000000
    18   Atom        0.000000      0.000000     -0.000000
    19   Atom        0.000000      0.000000     -0.000001
    20   Atom       -0.000000      0.000000     -0.000000
    21   Atom       -0.000000     -0.000001      0.000001
    22   Atom        0.000000     -0.000000      0.000000
    23   Atom        0.000000     -0.000000      0.000000
    24   Atom       -0.000000      0.000000     -0.000000
    25   Atom       -0.000000     -0.000000      0.000000
    26   Atom       -0.000000      0.000000     -0.000000
    27   Atom       -0.000000     -0.000000      0.000000
    28   Atom       -0.000000      0.000000     -0.000000
 --------------------------------------------------------
                        XY            XZ            YZ
 --------------------------------------------------------
     1   Atom        0.000000     -0.000001      0.000000
     2   Atom        0.000000      0.000000      0.000000
     3   Atom       -0.000000      0.000000      0.000000
     4   Atom       -0.000000     -0.000000      0.000000
     5   Atom        0.000000     -0.000000     -0.000000
     6   Atom       -0.000000     -0.000000     -0.000000
     7   Atom        0.000000      0.000000     -0.000000
     8   Atom        0.000000      0.000000     -0.000000
     9   Atom       -0.000000      0.000000     -0.000000
    10   Atom        0.000000     -0.000000      0.000000
    11   Atom       -0.000000      0.000000     -0.000000
    12   Atom        0.000000     -0.000000     -0.000000
    13   Atom        0.000000     -0.000000     -0.000000
    14   Atom       -0.000000      0.000001     -0.000000
    15   Atom        0.000000     -0.000000     -0.000000
    16   Atom       -0.000000     -0.000000     -0.000000
    17   Atom        0.000000      0.000000      0.000000
    18   Atom       -0.000000      0.000000     -0.000000
    19   Atom       -0.000000      0.000000      0.000000
    20   Atom       -0.000000     -0.000000      0.000000
    21   Atom       -0.000000      0.000000      0.000000
    22   Atom       -0.000000      0.000000      0.000000
    23   Atom        0.000000     -0.000000      0.000000
    24   Atom        0.000000     -0.000000      0.000000
    25   Atom       -0.000000      0.000000     -0.000000
    26   Atom        0.000000      0.000000      0.000000
    27   Atom        0.000000     -0.000000      0.000000
    28   Atom       -0.000000     -0.000000     -0.000000
 --------------------------------------------------------


 ---------------------------------------------------------------------------------
              Anisotropic Spin Dipole Couplings in Principal Axis System
 ---------------------------------------------------------------------------------

       Atom             a.u.   MegaHertz   Gauss  10(-4) cm-1        Axes

              Baa    -0.0000    -0.000    -0.000    -0.000  0.8336 -0.1454  0.5329
     1 C(13)  Bbb     0.0000     0.000     0.000     0.000  0.1086  0.9891  0.0999
              Bcc     0.0000     0.000     0.000     0.000 -0.5416 -0.0254  0.8403
 
              Baa    -0.0000    -0.000    -0.000    -0.000 -0.3369  0.1155  0.9344
     2 C(13)  Bbb    -0.0000    -0.000    -0.000    -0.000 -0.3403  0.9104 -0.2353
              Bcc     0.0000     0.000     0.000     0.000  0.8779  0.3973  0.2674
 
              Baa    -0.0000    -0.000    -0.000    -0.000 -0.2627 -0.1899  0.9460
     3 H(1)   Bbb     0.0000     0.000     0.000     0.000  0.5200  0.7980  0.3046
              Bcc     0.0000     0.000     0.000     0.000  0.8128 -0.5719  0.1109
 
              Baa    -0.0000    -0.000    -0.000    -0.000  0.9824  0.1503  0.1108
     4 H(1)   Bbb    -0.0000    -0.000    -0.000    -0.000 -0.1104  0.9461 -0.3045
              Bcc     0.0000     0.000     0.000     0.000 -0.1506  0.2869  0.9460
 
              Baa    -0.0000    -0.000    -0.000    -0.000 -0.6906  0.7212  0.0534
     5 C(13)  Bbb    -0.0000    -0.000    -0.000    -0.000  0.7178  0.6746  0.1721
              Bcc     0.0000     0.000     0.000     0.000 -0.0881 -0.1571  0.9836
 
              Baa    -0.0000    -0.000    -0.000    -0.000  0.8728  0.3881  0.2959
     6 C(13)  Bbb     0.0000     0.000     0.000     0.000 -0.3224  0.9137 -0.2475
              Bcc     0.0000     0.000     0.000     0.000 -0.3664  0.1206  0.9226
 
              Baa    -0.0000    -0.000    -0.000    -0.000 -0.4941  0.8341  0.2452
     7 H(1)   Bbb     0.0000     0.000     0.000     0.000  0.8602  0.5100 -0.0017
              Bcc     0.0000     0.000     0.000     0.000  0.1264 -0.2101  0.9695
 
              Baa    -0.0000    -0.000    -0.000    -0.000 -0.1591  0.2775  0.9475
     8 H(1)   Bbb     0.0000     0.000     0.000     0.000 -0.1092  0.9488 -0.2963
              Bcc     0.0000     0.000     0.000     0.000  0.9812  0.1506  0.1206
 
              Baa    -0.0000    -0.000    -0.000    -0.000  0.7144  0.0837 -0.6948
     9 C(13)  Bbb    -0.0000    -0.000    -0.000    -0.000  0.5200  0.6009  0.6071
              Bcc     0.0000     0.000     0.000     0.000 -0.4682  0.7950 -0.3857
 
              Baa    -0.0000    -0.000    -0.000    -0.000  0.5588 -0.2055  0.8034
    10 H(1)   Bbb     0.0000     0.000     0.000     0.000 -0.5861  0.5874  0.5580
              Bcc     0.0000     0.000     0.000     0.000  0.5867  0.7827 -0.2078
 
              Baa    -0.0000    -0.000    -0.000    -0.000  0.5572  0.8291  0.0467
    11 H(1)   Bbb     0.0000     0.000     0.000     0.000 -0.4208  0.2335  0.8766
              Bcc     0.0000     0.000     0.000     0.000  0.7158 -0.5081  0.4790
 
              Baa    -0.0000    -0.000    -0.000    -0.000  0.1904  0.0373  0.9810
    12 C(13)  Bbb     0.0000     0.000     0.000     0.000  0.8593 -0.4895 -0.1482
              Bcc     0.0000     0.000     0.000     0.000  0.4746  0.8712 -0.1252
 
              Baa    -0.0000    -0.000    -0.000    -0.000  0.3953  0.2006  0.8964
    13 H(1)   Bbb    -0.0000    -0.000    -0.000    -0.000  0.8965 -0.2965 -0.3290
              Bcc     0.0000     0.000     0.000     0.000  0.1998  0.9337 -0.2970
 
              Baa    -0.0000    -0.000    -0.000    -0.000 -0.5536 -0.0308  0.8322
    14 C(13)  Bbb    -0.0000    -0.000    -0.000    -0.000  0.1015  0.9894  0.1041
              Bcc     0.0000     0.000     0.000     0.000  0.8266 -0.1422  0.5445
 
              Baa    -0.0000    -0.000    -0.000    -0.000 -0.5490  0.8358  0.0090
    15 H(1)   Bbb    -0.0000    -0.000    -0.000    -0.000  0.7906  0.5158  0.3301
              Bcc     0.0000     0.000     0.000     0.000 -0.2712 -0.1883  0.9439
 
              Baa    -0.0000    -0.000    -0.000    -0.000  0.3747  0.8672  0.3279
    16 C(13)  Bbb    -0.0000    -0.000    -0.000    -0.000  0.6636 -0.4979  0.5584
              Bcc     0.0000     0.000     0.000     0.000 -0.6475 -0.0084  0.7620
 
              Baa    -0.0000    -0.000    -0.000    -0.000 -0.4851  0.8222 -0.2979
    17 H(1)   Bbb    -0.0000    -0.000    -0.000    -0.000 -0.5853 -0.0521  0.8092
              Bcc     0.0000     0.000     0.000     0.000  0.6498  0.5668  0.5065
 
              Baa    -0.0000    -0.000    -0.000    -0.000  0.6335  0.5906  0.4999
    18 H(1)   Bbb    -0.0000    -0.000    -0.000    -0.000 -0.4993 -0.1815  0.8472
              Bcc     0.0000     0.000     0.000     0.000 -0.5910  0.7863 -0.1799
 
              Baa    -0.0000    -0.000    -0.000    -0.000 -0.1056 -0.1675  0.9802
    19 C(13)  Bbb     0.0000     0.000     0.000     0.000  0.6332  0.7487  0.1962
              Bcc     0.0000     0.000     0.000     0.000  0.7668 -0.6413 -0.0271
 
              Baa    -0.0000    -0.000    -0.000    -0.000  0.0826 -0.2356  0.9683
    20 H(1)   Bbb    -0.0000    -0.000    -0.000    -0.000  0.8647  0.5000  0.0478
              Bcc     0.0000     0.000     0.000     0.000 -0.4954  0.8334  0.2450
 
              Baa    -0.0000    -0.000    -0.000    -0.000  0.4830  0.8668 -0.1240
    21 C(13)  Bbb    -0.0000    -0.000    -0.000    -0.000  0.8569 -0.4971 -0.1366
              Bcc     0.0000     0.000     0.000     0.000  0.1800  0.0402  0.9828
 
              Baa    -0.0000    -0.000    -0.000    -0.000  0.2052  0.9321 -0.2985
    22 H(1)   Bbb     0.0000     0.000     0.000     0.000  0.9001 -0.2995 -0.3164
              Bcc     0.0000     0.000     0.000     0.000  0.3843  0.2037  0.9005
 
              Baa    -0.0000    -0.000    -0.000    -0.000 -0.4693  0.7940 -0.3865
    23 C(13)  Bbb     0.0000     0.000     0.000     0.000  0.5190  0.6021  0.6067
              Bcc     0.0000     0.000     0.000     0.000  0.7144  0.0841 -0.6947
 
              Baa    -0.0000    -0.000    -0.000    -0.000  0.7179 -0.5117  0.4720
    24 H(1)   Bbb    -0.0000    -0.000    -0.000    -0.000 -0.4143  0.2309  0.8804
              Bcc     0.0000     0.000     0.000     0.000  0.5595  0.8275  0.0463
 
              Baa    -0.0000    -0.000    -0.000    -0.000  0.5729  0.7962 -0.1945
    25 H(1)   Bbb    -0.0000    -0.000    -0.000    -0.000  0.6020 -0.5698 -0.5595
              Bcc     0.0000     0.000     0.000     0.000  0.5563 -0.2034  0.8057
 
              Baa    -0.0000    -0.000    -0.000    -0.000 -0.6475 -0.0080  0.7621
    26 C(13)  Bbb     0.0000     0.000     0.000     0.000  0.6629 -0.4992  0.5580
              Bcc     0.0000     0.000     0.000     0.000  0.3759  0.8664  0.3286
 
              Baa    -0.0000    -0.000    -0.000    -0.000 -0.5947  0.7838 -0.1787
    27 H(1)   Bbb     0.0000     0.000     0.000     0.000 -0.4900 -0.1772  0.8535
              Bcc     0.0000     0.000     0.000     0.000  0.6373  0.5952  0.4894
 
              Baa    -0.0000    -0.000    -0.000    -0.000  0.6484  0.5612  0.5145
    28 H(1)   Bbb     0.0000     0.000     0.000     0.000 -0.6004 -0.0386  0.7988
              Bcc     0.0000     0.000     0.000     0.000 -0.4681  0.8268 -0.3119
 

 ---------------------------------------------------------------------------------

 No NMR shielding tensors so no spin-rotation constants.
 Leave Link  601 at Mon Aug  3 13:42:10 2020, MaxMem=  6442450944 cpu:               8.2 elap:               0.4
 (Enter /scratch/scicomp/CentOS/7.3.1611/Haswell/software/Gaussian/g16/l9999.exe)
 1\1\GINC-ATLAS-205\SP\UwB97XD\def2TZVP\C12H16\BOCHEN\03-Aug-2020\0\\#p
  uwb97xd guess=mix def2tzvp # scrf=(iefpcm,solvent=Cyclohexane,read) n
 osym 6d 10f\\endo-2 xp-pcm for eta=3\\0,1\C,0,-3.10074,-0.436725,0.295
 815\C,0,-0.857979,-0.286324,-1.428905\H,0,-3.998989,-0.507198,0.898194
 \H,0,0.044923,-0.220426,-2.024218\C,0,1.256794,1.450448,0.922302\C,0,0
 .857979,0.286324,1.428905\H,0,0.679926,2.352386,1.089821\H,0,-0.044923
 ,0.220426,2.024218\C,0,1.678016,-0.959021,1.24721\H,0,2.333558,-1.0640
 55,2.121932\H,0,1.030749,-1.837588,1.242211\C,0,2.491654,1.537925,0.14
 0607\H,0,2.894748,2.517041,-0.088961\C,0,3.10074,0.436725,-0.295815\H,
 0,3.998989,0.507198,-0.898194\C,0,2.520053,-0.925099,-0.029697\H,0,1.8
 98127,-1.206584,-0.888225\H,0,3.312455,-1.673451,0.027707\C,0,-1.25679
 4,-1.450448,-0.922302\H,0,-0.679926,-2.352386,-1.089821\C,0,-2.491654,
 -1.537925,-0.140607\H,0,-2.894748,-2.517041,0.088961\C,0,-1.678016,0.9
 59021,-1.24721\H,0,-1.030749,1.837588,-1.242211\H,0,-2.333558,1.064055
 ,-2.121932\C,0,-2.520053,0.925099,0.029697\H,0,-3.312455,1.673451,-0.0
 27707\H,0,-1.898127,1.206584,0.888225\\Version=ES64L-G16RevB.01\HF=-46
 6.8604444\S2=0.\S2-1=0.\S2A=0.\RMSD=8.791e-09\Dipole=-0.0001532,0.0004
 19,0.0000504\Quadrupole=-0.0803542,2.4424523,-2.3620981,-2.333048,-3.1
 103006,-1.2194265\PG=CI [X(C12H16)]\\@


 In the race for quality, there is no finish line.
                               -- David T. Kearns
 Job cpu time:       0 days  1 hours 58 minutes 10.3 seconds.
 Elapsed time:       0 days  0 hours  4 minutes 58.8 seconds.
 File lengths (MBytes):  RWF=    655 Int=      0 D2E=      0 Chk=     24 Scr=      1
 Normal termination of Gaussian 16 at Mon Aug  3 13:42:11 2020.
