 Entering Gaussian System, Link 0=g16
 Input=meso-TS_31_2_pcm.com
 Output=meso-TS_31_2_pcm.log
 Initial command:
 /scratch/scicomp/CentOS/7.3.1611/Haswell/software/Gaussian/g16/l1.exe "/scratch/bochen/cyclohexadiene-dimerization/wb97xd-def2tzvp/xp-pcm/meso/Gau-34722.inp" -scrdir="/scratch/bochen/cyclohexadiene-dimerization/wb97xd-def2tzvp/xp-pcm/meso/"
 Entering Link 1 = /scratch/scicomp/CentOS/7.3.1611/Haswell/software/Gaussian/g16/l1.exe PID=     34723.
  
 Copyright (c) 1988-2017, Gaussian, Inc.  All Rights Reserved.
  
 This is part of the Gaussian(R) 16 program.  It is based on
 the Gaussian(R) 09 system (copyright 2009, Gaussian, Inc.),
 the Gaussian(R) 03 system (copyright 2003, Gaussian, Inc.),
 the Gaussian(R) 98 system (copyright 1998, Gaussian, Inc.),
 the Gaussian(R) 94 system (copyright 1995, Gaussian, Inc.),
 the Gaussian 92(TM) system (copyright 1992, Gaussian, Inc.),
 the Gaussian 90(TM) system (copyright 1990, Gaussian, Inc.),
 the Gaussian 88(TM) system (copyright 1988, Gaussian, Inc.),
 the Gaussian 86(TM) system (copyright 1986, Carnegie Mellon
 University), and the Gaussian 82(TM) system (copyright 1983,
 Carnegie Mellon University). Gaussian is a federally registered
 trademark of Gaussian, Inc.
  
 This software contains proprietary and confidential information,
 including trade secrets, belonging to Gaussian, Inc.
  
 This software is provided under written license and may be
 used, copied, transmitted, or stored only in accord with that
 written license.
  
 The following legend is applicable only to US Government
 contracts under FAR:
  
                    RESTRICTED RIGHTS LEGEND
  
 Use, reproduction and disclosure by the US Government is
 subject to restrictions as set forth in subparagraphs (a)
 and (c) of the Commercial Computer Software - Restricted
 Rights clause in FAR 52.227-19.
  
 Gaussian, Inc.
 340 Quinnipiac St., Bldg. 40, Wallingford CT 06492
  
  
 ---------------------------------------------------------------
 Warning -- This program may not be used in any manner that
 competes with the business of Gaussian, Inc. or will provide
 assistance to any competitor of Gaussian, Inc.  The licensee
 of this program is prohibited from giving any competitor of
 Gaussian, Inc. access to this program.  By using this program,
 the user acknowledges that Gaussian, Inc. is engaged in the
 business of creating and licensing software in the field of
 computational chemistry and represents and warrants to the
 licensee that it is not a competitor of Gaussian, Inc. and that
 it will not use this program in any manner prohibited above.
 ---------------------------------------------------------------
  

 Cite this work as:
 Gaussian 16, Revision B.01,
 M. J. Frisch, G. W. Trucks, H. B. Schlegel, G. E. Scuseria, 
 M. A. Robb, J. R. Cheeseman, G. Scalmani, V. Barone, 
 G. A. Petersson, H. Nakatsuji, X. Li, M. Caricato, A. V. Marenich, 
 J. Bloino, B. G. Janesko, R. Gomperts, B. Mennucci, H. P. Hratchian, 
 J. V. Ortiz, A. F. Izmaylov, J. L. Sonnenberg, D. Williams-Young, 
 F. Ding, F. Lipparini, F. Egidi, J. Goings, B. Peng, A. Petrone, 
 T. Henderson, D. Ranasinghe, V. G. Zakrzewski, J. Gao, N. Rega, 
 G. Zheng, W. Liang, M. Hada, M. Ehara, K. Toyota, R. Fukuda, 
 J. Hasegawa, M. Ishida, T. Nakajima, Y. Honda, O. Kitao, H. Nakai, 
 T. Vreven, K. Throssell, J. A. Montgomery, Jr., J. E. Peralta, 
 F. Ogliaro, M. J. Bearpark, J. J. Heyd, E. N. Brothers, K. N. Kudin, 
 V. N. Staroverov, T. A. Keith, R. Kobayashi, J. Normand, 
 K. Raghavachari, A. P. Rendell, J. C. Burant, S. S. Iyengar, 
 J. Tomasi, M. Cossi, J. M. Millam, M. Klene, C. Adamo, R. Cammi, 
 J. W. Ochterski, R. L. Martin, K. Morokuma, O. Farkas, 
 J. B. Foresman, and D. J. Fox, Gaussian, Inc., Wallingford CT, 2016.
 
 ******************************************
 Gaussian 16:  ES64L-G16RevB.01 20-Dec-2017
                 3-Aug-2020 
 ******************************************
 %nproc=24
 Will use up to   24 processors via shared memory.
 %mem=48GB
 ----------------------------------------------------------------------
 #p uwb97xd guess=mix def2tzvp # scrf=(iefpcm,solvent=Cyclohexane,read)
  nosym 6d 10f
 ----------------------------------------------------------------------
 1/38=1,40=2,172=1/1;
 2/12=2,15=1,17=6,18=5,40=1/2;
 3/5=44,7=101,8=22,11=2,25=1,30=1,70=2203,72=17,74=-58,116=2/1,2,3;
 4/13=-1/1;
 5/5=2,38=5,53=17/2;
 6/7=2,8=2,9=2,10=2,28=1/1;
 99/5=1,9=1/99;
 Leave Link    1 at Mon Aug  3 15:15:54 2020, MaxMem=  6442450944 cpu:               1.6 elap:               0.1
 (Enter /scratch/scicomp/CentOS/7.3.1611/Haswell/software/Gaussian/g16/l101.exe)
 -----------------------
 endo-2 xp-pcm for eta=3
 -----------------------
 Symbolic Z-matrix:
 Charge =  0 Multiplicity = 1
 6                    -3.12449  -0.43946   0.25089 
 6                    -0.64731  -0.23043  -1.1056 
 1                    -4.08497  -0.54475   0.74203 
 1                     0.32319  -0.13763  -1.57448 
 6                     1.11596   1.41576   0.7262 
 6                     0.64731   0.23043   1.1056 
 1                     0.52451   2.31377   0.85425 
 1                    -0.32319   0.13763   1.57448 
 6                     1.50301  -1.00104   1.03866 
 1                     1.98522  -1.09544   2.01983 
 1                     0.887    -1.89127   0.92148 
 6                     2.43384   1.5219    0.10595 
 1                     2.84011   2.50902  -0.08001 
 6                     3.12449   0.43946  -0.25089 
 1                     4.08497   0.54475  -0.74203 
 6                     2.58721  -0.95031  -0.04345 
 1                     2.20416  -1.32618  -1.00025 
 1                     3.40004  -1.62668   0.22885 
 6                    -1.11596  -1.41576  -0.7262 
 1                    -0.52451  -2.31377  -0.85425 
 6                    -2.43384  -1.5219   -0.10595 
 1                    -2.84011  -2.50902   0.08001 
 6                    -1.50301   1.00104  -1.03866 
 1                    -0.887     1.89127  -0.92148 
 1                    -1.98522   1.09544  -2.01983 
 6                    -2.58721   0.95031   0.04345 
 1                    -3.40004   1.62668  -0.22885 
 1                    -2.20416   1.32618   1.00025 
 
 ITRead=  0  0  0  0  0  0  0  0  0  0  0  0  0  0  0  0  0  0  0  0
 ITRead=  0  0  0  0  0  0  0  0
 MicOpt= -1 -1 -1 -1 -1 -1 -1 -1 -1 -1 -1 -1 -1 -1 -1 -1 -1 -1 -1 -1
 MicOpt= -1 -1 -1 -1 -1 -1 -1 -1
 NAtoms=     28 NQM=       28 NQMF=       0 NMMI=      0 NMMIF=      0
                NMic=       0 NMicF=      0.
                    Isotopes and Nuclear Properties:
 (Nuclear quadrupole moments (NQMom) in fm**2, nuclear magnetic moments (NMagM)
  in nuclear magnetons)

  Atom         1           2           3           4           5           6           7           8           9          10
 IAtWgt=          12          12           1           1          12          12           1           1          12           1
 AtmWgt=  12.0000000  12.0000000   1.0078250   1.0078250  12.0000000  12.0000000   1.0078250   1.0078250  12.0000000   1.0078250
 NucSpn=           0           0           1           1           0           0           1           1           0           1
 AtZEff=  -0.0000000  -0.0000000  -0.0000000  -0.0000000  -0.0000000  -0.0000000  -0.0000000  -0.0000000  -0.0000000  -0.0000000
 NQMom=    0.0000000   0.0000000   0.0000000   0.0000000   0.0000000   0.0000000   0.0000000   0.0000000   0.0000000   0.0000000
 NMagM=    0.0000000   0.0000000   2.7928460   2.7928460   0.0000000   0.0000000   2.7928460   2.7928460   0.0000000   2.7928460
 AtZNuc=   6.0000000   6.0000000   1.0000000   1.0000000   6.0000000   6.0000000   1.0000000   1.0000000   6.0000000   1.0000000

  Atom        11          12          13          14          15          16          17          18          19          20
 IAtWgt=           1          12           1          12           1          12           1           1          12           1
 AtmWgt=   1.0078250  12.0000000   1.0078250  12.0000000   1.0078250  12.0000000   1.0078250   1.0078250  12.0000000   1.0078250
 NucSpn=           1           0           1           0           1           0           1           1           0           1
 AtZEff=  -0.0000000  -0.0000000  -0.0000000  -0.0000000  -0.0000000  -0.0000000  -0.0000000  -0.0000000  -0.0000000  -0.0000000
 NQMom=    0.0000000   0.0000000   0.0000000   0.0000000   0.0000000   0.0000000   0.0000000   0.0000000   0.0000000   0.0000000
 NMagM=    2.7928460   0.0000000   2.7928460   0.0000000   2.7928460   0.0000000   2.7928460   2.7928460   0.0000000   2.7928460
 AtZNuc=   1.0000000   6.0000000   1.0000000   6.0000000   1.0000000   6.0000000   1.0000000   1.0000000   6.0000000   1.0000000

  Atom        21          22          23          24          25          26          27          28
 IAtWgt=          12           1          12           1           1          12           1           1
 AtmWgt=  12.0000000   1.0078250  12.0000000   1.0078250   1.0078250  12.0000000   1.0078250   1.0078250
 NucSpn=           0           1           0           1           1           0           1           1
 AtZEff=  -0.0000000  -0.0000000  -0.0000000  -0.0000000  -0.0000000  -0.0000000  -0.0000000  -0.0000000
 NQMom=    0.0000000   0.0000000   0.0000000   0.0000000   0.0000000   0.0000000   0.0000000   0.0000000
 NMagM=    0.0000000   2.7928460   0.0000000   2.7928460   2.7928460   0.0000000   2.7928460   2.7928460
 AtZNuc=   6.0000000   1.0000000   6.0000000   1.0000000   1.0000000   6.0000000   1.0000000   1.0000000
 Leave Link  101 at Mon Aug  3 15:15:54 2020, MaxMem=  6442450944 cpu:               2.4 elap:               0.1
 (Enter /scratch/scicomp/CentOS/7.3.1611/Haswell/software/Gaussian/g16/l202.exe)
                          Input orientation:                          
 ---------------------------------------------------------------------
 Center     Atomic      Atomic             Coordinates (Angstroms)
 Number     Number       Type             X           Y           Z
 ---------------------------------------------------------------------
      1          6           0       -3.124486   -0.439464    0.250893
      2          6           0       -0.647306   -0.230427   -1.105597
      3          1           0       -4.084971   -0.544748    0.742034
      4          1           0        0.323194   -0.137629   -1.574480
      5          6           0        1.115957    1.415764    0.726197
      6          6           0        0.647306    0.230427    1.105597
      7          1           0        0.524506    2.313770    0.854246
      8          1           0       -0.323194    0.137629    1.574480
      9          6           0        1.503007   -1.001045    1.038660
     10          1           0        1.985221   -1.095436    2.019831
     11          1           0        0.887003   -1.891265    0.921479
     12          6           0        2.433841    1.521901    0.105946
     13          1           0        2.840105    2.509020   -0.080013
     14          6           0        3.124486    0.439464   -0.250893
     15          1           0        4.084971    0.544748   -0.742034
     16          6           0        2.587213   -0.950307   -0.043454
     17          1           0        2.204157   -1.326175   -1.000254
     18          1           0        3.400038   -1.626681    0.228849
     19          6           0       -1.115957   -1.415764   -0.726197
     20          1           0       -0.524506   -2.313770   -0.854246
     21          6           0       -2.433841   -1.521901   -0.105946
     22          1           0       -2.840105   -2.509020    0.080013
     23          6           0       -1.503007    1.001045   -1.038660
     24          1           0       -0.887003    1.891265   -0.921479
     25          1           0       -1.985221    1.095436   -2.019831
     26          6           0       -2.587213    0.950307    0.043454
     27          1           0       -3.400038    1.626680   -0.228849
     28          1           0       -2.204158    1.326175    1.000254
 ---------------------------------------------------------------------
                    Distance matrix (angstroms):
                    1          2          3          4          5
     1  C    0.000000
     2  C    2.831993   0.000000
     3  H    1.083898   3.915364   0.000000
     4  H    3.912747   1.081819   4.996389   0.000000
     5  C    4.652864   3.028945   5.558193   2.886974   0.000000
     6  C    3.925008   2.603418   4.809108   2.724578   1.329888
     7  H    4.610800   3.418635   5.425034   3.456674   1.082878
     8  H    3.151532   2.724578   3.912745   3.226381   2.103418
     9  C    4.727541   3.132976   5.614418   2.994319   2.467470
    10  H    5.446884   4.176929   6.227620   4.074162   2.955543
    11  H    4.318502   3.036696   5.154205   3.102085   3.320692
    12  C    5.896012   3.745925   6.868082   3.167444   1.460409
    13  H    6.661787   4.551750   7.613011   3.946267   2.194965
    14  C    6.330399   3.925008   7.343762   3.151532   2.437633
    15  H    7.343762   4.809108   8.374808   3.912745   3.424823
    16  C    5.742047   3.479725   6.730491   2.851363   2.890545
    17  H    5.544913   3.056567   6.572619   2.297912   3.418046
    18  H    6.631695   4.484558   7.580191   3.864743   3.836776
    19  C    2.437633   1.329888   3.424823   2.103418   3.886958
    20  H    3.390317   2.102041   4.284211   2.443956   4.370165
    21  C    1.332664   2.420519   2.097648   3.416730   4.682243
    22  H    2.095981   3.377281   2.417918   4.285709   5.609983
    23  C    2.523333   1.501076   3.496696   2.217812   3.185229
    24  H    3.437017   2.143112   4.350682   2.450999   2.636814
    25  H    2.968170   2.093741   3.837584   2.654725   4.154586
    26  C    1.504379   2.545131   2.228561   3.503111   3.794240
    27  H    2.138933   3.434395   2.475247   4.334278   4.620694
    28  H    2.127446   3.046540   2.665425   3.893518   3.332611
                    6          7          8          9         10
     6  C    0.000000
     7  H    2.102041   0.000000
     8  H    1.081819   2.443956   0.000000
     9  C    1.501076   3.461137   2.217812   0.000000
    10  H    2.093741   3.887797   2.654725   1.097332   0.000000
    11  H    2.143112   4.221166   2.450999   1.088891   1.745223
    12  C    2.420519   2.198311   3.416730   2.846342   3.273327
    13  H    3.377281   2.504588   4.285709   3.919160   4.258201
    14  C    2.831993   3.390317   3.912747   2.523333   2.968170
    15  H    3.915364   4.284211   4.996389   3.496696   3.837584
    16  C    2.545131   3.964193   3.503111   1.532660   2.154206
    17  H    3.046540   4.416967   3.893518   2.180480   3.036789
    18  H    3.434395   4.918024   4.334278   2.155444   2.343405
    19  C    3.028945   4.370165   2.886974   3.185229   4.154586
    20  H    3.418635   5.043163   3.456674   3.068737   4.005420
    21  C    3.745925   4.938234   3.167444   4.132818   4.922287
    22  H    4.551750   5.931218   3.946267   4.696341   5.389331
    23  C    3.132976   3.068737   2.994319   4.166502   5.090907
    24  H    3.036696   2.307394   3.102085   4.233173   5.081472
    25  H    4.176929   4.005420   4.074162   5.090907   6.073154
    26  C    3.479725   3.492737   2.851363   4.639839   5.385005
    27  H    4.484558   4.128830   3.864743   5.705381   6.439526
    28  H    3.056568   2.905558   2.297913   4.377271   4.945163
                   11         12         13         14         15
    11  H    0.000000
    12  C    3.835036   0.000000
    13  H    4.917327   1.083529   0.000000
    14  C    3.437017   1.332664   2.095981   0.000000
    15  H    4.350682   2.097648   2.417918   1.083898   0.000000
    16  C    2.169611   2.481462   3.468751   1.504379   2.228561
    17  H    2.397348   3.063979   3.994996   2.127446   2.665425
    18  H    2.620131   3.295787   4.184847   2.138933   2.475248
    19  C    2.636814   4.682243   5.609983   4.652864   5.558193
    20  H    2.307394   4.938234   5.931218   4.610800   5.425034
    21  C    3.495717   5.744907   6.638035   5.896012   6.868082
    22  H    3.870532   6.638035   7.580971   6.661787   7.613011
    23  C    4.233173   4.132818   4.696341   4.727541   5.614418
    24  H    4.566303   3.495717   3.870532   4.318502   5.154205
    25  H    5.081472   4.922287   5.389331   5.446884   6.227620
    26  C    4.573362   5.053871   5.648063   5.742047   6.730491
    27  H    5.663737   5.844417   6.303972   6.631695   7.580191
    28  H    4.462443   4.727487   5.292512   5.544914   6.572620
                   16         17         18         19         20
    16  C    0.000000
    17  H    1.097030   0.000000
    18  H    1.091932   1.741014   0.000000
    19  C    3.794240   3.332610   4.620694   0.000000
    20  H    3.492737   2.905557   4.128829   1.082878   0.000000
    21  C    5.053871   4.727486   5.844417   1.460409   2.198311
    22  H    5.648063   5.292512   6.303972   2.194965   2.504588
    23  C    4.639839   4.377270   5.705381   2.467470   3.461137
    24  H    4.573362   4.462443   5.663737   3.320692   4.221166
    25  H    5.385005   4.945162   6.439526   2.955543   3.887797
    26  C    5.513127   5.406378   6.520921   2.890545   3.964193
    27  H    6.520921   6.381334   7.552144   3.836776   4.918023
    28  H    5.406379   5.519985   6.381335   3.418047   4.416967
                   21         22         23         24         25
    21  C    0.000000
    22  H    1.083529   0.000000
    23  C    2.846342   3.919160   0.000000
    24  H    3.835036   4.917327   1.088891   0.000000
    25  H    3.273327   4.258201   1.097332   1.745223   0.000000
    26  C    2.481462   3.468751   1.532660   2.169611   2.154206
    27  H    3.295786   4.184846   2.155444   2.620131   2.343404
    28  H    3.063979   3.994996   2.180480   2.397349   3.036789
                   26         27         28
    26  C    0.000000
    27  H    1.091931   0.000000
    28  H    1.097030   1.741013   0.000000
 Symmetry turned off by external request.
 Stoichiometry    C12H16
 Framework group  CI[X(C12H16)]
 Deg. of freedom    39
 Full point group                 CI      NOp   2
 Rotational constants (GHZ):           1.8437848           0.6150436           0.5446288
 Leave Link  202 at Mon Aug  3 15:15:54 2020, MaxMem=  6442450944 cpu:               0.3 elap:               0.0
 (Enter /scratch/scicomp/CentOS/7.3.1611/Haswell/software/Gaussian/g16/l301.exe)
 Standard basis: def2TZVP (6D, 10F)
 Ernie: Thresh=  0.10000D-02 Tol=  0.10000D-05 Strict=F.
   528 basis functions,   740 primitive gaussians,   528 cartesian basis functions
    44 alpha electrons       44 beta electrons
       nuclear repulsion energy       683.6431228402 Hartrees.
 IExCor= 4639 DFT=T Ex+Corr=wB97XD ExCW=0 ScaHFX=  1.000000
 ScaDFX=  1.000000  1.000000  1.000000  1.000000 ScalE2=  1.000000  1.000000
 IRadAn=      5 IRanWt=     -1 IRanGd=            0 ICorTp=0 IEmpDi=121
 HFx  wShort=  0.000000 wLong=  0.200000 cFull=  0.222036 cShort=  0.000000 cLong=  0.777964
 DFx  wShort=  0.000000 wLong=  0.200000 cFull=  0.000000 cShort=  0.000000 cLong=  1.000000
 NAtoms=   28 NActive=   28 NUniq=   28 SFac= 1.00D+00 NAtFMM=   60 NAOKFM=F Big=F
 Integral buffers will be    131072 words long.
 Raffenetti 2 integral format.
 Two-electron integral symmetry is turned off.
 R6Disp:  Grimme-D2 Dispersion energy=       -0.0228535623 Hartrees.
 Nuclear repulsion after empirical dispersion term =      683.6202692779 Hartrees.
 Using the following non-standard input for PCM:
 norep pcmdoc geomview  nodis nocav g03defaults tsare=0.075
 Warning! Using old PCM defaults because the g03defaults keyword was found.
 These settings can be overridden by following keywords.
 nsfe=28
 NVESolv=36  SolvMW=84.1595   Rsolv=2.815
 eps=2.0165 RhoS=0.7781
 --- end of non-standard input.
 Reading user-defined spheres from input:
 ISph  on   Nord    Re0     Alpha      Xe            Ye            Ze
 --- end of user-defined spheres data.
 ------------------------------------------------------------------------------
 Polarizable Continuum Model (PCM)
 =================================
 Model                : PCM.
 Atomic radii         : UA0 (Simple United Atom Topological Model).
 Polarization charges : Total charges.
 Charge compensation  : None.
 Solution method      : On-the-fly selection.
 Cavity type          : SES (Solvent Excluding Surface) (Alpha=1.000).
 Cavity algorithm     : GePol (RMin=0.200 OFac=0.890).
                        User-defined sphere list used, NSphG=   28.
                        Tesserae with average area of 0.075 Ang**2.
                        Smoothing algorithm: None.
                        Polarization charges: point-like.
                        Self-potential: constant (ISelfS= 1).
                        Self-field    : global E.n sum rule (ISelfD= 3).
 Solvent              : CycloHexane, Eps=   2.016500 Eps(inf)=   2.035188
                        RSolv=   2.815000 Ang.
 ------------------------------------------------------------------------------
 GePol: Number of generator spheres                  =      28
 GePol: Total number of spheres                      =     186
 GePol: Number of exposed spheres                    =     133 ( 71.51%)
 GePol: Number of tesserae                           =    4665
 GePol: Average area of tesserae                     =       0.05 Ang**2
 GePol: Minimum area of tessera                      =   0.10D-02 Ang**2
 GePol: Maximum area of tessera                      =    0.12533 Ang**2
 GePol: Number of small tesserae                     =       0
 GePol: Fraction of small tesserae (<1% of avg)      =       0.00%
 GePol: Total count of vertices                      =   16527
 GePol: Maximum number of vertices in a tessera      =       7
 GePol: Cavity surface area                          =    219.706 Ang**2
 GePol: Cavity volume                                =    248.461 Ang**3
 Leave Link  301 at Mon Aug  3 15:15:54 2020, MaxMem=  6442450944 cpu:               7.9 elap:               0.4
 (Enter /scratch/scicomp/CentOS/7.3.1611/Haswell/software/Gaussian/g16/l302.exe)
 NPDir=0 NMtPBC=     1 NCelOv=     1 NCel=       1 NClECP=     1 NCelD=      1
         NCelK=      1 NCelE2=     1 NClLst=     1 CellRange=     0.0.
 One-electron integrals computed using PRISM.
   1 Symmetry operations used in ECPInt.
 ECPInt:  NShTT=   19306 NPrTT=   56928 LenC2=   18504 LenP2D=   42098.
 LDataN:  DoStor=T MaxTD1= 6 Len=  172
 NBasis=   528 RedAO= T EigKep=  1.78D-05  NBF=   528
 NBsUse=   528 1.00D-06 EigRej= -1.00D+00 NBFU=   528
 Precomputing XC quadrature grid using
 IXCGrd= 4 IRadAn=           5 IRanWt=          -1 IRanGd=           0 AccXCQ= 0.00D+00.
 Generated NRdTot=       0 NPtTot=           0 NUsed=           0 NTot=          32
 NSgBfM=   526   526   526   526   526 MxSgAt=    28 MxSgA2=    28.
 Leave Link  302 at Mon Aug  3 15:15:55 2020, MaxMem=  6442450944 cpu:              12.8 elap:               0.6
 (Enter /scratch/scicomp/CentOS/7.3.1611/Haswell/software/Gaussian/g16/l303.exe)
 DipDrv:  MaxL=1.
 Leave Link  303 at Mon Aug  3 15:15:55 2020, MaxMem=  6442450944 cpu:               1.5 elap:               0.1
 (Enter /scratch/scicomp/CentOS/7.3.1611/Haswell/software/Gaussian/g16/l401.exe)
 ExpMin= 9.52D-02 ExpMax= 1.36D+04 ExpMxC= 4.63D+02 IAcc=3 IRadAn=         5 AccDes= 0.00D+00
 Harris functional with IExCor= 4639 and IRadAn=       5 diagonalized for initial guess.
 HarFok:  IExCor= 4639 AccDes= 0.00D+00 IRadAn=         5 IDoV= 1 UseB2=F ITyADJ=14
 ICtDFT=  3500011 ScaDFX=  1.000000  1.000000  1.000000  1.000000
 FoFCou: FMM=F IPFlag=           0 FMFlag=      100000 FMFlg1=           0
         NFxFlg=           0 DoJE=T BraDBF=F KetDBF=T FulRan=T
         wScrn=  0.000000 ICntrl=       500 IOpCl=  0 I1Cent=   200000004 NGrid=           0
         NMat0=    1 NMatS0=      1 NMatT0=    0 NMatD0=    1 NMtDS0=    0 NMtDT0=    0
 Symmetry not used in FoFCou.
 Harris En= -444.645800545004    
 JPrj=0 DoOrth=F DoCkMO=T.
 Mixing orbitals, IMix= 1 IMixAn=  0 NRI=1 NE=   44 Coef=  7.07106781D-01  7.07106781D-01
 Mixing orbitals, IMix= 1 IMixAn=  0 NRI=1 NE=   44 Coef= -7.07106781D-01  7.07106781D-01
 Initial guess <Sx>= 0.0000 <Sy>= 0.0000 <Sz>= 0.0000 <S**2>= 1.0000 S= 0.6180
 Leave Link  401 at Mon Aug  3 15:15:57 2020, MaxMem=  6442450944 cpu:              48.9 elap:               2.1
 (Enter /scratch/scicomp/CentOS/7.3.1611/Haswell/software/Gaussian/g16/l502.exe)
 Two-electron integral symmetry not used.
 UHF open shell SCF:
 Using DIIS extrapolation, IDIIS=  1040.
 NGot=  6442450944 LenX=  6441877030 LenY=  6441597718
 Requested convergence on RMS density matrix=1.00D-08 within 128 cycles.
 Requested convergence on MAX density matrix=1.00D-06.
 Requested convergence on             energy=1.00D-06.
 No special actions if energy rises.
 Fock matrices will be formed incrementally for  20 cycles.

 Cycle   1  Pass 1  IDiag  1:
 FoFJK:  IHMeth= 1 ICntrl=       0 DoSepK=T KAlg= 0 I1Cent=           0 FoldK=F
 IRaf=         1 NMat=       1 IRICut=       1 DoRegI=T DoRafI=F ISym2E= 0 IDoP0=0 IntGTp=1.
 FoFCou: FMM=F IPFlag=           0 FMFlag=      100000 FMFlg1=           0
         NFxFlg=           0 DoJE=T BraDBF=F KetDBF=F FulRan=T
         wScrn=  0.000000 ICntrl=       500 IOpCl=  0 I1Cent=           0 NGrid=           0
         NMat0=    1 NMatS0=      1 NMatT0=    0 NMatD0=    1 NMtDS0=    0 NMtDT0=    0
 Symmetry not used in FoFCou.
 Inv3:  Mode=1 IEnd=    65286675.
 Iteration    1 A*A^-1 deviation from unit magnitude is 3.95D-14 for    299.
 Iteration    1 A*A^-1 deviation from orthogonality  is 4.36D-14 for    299    116.
 Iteration    1 A^-1*A deviation from unit magnitude is 4.62D-14 for    116.
 Iteration    1 A^-1*A deviation from orthogonality  is 2.42D-14 for    299    116.
 E= -466.586369082722    
 DIIS: error= 5.62D-02 at cycle   1 NSaved=   1.
 NSaved= 1 IEnMin= 1 EnMin= -466.586369082722     IErMin= 1 ErrMin= 5.62D-02
 ErrMax= 5.62D-02  0.00D+00 EMaxC= 1.00D-01 BMatC= 4.11D+00 BMatP= 4.11D+00
 IDIUse=3 WtCom= 4.38D-01 WtEn= 5.62D-01
 Coeff-Com:  0.100D+01
 Coeff-En:   0.100D+01
 Coeff:      0.100D+01
 Gap=     0.186 Goal=   None    Shift=    0.000
 Gap=     0.186 Goal=   None    Shift=    0.000
 GapD=    0.186 DampG=1.000 DampE=0.500 DampFc=0.5000 IDamp=-1.
 Damping current iteration by 5.00D-01
 RMSDP=1.62D-03 MaxDP=9.22D-02              OVMax= 3.21D-01

 Cycle   2  Pass 1  IDiag  1:
 RMSU=  7.81D-04    CP:  9.66D-01
 E= -466.691582843097     Delta-E=       -0.105213760375 Rises=F Damp=T
 DIIS: error= 2.67D-02 at cycle   2 NSaved=   2.
 NSaved= 2 IEnMin= 2 EnMin= -466.691582843097     IErMin= 2 ErrMin= 2.67D-02
 ErrMax= 2.67D-02  0.00D+00 EMaxC= 1.00D-01 BMatC= 9.33D-01 BMatP= 4.11D+00
 IDIUse=3 WtCom= 7.33D-01 WtEn= 2.67D-01
 Coeff-Com: -0.867D+00 0.187D+01
 Coeff-En:   0.000D+00 0.100D+01
 Coeff:     -0.636D+00 0.164D+01
 Gap=     0.266 Goal=   None    Shift=    0.000
 Gap=     0.266 Goal=   None    Shift=    0.000
 RMSDP=1.15D-03 MaxDP=4.87D-02 DE=-1.05D-01 OVMax= 1.36D-01

 Cycle   3  Pass 1  IDiag  1:
 RMSU=  6.35D-04    CP:  9.18D-01  2.16D+00
 E= -466.827002202800     Delta-E=       -0.135419359704 Rises=F Damp=F
 DIIS: error= 7.65D-03 at cycle   3 NSaved=   3.
 NSaved= 3 IEnMin= 3 EnMin= -466.827002202800     IErMin= 3 ErrMin= 7.65D-03
 ErrMax= 7.65D-03  0.00D+00 EMaxC= 1.00D-01 BMatC= 2.38D-02 BMatP= 9.33D-01
 IDIUse=3 WtCom= 9.23D-01 WtEn= 7.65D-02
 Coeff-Com: -0.314D+00 0.674D+00 0.640D+00
 Coeff-En:   0.000D+00 0.000D+00 0.100D+01
 Coeff:     -0.290D+00 0.622D+00 0.667D+00
 Gap=     0.286 Goal=   None    Shift=    0.000
 Gap=     0.286 Goal=   None    Shift=    0.000
 RMSDP=2.40D-04 MaxDP=1.26D-02 DE=-1.35D-01 OVMax= 6.74D-02

 Cycle   4  Pass 1  IDiag  1:
 RMSU=  2.18D-04    CP:  9.09D-01  2.27D+00  9.88D-01
 E= -466.838088132684     Delta-E=       -0.011085929884 Rises=F Damp=F
 DIIS: error= 5.18D-03 at cycle   4 NSaved=   4.
 NSaved= 4 IEnMin= 4 EnMin= -466.838088132684     IErMin= 4 ErrMin= 5.18D-03
 ErrMax= 5.18D-03  0.00D+00 EMaxC= 1.00D-01 BMatC= 2.19D-03 BMatP= 2.38D-02
 IDIUse=3 WtCom= 9.48D-01 WtEn= 5.18D-02
 Coeff-Com:  0.126D+00-0.269D+00-0.554D-01 0.120D+01
 Coeff-En:   0.000D+00 0.000D+00 0.000D+00 0.100D+01
 Coeff:      0.119D+00-0.255D+00-0.525D-01 0.119D+01
 Gap=     0.297 Goal=   None    Shift=    0.000
 Gap=     0.297 Goal=   None    Shift=    0.000
 RMSDP=2.29D-04 MaxDP=1.09D-02 DE=-1.11D-02 OVMax= 8.04D-02

 Cycle   5  Pass 1  IDiag  1:
 RMSU=  9.52D-05    CP:  9.02D-01  2.33D+00  1.21D+00  1.63D+00
 E= -466.843106786170     Delta-E=       -0.005018653486 Rises=F Damp=F
 DIIS: error= 2.63D-03 at cycle   5 NSaved=   5.
 NSaved= 5 IEnMin= 5 EnMin= -466.843106786170     IErMin= 5 ErrMin= 2.63D-03
 ErrMax= 2.63D-03  0.00D+00 EMaxC= 1.00D-01 BMatC= 1.05D-03 BMatP= 2.19D-03
 IDIUse=3 WtCom= 9.74D-01 WtEn= 2.63D-02
 Coeff-Com:  0.828D-01-0.178D+00-0.972D-01 0.465D+00 0.727D+00
 Coeff-En:   0.000D+00 0.000D+00 0.000D+00 0.000D+00 0.100D+01
 Coeff:      0.807D-01-0.173D+00-0.946D-01 0.453D+00 0.734D+00
 Gap=     0.301 Goal=   None    Shift=    0.000
 Gap=     0.301 Goal=   None    Shift=    0.000
 RMSDP=9.24D-05 MaxDP=4.29D-03 DE=-5.02D-03 OVMax= 3.32D-02

 Cycle   6  Pass 1  IDiag  1:
 RMSU=  3.52D-05    CP:  9.00D-01  2.34D+00  1.26D+00  1.94D+00  1.39D+00
 E= -466.844703050538     Delta-E=       -0.001596264368 Rises=F Damp=F
 DIIS: error= 1.87D-03 at cycle   6 NSaved=   6.
 NSaved= 6 IEnMin= 6 EnMin= -466.844703050538     IErMin= 6 ErrMin= 1.87D-03
 ErrMax= 1.87D-03  0.00D+00 EMaxC= 1.00D-01 BMatC= 5.58D-04 BMatP= 1.05D-03
 IDIUse=3 WtCom= 9.81D-01 WtEn= 1.87D-02
 Coeff-Com: -0.691D-01 0.148D+00 0.573D-01-0.502D+00-0.548D-02 0.137D+01
 Coeff-En:   0.000D+00 0.000D+00 0.000D+00 0.000D+00 0.000D+00 0.100D+01
 Coeff:     -0.678D-01 0.146D+00 0.562D-01-0.493D+00-0.538D-02 0.136D+01
 Gap=     0.297 Goal=   None    Shift=    0.000
 Gap=     0.297 Goal=   None    Shift=    0.000
 RMSDP=1.08D-04 MaxDP=4.06D-03 DE=-1.60D-03 OVMax= 4.05D-02

 Cycle   7  Pass 1  IDiag  1:
 RMSU=  3.28D-05    CP:  8.97D-01  2.34D+00  1.30D+00  2.25D+00  2.05D+00
                    CP:  2.08D+00
 E= -466.846405481887     Delta-E=       -0.001702431349 Rises=F Damp=F
 DIIS: error= 1.26D-03 at cycle   7 NSaved=   7.
 NSaved= 7 IEnMin= 7 EnMin= -466.846405481887     IErMin= 7 ErrMin= 1.26D-03
 ErrMax= 1.26D-03  0.00D+00 EMaxC= 1.00D-01 BMatC= 3.10D-04 BMatP= 5.58D-04
 IDIUse=3 WtCom= 9.87D-01 WtEn= 1.26D-02
 Coeff-Com: -0.247D-01 0.536D-01 0.481D-01 0.284D-01-0.568D+00-0.838D+00
 Coeff-Com:  0.230D+01
 Coeff-En:   0.000D+00 0.000D+00 0.000D+00 0.000D+00 0.000D+00 0.000D+00
 Coeff-En:   0.100D+01
 Coeff:     -0.244D-01 0.529D-01 0.475D-01 0.281D-01-0.561D+00-0.828D+00
 Coeff:      0.228D+01
 Gap=     0.296 Goal=   None    Shift=    0.000
 Gap=     0.296 Goal=   None    Shift=    0.000
 RMSDP=1.53D-04 MaxDP=7.23D-03 DE=-1.70D-03 OVMax= 5.86D-02

 Cycle   8  Pass 1  IDiag  1:
 RMSU=  4.67D-05    CP:  8.94D-01  2.34D+00  1.34D+00  2.59D+00  2.93D+00
                    CP:  3.00D+00  2.86D+00
 E= -466.848097513740     Delta-E=       -0.001692031854 Rises=F Damp=F
 DIIS: error= 5.34D-04 at cycle   8 NSaved=   8.
 NSaved= 8 IEnMin= 8 EnMin= -466.848097513740     IErMin= 8 ErrMin= 5.34D-04
 ErrMax= 5.34D-04  0.00D+00 EMaxC= 1.00D-01 BMatC= 9.88D-05 BMatP= 3.10D-04
 IDIUse=3 WtCom= 9.95D-01 WtEn= 5.34D-03
 Coeff-Com:  0.294D-01-0.632D-01-0.118D-01 0.313D+00-0.175D+00-0.104D+01
 Coeff-Com:  0.759D+00 0.119D+01
 Coeff-En:   0.000D+00 0.000D+00 0.000D+00 0.000D+00 0.000D+00 0.000D+00
 Coeff-En:   0.000D+00 0.100D+01
 Coeff:      0.292D-01-0.629D-01-0.118D-01 0.311D+00-0.174D+00-0.103D+01
 Coeff:      0.755D+00 0.119D+01
 Gap=     0.298 Goal=   None    Shift=    0.000
 Gap=     0.298 Goal=   None    Shift=    0.000
 RMSDP=9.18D-05 MaxDP=4.49D-03 DE=-1.69D-03 OVMax= 3.53D-02

 Cycle   9  Pass 1  IDiag  1:
 RMSU=  5.71D-05    CP:  8.93D-01  2.34D+00  1.37D+00  2.76D+00  3.00D+00
                    CP:  3.00D+00  3.00D+00  2.08D+00
 E= -466.848556845575     Delta-E=       -0.000459331835 Rises=F Damp=F
 DIIS: error= 1.94D-04 at cycle   9 NSaved=   9.
 NSaved= 9 IEnMin= 9 EnMin= -466.848556845575     IErMin= 9 ErrMin= 1.94D-04
 ErrMax= 1.94D-04  0.00D+00 EMaxC= 1.00D-01 BMatC= 2.18D-05 BMatP= 9.88D-05
 IDIUse=3 WtCom= 9.98D-01 WtEn= 1.94D-03
 Coeff-Com:  0.196D-01-0.422D-01-0.154D-01 0.143D+00 0.387D-01-0.301D+00
 Coeff-Com: -0.126D+00 0.467D+00 0.817D+00
 Coeff-En:   0.000D+00 0.000D+00 0.000D+00 0.000D+00 0.000D+00 0.000D+00
 Coeff-En:   0.000D+00 0.000D+00 0.100D+01
 Coeff:      0.196D-01-0.421D-01-0.154D-01 0.142D+00 0.386D-01-0.301D+00
 Coeff:     -0.126D+00 0.467D+00 0.817D+00
 Gap=     0.298 Goal=   None    Shift=    0.000
 Gap=     0.298 Goal=   None    Shift=    0.000
 RMSDP=2.70D-05 MaxDP=1.37D-03 DE=-4.59D-04 OVMax= 1.04D-02

 Cycle  10  Pass 1  IDiag  1:
 RMSU=  6.43D-06    CP:  8.92D-01  2.34D+00  1.37D+00  2.80D+00  3.00D+00
                    CP:  3.00D+00  3.00D+00  2.41D+00  1.33D+00
 E= -466.848607070305     Delta-E=       -0.000050224729 Rises=F Damp=F
 DIIS: error= 9.41D-05 at cycle  10 NSaved=  10.
 NSaved=10 IEnMin=10 EnMin= -466.848607070305     IErMin=10 ErrMin= 9.41D-05
 ErrMax= 9.41D-05  0.00D+00 EMaxC= 1.00D-01 BMatC= 3.33D-06 BMatP= 2.18D-05
 IDIUse=1 WtCom= 1.00D+00 WtEn= 0.00D+00
 Coeff-Com: -0.166D-02 0.362D-02-0.700D-03-0.357D-01 0.381D-01 0.146D+00
 Coeff-Com: -0.151D+00-0.222D+00 0.100D+00 0.112D+01
 Coeff:     -0.166D-02 0.362D-02-0.700D-03-0.357D-01 0.381D-01 0.146D+00
 Coeff:     -0.151D+00-0.222D+00 0.100D+00 0.112D+01
 Gap=     0.297 Goal=   None    Shift=    0.000
 Gap=     0.297 Goal=   None    Shift=    0.000
 RMSDP=1.52D-05 MaxDP=6.56D-04 DE=-5.02D-05 OVMax= 5.90D-03

 Cycle  11  Pass 1  IDiag  1:
 RMSU=  3.77D-06    CP:  8.92D-01  2.34D+00  1.38D+00  2.82D+00  3.00D+00
                    CP:  3.00D+00  3.00D+00  2.58D+00  1.50D+00  1.63D+00
 E= -466.848616604419     Delta-E=       -0.000009534114 Rises=F Damp=F
 DIIS: error= 2.87D-05 at cycle  11 NSaved=  11.
 NSaved=11 IEnMin=11 EnMin= -466.848616604419     IErMin=11 ErrMin= 2.87D-05
 ErrMax= 2.87D-05  0.00D+00 EMaxC= 1.00D-01 BMatC= 7.25D-07 BMatP= 3.33D-06
 IDIUse=1 WtCom= 1.00D+00 WtEn= 0.00D+00
 Coeff-Com: -0.233D-02 0.503D-02 0.119D-02-0.255D-01 0.865D-02 0.742D-01
 Coeff-Com: -0.315D-01-0.131D+00-0.578D-01 0.439D+00 0.720D+00
 Coeff:     -0.233D-02 0.503D-02 0.119D-02-0.255D-01 0.865D-02 0.742D-01
 Coeff:     -0.315D-01-0.131D+00-0.578D-01 0.439D+00 0.720D+00
 Gap=     0.297 Goal=   None    Shift=    0.000
 Gap=     0.297 Goal=   None    Shift=    0.000
 RMSDP=2.76D-06 MaxDP=1.28D-04 DE=-9.53D-06 OVMax= 1.01D-03

 Cycle  12  Pass 1  IDiag  1:
 RMSU=  1.02D-06    CP:  8.92D-01  2.34D+00  1.38D+00  2.83D+00  3.00D+00
                    CP:  3.00D+00  3.00D+00  2.60D+00  1.53D+00  1.79D+00
                    CP:  1.18D+00
 E= -466.848617161348     Delta-E=       -0.000000556929 Rises=F Damp=F
 DIIS: error= 1.61D-05 at cycle  12 NSaved=  12.
 NSaved=12 IEnMin=12 EnMin= -466.848617161348     IErMin=12 ErrMin= 1.61D-05
 ErrMax= 1.61D-05  0.00D+00 EMaxC= 1.00D-01 BMatC= 9.49D-08 BMatP= 7.25D-07
 IDIUse=1 WtCom= 1.00D+00 WtEn= 0.00D+00
 Coeff-Com:  0.803D-03-0.174D-02-0.301D-03 0.102D-01-0.517D-02-0.355D-01
 Coeff-Com:  0.267D-01 0.519D-01-0.337D-02-0.227D+00-0.268D-01 0.121D+01
 Coeff:      0.803D-03-0.174D-02-0.301D-03 0.102D-01-0.517D-02-0.355D-01
 Coeff:      0.267D-01 0.519D-01-0.337D-02-0.227D+00-0.268D-01 0.121D+01
 Gap=     0.297 Goal=   None    Shift=    0.000
 Gap=     0.297 Goal=   None    Shift=    0.000
 RMSDP=1.04D-06 MaxDP=4.25D-05 DE=-5.57D-07 OVMax= 1.98D-04

 Cycle  13  Pass 1  IDiag  1:
 RMSU=  6.08D-07    CP:  8.92D-01  2.34D+00  1.38D+00  2.83D+00  3.00D+00
                    CP:  3.00D+00  3.00D+00  2.60D+00  1.53D+00  1.84D+00
                    CP:  1.32D+00  1.56D+00
 E= -466.848617303115     Delta-E=       -0.000000141767 Rises=F Damp=F
 DIIS: error= 8.46D-06 at cycle  13 NSaved=  13.
 NSaved=13 IEnMin=13 EnMin= -466.848617303115     IErMin=13 ErrMin= 8.46D-06
 ErrMax= 8.46D-06  0.00D+00 EMaxC= 1.00D-01 BMatC= 2.47D-08 BMatP= 9.49D-08
 IDIUse=1 WtCom= 1.00D+00 WtEn= 0.00D+00
 Coeff-Com: -0.835D-05 0.216D-04 0.673D-04 0.605D-03-0.908D-03-0.244D-02
 Coeff-Com:  0.193D-02 0.758D-02 0.750D-03-0.369D-01-0.900D-01-0.105D+00
 Coeff-Com:  0.122D+01
 Coeff:     -0.835D-05 0.216D-04 0.673D-04 0.605D-03-0.908D-03-0.244D-02
 Coeff:      0.193D-02 0.758D-02 0.750D-03-0.369D-01-0.900D-01-0.105D+00
 Coeff:      0.122D+01
 Gap=     0.297 Goal=   None    Shift=    0.000
 Gap=     0.297 Goal=   None    Shift=    0.000
 RMSDP=5.04D-07 MaxDP=3.00D-05 DE=-1.42D-07 OVMax= 1.31D-04

 Cycle  14  Pass 1  IDiag  1:
 RMSU=  2.82D-07    CP:  8.92D-01  2.34D+00  1.38D+00  2.83D+00  3.00D+00
                    CP:  3.00D+00  3.00D+00  2.61D+00  1.53D+00  1.86D+00
                    CP:  1.36D+00  1.76D+00  1.45D+00
 E= -466.848617351660     Delta-E=       -0.000000048545 Rises=F Damp=F
 DIIS: error= 4.94D-06 at cycle  14 NSaved=  14.
 NSaved=14 IEnMin=14 EnMin= -466.848617351660     IErMin=14 ErrMin= 4.94D-06
 ErrMax= 4.94D-06  0.00D+00 EMaxC= 1.00D-01 BMatC= 8.30D-09 BMatP= 2.47D-08
 IDIUse=1 WtCom= 1.00D+00 WtEn= 0.00D+00
 Coeff-Com: -0.351D-03 0.758D-03 0.213D-03-0.370D-02 0.131D-02 0.120D-01
 Coeff-Com: -0.842D-02-0.169D-01 0.693D-03 0.758D-01 0.307D-02-0.427D+00
 Coeff-Com:  0.102D-02 0.136D+01
 Coeff:     -0.351D-03 0.758D-03 0.213D-03-0.370D-02 0.131D-02 0.120D-01
 Coeff:     -0.842D-02-0.169D-01 0.693D-03 0.758D-01 0.307D-02-0.427D+00
 Coeff:      0.102D-02 0.136D+01
 Gap=     0.297 Goal=   None    Shift=    0.000
 Gap=     0.297 Goal=   None    Shift=    0.000
 RMSDP=4.06D-07 MaxDP=2.01D-05 DE=-4.85D-08 OVMax= 9.96D-05

 Cycle  15  Pass 1  IDiag  1:
 RMSU=  1.52D-07    CP:  8.92D-01  2.34D+00  1.38D+00  2.83D+00  3.00D+00
                    CP:  3.00D+00  3.00D+00  2.61D+00  1.53D+00  1.86D+00
                    CP:  1.36D+00  1.86D+00  1.82D+00  1.97D+00
 E= -466.848617371258     Delta-E=       -0.000000019598 Rises=F Damp=F
 DIIS: error= 1.81D-06 at cycle  15 NSaved=  15.
 NSaved=15 IEnMin=15 EnMin= -466.848617371258     IErMin=15 ErrMin= 1.81D-06
 ErrMax= 1.81D-06  0.00D+00 EMaxC= 1.00D-01 BMatC= 1.39D-09 BMatP= 8.30D-09
 IDIUse=1 WtCom= 1.00D+00 WtEn= 0.00D+00
 Coeff-Com: -0.120D-04 0.250D-04-0.206D-04-0.372D-03 0.489D-03 0.161D-02
 Coeff-Com: -0.207D-02-0.285D-02 0.234D-02 0.194D-01 0.167D-01-0.465D-01
 Coeff-Com: -0.282D+00 0.201D+00 0.109D+01
 Coeff:     -0.120D-04 0.250D-04-0.206D-04-0.372D-03 0.489D-03 0.161D-02
 Coeff:     -0.207D-02-0.285D-02 0.234D-02 0.194D-01 0.167D-01-0.465D-01
 Coeff:     -0.282D+00 0.201D+00 0.109D+01
 Gap=     0.297 Goal=   None    Shift=    0.000
 Gap=     0.297 Goal=   None    Shift=    0.000
 RMSDP=2.05D-07 MaxDP=8.34D-06 DE=-1.96D-08 OVMax= 4.71D-05

 Cycle  16  Pass 1  IDiag  1:
 RMSU=  6.37D-08    CP:  8.92D-01  2.34D+00  1.38D+00  2.83D+00  3.00D+00
                    CP:  3.00D+00  3.00D+00  2.61D+00  1.53D+00  1.86D+00
                    CP:  1.36D+00  1.87D+00  1.96D+00  2.42D+00  1.47D+00
 E= -466.848617373881     Delta-E=       -0.000000002623 Rises=F Damp=F
 DIIS: error= 4.27D-07 at cycle  16 NSaved=  16.
 NSaved=16 IEnMin=16 EnMin= -466.848617373881     IErMin=16 ErrMin= 4.27D-07
 ErrMax= 4.27D-07  0.00D+00 EMaxC= 1.00D-01 BMatC= 1.45D-10 BMatP= 1.39D-09
 IDIUse=1 WtCom= 1.00D+00 WtEn= 0.00D+00
 Coeff-Com:  0.799D-05-0.174D-04-0.101D-04 0.948D-04 0.310D-04-0.253D-03
 Coeff-Com:  0.231D-04 0.382D-03 0.346D-03-0.159D-02 0.455D-02 0.286D-01
 Coeff-Com: -0.664D-01-0.102D+00 0.270D+00 0.866D+00
 Coeff:      0.799D-05-0.174D-04-0.101D-04 0.948D-04 0.310D-04-0.253D-03
 Coeff:      0.231D-04 0.382D-03 0.346D-03-0.159D-02 0.455D-02 0.286D-01
 Coeff:     -0.664D-01-0.102D+00 0.270D+00 0.866D+00
 Gap=     0.297 Goal=   None    Shift=    0.000
 Gap=     0.297 Goal=   None    Shift=    0.000
 RMSDP=4.82D-08 MaxDP=2.50D-06 DE=-2.62D-09 OVMax= 9.10D-06

 Cycle  17  Pass 1  IDiag  1:
 RMSU=  1.90D-08    CP:  8.92D-01  2.34D+00  1.38D+00  2.83D+00  3.00D+00
                    CP:  3.00D+00  3.00D+00  2.61D+00  1.53D+00  1.86D+00
                    CP:  1.36D+00  1.87D+00  1.97D+00  2.51D+00  1.60D+00
                    CP:  1.35D+00
 E= -466.848617374004     Delta-E=       -0.000000000123 Rises=F Damp=F
 DIIS: error= 1.01D-07 at cycle  17 NSaved=  17.
 NSaved=17 IEnMin=17 EnMin= -466.848617374004     IErMin=17 ErrMin= 1.01D-07
 ErrMax= 1.01D-07  0.00D+00 EMaxC= 1.00D-01 BMatC= 1.38D-11 BMatP= 1.45D-10
 IDIUse=1 WtCom= 1.00D+00 WtEn= 0.00D+00
 Coeff-Com: -0.151D-05 0.335D-05 0.130D-05 0.253D-05-0.242D-04-0.940D-05
 Coeff-Com:  0.598D-04 0.153D-03-0.203D-03-0.159D-02-0.568D-03 0.747D-02
 Coeff-Com:  0.175D-01-0.350D-01-0.694D-01 0.158D+00 0.924D+00
 Coeff:     -0.151D-05 0.335D-05 0.130D-05 0.253D-05-0.242D-04-0.940D-05
 Coeff:      0.598D-04 0.153D-03-0.203D-03-0.159D-02-0.568D-03 0.747D-02
 Coeff:      0.175D-01-0.350D-01-0.694D-01 0.158D+00 0.924D+00
 Gap=     0.297 Goal=   None    Shift=    0.000
 Gap=     0.297 Goal=   None    Shift=    0.000
 RMSDP=1.38D-08 MaxDP=5.82D-07 DE=-1.23D-10 OVMax= 1.77D-06

 Cycle  18  Pass 1  IDiag  1:
 RMSU=  6.71D-09    CP:  8.92D-01  2.34D+00  1.38D+00  2.83D+00  3.00D+00
                    CP:  3.00D+00  3.00D+00  2.61D+00  1.53D+00  1.86D+00
                    CP:  1.36D+00  1.87D+00  1.98D+00  2.51D+00  1.65D+00
                    CP:  1.48D+00  1.21D+00
 E= -466.848617374007     Delta-E=       -0.000000000003 Rises=F Damp=F
 DIIS: error= 2.45D-08 at cycle  18 NSaved=  18.
 NSaved=18 IEnMin=18 EnMin= -466.848617374007     IErMin=18 ErrMin= 2.45D-08
 ErrMax= 2.45D-08  0.00D+00 EMaxC= 1.00D-01 BMatC= 1.21D-12 BMatP= 1.38D-11
 IDIUse=1 WtCom= 1.00D+00 WtEn= 0.00D+00
 Coeff-Com:  0.843D-06-0.184D-05 0.149D-06 0.756D-05-0.159D-04-0.194D-04
 Coeff-Com:  0.237D-04 0.616D-04-0.326D-04-0.276D-03-0.624D-03-0.112D-02
 Coeff-Com:  0.933D-02 0.415D-02-0.373D-01-0.705D-01 0.114D+00 0.982D+00
 Coeff:      0.843D-06-0.184D-05 0.149D-06 0.756D-05-0.159D-04-0.194D-04
 Coeff:      0.237D-04 0.616D-04-0.326D-04-0.276D-03-0.624D-03-0.112D-02
 Coeff:      0.933D-02 0.415D-02-0.373D-01-0.705D-01 0.114D+00 0.982D+00
 Gap=     0.297 Goal=   None    Shift=    0.000
 Gap=     0.297 Goal=   None    Shift=    0.000
 RMSDP=4.75D-09 MaxDP=2.37D-07 DE=-2.84D-12 OVMax= 4.88D-07

 Error on total polarization charges =  0.01182
 SCF Done:  E(UwB97XD) =  -466.848617374     A.U. after   18 cycles
            NFock= 18  Conv=0.48D-08     -V/T= 2.0056
 <Sx>= 0.0000 <Sy>= 0.0000 <Sz>= 0.0000 <S**2>= 0.0000 S= 0.0000
 <L.S>=  0.00000000000    
 KE= 4.642448590914D+02 PE=-2.449030638048D+03 EE= 8.343168923047D+02
 --------------------------------------------------------------------
 Variational PCM results
 =======================
 <psi(f)|   H    |psi(f)>                     (a.u.) =    -466.847070
 <psi(f)|H+V(f)/2|psi(f)>                     (a.u.) =    -466.848617
 (Polarized solute)-Solvent               (kcal/mol) =      -0.97
 --------------------------------------------------------------------
 Partition over spheres:
 Sphere  on Atom  Surface  Charge   GEl     GCav    GDR
    1      C1       7.21   0.011   -0.05    0.00    0.00
    2      C2       4.24   0.006   -0.04    0.00    0.00
    3      H3       7.52  -0.010   -0.04    0.00    0.00
    4      H4       2.63  -0.004   -0.01    0.00    0.00
    5      C5       4.62   0.009   -0.06    0.00    0.00
    6      C6       4.29   0.006   -0.04    0.00    0.00
    7      H7       4.59  -0.006   -0.03    0.00    0.00
    8      H8       2.93  -0.003   -0.01    0.00    0.00
    9      C9       3.40   0.002    0.00    0.00    0.00
   10      H10      6.74  -0.007   -0.01    0.00    0.00
   11      H11      2.58  -0.002   -0.01    0.00    0.00
   12      C12      6.48   0.010   -0.06    0.00    0.00
   13      H13      7.52  -0.010   -0.03    0.00    0.00
   14      C14      7.35   0.011   -0.05    0.00    0.00
   15      H15      7.52  -0.010   -0.04    0.00    0.00
   16      C16      3.65   0.001    0.00    0.00    0.00
   17      H17      3.77  -0.004   -0.01    0.00    0.00
   18      H18      6.94  -0.008   -0.03    0.00    0.00
   19      C19      5.44   0.010   -0.07    0.00    0.00
   20      H20      5.25  -0.007   -0.03    0.00    0.00
   21      C21      6.96   0.010   -0.06    0.00    0.00
   22      H22      7.52  -0.010   -0.03    0.00    0.00
   23      C23      3.53   0.002    0.00    0.00    0.00
   24      H24      3.94  -0.003   -0.01    0.00    0.00
   25      H25      6.74  -0.007   -0.01    0.00    0.00
   26      C26      3.25   0.001    0.00    0.00    0.00
   27      H27      6.95  -0.008   -0.03    0.00    0.00
   28      H28      3.76  -0.004   -0.01    0.00    0.00
 Added spheres:    72.39   0.011   -0.21    0.00    0.00
 --------------------------------------------------------------------
 After PCM corrections, the energy is  -466.848617374     a.u.
 --------------------------------------------------------------------
 Annihilation of the first spin contaminant:
 S**2 before annihilation     0.0000,   after    -0.0000
 Leave Link  502 at Mon Aug  3 15:21:17 2020, MaxMem=  6442450944 cpu:            7608.9 elap:             319.8
 (Enter /scratch/scicomp/CentOS/7.3.1611/Haswell/software/Gaussian/g16/l601.exe)
 Copying SCF densities to generalized density rwf, IOpCl= 1 IROHF=0.

 **********************************************************************

            Population analysis using the SCF Density.

 **********************************************************************

 Alpha  occ. eigenvalues --  -10.28618 -10.28617 -10.28282 -10.28281 -10.28261
 Alpha  occ. eigenvalues --  -10.28259 -10.28233 -10.28232 -10.28021 -10.28019
 Alpha  occ. eigenvalues --  -10.27375 -10.27373  -0.94502  -0.93548  -0.84638
 Alpha  occ. eigenvalues --   -0.84370  -0.83716  -0.83650  -0.71703  -0.71123
 Alpha  occ. eigenvalues --   -0.68272  -0.67926  -0.59910  -0.59807  -0.57591
 Alpha  occ. eigenvalues --   -0.56543  -0.53777  -0.52963  -0.51068  -0.51007
 Alpha  occ. eigenvalues --   -0.49912  -0.49214  -0.47615  -0.46932  -0.45692
 Alpha  occ. eigenvalues --   -0.44972  -0.41490  -0.41025  -0.39926  -0.39276
 Alpha  occ. eigenvalues --   -0.39240  -0.38805  -0.30124  -0.26955
 Alpha virt. eigenvalues --    0.02780   0.05750   0.10514   0.12345   0.13428
 Alpha virt. eigenvalues --    0.14565   0.14893   0.15715   0.15810   0.15905
 Alpha virt. eigenvalues --    0.16620   0.17008   0.17371   0.18256   0.19971
 Alpha virt. eigenvalues --    0.21150   0.21462   0.22862   0.23499   0.24197
 Alpha virt. eigenvalues --    0.24603   0.25298   0.25882   0.26595   0.27751
 Alpha virt. eigenvalues --    0.28474   0.29216   0.29436   0.30311   0.30597
 Alpha virt. eigenvalues --    0.31092   0.31604   0.32478   0.32876   0.33923
 Alpha virt. eigenvalues --    0.34026   0.34634   0.35726   0.36275   0.37365
 Alpha virt. eigenvalues --    0.38390   0.38421   0.41296   0.41779   0.41917
 Alpha virt. eigenvalues --    0.42226   0.44064   0.44148   0.44970   0.45577
 Alpha virt. eigenvalues --    0.46652   0.47388   0.47977   0.48103   0.48594
 Alpha virt. eigenvalues --    0.48864   0.48899   0.49128   0.49793   0.49975
 Alpha virt. eigenvalues --    0.50432   0.50479   0.52096   0.52257   0.52807
 Alpha virt. eigenvalues --    0.53155   0.54133   0.54345   0.55152   0.55158
 Alpha virt. eigenvalues --    0.57000   0.57127   0.57556   0.59276   0.60370
 Alpha virt. eigenvalues --    0.60804   0.60900   0.62042   0.62939   0.65411
 Alpha virt. eigenvalues --    0.65645   0.65927   0.67810   0.68363   0.68601
 Alpha virt. eigenvalues --    0.68932   0.72027   0.73635   0.74542   0.75420
 Alpha virt. eigenvalues --    0.78008   0.78057   0.78569   0.79971   0.80374
 Alpha virt. eigenvalues --    0.81654   0.83003   0.84003   0.85375   0.87471
 Alpha virt. eigenvalues --    0.89510   0.90715   0.91104   0.93016   0.93351
 Alpha virt. eigenvalues --    0.94535   0.96754   0.96810   0.98841   0.98871
 Alpha virt. eigenvalues --    1.01167   1.03287   1.04375   1.04989   1.05195
 Alpha virt. eigenvalues --    1.07044   1.07716   1.07794   1.10456   1.11165
 Alpha virt. eigenvalues --    1.12360   1.12810   1.14250   1.15274   1.16371
 Alpha virt. eigenvalues --    1.16879   1.18018   1.18656   1.19005   1.19870
 Alpha virt. eigenvalues --    1.20044   1.20509   1.23300   1.25110   1.25287
 Alpha virt. eigenvalues --    1.25999   1.26541   1.28073   1.28871   1.29030
 Alpha virt. eigenvalues --    1.30158   1.31383   1.31615   1.31922   1.32945
 Alpha virt. eigenvalues --    1.34104   1.34557   1.37058   1.37545   1.38060
 Alpha virt. eigenvalues --    1.38502   1.39640   1.40789   1.40828   1.42044
 Alpha virt. eigenvalues --    1.42614   1.42809   1.43501   1.44222   1.44726
 Alpha virt. eigenvalues --    1.45185   1.46063   1.47476   1.48851   1.48861
 Alpha virt. eigenvalues --    1.50235   1.51518   1.53166   1.54548   1.56497
 Alpha virt. eigenvalues --    1.58235   1.58472   1.59591   1.61034   1.61606
 Alpha virt. eigenvalues --    1.63351   1.63449   1.64311   1.66198   1.66592
 Alpha virt. eigenvalues --    1.68041   1.71178   1.74830   1.75357   1.78071
 Alpha virt. eigenvalues --    1.80267   1.81954   1.82383   1.83748   1.84692
 Alpha virt. eigenvalues --    1.88062   1.88820   1.90586   1.91654   1.92884
 Alpha virt. eigenvalues --    1.93728   1.96442   1.98159   1.99678   2.01107
 Alpha virt. eigenvalues --    2.03579   2.03785   2.09215   2.10590   2.11077
 Alpha virt. eigenvalues --    2.12222   2.12663   2.14484   2.15621   2.16661
 Alpha virt. eigenvalues --    2.17597   2.19978   2.20424   2.22197   2.23137
 Alpha virt. eigenvalues --    2.24108   2.24745   2.25444   2.28469   2.30490
 Alpha virt. eigenvalues --    2.35209   2.36398   2.38438   2.40769   2.42053
 Alpha virt. eigenvalues --    2.44406   2.45303   2.45814   2.49020   2.49159
 Alpha virt. eigenvalues --    2.49834   2.50767   2.51628   2.54570   2.55922
 Alpha virt. eigenvalues --    2.57876   2.58574   2.59831   2.62548   2.63090
 Alpha virt. eigenvalues --    2.63147   2.64355   2.65316   2.65805   2.66008
 Alpha virt. eigenvalues --    2.67711   2.68392   2.70230   2.72805   2.72816
 Alpha virt. eigenvalues --    2.73512   2.74453   2.75551   2.75559   2.77016
 Alpha virt. eigenvalues --    2.78757   2.79225   2.80562   2.80793   2.81329
 Alpha virt. eigenvalues --    2.81959   2.83007   2.83411   2.84209   2.85870
 Alpha virt. eigenvalues --    2.86169   2.87569   2.87633   2.89418   2.89742
 Alpha virt. eigenvalues --    2.91599   2.92570   2.92998   2.94359   2.95687
 Alpha virt. eigenvalues --    2.96370   2.97308   2.97612   2.98751   3.00934
 Alpha virt. eigenvalues --    3.01295   3.02469   3.03746   3.05388   3.05992
 Alpha virt. eigenvalues --    3.06620   3.08967   3.09786   3.11108   3.11121
 Alpha virt. eigenvalues --    3.11752   3.13347   3.13592   3.14570   3.15361
 Alpha virt. eigenvalues --    3.15894   3.16827   3.16944   3.18463   3.19089
 Alpha virt. eigenvalues --    3.20161   3.20775   3.20909   3.21216   3.21616
 Alpha virt. eigenvalues --    3.22548   3.22790   3.22942   3.24121   3.25489
 Alpha virt. eigenvalues --    3.25610   3.26577   3.27662   3.27868   3.28808
 Alpha virt. eigenvalues --    3.28818   3.30154   3.30713   3.31231   3.32555
 Alpha virt. eigenvalues --    3.32745   3.33270   3.34117   3.35672   3.36390
 Alpha virt. eigenvalues --    3.36866   3.36893   3.38348   3.39110   3.41063
 Alpha virt. eigenvalues --    3.42711   3.43462   3.43819   3.45178   3.45360
 Alpha virt. eigenvalues --    3.46086   3.46342   3.46987   3.47559   3.47576
 Alpha virt. eigenvalues --    3.48803   3.50193   3.50348   3.51635   3.53780
 Alpha virt. eigenvalues --    3.54045   3.54173   3.55466   3.56176   3.57676
 Alpha virt. eigenvalues --    3.58989   3.60199   3.60714   3.62095   3.64650
 Alpha virt. eigenvalues --    3.65521   3.67065   3.69057   3.69123   3.69931
 Alpha virt. eigenvalues --    3.70812   3.71437   3.74040   3.75514   3.76913
 Alpha virt. eigenvalues --    3.79141   3.79759   3.80106   3.81882   3.83780
 Alpha virt. eigenvalues --    3.84753   3.85659   3.86106   3.88351   3.89443
 Alpha virt. eigenvalues --    3.91000   3.91884   3.94901   3.95400   3.98123
 Alpha virt. eigenvalues --    3.99761   4.02161   4.03039   4.04037   4.06716
 Alpha virt. eigenvalues --    4.07955   4.09090   4.09146   4.09821   4.11800
 Alpha virt. eigenvalues --    4.13450   4.13557   4.16222   4.16407   4.18591
 Alpha virt. eigenvalues --    4.19703   4.22528   4.22552   4.23861   4.26902
 Alpha virt. eigenvalues --    4.26967   4.28954   4.31643   4.31884   4.36267
 Alpha virt. eigenvalues --    4.37203   4.37919   4.39597   4.41594   4.44341
 Alpha virt. eigenvalues --    4.46694   4.49169   4.49550   4.49949   4.53782
 Alpha virt. eigenvalues --    4.55551   4.60210   4.62061   4.66931   4.67687
 Alpha virt. eigenvalues --    4.70369   4.70435   4.72776   4.75241   4.76904
 Alpha virt. eigenvalues --    4.78515   4.81156   4.82994   4.84941   4.85621
 Alpha virt. eigenvalues --    4.86064   4.88778   4.93282   4.95410   4.96355
 Alpha virt. eigenvalues --    4.98623   5.04563   5.04810   5.08696   5.08977
 Alpha virt. eigenvalues --    5.14019   5.17872   5.18958   5.22477   5.24119
 Alpha virt. eigenvalues --    5.24859   5.34506   5.35391   5.41305   5.42693
 Alpha virt. eigenvalues --    5.45337   5.46417   5.51056   5.55030   5.71551
 Alpha virt. eigenvalues --    5.71639   5.77905   5.79000   5.96871   6.02214
 Alpha virt. eigenvalues --    7.94961   7.95305   8.01874   8.03940   8.05189
 Alpha virt. eigenvalues --    8.09448   8.10650   8.13736   8.17100   8.19902
 Alpha virt. eigenvalues --    8.35924   8.36536  34.76813  34.77771  34.81363
 Alpha virt. eigenvalues --   34.81581  34.84748  34.91036  34.95889  35.00315
 Alpha virt. eigenvalues --   35.01221  35.02713  35.17956  35.18120
  Beta  occ. eigenvalues --  -10.28618 -10.28617 -10.28282 -10.28281 -10.28261
  Beta  occ. eigenvalues --  -10.28259 -10.28233 -10.28232 -10.28021 -10.28019
  Beta  occ. eigenvalues --  -10.27375 -10.27373  -0.94502  -0.93548  -0.84638
  Beta  occ. eigenvalues --   -0.84370  -0.83716  -0.83650  -0.71703  -0.71123
  Beta  occ. eigenvalues --   -0.68272  -0.67926  -0.59910  -0.59807  -0.57591
  Beta  occ. eigenvalues --   -0.56543  -0.53777  -0.52963  -0.51068  -0.51007
  Beta  occ. eigenvalues --   -0.49912  -0.49214  -0.47615  -0.46932  -0.45692
  Beta  occ. eigenvalues --   -0.44972  -0.41490  -0.41025  -0.39926  -0.39276
  Beta  occ. eigenvalues --   -0.39240  -0.38805  -0.30124  -0.26955
  Beta virt. eigenvalues --    0.02780   0.05750   0.10514   0.12345   0.13428
  Beta virt. eigenvalues --    0.14565   0.14893   0.15715   0.15810   0.15905
  Beta virt. eigenvalues --    0.16620   0.17008   0.17371   0.18256   0.19971
  Beta virt. eigenvalues --    0.21150   0.21462   0.22862   0.23499   0.24197
  Beta virt. eigenvalues --    0.24603   0.25298   0.25882   0.26595   0.27751
  Beta virt. eigenvalues --    0.28474   0.29216   0.29436   0.30311   0.30597
  Beta virt. eigenvalues --    0.31092   0.31604   0.32478   0.32876   0.33923
  Beta virt. eigenvalues --    0.34026   0.34634   0.35726   0.36275   0.37365
  Beta virt. eigenvalues --    0.38390   0.38421   0.41296   0.41779   0.41917
  Beta virt. eigenvalues --    0.42226   0.44064   0.44148   0.44970   0.45577
  Beta virt. eigenvalues --    0.46652   0.47388   0.47977   0.48103   0.48594
  Beta virt. eigenvalues --    0.48864   0.48899   0.49128   0.49793   0.49975
  Beta virt. eigenvalues --    0.50432   0.50479   0.52096   0.52257   0.52807
  Beta virt. eigenvalues --    0.53155   0.54133   0.54345   0.55152   0.55158
  Beta virt. eigenvalues --    0.57000   0.57127   0.57556   0.59276   0.60370
  Beta virt. eigenvalues --    0.60804   0.60900   0.62042   0.62939   0.65411
  Beta virt. eigenvalues --    0.65645   0.65927   0.67810   0.68363   0.68601
  Beta virt. eigenvalues --    0.68932   0.72027   0.73635   0.74542   0.75420
  Beta virt. eigenvalues --    0.78008   0.78057   0.78569   0.79971   0.80374
  Beta virt. eigenvalues --    0.81654   0.83003   0.84003   0.85375   0.87471
  Beta virt. eigenvalues --    0.89510   0.90715   0.91104   0.93016   0.93351
  Beta virt. eigenvalues --    0.94535   0.96754   0.96810   0.98841   0.98871
  Beta virt. eigenvalues --    1.01167   1.03287   1.04375   1.04989   1.05195
  Beta virt. eigenvalues --    1.07044   1.07716   1.07794   1.10456   1.11165
  Beta virt. eigenvalues --    1.12360   1.12810   1.14250   1.15274   1.16371
  Beta virt. eigenvalues --    1.16879   1.18018   1.18656   1.19005   1.19870
  Beta virt. eigenvalues --    1.20044   1.20509   1.23300   1.25110   1.25287
  Beta virt. eigenvalues --    1.25999   1.26541   1.28073   1.28871   1.29030
  Beta virt. eigenvalues --    1.30158   1.31383   1.31615   1.31922   1.32945
  Beta virt. eigenvalues --    1.34104   1.34557   1.37058   1.37545   1.38060
  Beta virt. eigenvalues --    1.38502   1.39640   1.40789   1.40828   1.42044
  Beta virt. eigenvalues --    1.42614   1.42809   1.43501   1.44222   1.44726
  Beta virt. eigenvalues --    1.45185   1.46063   1.47476   1.48851   1.48861
  Beta virt. eigenvalues --    1.50235   1.51518   1.53166   1.54548   1.56497
  Beta virt. eigenvalues --    1.58235   1.58472   1.59591   1.61034   1.61606
  Beta virt. eigenvalues --    1.63351   1.63449   1.64311   1.66198   1.66592
  Beta virt. eigenvalues --    1.68041   1.71178   1.74830   1.75357   1.78071
  Beta virt. eigenvalues --    1.80267   1.81954   1.82383   1.83748   1.84692
  Beta virt. eigenvalues --    1.88062   1.88820   1.90586   1.91654   1.92884
  Beta virt. eigenvalues --    1.93728   1.96442   1.98159   1.99678   2.01107
  Beta virt. eigenvalues --    2.03579   2.03785   2.09215   2.10590   2.11077
  Beta virt. eigenvalues --    2.12222   2.12663   2.14484   2.15621   2.16661
  Beta virt. eigenvalues --    2.17597   2.19978   2.20424   2.22197   2.23137
  Beta virt. eigenvalues --    2.24108   2.24745   2.25444   2.28469   2.30490
  Beta virt. eigenvalues --    2.35209   2.36398   2.38438   2.40769   2.42053
  Beta virt. eigenvalues --    2.44406   2.45303   2.45814   2.49020   2.49159
  Beta virt. eigenvalues --    2.49834   2.50767   2.51628   2.54570   2.55922
  Beta virt. eigenvalues --    2.57876   2.58574   2.59831   2.62548   2.63090
  Beta virt. eigenvalues --    2.63147   2.64355   2.65316   2.65805   2.66008
  Beta virt. eigenvalues --    2.67711   2.68392   2.70230   2.72805   2.72816
  Beta virt. eigenvalues --    2.73512   2.74453   2.75551   2.75559   2.77016
  Beta virt. eigenvalues --    2.78757   2.79225   2.80562   2.80793   2.81329
  Beta virt. eigenvalues --    2.81959   2.83007   2.83411   2.84209   2.85870
  Beta virt. eigenvalues --    2.86169   2.87569   2.87633   2.89418   2.89742
  Beta virt. eigenvalues --    2.91599   2.92570   2.92998   2.94359   2.95687
  Beta virt. eigenvalues --    2.96370   2.97308   2.97612   2.98751   3.00934
  Beta virt. eigenvalues --    3.01295   3.02469   3.03746   3.05388   3.05992
  Beta virt. eigenvalues --    3.06620   3.08967   3.09786   3.11108   3.11121
  Beta virt. eigenvalues --    3.11752   3.13347   3.13592   3.14570   3.15361
  Beta virt. eigenvalues --    3.15894   3.16827   3.16944   3.18463   3.19089
  Beta virt. eigenvalues --    3.20161   3.20775   3.20909   3.21216   3.21616
  Beta virt. eigenvalues --    3.22548   3.22790   3.22942   3.24121   3.25489
  Beta virt. eigenvalues --    3.25610   3.26577   3.27662   3.27868   3.28808
  Beta virt. eigenvalues --    3.28818   3.30154   3.30713   3.31231   3.32555
  Beta virt. eigenvalues --    3.32745   3.33270   3.34117   3.35672   3.36390
  Beta virt. eigenvalues --    3.36866   3.36893   3.38348   3.39110   3.41063
  Beta virt. eigenvalues --    3.42711   3.43462   3.43819   3.45178   3.45360
  Beta virt. eigenvalues --    3.46086   3.46342   3.46987   3.47559   3.47576
  Beta virt. eigenvalues --    3.48803   3.50193   3.50348   3.51635   3.53780
  Beta virt. eigenvalues --    3.54045   3.54173   3.55466   3.56176   3.57676
  Beta virt. eigenvalues --    3.58989   3.60199   3.60714   3.62095   3.64650
  Beta virt. eigenvalues --    3.65521   3.67065   3.69057   3.69123   3.69931
  Beta virt. eigenvalues --    3.70812   3.71437   3.74040   3.75514   3.76913
  Beta virt. eigenvalues --    3.79141   3.79759   3.80106   3.81882   3.83780
  Beta virt. eigenvalues --    3.84753   3.85659   3.86106   3.88351   3.89443
  Beta virt. eigenvalues --    3.91000   3.91884   3.94901   3.95400   3.98123
  Beta virt. eigenvalues --    3.99761   4.02161   4.03039   4.04037   4.06716
  Beta virt. eigenvalues --    4.07955   4.09090   4.09146   4.09821   4.11800
  Beta virt. eigenvalues --    4.13450   4.13557   4.16222   4.16407   4.18591
  Beta virt. eigenvalues --    4.19703   4.22528   4.22552   4.23861   4.26902
  Beta virt. eigenvalues --    4.26967   4.28954   4.31643   4.31884   4.36267
  Beta virt. eigenvalues --    4.37203   4.37919   4.39597   4.41594   4.44341
  Beta virt. eigenvalues --    4.46694   4.49169   4.49550   4.49949   4.53782
  Beta virt. eigenvalues --    4.55551   4.60210   4.62061   4.66931   4.67687
  Beta virt. eigenvalues --    4.70369   4.70435   4.72776   4.75241   4.76904
  Beta virt. eigenvalues --    4.78515   4.81156   4.82994   4.84941   4.85621
  Beta virt. eigenvalues --    4.86064   4.88778   4.93282   4.95410   4.96355
  Beta virt. eigenvalues --    4.98623   5.04563   5.04810   5.08696   5.08977
  Beta virt. eigenvalues --    5.14019   5.17872   5.18958   5.22477   5.24119
  Beta virt. eigenvalues --    5.24859   5.34506   5.35391   5.41305   5.42693
  Beta virt. eigenvalues --    5.45337   5.46417   5.51056   5.55030   5.71551
  Beta virt. eigenvalues --    5.71639   5.77905   5.79000   5.96871   6.02214
  Beta virt. eigenvalues --    7.94961   7.95305   8.01874   8.03940   8.05189
  Beta virt. eigenvalues --    8.09448   8.10650   8.13736   8.17100   8.19902
  Beta virt. eigenvalues --    8.35924   8.36536  34.76813  34.77771  34.81363
  Beta virt. eigenvalues --   34.81581  34.84748  34.91036  34.95889  35.00315
  Beta virt. eigenvalues --   35.01221  35.02713  35.17956  35.18120
          Condensed to atoms (all electrons):
               1          2          3          4          5          6
     1  C    5.131277   0.000243   0.425965  -0.001824   0.001543  -0.007733
     2  C    0.000243   5.373293  -0.002507   0.424664  -0.055186  -0.030798
     3  H    0.425965  -0.002507   0.498423   0.000034  -0.000051   0.000027
     4  H   -0.001824   0.424664   0.000034   0.467893  -0.009827   0.003418
     5  C    0.001543  -0.055186  -0.000051  -0.009827   5.193589   0.504346
     6  C   -0.007733  -0.030798   0.000027   0.003418   0.504346   5.373092
     7  H    0.000352  -0.002797   0.000001  -0.000099   0.428663  -0.028400
     8  H   -0.002101   0.003411  -0.000059   0.000199  -0.037206   0.424667
     9  C    0.002719  -0.012098  -0.000008  -0.002296  -0.061074   0.221820
    10  H   -0.000048   0.001424  -0.000001  -0.000278  -0.006573  -0.037775
    11  H    0.000195  -0.007565   0.000002   0.000354   0.009401  -0.060916
    12  C   -0.000209   0.015126   0.000002   0.003912   0.289933  -0.075268
    13  H   -0.000001   0.000085   0.000000   0.000046  -0.041142   0.006093
    14  C    0.000171  -0.007730  -0.000000  -0.002105  -0.049070   0.000229
    15  H   -0.000000   0.000027  -0.000000  -0.000059   0.007839  -0.002507
    16  C   -0.000621   0.014692   0.000001   0.000356  -0.006827  -0.061944
    17  H   -0.000020   0.000483  -0.000000  -0.002951   0.010073  -0.001360
    18  H    0.000003   0.000350   0.000000   0.000348  -0.002630   0.011245
    19  C   -0.049070   0.504306   0.007839  -0.037211  -0.022206  -0.055155
    20  H    0.004311  -0.028377  -0.000108  -0.004826   0.000396  -0.002796
    21  C    0.590618  -0.075286  -0.034349   0.005021   0.002689   0.015118
    22  H   -0.029788   0.006089  -0.006818  -0.000064   0.000039   0.000085
    23  C   -0.089659   0.221805   0.005979  -0.012927   0.010271  -0.012099
    24  H    0.013217  -0.060916  -0.000115  -0.003904   0.000319  -0.007570
    25  H    0.005263  -0.037775  -0.000033  -0.000732   0.000809   0.001424
    26  C    0.280987  -0.061957  -0.032836   0.004261  -0.008500   0.014693
    27  H   -0.034549   0.011247  -0.004317  -0.000109   0.000287   0.000350
    28  H   -0.031859  -0.001359   0.001386  -0.000178  -0.004018   0.000483
               7          8          9         10         11         12
     1  C    0.000352  -0.002101   0.002719  -0.000048   0.000195  -0.000209
     2  C   -0.002797   0.003411  -0.012098   0.001424  -0.007565   0.015126
     3  H    0.000001  -0.000059  -0.000008  -0.000001   0.000002   0.000002
     4  H   -0.000099   0.000199  -0.002296  -0.000278   0.000354   0.003912
     5  C    0.428663  -0.037206  -0.061074  -0.006573   0.009401   0.289933
     6  C   -0.028400   0.424667   0.221820  -0.037775  -0.060916  -0.075268
     7  H    0.482204  -0.004832   0.003387  -0.000270  -0.000040  -0.033026
     8  H   -0.004832   0.468086  -0.012961  -0.000731  -0.003905   0.005024
     9  C    0.003387  -0.012961   4.979033   0.384146   0.464040   0.037193
    10  H   -0.000270  -0.000731   0.384146   0.580769  -0.022091   0.001535
    11  H   -0.000040  -0.003905   0.464040  -0.022091   0.535975  -0.004418
    12  C   -0.033026   0.005024   0.037193   0.001535  -0.004418   5.003641
    13  H   -0.003720  -0.000064  -0.000478  -0.000061   0.000035   0.429035
    14  C    0.004313  -0.001824  -0.089643   0.005260   0.013217   0.590611
    15  H   -0.000108   0.000034   0.005978  -0.000033  -0.000115  -0.034359
    16  C   -0.001142   0.004264   0.354375  -0.023013  -0.055915  -0.053326
    17  H    0.000011  -0.000178  -0.030707   0.007204  -0.008511  -0.015162
    18  H    0.000039  -0.000109  -0.041498  -0.010392  -0.000511   0.005089
    19  C    0.000396  -0.009835   0.010270   0.000810   0.000317   0.002688
    20  H    0.000010  -0.000099   0.003226   0.000343  -0.001863  -0.000196
    21  C   -0.000196   0.003916  -0.003332  -0.000072   0.000006  -0.000328
    22  H   -0.000001   0.000046  -0.000095  -0.000000  -0.000007  -0.000000
    23  C    0.003226  -0.002294   0.002188  -0.000074   0.000408  -0.003328
    24  H   -0.001865   0.000355   0.000408  -0.000021  -0.000021   0.000006
    25  H    0.000343  -0.000278  -0.000073   0.000008  -0.000021  -0.000072
    26  C   -0.002294   0.000360  -0.001334   0.000079  -0.000163   0.001137
    27  H   -0.000021   0.000348  -0.000016   0.000000  -0.000000  -0.000043
    28  H    0.001902  -0.002950   0.000493   0.000000  -0.000001   0.000368
              13         14         15         16         17         18
     1  C   -0.000001   0.000171  -0.000000  -0.000621  -0.000020   0.000003
     2  C    0.000085  -0.007730   0.000027   0.014692   0.000483   0.000350
     3  H    0.000000  -0.000000  -0.000000   0.000001  -0.000000   0.000000
     4  H    0.000046  -0.002105  -0.000059   0.000356  -0.002951   0.000348
     5  C   -0.041142  -0.049070   0.007839  -0.006827   0.010073  -0.002630
     6  C    0.006093   0.000229  -0.002507  -0.061944  -0.001360   0.011245
     7  H   -0.003720   0.004313  -0.000108  -0.001142   0.000011   0.000039
     8  H   -0.000064  -0.001824   0.000034   0.004264  -0.000178  -0.000109
     9  C   -0.000478  -0.089643   0.005978   0.354375  -0.030707  -0.041498
    10  H   -0.000061   0.005260  -0.000033  -0.023013   0.007204  -0.010392
    11  H    0.000035   0.013217  -0.000115  -0.055915  -0.008511  -0.000511
    12  C    0.429035   0.590611  -0.034359  -0.053326  -0.015162   0.005089
    13  H    0.497019  -0.029790  -0.006817   0.005534  -0.000435  -0.000139
    14  C   -0.029790   5.131318   0.425970   0.280983  -0.031847  -0.034551
    15  H   -0.006817   0.425970   0.498416  -0.032832   0.001386  -0.004318
    16  C    0.005534   0.280983  -0.032832   4.936849   0.394484   0.427810
    17  H   -0.000435  -0.031847   0.001386   0.394484   0.588386  -0.023142
    18  H   -0.000139  -0.034551  -0.004318   0.427810  -0.023142   0.546029
    19  C    0.000039   0.001541  -0.000051  -0.008502  -0.004015   0.000286
    20  H   -0.000001   0.000352   0.000001  -0.002294   0.001902  -0.000021
    21  C   -0.000000  -0.000209   0.000002   0.001138   0.000368  -0.000043
    22  H    0.000000  -0.000001   0.000000   0.000016  -0.000001  -0.000001
    23  C   -0.000095   0.002719  -0.000008  -0.001335   0.000492  -0.000016
    24  H   -0.000007   0.000195   0.000002  -0.000163  -0.000001  -0.000000
    25  H   -0.000000  -0.000048  -0.000001   0.000079   0.000000   0.000000
    26  C    0.000016  -0.000621   0.000001   0.000772   0.000036  -0.000004
    27  H   -0.000001   0.000003   0.000000  -0.000004   0.000001  -0.000000
    28  H   -0.000001  -0.000020  -0.000000   0.000036  -0.000015   0.000001
              19         20         21         22         23         24
     1  C   -0.049070   0.004311   0.590618  -0.029788  -0.089659   0.013217
     2  C    0.504306  -0.028377  -0.075286   0.006089   0.221805  -0.060916
     3  H    0.007839  -0.000108  -0.034349  -0.006818   0.005979  -0.000115
     4  H   -0.037211  -0.004826   0.005021  -0.000064  -0.012927  -0.003904
     5  C   -0.022206   0.000396   0.002689   0.000039   0.010271   0.000319
     6  C   -0.055155  -0.002796   0.015118   0.000085  -0.012099  -0.007570
     7  H    0.000396   0.000010  -0.000196  -0.000001   0.003226  -0.001865
     8  H   -0.009835  -0.000099   0.003916   0.000046  -0.002294   0.000355
     9  C    0.010270   0.003226  -0.003332  -0.000095   0.002188   0.000408
    10  H    0.000810   0.000343  -0.000072  -0.000000  -0.000074  -0.000021
    11  H    0.000317  -0.001863   0.000006  -0.000007   0.000408  -0.000021
    12  C    0.002688  -0.000196  -0.000328  -0.000000  -0.003328   0.000006
    13  H    0.000039  -0.000001  -0.000000   0.000000  -0.000095  -0.000007
    14  C    0.001541   0.000352  -0.000209  -0.000001   0.002719   0.000195
    15  H   -0.000051   0.000001   0.000002   0.000000  -0.000008   0.000002
    16  C   -0.008502  -0.002294   0.001138   0.000016  -0.001335  -0.000163
    17  H   -0.004015   0.001902   0.000368  -0.000001   0.000492  -0.000001
    18  H    0.000286  -0.000021  -0.000043  -0.000001  -0.000016  -0.000000
    19  C    5.193684   0.428649   0.289938  -0.041139  -0.061095   0.009403
    20  H    0.428649   0.482113  -0.033024  -0.003719   0.003385  -0.000040
    21  C    0.289938  -0.033024   5.003595   0.429032   0.037212  -0.004419
    22  H   -0.041139  -0.003719   0.429032   0.497020  -0.000478   0.000035
    23  C   -0.061095   0.003385   0.037212  -0.000478   4.979131   0.464043
    24  H    0.009403  -0.000040  -0.004419   0.000035   0.464043   0.535913
    25  H   -0.006571  -0.000270   0.001535  -0.000061   0.384137  -0.022086
    26  C   -0.006823  -0.001142  -0.053327   0.005534   0.354365  -0.055912
    27  H   -0.002630   0.000039   0.005086  -0.000139  -0.041503  -0.000512
    28  H    0.010071   0.000011  -0.015159  -0.000435  -0.030713  -0.008510
              25         26         27         28
     1  C    0.005263   0.280987  -0.034549  -0.031859
     2  C   -0.037775  -0.061957   0.011247  -0.001359
     3  H   -0.000033  -0.032836  -0.004317   0.001386
     4  H   -0.000732   0.004261  -0.000109  -0.000178
     5  C    0.000809  -0.008500   0.000287  -0.004018
     6  C    0.001424   0.014693   0.000350   0.000483
     7  H    0.000343  -0.002294  -0.000021   0.001902
     8  H   -0.000278   0.000360   0.000348  -0.002950
     9  C   -0.000073  -0.001334  -0.000016   0.000493
    10  H    0.000008   0.000079   0.000000   0.000000
    11  H   -0.000021  -0.000163  -0.000000  -0.000001
    12  C   -0.000072   0.001137  -0.000043   0.000368
    13  H   -0.000000   0.000016  -0.000001  -0.000001
    14  C   -0.000048  -0.000621   0.000003  -0.000020
    15  H   -0.000001   0.000001   0.000000  -0.000000
    16  C    0.000079   0.000772  -0.000004   0.000036
    17  H    0.000000   0.000036   0.000001  -0.000015
    18  H    0.000000  -0.000004  -0.000000   0.000001
    19  C   -0.006571  -0.006823  -0.002630   0.010071
    20  H   -0.000270  -0.001142   0.000039   0.000011
    21  C    0.001535  -0.053327   0.005086  -0.015159
    22  H   -0.000061   0.005534  -0.000139  -0.000435
    23  C    0.384137   0.354365  -0.041503  -0.030713
    24  H   -0.022086  -0.055912  -0.000512  -0.008510
    25  H    0.580774  -0.023014  -0.010390   0.007204
    26  C   -0.023014   4.936921   0.427819   0.394478
    27  H   -0.010390   0.427819   0.546009  -0.023137
    28  H    0.007204   0.394478  -0.023137   0.588412
          Atomic-Atomic Spin Densities.
               1          2          3          4          5          6
     1  C   -0.000000  -0.000000   0.000000   0.000000   0.000000   0.000000
     2  C   -0.000000   0.000000  -0.000000   0.000000  -0.000000   0.000000
     3  H    0.000000  -0.000000   0.000000   0.000000  -0.000000   0.000000
     4  H    0.000000   0.000000   0.000000  -0.000000  -0.000000   0.000000
     5  C    0.000000  -0.000000  -0.000000  -0.000000   0.000000  -0.000000
     6  C    0.000000   0.000000   0.000000   0.000000  -0.000000  -0.000000
     7  H   -0.000000   0.000000   0.000000   0.000000  -0.000000  -0.000000
     8  H    0.000000  -0.000000  -0.000000  -0.000000  -0.000000  -0.000000
     9  C   -0.000000   0.000000  -0.000000  -0.000000  -0.000000   0.000000
    10  H   -0.000000   0.000000  -0.000000   0.000000  -0.000000  -0.000000
    11  H    0.000000  -0.000000   0.000000  -0.000000   0.000000  -0.000000
    12  C   -0.000000   0.000000   0.000000   0.000000  -0.000000   0.000000
    13  H   -0.000000   0.000000   0.000000   0.000000  -0.000000  -0.000000
    14  C    0.000000  -0.000000  -0.000000  -0.000000  -0.000000   0.000000
    15  H    0.000000  -0.000000   0.000000   0.000000  -0.000000   0.000000
    16  C   -0.000000   0.000000   0.000000   0.000000   0.000000  -0.000000
    17  H    0.000000  -0.000000  -0.000000   0.000000   0.000000  -0.000000
    18  H   -0.000000  -0.000000   0.000000  -0.000000  -0.000000  -0.000000
    19  C    0.000000   0.000000   0.000000   0.000000  -0.000000   0.000000
    20  H    0.000000   0.000000   0.000000   0.000000  -0.000000  -0.000000
    21  C    0.000000  -0.000000  -0.000000  -0.000000   0.000000  -0.000000
    22  H   -0.000000   0.000000  -0.000000  -0.000000  -0.000000  -0.000000
    23  C   -0.000000  -0.000000   0.000000  -0.000000  -0.000000  -0.000000
    24  H   -0.000000   0.000000  -0.000000  -0.000000   0.000000   0.000000
    25  H   -0.000000   0.000000   0.000000   0.000000   0.000000  -0.000000
    26  C    0.000000   0.000000  -0.000000  -0.000000   0.000000  -0.000000
    27  H    0.000000   0.000000  -0.000000   0.000000   0.000000   0.000000
    28  H   -0.000000   0.000000   0.000000   0.000000  -0.000000   0.000000
               7          8          9         10         11         12
     1  C   -0.000000   0.000000  -0.000000  -0.000000   0.000000  -0.000000
     2  C    0.000000  -0.000000   0.000000   0.000000  -0.000000   0.000000
     3  H    0.000000  -0.000000  -0.000000  -0.000000   0.000000   0.000000
     4  H    0.000000  -0.000000  -0.000000   0.000000  -0.000000   0.000000
     5  C   -0.000000  -0.000000  -0.000000  -0.000000   0.000000  -0.000000
     6  C   -0.000000  -0.000000   0.000000  -0.000000  -0.000000   0.000000
     7  H    0.000000  -0.000000   0.000000  -0.000000  -0.000000   0.000000
     8  H   -0.000000   0.000000   0.000000  -0.000000   0.000000   0.000000
     9  C    0.000000   0.000000  -0.000001  -0.000000   0.000000  -0.000000
    10  H   -0.000000  -0.000000  -0.000000   0.000000  -0.000000   0.000000
    11  H   -0.000000   0.000000   0.000000  -0.000000   0.000000  -0.000000
    12  C    0.000000   0.000000  -0.000000   0.000000  -0.000000  -0.000000
    13  H    0.000000   0.000000   0.000000  -0.000000   0.000000   0.000000
    14  C   -0.000000  -0.000000   0.000000   0.000000   0.000000  -0.000000
    15  H   -0.000000  -0.000000  -0.000000  -0.000000   0.000000   0.000000
    16  C   -0.000000   0.000000   0.000000  -0.000000  -0.000000   0.000000
    17  H   -0.000000  -0.000000   0.000000   0.000000  -0.000000   0.000000
    18  H    0.000000  -0.000000   0.000000  -0.000000  -0.000000  -0.000000
    19  C    0.000000   0.000000   0.000000  -0.000000  -0.000000  -0.000000
    20  H   -0.000000  -0.000000   0.000000  -0.000000   0.000000   0.000000
    21  C   -0.000000  -0.000000  -0.000000   0.000000   0.000000   0.000000
    22  H   -0.000000  -0.000000  -0.000000   0.000000  -0.000000   0.000000
    23  C   -0.000000   0.000000   0.000000  -0.000000   0.000000   0.000000
    24  H   -0.000000   0.000000  -0.000000   0.000000  -0.000000  -0.000000
    25  H    0.000000  -0.000000   0.000000  -0.000000  -0.000000  -0.000000
    26  C    0.000000  -0.000000  -0.000000   0.000000  -0.000000  -0.000000
    27  H   -0.000000   0.000000  -0.000000   0.000000   0.000000  -0.000000
    28  H    0.000000  -0.000000   0.000000  -0.000000  -0.000000   0.000000
              13         14         15         16         17         18
     1  C   -0.000000   0.000000   0.000000  -0.000000   0.000000  -0.000000
     2  C    0.000000  -0.000000  -0.000000   0.000000  -0.000000  -0.000000
     3  H    0.000000  -0.000000   0.000000   0.000000  -0.000000   0.000000
     4  H    0.000000  -0.000000   0.000000   0.000000   0.000000  -0.000000
     5  C   -0.000000  -0.000000  -0.000000   0.000000   0.000000  -0.000000
     6  C   -0.000000   0.000000   0.000000  -0.000000  -0.000000  -0.000000
     7  H    0.000000  -0.000000  -0.000000  -0.000000  -0.000000   0.000000
     8  H    0.000000  -0.000000  -0.000000   0.000000  -0.000000  -0.000000
     9  C    0.000000   0.000000  -0.000000   0.000000   0.000000   0.000000
    10  H   -0.000000   0.000000  -0.000000  -0.000000   0.000000  -0.000000
    11  H    0.000000   0.000000   0.000000  -0.000000  -0.000000  -0.000000
    12  C    0.000000  -0.000000   0.000000   0.000000   0.000000  -0.000000
    13  H   -0.000000   0.000000   0.000000  -0.000000  -0.000000   0.000000
    14  C    0.000000   0.000000  -0.000000  -0.000000   0.000000  -0.000000
    15  H    0.000000  -0.000000  -0.000000   0.000000  -0.000000   0.000000
    16  C   -0.000000  -0.000000   0.000000   0.000000  -0.000000  -0.000000
    17  H   -0.000000   0.000000  -0.000000  -0.000000  -0.000000   0.000000
    18  H    0.000000  -0.000000   0.000000  -0.000000   0.000000  -0.000000
    19  C    0.000000  -0.000000   0.000000  -0.000000   0.000000  -0.000000
    20  H    0.000000   0.000000  -0.000000  -0.000000  -0.000000   0.000000
    21  C   -0.000000   0.000000  -0.000000   0.000000  -0.000000   0.000000
    22  H    0.000000   0.000000  -0.000000   0.000000  -0.000000   0.000000
    23  C    0.000000   0.000000   0.000000   0.000000  -0.000000   0.000000
    24  H    0.000000  -0.000000  -0.000000   0.000000   0.000000  -0.000000
    25  H   -0.000000   0.000000   0.000000  -0.000000   0.000000  -0.000000
    26  C   -0.000000   0.000000  -0.000000   0.000000   0.000000   0.000000
    27  H   -0.000000   0.000000  -0.000000  -0.000000   0.000000  -0.000000
    28  H    0.000000  -0.000000   0.000000  -0.000000   0.000000  -0.000000
              19         20         21         22         23         24
     1  C    0.000000   0.000000   0.000000  -0.000000  -0.000000  -0.000000
     2  C    0.000000   0.000000  -0.000000   0.000000  -0.000000   0.000000
     3  H    0.000000   0.000000  -0.000000  -0.000000   0.000000  -0.000000
     4  H    0.000000   0.000000  -0.000000  -0.000000  -0.000000  -0.000000
[...]
     3  H    0.000000  -0.000000  -0.000000   0.000000
     4  H    0.000000  -0.000000   0.000000   0.000000
     5  C    0.000000   0.000000   0.000000  -0.000000
     6  C   -0.000000  -0.000000   0.000000   0.000000
     7  H    0.000000   0.000000  -0.000000   0.000000
     8  H   -0.000000  -0.000000   0.000000  -0.000000
     9  C    0.000000  -0.000000  -0.000000   0.000000
    10  H   -0.000000   0.000000   0.000000  -0.000000
    11  H   -0.000000  -0.000000   0.000000  -0.000000
    12  C   -0.000000  -0.000000  -0.000000   0.000000
    13  H   -0.000000  -0.000000  -0.000000   0.000000
    14  C    0.000000   0.000000   0.000000  -0.000000
    15  H    0.000000  -0.000000  -0.000000   0.000000
    16  C   -0.000000   0.000000  -0.000000  -0.000000
    17  H    0.000000   0.000000   0.000000   0.000000
    18  H   -0.000000   0.000000  -0.000000  -0.000000
    19  C    0.000000  -0.000000   0.000000  -0.000000
    20  H    0.000000   0.000000  -0.000000   0.000000
    21  C   -0.000000  -0.000000   0.000000  -0.000000
    22  H    0.000000   0.000000  -0.000000   0.000000
    23  C    0.000000  -0.000000  -0.000000  -0.000000
    24  H    0.000000   0.000000   0.000000   0.000000
    25  H   -0.000000   0.000000   0.000000  -0.000000
    26  C    0.000000  -0.000000   0.000000   0.000000
    27  H    0.000000   0.000000   0.000000  -0.000000
    28  H   -0.000000   0.000000  -0.000000   0.000000
 Mulliken charges and spin densities:
               1          2
     1  C   -0.209379  -0.000000
     2  C   -0.192893   0.000000
     3  H    0.141545   0.000000
     4  H    0.168884  -0.000000
     5  C   -0.155885   0.000000
     6  C   -0.192769  -0.000000
     7  H    0.153964   0.000000
     8  H    0.168717   0.000000
     9  C   -0.213660  -0.000001
    10  H    0.119852   0.000000
    11  H    0.142116   0.000000
    12  C   -0.165566  -0.000000
    13  H    0.144853  -0.000000
    14  C   -0.209421   0.000000
    15  H    0.141552  -0.000000
    16  C   -0.173472   0.000000
    17  H    0.113519  -0.000000
    18  H    0.126175  -0.000000
    19  C   -0.155936  -0.000000
    20  H    0.154039  -0.000000
    21  C   -0.165528   0.000000
    22  H    0.144852   0.000000
    23  C   -0.213738   0.000001
    24  H    0.142169  -0.000000
    25  H    0.119848  -0.000000
    26  C   -0.173532  -0.000000
    27  H    0.126185   0.000000
    28  H    0.113510   0.000000
 Sum of Mulliken charges =  -0.00000  -0.00000
 Mulliken charges and spin densities with hydrogens summed into heavy atoms:
               1          2
     1  C   -0.067834  -0.000000
     2  C   -0.024010   0.000000
     5  C   -0.001921   0.000000
     6  C   -0.024052  -0.000000
     9  C    0.048308  -0.000000
    12  C   -0.020713  -0.000000
    14  C   -0.067870   0.000000
    16  C    0.066222   0.000000
    19  C   -0.001897  -0.000000
    21  C   -0.020676   0.000000
    23  C    0.048279   0.000000
    26  C    0.066163  -0.000000
 Electronic spatial extent (au):  <R**2>=           2243.1961
 Charge=              0.0000 electrons
 Dipole moment (field-independent basis, Debye):
    X=              0.0002    Y=             -0.0004    Z=             -0.0002  Tot=              0.0005
 Quadrupole moment (field-independent basis, Debye-Ang):
   XX=            -72.2226   YY=            -69.8539   ZZ=            -77.2284
   XY=             -3.3386   XZ=             -3.4367   YZ=             -1.6346
 Traceless Quadrupole moment (field-independent basis, Debye-Ang):
   XX=              0.8790   YY=              3.2477   ZZ=             -4.1268
   XY=             -3.3386   XZ=             -3.4367   YZ=             -1.6346
 Octapole moment (field-independent basis, Debye-Ang**2):
  XXX=              0.0020  YYY=             -0.0025  ZZZ=             -0.0009  XYY=             -0.0004
  XXY=             -0.0015  XXZ=              0.0007  XZZ=              0.0006  YZZ=             -0.0005
  YYZ=             -0.0009  XYZ=              0.0003
 Hexadecapole moment (field-independent basis, Debye-Ang**3):
 XXXX=          -2058.9609 YYYY=           -628.9333 ZZZZ=           -366.2876 XXXY=           -106.2223
 XXXZ=           -130.8936 YYYX=            -60.7273 YYYZ=             -3.6869 ZZZX=            -79.8594
 ZZZY=            -14.3901 XXYY=           -446.1385 XXZZ=           -428.0284 YYZZ=           -181.1670
 XXYZ=            -22.1007 YYXZ=            -29.3943 ZZXY=            -44.0930
 N-N= 6.836202692779D+02 E-N=-2.449030640547D+03  KE= 4.642448590914D+02
                          Isotropic Fermi Contact Couplings
        Atom                 a.u.       MegaHertz       Gauss      10(-4) cm-1
     1  C(13)             -0.00000      -0.00003      -0.00001      -0.00001
     2  C(13)              0.00000       0.00001       0.00000       0.00000
     3  H(1)               0.00000       0.00003       0.00001       0.00001
     4  H(1)              -0.00000      -0.00003      -0.00001      -0.00001
     5  C(13)              0.00000       0.00001       0.00000       0.00000
     6  C(13)             -0.00000      -0.00001      -0.00000      -0.00000
     7  H(1)               0.00000       0.00004       0.00001       0.00001
     8  H(1)               0.00000       0.00003       0.00001       0.00001
     9  C(13)             -0.00000      -0.00021      -0.00008      -0.00007
    10  H(1)               0.00000       0.00013       0.00005       0.00004
    11  H(1)               0.00000       0.00015       0.00006       0.00005
    12  C(13)             -0.00000      -0.00001      -0.00001      -0.00000
    13  H(1)              -0.00000      -0.00001      -0.00000      -0.00000
    14  C(13)              0.00000       0.00003       0.00001       0.00001
    15  H(1)              -0.00000      -0.00003      -0.00001      -0.00001
    16  C(13)              0.00000       0.00011       0.00004       0.00004
    17  H(1)              -0.00000      -0.00004      -0.00001      -0.00001
    18  H(1)              -0.00000      -0.00002      -0.00001      -0.00001
    19  C(13)             -0.00000      -0.00001      -0.00000      -0.00000
    20  H(1)              -0.00000      -0.00004      -0.00001      -0.00001
    21  C(13)              0.00000       0.00001       0.00000       0.00000
    22  H(1)               0.00000       0.00001       0.00000       0.00000
    23  C(13)              0.00000       0.00021       0.00008       0.00007
    24  H(1)              -0.00000      -0.00015      -0.00006      -0.00005
    25  H(1)              -0.00000      -0.00013      -0.00005      -0.00004
    26  C(13)             -0.00000      -0.00011      -0.00004      -0.00004
    27  H(1)               0.00000       0.00002       0.00001       0.00001
    28  H(1)               0.00000       0.00004       0.00001       0.00001
 --------------------------------------------------------
       Center         ----  Spin Dipole Couplings  ----
                      3XX-RR        3YY-RR        3ZZ-RR
 --------------------------------------------------------
     1   Atom       -0.000000      0.000000     -0.000000
     2   Atom        0.000000     -0.000000      0.000000
     3   Atom       -0.000000      0.000000     -0.000000
     4   Atom        0.000000     -0.000000     -0.000000
     5   Atom       -0.000000     -0.000000      0.000000
     6   Atom       -0.000000      0.000000     -0.000000
     7   Atom        0.000000     -0.000000      0.000000
     8   Atom       -0.000000      0.000000      0.000000
     9   Atom       -0.000000      0.000000     -0.000000
    10   Atom        0.000000      0.000000     -0.000000
    11   Atom        0.000000     -0.000000      0.000000
    12   Atom        0.000000      0.000000     -0.000000
    13   Atom        0.000000     -0.000000     -0.000000
    14   Atom        0.000000     -0.000000      0.000000
    15   Atom        0.000000     -0.000000      0.000000
    16   Atom        0.000000     -0.000000      0.000000
    17   Atom       -0.000000     -0.000000      0.000000
    18   Atom        0.000000      0.000000     -0.000000
    19   Atom        0.000000      0.000000     -0.000000
    20   Atom       -0.000000      0.000000     -0.000000
    21   Atom       -0.000000     -0.000000      0.000000
    22   Atom       -0.000000      0.000000      0.000000
    23   Atom        0.000000     -0.000000      0.000000
    24   Atom       -0.000000      0.000000     -0.000000
    25   Atom       -0.000000     -0.000000      0.000000
    26   Atom       -0.000000      0.000000     -0.000000
    27   Atom       -0.000000     -0.000000      0.000000
    28   Atom        0.000000      0.000000     -0.000000
 --------------------------------------------------------
                        XY            XZ            YZ
 --------------------------------------------------------
     1   Atom        0.000000     -0.000000      0.000000
     2   Atom        0.000000      0.000000     -0.000000
     3   Atom       -0.000000      0.000000      0.000000
     4   Atom        0.000000     -0.000000      0.000000
     5   Atom        0.000000      0.000000     -0.000000
     6   Atom       -0.000000     -0.000000      0.000000
     7   Atom        0.000000      0.000000     -0.000000
     8   Atom       -0.000000      0.000000     -0.000000
     9   Atom       -0.000000     -0.000000     -0.000000
    10   Atom        0.000000     -0.000000      0.000000
    11   Atom       -0.000000     -0.000000     -0.000000
    12   Atom       -0.000000      0.000000     -0.000000
    13   Atom       -0.000000      0.000000     -0.000000
    14   Atom       -0.000000      0.000000     -0.000000
    15   Atom        0.000000     -0.000000     -0.000000
    16   Atom       -0.000000     -0.000000      0.000000
    17   Atom        0.000000      0.000000      0.000000
    18   Atom       -0.000000      0.000000     -0.000000
    19   Atom       -0.000000     -0.000000      0.000000
    20   Atom       -0.000000     -0.000000      0.000000
    21   Atom        0.000000     -0.000000      0.000000
    22   Atom        0.000000     -0.000000      0.000000
    23   Atom        0.000000      0.000000      0.000000
    24   Atom        0.000000      0.000000      0.000000
    25   Atom       -0.000000      0.000000     -0.000000
    26   Atom        0.000000      0.000000     -0.000000
    27   Atom        0.000000     -0.000000      0.000000
    28   Atom       -0.000000     -0.000000     -0.000000
 --------------------------------------------------------


 ---------------------------------------------------------------------------------
              Anisotropic Spin Dipole Couplings in Principal Axis System
 ---------------------------------------------------------------------------------

       Atom             a.u.   MegaHertz   Gauss  10(-4) cm-1        Axes

              Baa    -0.0000    -0.000    -0.000    -0.000  0.7433 -0.1932  0.6404
     1 C(13)  Bbb     0.0000     0.000     0.000     0.000  0.6152  0.5734 -0.5410
              Bcc     0.0000     0.000     0.000     0.000 -0.2627  0.7962  0.5451
 
              Baa    -0.0000    -0.000    -0.000    -0.000 -0.3521  0.9158  0.1930
     2 C(13)  Bbb    -0.0000    -0.000    -0.000    -0.000  0.7297  0.3978 -0.5561
              Bcc     0.0000     0.000     0.000     0.000  0.5861  0.0550  0.8084
 
              Baa    -0.0000    -0.000    -0.000    -0.000 -0.5804 -0.1647  0.7975
     3 H(1)   Bbb     0.0000     0.000     0.000     0.000  0.8076 -0.2419  0.5379
              Bcc     0.0000     0.000     0.000     0.000  0.1043  0.9562  0.2734
 
              Baa    -0.0000    -0.000    -0.000    -0.000 -0.0876  0.9752 -0.2032
     4 H(1)   Bbb    -0.0000    -0.000    -0.000    -0.000  0.3615  0.2212  0.9057
              Bcc     0.0000     0.000     0.000     0.000  0.9283  0.0059 -0.3719
 
              Baa    -0.0000    -0.000    -0.000    -0.000 -0.2128  0.9766  0.0321
     5 C(13)  Bbb    -0.0000    -0.000    -0.000    -0.000  0.9768  0.2134 -0.0168
              Bcc     0.0000     0.000     0.000     0.000  0.0232 -0.0278  0.9993
 
              Baa    -0.0000    -0.000    -0.000    -0.000  0.5789  0.0590  0.8133
     6 C(13)  Bbb     0.0000     0.000     0.000     0.000  0.7348  0.3945 -0.5517
              Bcc     0.0000     0.000     0.000     0.000 -0.3534  0.9170  0.1850
 
              Baa    -0.0000    -0.000    -0.000    -0.000 -0.4325  0.8586  0.2754
     7 H(1)   Bbb     0.0000     0.000     0.000     0.000  0.7299  0.5127 -0.4521
              Bcc     0.0000     0.000     0.000     0.000  0.5294 -0.0055  0.8484
 
              Baa    -0.0000    -0.000    -0.000    -0.000  0.9265  0.0071 -0.3763
     8 H(1)   Bbb     0.0000     0.000     0.000     0.000  0.3658  0.2173  0.9050
              Bcc     0.0000     0.000     0.000     0.000 -0.0882  0.9761 -0.1987
 
              Baa    -0.0000    -0.000    -0.000    -0.000  0.6784  0.3995  0.6166
     9 C(13)  Bbb    -0.0000    -0.000    -0.000    -0.000 -0.5223 -0.3278  0.7872
              Bcc     0.0000     0.000     0.000     0.000 -0.5166  0.8561  0.0137
 
              Baa    -0.0000    -0.000    -0.000    -0.000  0.4189 -0.1013  0.9024
    10 H(1)   Bbb     0.0000     0.000     0.000     0.000 -0.2575  0.9397  0.2250
              Bcc     0.0000     0.000     0.000     0.000  0.8708  0.3266 -0.3675
 
              Baa    -0.0000    -0.000    -0.000    -0.000  0.5430  0.8301  0.1268
    11 H(1)   Bbb     0.0000     0.000     0.000     0.000 -0.1543 -0.0499  0.9868
              Bcc     0.0000     0.000     0.000     0.000  0.8255 -0.5554  0.1010
 
              Baa    -0.0000    -0.000    -0.000    -0.000 -0.0119  0.1337  0.9910
    12 C(13)  Bbb     0.0000     0.000     0.000     0.000  0.7341  0.6740 -0.0821
              Bcc     0.0000     0.000     0.000     0.000 -0.6789  0.7265 -0.1062
 
              Baa    -0.0000    -0.000    -0.000    -0.000  0.5358  0.8161  0.2165
    13 H(1)   Bbb    -0.0000    -0.000    -0.000    -0.000 -0.1730 -0.1448  0.9742
              Bcc     0.0000     0.000     0.000     0.000  0.8264 -0.5595  0.0636
 
              Baa    -0.0000    -0.000    -0.000    -0.000 -0.2579  0.8105  0.5258
    14 C(13)  Bbb    -0.0000    -0.000    -0.000    -0.000  0.6270  0.5545 -0.5472
              Bcc     0.0000     0.000     0.000     0.000  0.7351 -0.1886  0.6512
 
              Baa    -0.0000    -0.000    -0.000    -0.000  0.0844  0.9615  0.2616
    15 H(1)   Bbb    -0.0000    -0.000    -0.000    -0.000  0.8055 -0.2203  0.5501
              Bcc     0.0000     0.000     0.000     0.000 -0.5865 -0.1643  0.7931
 
              Baa    -0.0000    -0.000    -0.000    -0.000  0.0623  0.9978  0.0219
    16 C(13)  Bbb    -0.0000    -0.000    -0.000    -0.000  0.6759 -0.0583  0.7347
              Bcc     0.0000     0.000     0.000     0.000  0.7344 -0.0310 -0.6780
 
              Baa    -0.0000    -0.000    -0.000    -0.000 -0.3700  0.8972 -0.2409
    17 H(1)   Bbb    -0.0000    -0.000    -0.000    -0.000  0.8537  0.2261 -0.4691
              Bcc     0.0000     0.000     0.000     0.000  0.3664  0.3793  0.8496
 
              Baa    -0.0000    -0.000    -0.000    -0.000  0.5080  0.7180  0.4757
    18 H(1)   Bbb    -0.0000    -0.000    -0.000    -0.000 -0.5657 -0.1384  0.8129
              Bcc     0.0000     0.000     0.000     0.000 -0.6495  0.6821 -0.3359
 
              Baa    -0.0000    -0.000    -0.000    -0.000  0.0098 -0.0330  0.9994
    19 C(13)  Bbb     0.0000     0.000     0.000     0.000  0.9767  0.2147 -0.0025
              Bcc     0.0000     0.000     0.000     0.000 -0.2145  0.9761  0.0343
 
              Baa    -0.0000    -0.000    -0.000    -0.000  0.5295 -0.0014  0.8483
    20 H(1)   Bbb    -0.0000    -0.000    -0.000    -0.000  0.7252  0.5195 -0.4519
              Bcc     0.0000     0.000     0.000     0.000 -0.4401  0.8545  0.2761
 
              Baa    -0.0000    -0.000    -0.000    -0.000 -0.6939  0.7100 -0.1200
    21 C(13)  Bbb    -0.0000    -0.000    -0.000    -0.000  0.7195  0.6905 -0.0747
              Bcc     0.0000     0.000     0.000     0.000 -0.0298  0.1381  0.9900
 
              Baa    -0.0000    -0.000    -0.000    -0.000  0.8208 -0.5642  0.0893
    22 H(1)   Bbb     0.0000     0.000     0.000     0.000 -0.2222 -0.1713  0.9598
              Bcc     0.0000     0.000     0.000     0.000  0.5262  0.8077  0.2660
 
              Baa    -0.0000    -0.000    -0.000    -0.000 -0.5167  0.8561  0.0131
    23 C(13)  Bbb     0.0000     0.000     0.000     0.000 -0.5202 -0.3261  0.7893
              Bcc     0.0000     0.000     0.000     0.000  0.6800  0.4010  0.6138
 
              Baa    -0.0000    -0.000    -0.000    -0.000  0.8241 -0.5566  0.1055
    24 H(1)   Bbb    -0.0000    -0.000    -0.000    -0.000 -0.1581 -0.0472  0.9863
              Bcc     0.0000     0.000     0.000     0.000  0.5440  0.8295  0.1269
 
              Baa    -0.0000    -0.000    -0.000    -0.000  0.8753  0.3105 -0.3707
    25 H(1)   Bbb    -0.0000    -0.000    -0.000    -0.000 -0.2429  0.9452  0.2181
              Bcc     0.0000     0.000     0.000     0.000  0.4182 -0.1009  0.9028
 
              Baa    -0.0000    -0.000    -0.000    -0.000  0.7345 -0.0311 -0.6779
    26 C(13)  Bbb     0.0000     0.000     0.000     0.000  0.6757 -0.0585  0.7348
              Bcc     0.0000     0.000     0.000     0.000  0.0625  0.9978  0.0219
 
              Baa    -0.0000    -0.000    -0.000    -0.000 -0.6517  0.6803 -0.3354
    27 H(1)   Bbb     0.0000     0.000     0.000     0.000 -0.5597 -0.1327  0.8180
              Bcc     0.0000     0.000     0.000     0.000  0.5120  0.7208  0.4673
 
              Baa    -0.0000    -0.000    -0.000    -0.000  0.3653  0.3776  0.8509
    28 H(1)   Bbb     0.0000     0.000     0.000     0.000  0.8662  0.1971 -0.4593
              Bcc     0.0000     0.000     0.000     0.000 -0.3411  0.9048 -0.2551
 

 ---------------------------------------------------------------------------------

 No NMR shielding tensors so no spin-rotation constants.
 Leave Link  601 at Mon Aug  3 15:21:18 2020, MaxMem=  6442450944 cpu:               8.0 elap:               0.4
 (Enter /scratch/scicomp/CentOS/7.3.1611/Haswell/software/Gaussian/g16/l9999.exe)
 1\1\GINC-ATLAS-205\SP\UwB97XD\def2TZVP\C12H16\BOCHEN\03-Aug-2020\0\\#p
  uwb97xd guess=mix def2tzvp # scrf=(iefpcm,solvent=Cyclohexane,read) n
 osym 6d 10f\\endo-2 xp-pcm for eta=3\\0,1\C,0,-3.124486,-0.439464,0.25
 0893\C,0,-0.647306,-0.230427,-1.105597\H,0,-4.084971,-0.544748,0.74203
 4\H,0,0.323194,-0.137629,-1.57448\C,0,1.115957,1.415764,0.726197\C,0,0
 .647306,0.230427,1.105597\H,0,0.524506,2.31377,0.854246\H,0,-0.323194,
 0.137629,1.57448\C,0,1.503007,-1.001045,1.03866\H,0,1.985221,-1.095436
 ,2.019831\H,0,0.887003,-1.891265,0.921479\C,0,2.433841,1.521901,0.1059
 46\H,0,2.840105,2.50902,-0.080013\C,0,3.124486,0.439464,-0.250893\H,0,
 4.084971,0.544748,-0.742034\C,0,2.587213,-0.950307,-0.043454\H,0,2.204
 157,-1.326175,-1.000254\H,0,3.400038,-1.626681,0.228849\C,0,-1.115957,
 -1.415764,-0.726197\H,0,-0.524506,-2.31377,-0.854246\C,0,-2.433841,-1.
 521901,-0.105946\H,0,-2.840105,-2.50902,0.080013\C,0,-1.503007,1.00104
 5,-1.03866\H,0,-0.887003,1.891265,-0.921479\H,0,-1.985221,1.095436,-2.
 019831\C,0,-2.587213,0.950307,0.043454\H,0,-3.400038,1.62668,-0.228849
 \H,0,-2.204158,1.326175,1.000254\\Version=ES64L-G16RevB.01\HF=-466.848
 6174\S2=0.\S2-1=0.\S2A=0.\RMSD=4.754e-09\Dipole=0.000096,-0.0001576,-0
 .0000879\Quadrupole=0.6535284,2.414615,-3.0681434,-2.4821829,-2.555134
 7,-1.2152711\PG=CI [X(C12H16)]\\@


 I DO NOT DEFINE TIME, SPACE, PLACE, AND MOTION, AS BEING WELL KNOWN TO ALL.
                                            -- NEWTON (1642-1726), PRINCIPIA
 Job cpu time:       0 days  2 hours  8 minutes 14.3 seconds.
 Elapsed time:       0 days  0 hours  5 minutes 23.8 seconds.
 File lengths (MBytes):  RWF=    633 Int=      0 D2E=      0 Chk=     23 Scr=      1
 Normal termination of Gaussian 16 at Mon Aug  3 15:21:18 2020.
