 Entering Gaussian System, Link 0=g16
 Input=meso-TS_7_2_xp-Ger.com
 Output=meso-TS_7_2_xp-Ger.log
 Initial command:
 /scratch/scicomp/CentOS/7.3.1611/Haswell/software/Gaussian/g16/l1.exe "/scratch/bochen/cyclohexadiene-dimerization/wb97xd-def2tzvp/xp-pcm/meso/Gau-386385.inp" -scrdir="/scratch/bochen/cyclohexadiene-dimerization/wb97xd-def2tzvp/xp-pcm/meso/"
 Entering Link 1 = /scratch/scicomp/CentOS/7.3.1611/Haswell/software/Gaussian/g16/l1.exe PID=    386387.
  
 Copyright (c) 1988-2017, Gaussian, Inc.  All Rights Reserved.
  
 This is part of the Gaussian(R) 16 program.  It is based on
 the Gaussian(R) 09 system (copyright 2009, Gaussian, Inc.),
 the Gaussian(R) 03 system (copyright 2003, Gaussian, Inc.),
 the Gaussian(R) 98 system (copyright 1998, Gaussian, Inc.),
 the Gaussian(R) 94 system (copyright 1995, Gaussian, Inc.),
 the Gaussian 92(TM) system (copyright 1992, Gaussian, Inc.),
 the Gaussian 90(TM) system (copyright 1990, Gaussian, Inc.),
 the Gaussian 88(TM) system (copyright 1988, Gaussian, Inc.),
 the Gaussian 86(TM) system (copyright 1986, Carnegie Mellon
 University), and the Gaussian 82(TM) system (copyright 1983,
 Carnegie Mellon University). Gaussian is a federally registered
 trademark of Gaussian, Inc.
  
 This software contains proprietary and confidential information,
 including trade secrets, belonging to Gaussian, Inc.
  
 This software is provided under written license and may be
 used, copied, transmitted, or stored only in accord with that
 written license.
  
 The following legend is applicable only to US Government
 contracts under FAR:
  
                    RESTRICTED RIGHTS LEGEND
  
 Use, reproduction and disclosure by the US Government is
 subject to restrictions as set forth in subparagraphs (a)
 and (c) of the Commercial Computer Software - Restricted
 Rights clause in FAR 52.227-19.
  
 Gaussian, Inc.
 340 Quinnipiac St., Bldg. 40, Wallingford CT 06492
  
  
 ---------------------------------------------------------------
 Warning -- This program may not be used in any manner that
 competes with the business of Gaussian, Inc. or will provide
 assistance to any competitor of Gaussian, Inc.  The licensee
 of this program is prohibited from giving any competitor of
 Gaussian, Inc. access to this program.  By using this program,
 the user acknowledges that Gaussian, Inc. is engaged in the
 business of creating and licensing software in the field of
 computational chemistry and represents and warrants to the
 licensee that it is not a competitor of Gaussian, Inc. and that
 it will not use this program in any manner prohibited above.
 ---------------------------------------------------------------
  

 Cite this work as:
 Gaussian 16, Revision B.01,
 M. J. Frisch, G. W. Trucks, H. B. Schlegel, G. E. Scuseria, 
 M. A. Robb, J. R. Cheeseman, G. Scalmani, V. Barone, 
 G. A. Petersson, H. Nakatsuji, X. Li, M. Caricato, A. V. Marenich, 
 J. Bloino, B. G. Janesko, R. Gomperts, B. Mennucci, H. P. Hratchian, 
 J. V. Ortiz, A. F. Izmaylov, J. L. Sonnenberg, D. Williams-Young, 
 F. Ding, F. Lipparini, F. Egidi, J. Goings, B. Peng, A. Petrone, 
 T. Henderson, D. Ranasinghe, V. G. Zakrzewski, J. Gao, N. Rega, 
 G. Zheng, W. Liang, M. Hada, M. Ehara, K. Toyota, R. Fukuda, 
 J. Hasegawa, M. Ishida, T. Nakajima, Y. Honda, O. Kitao, H. Nakai, 
 T. Vreven, K. Throssell, J. A. Montgomery, Jr., J. E. Peralta, 
 F. Ogliaro, M. J. Bearpark, J. J. Heyd, E. N. Brothers, K. N. Kudin, 
 V. N. Staroverov, T. A. Keith, R. Kobayashi, J. Normand, 
 K. Raghavachari, A. P. Rendell, J. C. Burant, S. S. Iyengar, 
 J. Tomasi, M. Cossi, J. M. Millam, M. Klene, C. Adamo, R. Cammi, 
 J. W. Ochterski, R. L. Martin, K. Morokuma, O. Farkas, 
 J. B. Foresman, and D. J. Fox, Gaussian, Inc., Wallingford CT, 2016.
 
 ******************************************
 Gaussian 16:  ES64L-G16RevB.01 20-Dec-2017
                 4-Aug-2020 
 ******************************************
 %chk=meso-TS_7_2_xp-12.chk
 %nproc=24
 Will use up to   24 processors via shared memory.
 %mem=48GB
 ----------------------------------------------------------------------
 #p uwb97xd guess=mix def2tzvp # scrf=(iefpcm,solvent=Cyclohexane,read)
  nosym 6d 10f
 ----------------------------------------------------------------------
 1/38=1,40=2,172=1/1;
 2/12=2,15=1,17=6,18=5,40=1/2;
 3/5=44,7=101,8=22,11=2,25=1,30=1,70=2203,72=17,74=-58,116=2/1,2,3;
 4/13=-1/1;
 5/5=2,38=5,53=17/2;
 6/7=2,8=2,9=2,10=2,28=1/1;
 99/5=1,9=1/99;
 Leave Link    1 at Tue Aug  4 12:07:17 2020, MaxMem=  6442450944 cpu:               3.2 elap:               0.1
 (Enter /scratch/scicomp/CentOS/7.3.1611/Haswell/software/Gaussian/g16/l101.exe)
 -----------------------
 endo-2 xp-pcm for eta=3
 -----------------------
 Symbolic Z-matrix:
 Charge =  0 Multiplicity = 1
 6                    -3.11802  -0.43643   0.24681 
 6                    -0.5408   -0.18919  -0.90537 
 1                    -4.08249  -0.54987   0.72805 
 1                     0.3773   -0.11693  -1.47326 
 6                     1.09139   1.405     0.68721 
 6                     0.5408    0.18919   0.90537 
 1                     0.52776   2.31093   0.87163 
 1                    -0.3773    0.11693   1.47326 
 6                     1.46497  -0.99971   0.98811 
 1                     1.90533  -0.95608   1.99108 
 1                     0.91825  -1.94015   0.92832 
 6                     2.41606   1.5169    0.1135 
 1                     2.8264    2.50621  -0.05205 
 6                     3.11802   0.43643  -0.24681 
 1                     4.08249   0.54987  -0.72805 
 6                     2.59181  -0.95835  -0.04427 
 1                     2.25267  -1.3564   -1.00869 
 1                     3.40068  -1.62059   0.2722 
 6                    -1.09139  -1.405    -0.68721 
 1                    -0.52776  -2.31093  -0.87163 
 6                    -2.41606  -1.5169   -0.1135 
 1                    -2.8264   -2.50621   0.05205 
 6                    -1.46497   0.99971  -0.98811 
 1                    -0.91825   1.94015  -0.92832 
 1                    -1.90533   0.95608  -1.99108 
 6                    -2.59181   0.95835   0.04427 
 1                    -3.40068   1.62059  -0.2722 
 1                    -2.25267   1.3564    1.00869 
 
 ITRead=  0  0  0  0  0  0  0  0  0  0  0  0  0  0  0  0  0  0  0  0
 ITRead=  0  0  0  0  0  0  0  0
 MicOpt= -1 -1 -1 -1 -1 -1 -1 -1 -1 -1 -1 -1 -1 -1 -1 -1 -1 -1 -1 -1
 MicOpt= -1 -1 -1 -1 -1 -1 -1 -1
 NAtoms=     28 NQM=       28 NQMF=       0 NMMI=      0 NMMIF=      0
                NMic=       0 NMicF=      0.
                    Isotopes and Nuclear Properties:
 (Nuclear quadrupole moments (NQMom) in fm**2, nuclear magnetic moments (NMagM)
  in nuclear magnetons)

  Atom         1           2           3           4           5           6           7           8           9          10
 IAtWgt=          12          12           1           1          12          12           1           1          12           1
 AtmWgt=  12.0000000  12.0000000   1.0078250   1.0078250  12.0000000  12.0000000   1.0078250   1.0078250  12.0000000   1.0078250
 NucSpn=           0           0           1           1           0           0           1           1           0           1
 AtZEff=  -0.0000000  -0.0000000  -0.0000000  -0.0000000  -0.0000000  -0.0000000  -0.0000000  -0.0000000  -0.0000000  -0.0000000
 NQMom=    0.0000000   0.0000000   0.0000000   0.0000000   0.0000000   0.0000000   0.0000000   0.0000000   0.0000000   0.0000000
 NMagM=    0.0000000   0.0000000   2.7928460   2.7928460   0.0000000   0.0000000   2.7928460   2.7928460   0.0000000   2.7928460
 AtZNuc=   6.0000000   6.0000000   1.0000000   1.0000000   6.0000000   6.0000000   1.0000000   1.0000000   6.0000000   1.0000000

  Atom        11          12          13          14          15          16          17          18          19          20
 IAtWgt=           1          12           1          12           1          12           1           1          12           1
 AtmWgt=   1.0078250  12.0000000   1.0078250  12.0000000   1.0078250  12.0000000   1.0078250   1.0078250  12.0000000   1.0078250
 NucSpn=           1           0           1           0           1           0           1           1           0           1
 AtZEff=  -0.0000000  -0.0000000  -0.0000000  -0.0000000  -0.0000000  -0.0000000  -0.0000000  -0.0000000  -0.0000000  -0.0000000
 NQMom=    0.0000000   0.0000000   0.0000000   0.0000000   0.0000000   0.0000000   0.0000000   0.0000000   0.0000000   0.0000000
 NMagM=    2.7928460   0.0000000   2.7928460   0.0000000   2.7928460   0.0000000   2.7928460   2.7928460   0.0000000   2.7928460
 AtZNuc=   1.0000000   6.0000000   1.0000000   6.0000000   1.0000000   6.0000000   1.0000000   1.0000000   6.0000000   1.0000000

  Atom        21          22          23          24          25          26          27          28
 IAtWgt=          12           1          12           1           1          12           1           1
 AtmWgt=  12.0000000   1.0078250  12.0000000   1.0078250   1.0078250  12.0000000   1.0078250   1.0078250
 NucSpn=           0           1           0           1           1           0           1           1
 AtZEff=  -0.0000000  -0.0000000  -0.0000000  -0.0000000  -0.0000000  -0.0000000  -0.0000000  -0.0000000
 NQMom=    0.0000000   0.0000000   0.0000000   0.0000000   0.0000000   0.0000000   0.0000000   0.0000000
 NMagM=    0.0000000   2.7928460   0.0000000   2.7928460   2.7928460   0.0000000   2.7928460   2.7928460
 AtZNuc=   6.0000000   1.0000000   6.0000000   1.0000000   1.0000000   6.0000000   1.0000000   1.0000000
 Leave Link  101 at Tue Aug  4 12:07:17 2020, MaxMem=  6442450944 cpu:               2.4 elap:               0.1
 (Enter /scratch/scicomp/CentOS/7.3.1611/Haswell/software/Gaussian/g16/l202.exe)
                          Input orientation:                          
 ---------------------------------------------------------------------
 Center     Atomic      Atomic             Coordinates (Angstroms)
 Number     Number       Type             X           Y           Z
 ---------------------------------------------------------------------
      1          6           0       -3.118021   -0.436434    0.246814
      2          6           0       -0.540801   -0.189187   -0.905365
      3          1           0       -4.082489   -0.549871    0.728045
      4          1           0        0.377295   -0.116929   -1.473260
      5          6           0        1.091386    1.404996    0.687212
      6          6           0        0.540801    0.189187    0.905365
      7          1           0        0.527763    2.310929    0.871630
      8          1           0       -0.377295    0.116929    1.473260
      9          6           0        1.464971   -0.999714    0.988105
     10          1           0        1.905333   -0.956079    1.991084
     11          1           0        0.918248   -1.940154    0.928320
     12          6           0        2.416056    1.516900    0.113501
     13          1           0        2.826400    2.506211   -0.052048
     14          6           0        3.118021    0.436434   -0.246814
     15          1           0        4.082489    0.549871   -0.728045
     16          6           0        2.591807   -0.958352   -0.044272
     17          1           0        2.252673   -1.356402   -1.008685
     18          1           0        3.400675   -1.620592    0.272198
     19          6           0       -1.091386   -1.404996   -0.687212
     20          1           0       -0.527763   -2.310929   -0.871630
     21          6           0       -2.416056   -1.516900   -0.113501
     22          1           0       -2.826400   -2.506211    0.052048
     23          6           0       -1.464971    0.999714   -0.988105
     24          1           0       -0.918248    1.940154   -0.928320
     25          1           0       -1.905333    0.956079   -1.991084
     26          6           0       -2.591807    0.958352    0.044272
     27          1           0       -3.400675    1.620592   -0.272198
     28          1           0       -2.252673    1.356402    1.008685
 ---------------------------------------------------------------------
                    Distance matrix (angstroms):
                    1          2          3          4          5
     1  C    0.000000
     2  C    2.833851   0.000000
     3  H    1.083813   3.916845   0.000000
     4  H    3.908705   1.081955   4.992280   0.000000
     5  C    4.615617   2.782401   5.531018   2.737484   0.000000
     6  C    3.769890   2.142842   4.685345   2.403809   1.352378
     7  H    4.607618   3.248095   5.427635   3.378705   1.082772
     8  H    3.053188   2.403809   3.837764   3.050586   2.105709
     9  C    4.676603   2.874944   5.571741   2.832078   2.452087
    10  H    5.342901   3.867960   6.133049   3.878241   2.817316
    11  H    4.360859   2.925254   5.194263   3.063391   3.358294
    12  C    5.870204   3.562559   6.846919   3.056755   1.447901
    13  H    6.639625   4.396745   7.594796   3.859899   2.183908
    14  C    6.316153   3.769890   7.332837   3.053188   2.432646
    15  H    7.332837   4.685345   8.366391   3.837764   3.417731
    16  C    5.741016   3.338612   6.731237   2.766598   2.893397
    17  H    5.591688   3.029284   6.618232   2.295466   3.442379
    18  H    6.625426   4.355549   7.573109   3.801112   3.828738
    19  C    2.432646   1.352378   3.417731   2.105709   3.814392
    20  H    3.387342   2.122050   4.277425   2.448413   4.342779
    21  C    1.337905   2.430319   2.102461   3.407591   4.634735
    22  H    2.099275   3.392522   2.421156   4.277721   5.572255
    23  C    2.513985   1.508119   3.492533   2.208214   3.083164
    24  H    3.445013   2.162657   4.353871   2.491381   2.633432
    25  H    2.901360   2.086233   3.794938   2.574855   4.044146
    26  C    1.504444   2.534814   2.228097   3.503527   3.765471
    27  H    2.140239   3.443121   2.485209   4.328347   4.598430
    28  H    2.131557   2.997155   2.657228   3.904803   3.359827
                    6          7          8          9         10
     6  C    0.000000
     7  H    2.122050   0.000000
     8  H    1.081955   2.448413   0.000000
     9  C    1.508119   3.442714   2.208214   0.000000
    10  H    2.086233   3.718093   2.574855   1.096262   0.000000
    11  H    2.162657   4.269356   2.491381   1.089453   1.752771
    12  C    2.430319   2.184237   3.407591   2.828929   3.146710
    13  H    3.392522   2.484964   4.277721   3.902168   4.124343
    14  C    2.833851   3.387342   3.908705   2.513985   2.901360
    15  H    3.916845   4.277425   4.992280   3.492533   3.794938
    16  C    2.534814   3.973330   3.503527   1.528814   2.148005
    17  H    2.997155   4.467686   3.904803   2.175976   3.046230
    18  H    3.443121   4.906098   4.328347   2.155217   2.373224
    19  C    2.782401   4.342779   2.737484   3.083164   4.044146
    20  H    3.248095   5.051204   3.378705   3.024713   3.993834
    21  C    3.562559   4.928370   3.056755   4.067356   4.839236
    22  H    4.396745   5.926800   3.859899   4.643447   5.343413
    23  C    2.874944   3.024713   2.832078   4.060502   4.905063
    24  H    2.925254   2.338427   3.063391   4.242080   4.988356
    25  H    3.867960   3.993834   3.878241   4.905063   5.833968
    26  C    3.338612   3.499386   2.766598   4.602422   5.261121
    27  H    4.355549   4.149401   3.801112   5.668234   6.317864
    28  H    3.029284   2.942912   2.295466   4.401430   4.858157
                   11         12         13         14         15
    11  H    0.000000
    12  C    3.854683   0.000000
    13  H    4.936834   1.083755   0.000000
    14  C    3.445013   1.337905   2.099275   0.000000
    15  H    4.353871   2.102461   2.421156   1.083813   0.000000
    16  C    2.170408   2.486494   3.472505   1.504444   2.228097
    17  H    2.423519   3.088990   4.020460   2.131557   2.657228
    18  H    2.587481   3.292190   4.179166   2.140239   2.485209
    19  C    2.633432   4.634735   5.572255   4.615617   5.531018
    20  H    2.338427   4.928370   5.926800   4.607618   5.427635
    21  C    3.518823   5.710059   6.608521   5.870204   6.846919
    22  H    3.887243   6.608521   7.555750   6.639625   7.594796
    23  C    4.242080   4.067356   4.643447   4.676603   5.571741
    24  H    4.677245   3.518823   3.887243   4.360859   5.194263
    25  H    4.988356   4.839236   5.343413   5.342901   6.133049
    26  C    4.637172   5.039391   5.635789   5.741016   6.731237
    27  H    5.724793   5.830427   6.293588   6.625426   7.573109
    28  H    4.574766   4.756484   5.314527   5.591688   6.618232
                   16         17         18         19         20
    16  C    0.000000
    17  H    1.097063   0.000000
    18  H    1.092237   1.740220   0.000000
    19  C    3.765471   3.359827   4.598430   0.000000
    20  H    3.499386   2.942912   4.149401   1.082772   0.000000
    21  C    5.039391   4.756484   5.830427   1.447901   2.184237
    22  H    5.635789   5.314527   6.293588   2.183908   2.484964
    23  C    4.602422   4.401430   5.668234   2.452087   3.442714
    24  H    4.637172   4.574766   5.724793   3.358294   4.269356
    25  H    5.261121   4.858157   6.317864   2.817316   3.718093
    26  C    5.527336   5.471361   6.527844   2.893397   3.973330
    27  H    6.527844   6.431582   7.553807   3.828738   4.906098
    28  H    5.471361   5.632693   6.431582   3.442379   4.467686
                   21         22         23         24         25
    21  C    0.000000
    22  H    1.083755   0.000000
    23  C    2.828929   3.902168   0.000000
    24  H    3.854683   4.936834   1.089453   0.000000
    25  H    3.146710   4.124343   1.096262   1.752771   0.000000
    26  C    2.486494   3.472505   1.528814   2.170408   2.148005
    27  H    3.292190   4.179166   2.155217   2.587481   2.373224
    28  H    3.088990   4.020460   2.175976   2.423519   3.046230
                   26         27         28
    26  C    0.000000
    27  H    1.092237   0.000000
    28  H    1.097063   1.740220   0.000000
 Symmetry turned off by external request.
 Stoichiometry    C12H16
 Framework group  CI[X(C12H16)]
 Deg. of freedom    39
 Full point group                 CI      NOp   2
 Rotational constants (GHZ):           1.9392843           0.6339053           0.5521422
 Leave Link  202 at Tue Aug  4 12:07:17 2020, MaxMem=  6442450944 cpu:               0.3 elap:               0.0
 (Enter /scratch/scicomp/CentOS/7.3.1611/Haswell/software/Gaussian/g16/l301.exe)
 Standard basis: def2TZVP (6D, 10F)
 Ernie: Thresh=  0.10000D-02 Tol=  0.10000D-05 Strict=F.
   528 basis functions,   740 primitive gaussians,   528 cartesian basis functions
    44 alpha electrons       44 beta electrons
       nuclear repulsion energy       691.4450243144 Hartrees.
 IExCor= 4639 DFT=T Ex+Corr=wB97XD ExCW=0 ScaHFX=  1.000000
 ScaDFX=  1.000000  1.000000  1.000000  1.000000 ScalE2=  1.000000  1.000000
 IRadAn=      5 IRanWt=     -1 IRanGd=            0 ICorTp=0 IEmpDi=121
 HFx  wShort=  0.000000 wLong=  0.200000 cFull=  0.222036 cShort=  0.000000 cLong=  0.777964
 DFx  wShort=  0.000000 wLong=  0.200000 cFull=  0.000000 cShort=  0.000000 cLong=  1.000000
 NAtoms=   28 NActive=   28 NUniq=   28 SFac= 1.00D+00 NAtFMM=   60 NAOKFM=F Big=F
 Integral buffers will be    131072 words long.
 Raffenetti 2 integral format.
 Two-electron integral symmetry is turned off.
 R6Disp:  Grimme-D2 Dispersion energy=       -0.0229551667 Hartrees.
 Nuclear repulsion after empirical dispersion term =      691.4220691477 Hartrees.
 Using the following non-standard input for PCM:
 qrep pcmdoc geomview  nodis nocav g03defaults tsare=0.075
 Warning! Using old PCM defaults because the g03defaults keyword was found.
 These settings can be overridden by following keywords.
 nsfe=28
 NVESolv=36  SolvMW=84.1595   Rsolv=2.815
 eps=2.0165 RhoS=0.778099999999998
 --- end of non-standard input.
 Reading user-defined spheres from input:
 ISph  on   Nord    Re0     Alpha      Xe            Ye            Ze
 --- end of user-defined spheres data.
 ------------------------------------------------------------------------------
 Polarizable Continuum Model (PCM)
 =================================
 Model                : PCM.
 Atomic radii         : UA0 (Simple United Atom Topological Model).
 Polarization charges : Total charges.
 Charge compensation  : None.
 Solution method      : On-the-fly selection.
 Cavity type          : SES (Solvent Excluding Surface) (Alpha=1.000).
 Cavity algorithm     : GePol (RMin=0.200 OFac=0.890).
                        User-defined sphere list used, NSphG=   28.
                        Tesserae with average area of 0.075 Ang**2.
                        Smoothing algorithm: None.
                        Polarization charges: point-like.
                        Self-potential: constant (ISelfS= 1).
                        Self-field    : global E.n sum rule (ISelfD= 3).
 Solvent              : CycloHexane, Eps=   2.016500 Eps(inf)=   2.035188
                        RSolv=   2.815000 Ang.
 ------------------------------------------------------------------------------
 GePol: Number of generator spheres                  =      28
 GePol: Total number of spheres                      =     177
 GePol: Number of exposed spheres                    =     131 ( 74.01%)
 GePol: Number of tesserae                           =    4657
 GePol: Average area of tesserae                     =       0.05 Ang**2
 GePol: Minimum area of tessera                      =   0.10D-02 Ang**2
 GePol: Maximum area of tessera                      =    0.12654 Ang**2
 GePol: Number of small tesserae                     =       0
 GePol: Fraction of small tesserae (<1% of avg)      =       0.00%
 GePol: Total count of vertices                      =   16480
 GePol: Maximum number of vertices in a tessera      =       7
 GePol: Cavity surface area                          =    218.408 Ang**2
 GePol: Cavity volume                                =    245.840 Ang**3
 Leave Link  301 at Tue Aug  4 12:07:18 2020, MaxMem=  6442450944 cpu:               7.5 elap:               0.4
 (Enter /scratch/scicomp/CentOS/7.3.1611/Haswell/software/Gaussian/g16/l302.exe)
 NPDir=0 NMtPBC=     1 NCelOv=     1 NCel=       1 NClECP=     1 NCelD=      1
         NCelK=      1 NCelE2=     1 NClLst=     1 CellRange=     0.0.
 One-electron integrals computed using PRISM.
   1 Symmetry operations used in ECPInt.
 ECPInt:  NShTT=   19306 NPrTT=   56928 LenC2=   18522 LenP2D=   42271.
 LDataN:  DoStor=T MaxTD1= 6 Len=  172
 NBasis=   528 RedAO= T EigKep=  2.38D-05  NBF=   528
 NBsUse=   528 1.00D-06 EigRej= -1.00D+00 NBFU=   528
 Precomputing XC quadrature grid using
 IXCGrd= 4 IRadAn=           5 IRanWt=          -1 IRanGd=           0 AccXCQ= 0.00D+00.
 Generated NRdTot=       0 NPtTot=           0 NUsed=           0 NTot=          32
 NSgBfM=   526   526   526   526   526 MxSgAt=    28 MxSgA2=    28.
 Leave Link  302 at Tue Aug  4 12:07:19 2020, MaxMem=  6442450944 cpu:              24.5 elap:               1.1
 (Enter /scratch/scicomp/CentOS/7.3.1611/Haswell/software/Gaussian/g16/l303.exe)
 DipDrv:  MaxL=1.
 Leave Link  303 at Tue Aug  4 12:07:20 2020, MaxMem=  6442450944 cpu:               1.6 elap:               0.1
 (Enter /scratch/scicomp/CentOS/7.3.1611/Haswell/software/Gaussian/g16/l401.exe)
 ExpMin= 9.52D-02 ExpMax= 1.36D+04 ExpMxC= 4.63D+02 IAcc=3 IRadAn=         5 AccDes= 0.00D+00
 Harris functional with IExCor= 4639 and IRadAn=       5 diagonalized for initial guess.
 HarFok:  IExCor= 4639 AccDes= 0.00D+00 IRadAn=         5 IDoV= 1 UseB2=F ITyADJ=14
 ICtDFT=  3500011 ScaDFX=  1.000000  1.000000  1.000000  1.000000
 FoFCou: FMM=F IPFlag=           0 FMFlag=      100000 FMFlg1=           0
         NFxFlg=           0 DoJE=T BraDBF=F KetDBF=T FulRan=T
         wScrn=  0.000000 ICntrl=       500 IOpCl=  0 I1Cent=   200000004 NGrid=           0
         NMat0=    1 NMatS0=      1 NMatT0=    0 NMatD0=    1 NMtDS0=    0 NMtDT0=    0
 Symmetry not used in FoFCou.
 Harris En= -444.621851226579    
 JPrj=0 DoOrth=F DoCkMO=T.
 Mixing orbitals, IMix= 1 IMixAn=  0 NRI=1 NE=   44 Coef=  7.07106781D-01  7.07106781D-01
 Mixing orbitals, IMix= 1 IMixAn=  0 NRI=1 NE=   44 Coef= -7.07106781D-01  7.07106781D-01
 Initial guess <Sx>= 0.0000 <Sy>= 0.0000 <Sz>= 0.0000 <S**2>= 1.0000 S= 0.6180
 Leave Link  401 at Tue Aug  4 12:07:22 2020, MaxMem=  6442450944 cpu:              49.0 elap:               2.1
 (Enter /scratch/scicomp/CentOS/7.3.1611/Haswell/software/Gaussian/g16/l502.exe)
 Two-electron integral symmetry not used.
 UHF open shell SCF:
 Using DIIS extrapolation, IDIIS=  1040.
 NGot=  6442450944 LenX=  6441877030 LenY=  6441597718
 Requested convergence on RMS density matrix=1.00D-08 within 128 cycles.
 Requested convergence on MAX density matrix=1.00D-06.
 Requested convergence on             energy=1.00D-06.
 No special actions if energy rises.
 Fock matrices will be formed incrementally for  20 cycles.

 Cycle   1  Pass 1  IDiag  1:
 FoFJK:  IHMeth= 1 ICntrl=       0 DoSepK=T KAlg= 0 I1Cent=           0 FoldK=F
 IRaf=         1 NMat=       1 IRICut=       1 DoRegI=T DoRafI=F ISym2E= 0 IDoP0=0 IntGTp=1.
 FoFCou: FMM=F IPFlag=           0 FMFlag=      100000 FMFlg1=           0
         NFxFlg=           0 DoJE=T BraDBF=F KetDBF=F FulRan=T
         wScrn=  0.000000 ICntrl=       500 IOpCl=  0 I1Cent=           0 NGrid=           0
         NMat0=    1 NMatS0=      1 NMatT0=    0 NMatD0=    1 NMtDS0=    0 NMtDT0=    0
 Symmetry not used in FoFCou.
 Inv3:  Mode=1 IEnd=    65062947.
 Iteration    1 A*A^-1 deviation from unit magnitude is 4.22D-15 for   1518.
 Iteration    1 A*A^-1 deviation from orthogonality  is 1.63D-15 for   4566   2772.
 Iteration    1 A^-1*A deviation from unit magnitude is 3.55D-15 for    723.
 Iteration    1 A^-1*A deviation from orthogonality  is 2.32D-15 for   4367   4231.
 E= -466.610405913897    
 DIIS: error= 5.23D-02 at cycle   1 NSaved=   1.
 NSaved= 1 IEnMin= 1 EnMin= -466.610405913897     IErMin= 1 ErrMin= 5.23D-02
 ErrMax= 5.23D-02  0.00D+00 EMaxC= 1.00D-01 BMatC= 4.10D+00 BMatP= 4.10D+00
 IDIUse=3 WtCom= 4.77D-01 WtEn= 5.23D-01
 Coeff-Com:  0.100D+01
 Coeff-En:   0.100D+01
 Coeff:      0.100D+01
 Gap=     0.202 Goal=   None    Shift=    0.000
 Gap=     0.202 Goal=   None    Shift=    0.000
 GapD=    0.202 DampG=1.000 DampE=0.500 DampFc=0.5000 IDamp=-1.
 Damping current iteration by 5.00D-01
 RMSDP=1.57D-03 MaxDP=9.19D-02              OVMax= 2.22D-01

 Cycle   2  Pass 1  IDiag  1:
 RMSU=  7.67D-04    CP:  9.73D-01
 E= -466.696633951694     Delta-E=       -0.086228037797 Rises=F Damp=T
 DIIS: error= 2.48D-02 at cycle   2 NSaved=   2.
 NSaved= 2 IEnMin= 2 EnMin= -466.696633951694     IErMin= 2 ErrMin= 2.48D-02
 ErrMax= 2.48D-02  0.00D+00 EMaxC= 1.00D-01 BMatC= 9.26D-01 BMatP= 4.10D+00
 IDIUse=3 WtCom= 7.52D-01 WtEn= 2.48D-01
 Coeff-Com: -0.867D+00 0.187D+01
 Coeff-En:   0.000D+00 0.100D+01
 Coeff:     -0.652D+00 0.165D+01
 Gap=     0.240 Goal=   None    Shift=    0.000
 Gap=     0.240 Goal=   None    Shift=    0.000
 RMSDP=1.06D-03 MaxDP=4.88D-02 DE=-8.62D-02 OVMax= 1.03D-01

 Cycle   3  Pass 1  IDiag  1:
 RMSU=  5.68D-04    CP:  9.36D-01  2.13D+00
 E= -466.796184873266     Delta-E=       -0.099550921572 Rises=F Damp=F
 DIIS: error= 5.85D-03 at cycle   3 NSaved=   3.
 NSaved= 3 IEnMin= 3 EnMin= -466.796184873266     IErMin= 3 ErrMin= 5.85D-03
 ErrMax= 5.85D-03  0.00D+00 EMaxC= 1.00D-01 BMatC= 2.10D-02 BMatP= 9.26D-01
 IDIUse=3 WtCom= 9.42D-01 WtEn= 5.85D-02
 Coeff-Com: -0.320D+00 0.689D+00 0.632D+00
 Coeff-En:   0.000D+00 0.000D+00 0.100D+01
 Coeff:     -0.301D+00 0.648D+00 0.653D+00
 Gap=     0.250 Goal=   None    Shift=    0.000
 Gap=     0.250 Goal=   None    Shift=    0.000
 RMSDP=1.99D-04 MaxDP=1.35D-02 DE=-9.96D-02 OVMax= 5.45D-02

 Cycle   4  Pass 1  IDiag  1:
 RMSU=  1.82D-04    CP:  9.30D-01  2.22D+00  9.74D-01
 E= -466.804676365447     Delta-E=       -0.008491492180 Rises=F Damp=F
 DIIS: error= 4.25D-03 at cycle   4 NSaved=   4.
 NSaved= 4 IEnMin= 4 EnMin= -466.804676365447     IErMin= 4 ErrMin= 4.25D-03
 ErrMax= 4.25D-03  0.00D+00 EMaxC= 1.00D-01 BMatC= 1.52D-03 BMatP= 2.10D-02
 IDIUse=3 WtCom= 9.57D-01 WtEn= 4.25D-02
 Coeff-Com:  0.942D-01-0.202D+00-0.456D-01 0.115D+01
 Coeff-En:   0.000D+00 0.000D+00 0.000D+00 0.100D+01
 Coeff:      0.902D-01-0.194D+00-0.436D-01 0.115D+01
 Gap=     0.255 Goal=   None    Shift=    0.000
 Gap=     0.255 Goal=   None    Shift=    0.000
 RMSDP=2.00D-04 MaxDP=9.74D-03 DE=-8.49D-03 OVMax= 6.98D-02

 Cycle   5  Pass 1  IDiag  1:
 RMSU=  7.89D-05    CP:  9.24D-01  2.27D+00  1.20D+00  1.67D+00
 E= -466.808409777602     Delta-E=       -0.003733412156 Rises=F Damp=F
 DIIS: error= 2.60D-03 at cycle   5 NSaved=   5.
 NSaved= 5 IEnMin= 5 EnMin= -466.808409777602     IErMin= 5 ErrMin= 2.60D-03
 ErrMax= 2.60D-03  0.00D+00 EMaxC= 1.00D-01 BMatC= 7.44D-04 BMatP= 1.52D-03
 IDIUse=3 WtCom= 9.74D-01 WtEn= 2.60D-02
 Coeff-Com:  0.807D-01-0.174D+00-0.114D+00 0.424D+00 0.783D+00
 Coeff-En:   0.000D+00 0.000D+00 0.000D+00 0.000D+00 0.100D+01
 Coeff:      0.786D-01-0.169D+00-0.111D+00 0.413D+00 0.789D+00
 Gap=     0.258 Goal=   None    Shift=    0.000
 Gap=     0.258 Goal=   None    Shift=    0.000
 RMSDP=1.05D-04 MaxDP=6.22D-03 DE=-3.73D-03 OVMax= 3.85D-02

 Cycle   6  Pass 1  IDiag  1:
 RMSU=  3.47D-05    CP:  9.21D-01  2.28D+00  1.26D+00  2.11D+00  1.52D+00
 E= -466.809891859566     Delta-E=       -0.001482081963 Rises=F Damp=F
 DIIS: error= 1.86D-03 at cycle   6 NSaved=   6.
 NSaved= 6 IEnMin= 6 EnMin= -466.809891859566     IErMin= 6 ErrMin= 1.86D-03
 ErrMax= 1.86D-03  0.00D+00 EMaxC= 1.00D-01 BMatC= 3.75D-04 BMatP= 7.44D-04
 IDIUse=3 WtCom= 9.81D-01 WtEn= 1.86D-02
 Coeff-Com: -0.510D-01 0.109D+00 0.421D-01-0.462D+00 0.124D+00 0.124D+01
 Coeff-En:   0.000D+00 0.000D+00 0.000D+00 0.000D+00 0.000D+00 0.100D+01
 Coeff:     -0.500D-01 0.107D+00 0.414D-01-0.454D+00 0.122D+00 0.123D+01
 Gap=     0.256 Goal=   None    Shift=    0.000
 Gap=     0.256 Goal=   None    Shift=    0.000
 RMSDP=1.12D-04 MaxDP=5.74D-03 DE=-1.48D-03 OVMax= 4.40D-02

 Cycle   7  Pass 1  IDiag  1:
 RMSU=  2.54D-05    CP:  9.18D-01  2.28D+00  1.33D+00  2.51D+00  2.33D+00
                    CP:  1.84D+00
 E= -466.811180625074     Delta-E=       -0.001288765509 Rises=F Damp=F
 DIIS: error= 1.28D-03 at cycle   7 NSaved=   7.
 NSaved= 7 IEnMin= 7 EnMin= -466.811180625074     IErMin= 7 ErrMin= 1.28D-03
 ErrMax= 1.28D-03  0.00D+00 EMaxC= 1.00D-01 BMatC= 2.05D-04 BMatP= 3.75D-04
 IDIUse=3 WtCom= 9.87D-01 WtEn= 1.28D-02
 Coeff-Com: -0.119D-01 0.261D-01 0.359D-01 0.125D+00-0.339D+00-0.705D+00
 Coeff-Com:  0.187D+01
 Coeff-En:   0.000D+00 0.000D+00 0.000D+00 0.000D+00 0.000D+00 0.000D+00
 Coeff-En:   0.100D+01
 Coeff:     -0.117D-01 0.257D-01 0.354D-01 0.124D+00-0.334D+00-0.696D+00
 Coeff:      0.186D+01
 Gap=     0.253 Goal=   None    Shift=    0.000
 Gap=     0.253 Goal=   None    Shift=    0.000
 RMSDP=1.06D-04 MaxDP=4.34D-03 DE=-1.29D-03 OVMax= 4.36D-02

 Cycle   8  Pass 1  IDiag  1:
 RMSU=  1.90D-05    CP:  9.16D-01  2.28D+00  1.37D+00  2.85D+00  3.00D+00
                    CP:  2.98D+00  2.54D+00
 E= -466.812206733775     Delta-E=       -0.001026108701 Rises=F Damp=F
 DIIS: error= 9.45D-04 at cycle   8 NSaved=   8.
 NSaved= 8 IEnMin= 8 EnMin= -466.812206733775     IErMin= 8 ErrMin= 9.45D-04
 ErrMax= 9.45D-04  0.00D+00 EMaxC= 1.00D-01 BMatC= 1.20D-04 BMatP= 2.05D-04
 IDIUse=3 WtCom= 9.91D-01 WtEn= 9.45D-03
 Coeff-Com:  0.446D-01-0.961D-01-0.315D-01 0.463D+00-0.555D-01-0.117D+01
 Coeff-Com: -0.212D-01 0.187D+01
 Coeff-En:   0.000D+00 0.000D+00 0.000D+00 0.000D+00 0.000D+00 0.000D+00
 Coeff-En:   0.000D+00 0.100D+01
 Coeff:      0.442D-01-0.952D-01-0.312D-01 0.458D+00-0.550D-01-0.116D+01
 Coeff:     -0.210D-01 0.186D+01
 Gap=     0.251 Goal=   None    Shift=    0.000
 Gap=     0.251 Goal=   None    Shift=    0.000
 RMSDP=1.32D-04 MaxDP=5.69D-03 DE=-1.03D-03 OVMax= 5.61D-02

 Cycle   9  Pass 1  IDiag  1:
 RMSU=  9.80D-05    CP:  9.13D-01  2.28D+00  1.42D+00  3.00D+00  3.00D+00
                    CP:  3.00D+00  3.00D+00  3.00D+00
 E= -466.813147597777     Delta-E=       -0.000940864002 Rises=F Damp=F
 DIIS: error= 6.56D-04 at cycle   9 NSaved=   9.
 NSaved= 9 IEnMin= 9 EnMin= -466.813147597777     IErMin= 9 ErrMin= 6.56D-04
 ErrMax= 6.56D-04  0.00D+00 EMaxC= 1.00D-01 BMatC= 5.78D-05 BMatP= 1.20D-04
 IDIUse=3 WtCom= 9.93D-01 WtEn= 6.56D-03
 Coeff-Com:  0.329D-01-0.710D-01-0.378D-01 0.202D+00 0.146D+00-0.270D+00
 Coeff-Com: -0.980D+00 0.840D+00 0.114D+01
 Coeff-En:   0.000D+00 0.000D+00 0.000D+00 0.000D+00 0.000D+00 0.000D+00
 Coeff-En:   0.000D+00 0.000D+00 0.100D+01
 Coeff:      0.327D-01-0.705D-01-0.375D-01 0.201D+00 0.145D+00-0.268D+00
 Coeff:     -0.974D+00 0.835D+00 0.114D+01
 Gap=     0.251 Goal=   None    Shift=    0.000
 Gap=     0.251 Goal=   None    Shift=    0.000
 RMSDP=1.05D-04 MaxDP=4.55D-03 DE=-9.41D-04 OVMax= 4.50D-02

 Cycle  10  Pass 1  IDiag  1:
 RMSU=  4.06D-05    CP:  9.11D-01  2.28D+00  1.46D+00  3.00D+00  3.00D+00
                    CP:  3.00D+00  3.00D+00  3.00D+00  1.94D+00
 E= -466.813633595378     Delta-E=       -0.000485997601 Rises=F Damp=F
 DIIS: error= 4.54D-04 at cycle  10 NSaved=  10.
 NSaved=10 IEnMin=10 EnMin= -466.813633595378     IErMin=10 ErrMin= 4.54D-04
 ErrMax= 4.54D-04  0.00D+00 EMaxC= 1.00D-01 BMatC= 2.35D-05 BMatP= 5.78D-05
 IDIUse=3 WtCom= 9.95D-01 WtEn= 4.54D-03
 Coeff-Com: -0.527D-02 0.115D-01-0.288D-02-0.116D+00 0.590D-01 0.438D+00
 Coeff-Com: -0.352D+00-0.694D+00 0.216D+00 0.144D+01
 Coeff-En:   0.000D+00 0.000D+00 0.000D+00 0.000D+00 0.000D+00 0.000D+00
 Coeff-En:   0.000D+00 0.000D+00 0.000D+00 0.100D+01
 Coeff:     -0.525D-02 0.114D-01-0.287D-02-0.116D+00 0.588D-01 0.436D+00
 Coeff:     -0.350D+00-0.690D+00 0.215D+00 0.144D+01
 Gap=     0.249 Goal=   None    Shift=    0.000
 Gap=     0.249 Goal=   None    Shift=    0.000
 RMSDP=1.18D-04 MaxDP=5.16D-03 DE=-4.86D-04 OVMax= 5.07D-02

 Cycle  11  Pass 1  IDiag  1:
 RMSU=  1.49D-05    CP:  9.08D-01  2.27D+00  1.51D+00  3.00D+00  3.00D+00
                    CP:  3.00D+00  3.00D+00  3.00D+00  2.96D+00  2.20D+00
 E= -466.813961646022     Delta-E=       -0.000328050644 Rises=F Damp=F
 DIIS: error= 2.49D-04 at cycle  11 NSaved=  11.
 NSaved=11 IEnMin=11 EnMin= -466.813961646022     IErMin=11 ErrMin= 2.49D-04
 ErrMax= 2.49D-04  0.00D+00 EMaxC= 1.00D-01 BMatC= 1.00D-05 BMatP= 2.35D-05
 IDIUse=3 WtCom= 9.98D-01 WtEn= 2.49D-03
 Coeff-Com: -0.684D-02 0.148D-01 0.423D-02-0.744D-01-0.199D-01 0.246D+00
 Coeff-Com:  0.721D-01-0.526D+00-0.259D+00 0.596D+00 0.952D+00
 Coeff-En:   0.000D+00 0.000D+00 0.000D+00 0.000D+00 0.000D+00 0.000D+00
 Coeff-En:   0.000D+00 0.000D+00 0.000D+00 0.000D+00 0.100D+01
 Coeff:     -0.682D-02 0.148D-01 0.422D-02-0.742D-01-0.199D-01 0.245D+00
 Coeff:      0.719D-01-0.524D+00-0.258D+00 0.595D+00 0.952D+00
 Gap=     0.249 Goal=   None    Shift=    0.000
 Gap=     0.249 Goal=   None    Shift=    0.000
 RMSDP=6.70D-05 MaxDP=2.95D-03 DE=-3.28D-04 OVMax= 2.89D-02

 Cycle  12  Pass 1  IDiag  1:
 RMSU=  5.24D-05    CP:  9.06D-01  2.27D+00  1.53D+00  3.00D+00  3.00D+00
                    CP:  3.00D+00  3.00D+00  3.00D+00  3.00D+00  2.92D+00
                    CP:  1.92D+00
 E= -466.814067586246     Delta-E=       -0.000105940224 Rises=F Damp=F
 DIIS: error= 1.46D-04 at cycle  12 NSaved=  12.
 NSaved=12 IEnMin=12 EnMin= -466.814067586246     IErMin=12 ErrMin= 1.46D-04
 ErrMax= 1.46D-04  0.00D+00 EMaxC= 1.00D-01 BMatC= 3.93D-06 BMatP= 1.00D-05
 IDIUse=3 WtCom= 9.99D-01 WtEn= 1.46D-03
 Coeff-Com:  0.954D-02-0.206D-01-0.606D-02 0.108D+00-0.337D-01-0.274D+00
 Coeff-Com:  0.130D+00 0.417D+00-0.124D+00-0.877D+00-0.835D-01 0.175D+01
 Coeff-En:   0.000D+00 0.000D+00 0.000D+00 0.000D+00 0.000D+00 0.000D+00
 Coeff-En:   0.000D+00 0.000D+00 0.000D+00 0.000D+00 0.000D+00 0.100D+01
 Coeff:      0.952D-02-0.206D-01-0.605D-02 0.108D+00-0.337D-01-0.274D+00
 Coeff:      0.130D+00 0.417D+00-0.124D+00-0.876D+00-0.833D-01 0.175D+01
 Gap=     0.247 Goal=   None    Shift=    0.000
 Gap=     0.247 Goal=   None    Shift=    0.000
 RMSDP=8.30D-05 MaxDP=3.74D-03 DE=-1.06D-04 OVMax= 3.59D-02

 Cycle  13  Pass 1  IDiag  1:
 RMSU=  3.42D-05    CP:  9.04D-01  2.27D+00  1.56D+00  3.00D+00  3.00D+00
                    CP:  3.00D+00  3.00D+00  3.00D+00  3.00D+00  3.00D+00
                    CP:  3.00D+00  2.30D+00
 E= -466.814127784643     Delta-E=       -0.000060198398 Rises=F Damp=F
 DIIS: error= 5.05D-05 at cycle  13 NSaved=  13.
 NSaved=13 IEnMin=13 EnMin= -466.814127784643     IErMin=13 ErrMin= 5.05D-05
 ErrMax= 5.05D-05  0.00D+00 EMaxC= 1.00D-01 BMatC= 7.37D-07 BMatP= 3.93D-06
 IDIUse=1 WtCom= 1.00D+00 WtEn= 0.00D+00
 Coeff-Com: -0.162D-02 0.356D-02 0.181D-04-0.299D-01 0.223D-01 0.877D-01
 Coeff-Com: -0.101D+00-0.107D+00 0.129D+00 0.311D+00-0.198D+00-0.673D+00
 Coeff-Com:  0.156D+01
 Coeff:     -0.162D-02 0.356D-02 0.181D-04-0.299D-01 0.223D-01 0.877D-01
 Coeff:     -0.101D+00-0.107D+00 0.129D+00 0.311D+00-0.198D+00-0.673D+00
 Coeff:      0.156D+01
 Gap=     0.247 Goal=   None    Shift=    0.000
 Gap=     0.247 Goal=   None    Shift=    0.000
 RMSDP=1.62D-05 MaxDP=7.97D-04 DE=-6.02D-05 OVMax= 6.83D-03

 Cycle  14  Pass 1  IDiag  1:
 RMSU=  4.73D-06    CP:  9.04D-01  2.26D+00  1.56D+00  3.00D+00  3.00D+00
                    CP:  3.00D+00  3.00D+00  3.00D+00  3.00D+00  3.00D+00
                    CP:  3.00D+00  2.54D+00  1.25D+00
 E= -466.814131677646     Delta-E=       -0.000003893003 Rises=F Damp=F
 DIIS: error= 2.25D-05 at cycle  14 NSaved=  14.
 NSaved=14 IEnMin=14 EnMin= -466.814131677646     IErMin=14 ErrMin= 2.25D-05
 ErrMax= 2.25D-05  0.00D+00 EMaxC= 1.00D-01 BMatC= 1.70D-07 BMatP= 7.37D-07
 IDIUse=1 WtCom= 1.00D+00 WtEn= 0.00D+00
 Coeff-Com: -0.196D-02 0.423D-02 0.832D-03-0.264D-01 0.981D-02 0.689D-01
 Coeff-Com: -0.420D-01-0.107D+00 0.396D-01 0.229D+00 0.153D-01-0.425D+00
 Coeff-Com:  0.780D-01 0.116D+01
 Coeff:     -0.196D-02 0.423D-02 0.832D-03-0.264D-01 0.981D-02 0.689D-01
 Coeff:     -0.420D-01-0.107D+00 0.396D-01 0.229D+00 0.153D-01-0.425D+00
 Coeff:      0.780D-01 0.116D+01
 Gap=     0.247 Goal=   None    Shift=    0.000
 Gap=     0.247 Goal=   None    Shift=    0.000
 RMSDP=3.50D-06 MaxDP=1.87D-04 DE=-3.89D-06 OVMax= 1.35D-03

 Cycle  15  Pass 1  IDiag  1:
 RMSU=  1.06D-06    CP:  9.04D-01  2.26D+00  1.57D+00  3.00D+00  3.00D+00
                    CP:  3.00D+00  3.00D+00  3.00D+00  3.00D+00  3.00D+00
                    CP:  3.00D+00  2.59D+00  1.30D+00  1.26D+00
 E= -466.814132216839     Delta-E=       -0.000000539193 Rises=F Damp=F
 DIIS: error= 1.17D-05 at cycle  15 NSaved=  15.
 NSaved=15 IEnMin=15 EnMin= -466.814132216839     IErMin=15 ErrMin= 1.17D-05
 ErrMax= 1.17D-05  0.00D+00 EMaxC= 1.00D-01 BMatC= 5.75D-08 BMatP= 1.70D-07
 IDIUse=1 WtCom= 1.00D+00 WtEn= 0.00D+00
 Coeff-Com:  0.188D-03-0.413D-03-0.203D-03 0.221D-02-0.149D-02-0.671D-02
 Coeff-Com:  0.821D-02 0.885D-02-0.139D-01-0.280D-01 0.161D-01 0.463D-01
 Coeff-Com: -0.195D+00-0.614D-01 0.122D+01
 Coeff:      0.188D-03-0.413D-03-0.203D-03 0.221D-02-0.149D-02-0.671D-02
 Coeff:      0.821D-02 0.885D-02-0.139D-01-0.280D-01 0.161D-01 0.463D-01
 Coeff:     -0.195D+00-0.614D-01 0.122D+01
 Gap=     0.247 Goal=   None    Shift=    0.000
 Gap=     0.247 Goal=   None    Shift=    0.000
 RMSDP=4.82D-06 MaxDP=2.36D-04 DE=-5.39D-07 OVMax= 1.98D-03

 Cycle  16  Pass 1  IDiag  1:
 RMSU=  9.14D-07    CP:  9.03D-01  2.26D+00  1.57D+00  3.00D+00  3.00D+00
                    CP:  3.00D+00  3.00D+00  3.00D+00  3.00D+00  3.00D+00
                    CP:  3.00D+00  2.66D+00  1.36D+00  1.45D+00  1.60D+00
 E= -466.814132478146     Delta-E=       -0.000000261307 Rises=F Damp=F
 DIIS: error= 5.46D-06 at cycle  16 NSaved=  16.
 NSaved=16 IEnMin=16 EnMin= -466.814132478146     IErMin=16 ErrMin= 5.46D-06
 ErrMax= 5.46D-06  0.00D+00 EMaxC= 1.00D-01 BMatC= 1.83D-08 BMatP= 5.75D-08
 IDIUse=1 WtCom= 1.00D+00 WtEn= 0.00D+00
 Coeff-Com:  0.486D-03-0.105D-02-0.168D-03 0.725D-02-0.300D-02-0.182D-01
 Coeff-Com:  0.132D-01 0.307D-01-0.140D-01-0.671D-01-0.897D-02 0.114D+00
 Coeff-Com: -0.475D-01-0.466D+00 0.294D+00 0.117D+01
 Coeff:      0.486D-03-0.105D-02-0.168D-03 0.725D-02-0.300D-02-0.182D-01
 Coeff:      0.132D-01 0.307D-01-0.140D-01-0.671D-01-0.897D-02 0.114D+00
 Coeff:     -0.475D-01-0.466D+00 0.294D+00 0.117D+01
 Gap=     0.247 Goal=   None    Shift=    0.000
 Gap=     0.247 Goal=   None    Shift=    0.000
 RMSDP=3.26D-06 MaxDP=1.62D-04 DE=-2.61D-07 OVMax= 1.32D-03

 Cycle  17  Pass 1  IDiag  1:
 RMSU=  2.32D-07    CP:  9.03D-01  2.26D+00  1.57D+00  3.00D+00  3.00D+00
                    CP:  3.00D+00  3.00D+00  3.00D+00  3.00D+00  3.00D+00
                    CP:  3.00D+00  2.71D+00  1.41D+00  1.61D+00  1.98D+00
                    CP:  1.61D+00
 E= -466.814132497140     Delta-E=       -0.000000018995 Rises=F Damp=F
 DIIS: error= 3.08D-06 at cycle  17 NSaved=  17.
 NSaved=17 IEnMin=17 EnMin= -466.814132497140     IErMin=17 ErrMin= 3.08D-06
 ErrMax= 3.08D-06  0.00D+00 EMaxC= 1.00D-01 BMatC= 3.19D-09 BMatP= 1.83D-08
 IDIUse=1 WtCom= 1.00D+00 WtEn= 0.00D+00
 Coeff-Com: -0.351D-04 0.760D-04 0.985D-04 0.122D-03-0.431D-03-0.154D-03
 Coeff-Com:  0.660D-03 0.101D-02-0.126D-02-0.323D-02 0.440D-02 0.210D-01
 Coeff-Com: -0.157D-03-0.694D-01-0.106D+00 0.238D+00 0.916D+00
 Coeff:     -0.351D-04 0.760D-04 0.985D-04 0.122D-03-0.431D-03-0.154D-03
 Coeff:      0.660D-03 0.101D-02-0.126D-02-0.323D-02 0.440D-02 0.210D-01
 Coeff:     -0.157D-03-0.694D-01-0.106D+00 0.238D+00 0.916D+00
 Gap=     0.247 Goal=   None    Shift=    0.000
 Gap=     0.247 Goal=   None    Shift=    0.000
 RMSDP=1.54D-06 MaxDP=6.74D-05 DE=-1.90D-08 OVMax= 6.77D-04

 Cycle  18  Pass 1  IDiag  1:
 RMSU=  1.72D-07    CP:  9.03D-01  2.26D+00  1.57D+00  3.00D+00  3.00D+00
                    CP:  3.00D+00  3.00D+00  3.00D+00  3.00D+00  3.00D+00
                    CP:  3.00D+00  2.69D+00  1.39D+00  1.57D+00  2.06D+00
                    CP:  1.35D+00  1.48D+00
 E= -466.814132520049     Delta-E=       -0.000000022908 Rises=F Damp=F
 DIIS: error= 8.31D-07 at cycle  18 NSaved=  18.
 NSaved=18 IEnMin=18 EnMin= -466.814132520049     IErMin=18 ErrMin= 8.31D-07
 ErrMax= 8.31D-07  0.00D+00 EMaxC= 1.00D-01 BMatC= 3.86D-10 BMatP= 3.19D-09
 IDIUse=1 WtCom= 1.00D+00 WtEn= 0.00D+00
 Coeff-Com: -0.671D-05 0.141D-04 0.145D-04-0.304D-04-0.107D-04-0.266D-03
 Coeff-Com: -0.181D-03 0.416D-03 0.345D-03-0.729D-03 0.154D-02 0.418D-02
 Coeff-Com:  0.405D-02 0.138D-01-0.303D-01-0.745D-01-0.748D-02 0.109D+01
 Coeff:     -0.671D-05 0.141D-04 0.145D-04-0.304D-04-0.107D-04-0.266D-03
 Coeff:     -0.181D-03 0.416D-03 0.345D-03-0.729D-03 0.154D-02 0.418D-02
 Coeff:      0.405D-02 0.138D-01-0.303D-01-0.745D-01-0.748D-02 0.109D+01
 Gap=     0.247 Goal=   None    Shift=    0.000
 Gap=     0.247 Goal=   None    Shift=    0.000
 RMSDP=4.95D-07 MaxDP=2.27D-05 DE=-2.29D-08 OVMax= 2.16D-04

 Cycle  19  Pass 1  IDiag  1:
 RMSU=  3.74D-08    CP:  9.03D-01  2.26D+00  1.57D+00  3.00D+00  3.00D+00
                    CP:  3.00D+00  3.00D+00  3.00D+00  3.00D+00  3.00D+00
                    CP:  3.00D+00  2.68D+00  1.38D+00  1.55D+00  2.08D+00
                    CP:  1.29D+00  1.62D+00  1.32D+00
 E= -466.814132521511     Delta-E=       -0.000000001462 Rises=F Damp=F
 DIIS: error= 3.21D-07 at cycle  19 NSaved=  19.
 NSaved=19 IEnMin=19 EnMin= -466.814132521511     IErMin=19 ErrMin= 3.21D-07
 ErrMax= 3.21D-07  0.00D+00 EMaxC= 1.00D-01 BMatC= 1.24D-10 BMatP= 3.86D-10
 IDIUse=1 WtCom= 1.00D+00 WtEn= 0.00D+00
 Coeff-Com:  0.128D-04-0.277D-04-0.123D-04 0.124D-03 0.148D-04-0.515D-03
 Coeff-Com:  0.548D-04 0.825D-03 0.198D-03-0.131D-02-0.660D-03 0.203D-03
 Coeff-Com:  0.322D-02 0.103D-01 0.130D-02-0.583D-01-0.146D+00 0.489D+00
 Coeff-Com:  0.702D+00
 Coeff:      0.128D-04-0.277D-04-0.123D-04 0.124D-03 0.148D-04-0.515D-03
 Coeff:      0.548D-04 0.825D-03 0.198D-03-0.131D-02-0.660D-03 0.203D-03
 Coeff:      0.322D-02 0.103D-01 0.130D-02-0.583D-01-0.146D+00 0.489D+00
 Coeff:      0.702D+00
 Gap=     0.247 Goal=   None    Shift=    0.000
 Gap=     0.247 Goal=   None    Shift=    0.000
 RMSDP=3.31D-08 MaxDP=1.86D-06 DE=-1.46D-09 OVMax= 1.35D-05

 Cycle  20  Pass 1  IDiag  1:
 RMSU=  1.56D-08    CP:  9.03D-01  2.26D+00  1.57D+00  3.00D+00  3.00D+00
                    CP:  3.00D+00  3.00D+00  3.00D+00  3.00D+00  3.00D+00
                    CP:  3.00D+00  2.68D+00  1.38D+00  1.56D+00  2.08D+00
                    CP:  1.30D+00  1.64D+00  1.35D+00  1.13D+00
 E= -466.814132521570     Delta-E=       -0.000000000060 Rises=F Damp=F
 DIIS: error= 1.04D-07 at cycle  20 NSaved=  20.
 NSaved=20 IEnMin=20 EnMin= -466.814132521570     IErMin=20 ErrMin= 1.04D-07
 ErrMax= 1.04D-07  0.00D+00 EMaxC= 1.00D-01 BMatC= 1.44D-11 BMatP= 1.24D-10
 IDIUse=1 WtCom= 1.00D+00 WtEn= 0.00D+00
 Coeff-Com:  0.368D-05-0.791D-05-0.486D-05 0.327D-04 0.487D-05-0.826D-04
 Coeff-Com:  0.314D-04 0.183D-03 0.336D-04-0.200D-03-0.512D-03-0.948D-03
 Coeff-Com:  0.635D-03 0.287D-02 0.296D-02-0.103D-01-0.370D-01 0.833D-02
 Coeff-Com:  0.224D+00 0.810D+00
 Coeff:      0.368D-05-0.791D-05-0.486D-05 0.327D-04 0.487D-05-0.826D-04
 Coeff:      0.314D-04 0.183D-03 0.336D-04-0.200D-03-0.512D-03-0.948D-03
 Coeff:      0.635D-03 0.287D-02 0.296D-02-0.103D-01-0.370D-01 0.833D-02
 Coeff:      0.224D+00 0.810D+00
 Gap=     0.247 Goal=   None    Shift=    0.000
 Gap=     0.247 Goal=   None    Shift=    0.000
 RMSDP=3.24D-08 MaxDP=1.69D-06 DE=-5.96D-11 OVMax= 1.45D-05

 Cycle  21  Pass 1  IDiag  1:
 Restarting incremental Fock formation.
 E= -466.814132521582     Delta-E=       -0.000000000011 Rises=F Damp=F
 DIIS: error= 5.15D-08 at cycle  21 NSaved=  20.
 NSaved=20 IEnMin=20 EnMin= -466.814132521582     IErMin=20 ErrMin= 5.15D-08
 ErrMax= 5.15D-08  0.00D+00 EMaxC= 1.00D-01 BMatC= 2.07D-12 BMatP= 1.44D-11
 IDIUse=1 WtCom= 1.00D+00 WtEn= 0.00D+00
 Coeff-Com: -0.969D-08-0.469D-06-0.225D-05-0.636D-05 0.477D-04 0.303D-05
 Coeff-Com: -0.648D-04-0.273D-04 0.135D-03 0.225D-04-0.217D-03-0.742D-03
 Coeff-Com: -0.448D-03 0.173D-02 0.590D-02 0.123D-01-0.854D-01-0.649D-01
 Coeff-Com:  0.235D+00 0.897D+00
 Coeff:     -0.969D-08-0.469D-06-0.225D-05-0.636D-05 0.477D-04 0.303D-05
 Coeff:     -0.648D-04-0.273D-04 0.135D-03 0.225D-04-0.217D-03-0.742D-03
 Coeff:     -0.448D-03 0.173D-02 0.590D-02 0.123D-01-0.854D-01-0.649D-01
 Coeff:      0.235D+00 0.897D+00
 Gap=     0.247 Goal=   None    Shift=    0.000
 Gap=     0.247 Goal=   None    Shift=    0.000
 RMSDP=1.55D-08 MaxDP=7.03D-07 DE=-1.15D-11 OVMax= 6.18D-06

 Cycle  22  Pass 1  IDiag  1:
 RMSU=  1.55D-08    CP:  1.00D+00
 E= -466.814132521584     Delta-E=       -0.000000000002 Rises=F Damp=F
 DIIS: error= 1.61D-08 at cycle  22 NSaved=  20.
 NSaved=20 IEnMin=20 EnMin= -466.814132521584     IErMin=20 ErrMin= 1.61D-08
 ErrMax= 1.61D-08  0.00D+00 EMaxC= 1.00D-01 BMatC= 1.92D-13 BMatP= 2.07D-12
 IDIUse=1 WtCom= 1.00D+00 WtEn= 0.00D+00
 Coeff-Com:  0.127D-06 0.802D-06-0.217D-05 0.529D-05-0.118D-05-0.104D-04
 Coeff-Com:  0.898D-07 0.517D-06 0.489D-04 0.110D-03-0.117D-03-0.803D-03
 Coeff-Com:  0.239D-03 0.295D-02 0.447D-02-0.189D-01-0.266D-01-0.200D-01
 Coeff-Com:  0.124D+00 0.935D+00
 Coeff:      0.127D-06 0.802D-06-0.217D-05 0.529D-05-0.118D-05-0.104D-04
 Coeff:      0.898D-07 0.517D-06 0.489D-04 0.110D-03-0.117D-03-0.803D-03
 Coeff:      0.239D-03 0.295D-02 0.447D-02-0.189D-01-0.266D-01-0.200D-01
 Coeff:      0.124D+00 0.935D+00
 Gap=     0.247 Goal=   None    Shift=    0.000
 Gap=     0.247 Goal=   None    Shift=    0.000
 RMSDP=8.40D-09 MaxDP=3.77D-07 DE=-1.93D-12 OVMax= 3.53D-06

 Error on total polarization charges =  0.01115
 SCF Done:  E(UwB97XD) =  -466.814132522     A.U. after   22 cycles
            NFock= 22  Conv=0.84D-08     -V/T= 2.0055
 <Sx>= 0.0000 <Sy>= 0.0000 <Sz>= 0.0000 <S**2>= 0.0000 S= 0.0000
 <L.S>=  0.00000000000    
 KE= 4.642633185183D+02 PE=-2.464751025852D+03 EE= 8.422515056644D+02
 --------------------------------------------------------------------
 Variational PCM results
 =======================
 <psi(f)|   H    |psi(f)>                     (a.u.) =    -466.821686
 <psi(f)|H+V(f)/2|psi(f)>                     (a.u.) =    -466.823152
 Total free energy in solution:
 - with all non electrostatic terms           (a.u.) =    -466.814133
 --------------------------------------------------------------------
 (Polarized solute)-Solvent               (kcal/mol) =      -0.92
 --------------------------------------------------------------------
 Quantum repulsion energy                 (kcal/mol) =       5.66
 Total non electrostatic                  (kcal/mol) =       5.66
 --------------------------------------------------------------------
 Partition over spheres:
 Sphere  on Atom  Surface  Charge   GEl     GCav    GDR
    1               7.33   0.011   -0.05    0.00    0.00
    2               1.82   0.002   -0.01    0.00    0.00
    3               7.52  -0.010   -0.03    0.00    0.00
    4               2.83  -0.004   -0.01    0.00    0.00
    5               4.64   0.009   -0.05    0.00    0.00
    6               1.83   0.002   -0.01    0.00    0.00
    7               4.80  -0.007   -0.03    0.00    0.00
    8               3.00  -0.004   -0.01    0.00    0.00
    9               3.06   0.002    0.00    0.00    0.00
   10               6.67  -0.007   -0.01    0.00    0.00
   11               3.58  -0.003   -0.01    0.00    0.00
   12               6.83   0.011   -0.07    0.00    0.00
   13               7.50  -0.010   -0.03    0.00    0.00
   14               7.23   0.011   -0.05    0.00    0.00
   15               7.52  -0.010   -0.03    0.00    0.00
   16               3.38   0.001    0.00    0.00    0.00
   17               4.00  -0.004   -0.02    0.00    0.00
   18               7.45  -0.008   -0.03    0.00    0.00
   19               4.73   0.009   -0.05    0.00    0.00
   20               4.81  -0.007   -0.03    0.00    0.00
   21               7.20   0.012   -0.07    0.00    0.00
   22               7.52  -0.010   -0.03    0.00    0.00
   23               2.98   0.002    0.00    0.00    0.00
   24               3.52  -0.003   -0.01    0.00    0.00
   25               6.86  -0.007   -0.01    0.00    0.00
   26               3.27   0.001    0.00    0.00    0.00
   27               7.38  -0.008   -0.03    0.00    0.00
   28               4.11  -0.004   -0.02    0.00    0.00
 Added spheres:    75.04   0.019   -0.22    0.00    0.00
 --------------------------------------------------------------------
 After PCM corrections, the energy is  -466.814132522     a.u.
 --------------------------------------------------------------------
 Annihilation of the first spin contaminant:
 S**2 before annihilation    -0.0000,   after     0.0000
 Leave Link  502 at Tue Aug  4 12:14:19 2020, MaxMem=  6442450944 cpu:            9928.9 elap:             416.8
 (Enter /scratch/scicomp/CentOS/7.3.1611/Haswell/software/Gaussian/g16/l601.exe)
 Copying SCF densities to generalized density rwf, IOpCl= 1 IROHF=0.

 **********************************************************************

            Population analysis using the SCF Density.

 **********************************************************************

 Alpha  occ. eigenvalues --  -10.28789 -10.28788 -10.28395 -10.28394 -10.28066
 Alpha  occ. eigenvalues --  -10.28066 -10.28021 -10.28020 -10.27792 -10.27791
 Alpha  occ. eigenvalues --  -10.27106 -10.27105  -0.94854  -0.93249  -0.84978
 Alpha  occ. eigenvalues --   -0.84262  -0.83483  -0.82931  -0.71436  -0.70537
 Alpha  occ. eigenvalues --   -0.68806  -0.67669  -0.59969  -0.59653  -0.57901
 Alpha  occ. eigenvalues --   -0.56200  -0.53234  -0.53064  -0.50931  -0.50374
 Alpha  occ. eigenvalues --   -0.49609  -0.48561  -0.47629  -0.47016  -0.46214
 Alpha  occ. eigenvalues --   -0.44594  -0.41405  -0.40894  -0.39734  -0.39259
 Alpha  occ. eigenvalues --   -0.38934  -0.37897  -0.31185  -0.24351
 Alpha virt. eigenvalues --    0.00372   0.08091   0.11336   0.13372   0.14350
 Alpha virt. eigenvalues --    0.14969   0.15546   0.16505   0.16895   0.17265
 Alpha virt. eigenvalues --    0.17366   0.18303   0.18706   0.19678   0.20894
 Alpha virt. eigenvalues --    0.21781   0.22199   0.23607   0.24097   0.24577
 Alpha virt. eigenvalues --    0.25321   0.26025   0.27096   0.27235   0.28115
 Alpha virt. eigenvalues --    0.29371   0.29484   0.30434   0.30993   0.31176
 Alpha virt. eigenvalues --    0.31583   0.32481   0.32831   0.33469   0.34690
 Alpha virt. eigenvalues --    0.35254   0.35955   0.36664   0.36897   0.38169
 Alpha virt. eigenvalues --    0.38383   0.39504   0.41961   0.42318   0.43048
 Alpha virt. eigenvalues --    0.44439   0.44617   0.45076   0.45542   0.46279
 Alpha virt. eigenvalues --    0.47292   0.48093   0.49148   0.49365   0.49391
 Alpha virt. eigenvalues --    0.49600   0.49722   0.49954   0.50767   0.50958
 Alpha virt. eigenvalues --    0.51136   0.51534   0.52658   0.52798   0.53680
 Alpha virt. eigenvalues --    0.53724   0.54928   0.55411   0.55838   0.56374
 Alpha virt. eigenvalues --    0.57378   0.57874   0.58878   0.59925   0.60494
 Alpha virt. eigenvalues --    0.60794   0.61030   0.61993   0.64071   0.64927
 Alpha virt. eigenvalues --    0.67229   0.67405   0.68397   0.68948   0.69210
 Alpha virt. eigenvalues --    0.71432   0.73184   0.73350   0.76730   0.77078
 Alpha virt. eigenvalues --    0.77656   0.79096   0.79345   0.81811   0.82279
 Alpha virt. eigenvalues --    0.83901   0.84787   0.86002   0.86775   0.88346
 Alpha virt. eigenvalues --    0.89014   0.90278   0.93256   0.94313   0.95600
 Alpha virt. eigenvalues --    0.95755   0.98399   0.98483   0.98900   0.99885
 Alpha virt. eigenvalues --    1.02732   1.02883   1.04333   1.05058   1.06024
 Alpha virt. eigenvalues --    1.07523   1.08236   1.08438   1.09996   1.10696
 Alpha virt. eigenvalues --    1.13011   1.14335   1.15834   1.17065   1.17419
 Alpha virt. eigenvalues --    1.18482   1.18900   1.19515   1.20015   1.20148
 Alpha virt. eigenvalues --    1.20990   1.22418   1.24381   1.26246   1.26441
 Alpha virt. eigenvalues --    1.26811   1.27236   1.28465   1.29410   1.29539
 Alpha virt. eigenvalues --    1.30720   1.30925   1.33653   1.33944   1.34427
 Alpha virt. eigenvalues --    1.35317   1.35822   1.36475   1.38563   1.39693
 Alpha virt. eigenvalues --    1.39967   1.40155   1.40527   1.42450   1.43000
 Alpha virt. eigenvalues --    1.43169   1.43902   1.44288   1.44819   1.45442
 Alpha virt. eigenvalues --    1.45803   1.46038   1.48214   1.48407   1.49273
 Alpha virt. eigenvalues --    1.50887   1.53744   1.54852   1.57137   1.57810
 Alpha virt. eigenvalues --    1.58691   1.59813   1.60340   1.60761   1.62948
 Alpha virt. eigenvalues --    1.64407   1.65351   1.65404   1.66708   1.68536
 Alpha virt. eigenvalues --    1.71399   1.73070   1.75875   1.77294   1.78021
 Alpha virt. eigenvalues --    1.80020   1.81494   1.82431   1.84986   1.86034
 Alpha virt. eigenvalues --    1.88665   1.90255   1.90919   1.93994   1.94304
 Alpha virt. eigenvalues --    1.96732   1.97554   1.99607   2.01422   2.02974
 Alpha virt. eigenvalues --    2.05953   2.06753   2.08633   2.11468   2.11646
 Alpha virt. eigenvalues --    2.12928   2.16182   2.16584   2.16793   2.18456
 Alpha virt. eigenvalues --    2.19012   2.20327   2.20891   2.22624   2.24421
 Alpha virt. eigenvalues --    2.25294   2.25569   2.28049   2.30405   2.32075
 Alpha virt. eigenvalues --    2.35890   2.36736   2.39141   2.39796   2.44630
 Alpha virt. eigenvalues --    2.44909   2.47909   2.48061   2.49025   2.50218
 Alpha virt. eigenvalues --    2.50939   2.53800   2.54235   2.57060   2.57391
 Alpha virt. eigenvalues --    2.60639   2.60933   2.62124   2.62155   2.62820
 Alpha virt. eigenvalues --    2.64664   2.65675   2.66119   2.67881   2.69244
 Alpha virt. eigenvalues --    2.69983   2.72457   2.72829   2.74199   2.74313
 Alpha virt. eigenvalues --    2.74785   2.76387   2.76522   2.77443   2.77799
 Alpha virt. eigenvalues --    2.79588   2.80002   2.80913   2.82122   2.83482
 Alpha virt. eigenvalues --    2.83516   2.83799   2.84779   2.85733   2.86453
 Alpha virt. eigenvalues --    2.86782   2.88066   2.89312   2.90379   2.92347
 Alpha virt. eigenvalues --    2.93087   2.94449   2.95417   2.95867   2.97209
 Alpha virt. eigenvalues --    2.97835   2.97989   2.98343   2.98996   3.02338
 Alpha virt. eigenvalues --    3.02444   3.03480   3.04199   3.04859   3.05872
 Alpha virt. eigenvalues --    3.07795   3.08680   3.09997   3.10562   3.11251
 Alpha virt. eigenvalues --    3.12129   3.13160   3.13226   3.14330   3.14801
 Alpha virt. eigenvalues --    3.16562   3.16698   3.18135   3.18317   3.20198
 Alpha virt. eigenvalues --    3.20470   3.20588   3.21224   3.21326   3.23284
 Alpha virt. eigenvalues --    3.23902   3.24363   3.24637   3.25027   3.26285
 Alpha virt. eigenvalues --    3.27109   3.27218   3.28004   3.28675   3.30016
 Alpha virt. eigenvalues --    3.30405   3.31315   3.32228   3.32427   3.34516
 Alpha virt. eigenvalues --    3.34919   3.35597   3.36042   3.36444   3.37442
 Alpha virt. eigenvalues --    3.37967   3.39691   3.39695   3.41422   3.42357
 Alpha virt. eigenvalues --    3.43195   3.45172   3.45449   3.47060   3.47197
 Alpha virt. eigenvalues --    3.48066   3.48445   3.48765   3.49823   3.51635
 Alpha virt. eigenvalues --    3.52474   3.53335   3.53616   3.54936   3.56743
 Alpha virt. eigenvalues --    3.56952   3.57294   3.58317   3.58869   3.60550
 Alpha virt. eigenvalues --    3.61989   3.63118   3.64164   3.65243   3.66191
 Alpha virt. eigenvalues --    3.66388   3.66661   3.68369   3.70452   3.71877
 Alpha virt. eigenvalues --    3.71980   3.73354   3.76754   3.80226   3.80387
 Alpha virt. eigenvalues --    3.80570   3.82266   3.82971   3.83304   3.83559
 Alpha virt. eigenvalues --    3.85714   3.87338   3.91185   3.91224   3.92503
 Alpha virt. eigenvalues --    3.93401   3.96055   3.96584   4.01420   4.01657
 Alpha virt. eigenvalues --    4.03402   4.04468   4.07072   4.08805   4.10508
 Alpha virt. eigenvalues --    4.10960   4.13034   4.13564   4.14727   4.15376
 Alpha virt. eigenvalues --    4.16611   4.18842   4.19159   4.20758   4.21014
 Alpha virt. eigenvalues --    4.22086   4.24410   4.25971   4.28725   4.30023
 Alpha virt. eigenvalues --    4.32036   4.32562   4.33892   4.35632   4.39469
 Alpha virt. eigenvalues --    4.39839   4.42786   4.43392   4.45977   4.47912
 Alpha virt. eigenvalues --    4.49210   4.50817   4.52349   4.54732   4.57205
 Alpha virt. eigenvalues --    4.58084   4.59998   4.61192   4.67301   4.68014
 Alpha virt. eigenvalues --    4.70604   4.73253   4.76484   4.76537   4.78737
 Alpha virt. eigenvalues --    4.79549   4.80233   4.85585   4.87034   4.88088
 Alpha virt. eigenvalues --    4.92375   4.92802   4.93803   4.94836   4.98282
 Alpha virt. eigenvalues --    4.99390   5.03801   5.08023   5.10700   5.12170
 Alpha virt. eigenvalues --    5.16991   5.20459   5.23244   5.24195   5.25849
 Alpha virt. eigenvalues --    5.29411   5.37505   5.38059   5.40309   5.41437
 Alpha virt. eigenvalues --    5.45143   5.45255   5.51910   5.55487   5.70320
 Alpha virt. eigenvalues --    5.70861   5.72380   5.75610   5.92225   6.00283
 Alpha virt. eigenvalues --    7.95159   7.95805   8.03638   8.04007   8.05581
 Alpha virt. eigenvalues --    8.10278   8.11219   8.14636   8.18918   8.20402
 Alpha virt. eigenvalues --    8.34143   8.40294  34.77539  34.77799  34.81409
 Alpha virt. eigenvalues --   34.81624  34.84612  34.91383  34.98370  34.99817
 Alpha virt. eigenvalues --   35.02746  35.03188  35.16627  35.22643
  Beta  occ. eigenvalues --  -10.28789 -10.28788 -10.28395 -10.28394 -10.28066
  Beta  occ. eigenvalues --  -10.28066 -10.28021 -10.28020 -10.27792 -10.27791
  Beta  occ. eigenvalues --  -10.27106 -10.27105  -0.94854  -0.93249  -0.84978
  Beta  occ. eigenvalues --   -0.84262  -0.83483  -0.82931  -0.71436  -0.70537
  Beta  occ. eigenvalues --   -0.68806  -0.67669  -0.59969  -0.59653  -0.57901
  Beta  occ. eigenvalues --   -0.56200  -0.53234  -0.53064  -0.50931  -0.50374
  Beta  occ. eigenvalues --   -0.49609  -0.48561  -0.47629  -0.47016  -0.46214
  Beta  occ. eigenvalues --   -0.44594  -0.41405  -0.40894  -0.39734  -0.39259
  Beta  occ. eigenvalues --   -0.38934  -0.37897  -0.31185  -0.24351
  Beta virt. eigenvalues --    0.00372   0.08091   0.11336   0.13372   0.14350
  Beta virt. eigenvalues --    0.14969   0.15546   0.16505   0.16895   0.17265
  Beta virt. eigenvalues --    0.17366   0.18303   0.18706   0.19678   0.20894
  Beta virt. eigenvalues --    0.21781   0.22199   0.23607   0.24097   0.24577
  Beta virt. eigenvalues --    0.25321   0.26025   0.27096   0.27235   0.28115
  Beta virt. eigenvalues --    0.29371   0.29484   0.30434   0.30993   0.31176
  Beta virt. eigenvalues --    0.31583   0.32481   0.32831   0.33469   0.34690
  Beta virt. eigenvalues --    0.35254   0.35955   0.36664   0.36897   0.38169
  Beta virt. eigenvalues --    0.38383   0.39504   0.41961   0.42318   0.43048
  Beta virt. eigenvalues --    0.44439   0.44617   0.45076   0.45542   0.46279
  Beta virt. eigenvalues --    0.47292   0.48093   0.49148   0.49365   0.49391
  Beta virt. eigenvalues --    0.49600   0.49722   0.49954   0.50767   0.50958
  Beta virt. eigenvalues --    0.51136   0.51534   0.52658   0.52798   0.53680
  Beta virt. eigenvalues --    0.53724   0.54928   0.55411   0.55838   0.56374
  Beta virt. eigenvalues --    0.57378   0.57874   0.58878   0.59925   0.60494
  Beta virt. eigenvalues --    0.60794   0.61030   0.61993   0.64071   0.64927
  Beta virt. eigenvalues --    0.67229   0.67405   0.68397   0.68948   0.69210
  Beta virt. eigenvalues --    0.71432   0.73184   0.73350   0.76730   0.77078
  Beta virt. eigenvalues --    0.77656   0.79096   0.79345   0.81811   0.82279
  Beta virt. eigenvalues --    0.83901   0.84787   0.86002   0.86775   0.88346
  Beta virt. eigenvalues --    0.89014   0.90278   0.93256   0.94313   0.95600
  Beta virt. eigenvalues --    0.95755   0.98399   0.98483   0.98900   0.99885
  Beta virt. eigenvalues --    1.02732   1.02883   1.04333   1.05058   1.06024
  Beta virt. eigenvalues --    1.07523   1.08236   1.08438   1.09996   1.10696
  Beta virt. eigenvalues --    1.13011   1.14335   1.15834   1.17065   1.17419
  Beta virt. eigenvalues --    1.18482   1.18900   1.19515   1.20015   1.20148
  Beta virt. eigenvalues --    1.20990   1.22418   1.24381   1.26246   1.26441
  Beta virt. eigenvalues --    1.26811   1.27236   1.28465   1.29410   1.29539
  Beta virt. eigenvalues --    1.30720   1.30925   1.33653   1.33944   1.34427
  Beta virt. eigenvalues --    1.35317   1.35822   1.36475   1.38563   1.39693
  Beta virt. eigenvalues --    1.39967   1.40155   1.40527   1.42450   1.43000
  Beta virt. eigenvalues --    1.43169   1.43902   1.44288   1.44819   1.45442
  Beta virt. eigenvalues --    1.45803   1.46038   1.48214   1.48407   1.49273
  Beta virt. eigenvalues --    1.50887   1.53744   1.54852   1.57137   1.57810
  Beta virt. eigenvalues --    1.58691   1.59813   1.60340   1.60761   1.62948
  Beta virt. eigenvalues --    1.64407   1.65351   1.65404   1.66708   1.68536
  Beta virt. eigenvalues --    1.71399   1.73070   1.75875   1.77294   1.78021
  Beta virt. eigenvalues --    1.80020   1.81494   1.82431   1.84986   1.86034
  Beta virt. eigenvalues --    1.88665   1.90255   1.90919   1.93994   1.94304
  Beta virt. eigenvalues --    1.96732   1.97554   1.99607   2.01422   2.02974
  Beta virt. eigenvalues --    2.05953   2.06753   2.08633   2.11468   2.11646
  Beta virt. eigenvalues --    2.12928   2.16182   2.16584   2.16793   2.18456
  Beta virt. eigenvalues --    2.19012   2.20327   2.20891   2.22624   2.24421
  Beta virt. eigenvalues --    2.25294   2.25569   2.28049   2.30405   2.32075
  Beta virt. eigenvalues --    2.35890   2.36736   2.39141   2.39796   2.44630
  Beta virt. eigenvalues --    2.44909   2.47909   2.48061   2.49025   2.50218
  Beta virt. eigenvalues --    2.50939   2.53800   2.54235   2.57060   2.57391
  Beta virt. eigenvalues --    2.60639   2.60933   2.62124   2.62155   2.62820
  Beta virt. eigenvalues --    2.64664   2.65675   2.66119   2.67881   2.69244
  Beta virt. eigenvalues --    2.69983   2.72457   2.72829   2.74199   2.74313
  Beta virt. eigenvalues --    2.74785   2.76387   2.76522   2.77443   2.77799
  Beta virt. eigenvalues --    2.79588   2.80002   2.80913   2.82122   2.83482
  Beta virt. eigenvalues --    2.83516   2.83799   2.84779   2.85733   2.86453
  Beta virt. eigenvalues --    2.86782   2.88066   2.89312   2.90379   2.92347
  Beta virt. eigenvalues --    2.93087   2.94449   2.95417   2.95867   2.97209
  Beta virt. eigenvalues --    2.97835   2.97989   2.98343   2.98996   3.02338
  Beta virt. eigenvalues --    3.02444   3.03480   3.04199   3.04859   3.05872
  Beta virt. eigenvalues --    3.07795   3.08680   3.09997   3.10562   3.11251
  Beta virt. eigenvalues --    3.12129   3.13160   3.13226   3.14330   3.14801
  Beta virt. eigenvalues --    3.16562   3.16698   3.18135   3.18317   3.20198
  Beta virt. eigenvalues --    3.20470   3.20588   3.21224   3.21326   3.23284
  Beta virt. eigenvalues --    3.23902   3.24363   3.24637   3.25027   3.26285
  Beta virt. eigenvalues --    3.27109   3.27218   3.28004   3.28675   3.30016
  Beta virt. eigenvalues --    3.30405   3.31315   3.32228   3.32427   3.34516
  Beta virt. eigenvalues --    3.34919   3.35597   3.36042   3.36444   3.37442
  Beta virt. eigenvalues --    3.37967   3.39691   3.39695   3.41422   3.42357
  Beta virt. eigenvalues --    3.43195   3.45172   3.45449   3.47060   3.47197
  Beta virt. eigenvalues --    3.48066   3.48445   3.48765   3.49823   3.51635
  Beta virt. eigenvalues --    3.52474   3.53335   3.53616   3.54936   3.56743
  Beta virt. eigenvalues --    3.56952   3.57294   3.58317   3.58869   3.60550
  Beta virt. eigenvalues --    3.61989   3.63118   3.64164   3.65243   3.66191
  Beta virt. eigenvalues --    3.66388   3.66661   3.68369   3.70452   3.71877
  Beta virt. eigenvalues --    3.71980   3.73354   3.76754   3.80226   3.80387
  Beta virt. eigenvalues --    3.80570   3.82266   3.82971   3.83304   3.83559
  Beta virt. eigenvalues --    3.85714   3.87338   3.91185   3.91224   3.92503
  Beta virt. eigenvalues --    3.93401   3.96055   3.96584   4.01420   4.01657
  Beta virt. eigenvalues --    4.03402   4.04468   4.07072   4.08805   4.10508
  Beta virt. eigenvalues --    4.10960   4.13034   4.13564   4.14727   4.15376
  Beta virt. eigenvalues --    4.16611   4.18842   4.19159   4.20758   4.21014
  Beta virt. eigenvalues --    4.22086   4.24410   4.25971   4.28725   4.30023
  Beta virt. eigenvalues --    4.32036   4.32562   4.33892   4.35632   4.39469
  Beta virt. eigenvalues --    4.39839   4.42786   4.43392   4.45977   4.47912
  Beta virt. eigenvalues --    4.49210   4.50817   4.52349   4.54732   4.57205
  Beta virt. eigenvalues --    4.58084   4.59998   4.61192   4.67301   4.68014
  Beta virt. eigenvalues --    4.70604   4.73253   4.76484   4.76537   4.78737
  Beta virt. eigenvalues --    4.79549   4.80233   4.85585   4.87034   4.88088
  Beta virt. eigenvalues --    4.92375   4.92802   4.93803   4.94836   4.98282
  Beta virt. eigenvalues --    4.99390   5.03801   5.08023   5.10700   5.12170
  Beta virt. eigenvalues --    5.16991   5.20459   5.23244   5.24195   5.25849
  Beta virt. eigenvalues --    5.29411   5.37505   5.38059   5.40309   5.41437
  Beta virt. eigenvalues --    5.45143   5.45255   5.51910   5.55487   5.70320
  Beta virt. eigenvalues --    5.70861   5.72380   5.75610   5.92225   6.00283
  Beta virt. eigenvalues --    7.95159   7.95805   8.03638   8.04007   8.05581
  Beta virt. eigenvalues --    8.10278   8.11219   8.14636   8.18918   8.20402
  Beta virt. eigenvalues --    8.34143   8.40294  34.77539  34.77799  34.81409
  Beta virt. eigenvalues --   34.81624  34.84612  34.91383  34.98370  34.99817
  Beta virt. eigenvalues --   35.02746  35.03188  35.16627  35.22643
          Condensed to atoms (all electrons):
               1          2          3          4          5          6
     1  C    5.178737  -0.006365   0.423999  -0.002613   0.002268  -0.009694
     2  C   -0.006365   5.407431  -0.001885   0.433951  -0.100186   0.024024
     3  H    0.423999  -0.001885   0.490073   0.000036  -0.000032   0.000083
     4  H   -0.002613   0.433951   0.000036   0.471169  -0.019658  -0.006096
     5  C    0.002268  -0.100186  -0.000032  -0.019658   5.241367   0.489109
     6  C   -0.009694   0.024024   0.000083  -0.006096   0.489109   5.406917
     7  H    0.000089  -0.003223   0.000002   0.000150   0.438711  -0.032995
     8  H    0.000839  -0.006026  -0.000121   0.000112  -0.035298   0.433939
     9  C    0.002891  -0.028348  -0.000011  -0.005636  -0.060548   0.225043
    10  H   -0.000039   0.003869  -0.000001  -0.000494  -0.007552  -0.050510
    11  H   -0.000017  -0.007855   0.000004   0.000901   0.010627  -0.059189
    12  C   -0.000245   0.021663   0.000001   0.006821   0.280337  -0.058993
    13  H   -0.000001   0.000259   0.000000   0.000055  -0.032845   0.003857
    14  C    0.000132  -0.009704  -0.000000   0.000856  -0.042069  -0.006164
    15  H   -0.000000   0.000084  -0.000000  -0.000123   0.005511  -0.001911
    16  C   -0.000471   0.017685   0.000000  -0.000484   0.002724  -0.066748
    17  H    0.000022   0.001581  -0.000000  -0.005698   0.009969  -0.005286
    18  H    0.000002   0.000051   0.000000   0.000536  -0.003675   0.012993
    19  C   -0.042035   0.488831   0.005468  -0.035253  -0.032714  -0.100231
    20  H    0.004570  -0.033411  -0.000118  -0.005344  -0.000118  -0.003209
    21  C    0.550195  -0.058915  -0.030100   0.005567   0.004352   0.021682
    22  H   -0.024707   0.003779  -0.005467  -0.000068   0.000057   0.000263
    23  C   -0.082956   0.224953   0.004853  -0.015163   0.012320  -0.028342
    24  H    0.013394  -0.059184  -0.000054  -0.004092   0.003704  -0.007859
    25  H    0.003874  -0.050350  -0.000035  -0.002481   0.000647   0.003866
    26  C    0.266824  -0.066868  -0.027806   0.005945  -0.012624   0.017730
    27  H   -0.035367   0.013026  -0.004287  -0.000057   0.000428   0.000048
    28  H   -0.035733  -0.005250   0.000678  -0.000187  -0.004535   0.001581
               7          8          9         10         11         12
     1  C    0.000089   0.000839   0.002891  -0.000039  -0.000017  -0.000245
     2  C   -0.003223  -0.006026  -0.028348   0.003869  -0.007855   0.021663
     3  H    0.000002  -0.000121  -0.000011  -0.000001   0.000004   0.000001
     4  H    0.000150   0.000112  -0.005636  -0.000494   0.000901   0.006821
     5  C    0.438711  -0.035298  -0.060548  -0.007552   0.010627   0.280337
     6  C   -0.032995   0.433939   0.225043  -0.050510  -0.059189  -0.058993
     7  H    0.478508  -0.005357   0.003236  -0.000063   0.000004  -0.035612
     8  H   -0.005357   0.471231  -0.015186  -0.002487  -0.004090   0.005583
     9  C    0.003236  -0.015186   4.998431   0.407717   0.465197   0.034012
    10  H   -0.000063  -0.002487   0.407717   0.562775  -0.019192   0.000584
    11  H    0.000004  -0.004090   0.465197  -0.019192   0.521837  -0.005160
    12  C   -0.035612   0.005583   0.034012   0.000584  -0.005160   5.044452
    13  H   -0.003279  -0.000067   0.000484  -0.000110   0.000025   0.422135
    14  C    0.004596  -0.002620  -0.082958   0.003839   0.013396   0.549931
    15  H   -0.000118   0.000036   0.004860  -0.000035  -0.000054  -0.030428
    16  C   -0.001279   0.005953   0.326101  -0.023396  -0.056367  -0.052727
    17  H    0.000005  -0.000188  -0.029384   0.005950  -0.006314  -0.012143
    18  H    0.000033  -0.000058  -0.044495  -0.008688  -0.001177   0.005813
    19  C   -0.000113  -0.019643   0.012286   0.000655   0.003684   0.004337
    20  H    0.000003   0.000147   0.003191   0.000364  -0.003182  -0.000079
    21  C   -0.000079   0.006828  -0.003619  -0.000159  -0.000320  -0.000434
    22  H   -0.000001   0.000055  -0.000093  -0.000001  -0.000033  -0.000002
    23  C    0.003208  -0.005669   0.003655  -0.000125   0.000235  -0.003639
    24  H   -0.003204   0.000903   0.000235  -0.000029  -0.000008  -0.000322
    25  H    0.000364  -0.000494  -0.000124   0.000016  -0.000029  -0.000158
    26  C   -0.001409  -0.000491  -0.001559   0.000043  -0.000105   0.001445
    27  H   -0.000023   0.000539   0.000017  -0.000000  -0.000001  -0.000034
    28  H    0.002074  -0.005725   0.000466   0.000015   0.000012   0.000293
              13         14         15         16         17         18
     1  C   -0.000001   0.000132  -0.000000  -0.000471   0.000022   0.000002
     2  C    0.000259  -0.009704   0.000084   0.017685   0.001581   0.000051
     3  H    0.000000  -0.000000  -0.000000   0.000000  -0.000000   0.000000
     4  H    0.000055   0.000856  -0.000123  -0.000484  -0.005698   0.000536
     5  C   -0.032845  -0.042069   0.005511   0.002724   0.009969  -0.003675
     6  C    0.003857  -0.006164  -0.001911  -0.066748  -0.005286   0.012993
     7  H   -0.003279   0.004596  -0.000118  -0.001279   0.000005   0.000033
     8  H   -0.000067  -0.002620   0.000036   0.005953  -0.000188  -0.000058
     9  C    0.000484  -0.082958   0.004860   0.326101  -0.029384  -0.044495
    10  H   -0.000110   0.003839  -0.000035  -0.023396   0.005950  -0.008688
    11  H    0.000025   0.013396  -0.000054  -0.056367  -0.006314  -0.001177
    12  C    0.422135   0.549931  -0.030428  -0.052727  -0.012143   0.005813
    13  H    0.488810  -0.024523  -0.005479   0.003595  -0.000391  -0.000083
    14  C   -0.024523   5.178883   0.424291   0.266731  -0.035751  -0.035270
    15  H   -0.005479   0.424291   0.490161  -0.027780   0.000675  -0.004272
    16  C    0.003595   0.266731  -0.027780   4.981281   0.403784   0.432190
    17  H   -0.000391  -0.035751   0.000675   0.403784   0.574955  -0.021677
    18  H   -0.000083  -0.035270  -0.004272   0.432190  -0.021677   0.535936
    19  C    0.000057   0.002282  -0.000032  -0.012646  -0.004545   0.000429
    20  H   -0.000001   0.000089   0.000002  -0.001403   0.002066  -0.000022
    21  C   -0.000002  -0.000245   0.000001   0.001444   0.000293  -0.000034
    22  H    0.000000  -0.000001   0.000000   0.000007   0.000000  -0.000001
    23  C   -0.000092   0.002891  -0.000011  -0.001551   0.000467   0.000017
    24  H   -0.000035  -0.000018   0.000004  -0.000107   0.000012  -0.000001
    25  H   -0.000001  -0.000039  -0.000001   0.000044   0.000015  -0.000000
    26  C    0.000007  -0.000471   0.000000   0.000524  -0.000024  -0.000001
    27  H   -0.000001   0.000002   0.000000  -0.000001   0.000001  -0.000000
    28  H    0.000000   0.000022  -0.000000  -0.000024  -0.000012   0.000001
              19         20         21         22         23         24
     1  C   -0.042035   0.004570   0.550195  -0.024707  -0.082956   0.013394
     2  C    0.488831  -0.033411  -0.058915   0.003779   0.224953  -0.059184
     3  H    0.005468  -0.000118  -0.030100  -0.005467   0.004853  -0.000054
     4  H   -0.035253  -0.005344   0.005567  -0.000068  -0.015163  -0.004092
     5  C   -0.032714  -0.000118   0.004352   0.000057   0.012320   0.003704
     6  C   -0.100231  -0.003209   0.021682   0.000263  -0.028342  -0.007859
     7  H   -0.000113   0.000003  -0.000079  -0.000001   0.003208  -0.003204
     8  H   -0.019643   0.000147   0.006828   0.000055  -0.005669   0.000903
     9  C    0.012286   0.003191  -0.003619  -0.000093   0.003655   0.000235
    10  H    0.000655   0.000364  -0.000159  -0.000001  -0.000125  -0.000029
    11  H    0.003684  -0.003182  -0.000320  -0.000033   0.000235  -0.000008
    12  C    0.004337  -0.000079  -0.000434  -0.000002  -0.003639  -0.000322
    13  H    0.000057  -0.000001  -0.000002   0.000000  -0.000092  -0.000035
    14  C    0.002282   0.000089  -0.000245  -0.000001   0.002891  -0.000018
    15  H   -0.000032   0.000002   0.000001   0.000000  -0.000011   0.000004
    16  C   -0.012646  -0.001403   0.001444   0.000007  -0.001551  -0.000107
    17  H   -0.004545   0.002066   0.000293   0.000000   0.000467   0.000012
    18  H    0.000429  -0.000022  -0.000034  -0.000001   0.000017  -0.000001
    19  C    5.241253   0.439043   0.280521  -0.032723  -0.060427   0.010624
    20  H    0.439043   0.478524  -0.035530  -0.003282   0.003226   0.000004
    21  C    0.280521  -0.035530   5.044114   0.422286   0.034064  -0.005163
    22  H   -0.032723  -0.003282   0.422286   0.488808   0.000485   0.000025
    23  C   -0.060427   0.003226   0.034064   0.000485   4.998139   0.465195
    24  H    0.010624   0.000004  -0.005163   0.000025   0.465195   0.521956
    25  H   -0.007622  -0.000062   0.000586  -0.000109   0.407592  -0.019256
    26  C    0.002808  -0.001271  -0.052802   0.003600   0.326059  -0.056371
    27  H   -0.003696   0.000033   0.005885  -0.000082  -0.044507  -0.001180
    28  H    0.009939   0.000005  -0.012134  -0.000390  -0.029422  -0.006326
              25         26         27         28
     1  C    0.003874   0.266824  -0.035367  -0.035733
     2  C   -0.050350  -0.066868   0.013026  -0.005250
     3  H   -0.000035  -0.027806  -0.004287   0.000678
     4  H   -0.002481   0.005945  -0.000057  -0.000187
     5  C    0.000647  -0.012624   0.000428  -0.004535
     6  C    0.003866   0.017730   0.000048   0.001581
     7  H    0.000364  -0.001409  -0.000023   0.002074
     8  H   -0.000494  -0.000491   0.000539  -0.005725
     9  C   -0.000124  -0.001559   0.000017   0.000466
    10  H    0.000016   0.000043  -0.000000   0.000015
    11  H   -0.000029  -0.000105  -0.000001   0.000012
    12  C   -0.000158   0.001445  -0.000034   0.000293
    13  H   -0.000001   0.000007  -0.000001   0.000000
    14  C   -0.000039  -0.000471   0.000002   0.000022
    15  H   -0.000001   0.000000   0.000000  -0.000000
    16  C    0.000044   0.000524  -0.000001  -0.000024
    17  H    0.000015  -0.000024   0.000001  -0.000012
    18  H   -0.000000  -0.000001  -0.000000   0.000001
    19  C   -0.007622   0.002808  -0.003696   0.009939
    20  H   -0.000062  -0.001271   0.000033   0.000005
    21  C    0.000586  -0.052802   0.005885  -0.012134
    22  H   -0.000109   0.003600  -0.000082  -0.000390
    23  C    0.407592   0.326059  -0.044507  -0.029422
    24  H   -0.019256  -0.056371  -0.001180  -0.006326
    25  H    0.562813  -0.023369  -0.008682   0.005951
    26  C   -0.023369   4.981463   0.432237   0.403780
    27  H   -0.008682   0.432237   0.535803  -0.021694
    28  H    0.005951   0.403780  -0.021694   0.575048
          Atomic-Atomic Spin Densities.
               1          2          3          4          5          6
     1  C   -0.000000  -0.000000  -0.000000  -0.000000   0.000000  -0.000000
     2  C   -0.000000   0.000000  -0.000000  -0.000000  -0.000000  -0.000000
     3  H   -0.000000  -0.000000   0.000000  -0.000000  -0.000000   0.000000
     4  H   -0.000000  -0.000000  -0.000000  -0.000000   0.000000   0.000000
     5  C    0.000000  -0.000000  -0.000000   0.000000   0.000001  -0.000000
     6  C   -0.000000  -0.000000   0.000000   0.000000  -0.000000  -0.000000
     7  H   -0.000000   0.000000   0.000000  -0.000000  -0.000000   0.000000
     8  H    0.000000  -0.000000  -0.000000   0.000000   0.000000   0.000000
     9  C   -0.000000  -0.000000  -0.000000  -0.000000   0.000000   0.000000
    10  H   -0.000000   0.000000  -0.000000   0.000000  -0.000000  -0.000000
    11  H    0.000000  -0.000000  -0.000000  -0.000000   0.000000  -0.000000
    12  C    0.000000   0.000000   0.000000  -0.000000  -0.000000   0.000000
    13  H   -0.000000   0.000000   0.000000  -0.000000  -0.000000   0.000000
    14  C    0.000000   0.000000  -0.000000  -0.000000  -0.000000   0.000000
    15  H    0.000000  -0.000000  -0.000000   0.000000   0.000000   0.000000
    16  C    0.000000   0.000000   0.000000   0.000000   0.000000  -0.000000
    17  H   -0.000000  -0.000000  -0.000000   0.000000   0.000000  -0.000000
    18  H    0.000000   0.000000   0.000000  -0.000000  -0.000000   0.000000
    19  C    0.000000   0.000000  -0.000000  -0.000000  -0.000000   0.000000
    20  H    0.000000  -0.000000  -0.000000  -0.000000  -0.000000  -0.000000
[...]
     9  C   -0.000000   0.000000   0.000000  -0.000000
    10  H   -0.000000   0.000000  -0.000000   0.000000
    11  H    0.000000   0.000000   0.000000  -0.000000
    12  C    0.000000  -0.000000   0.000000  -0.000000
    13  H    0.000000  -0.000000   0.000000  -0.000000
    14  C    0.000000  -0.000000  -0.000000   0.000000
    15  H   -0.000000  -0.000000  -0.000000   0.000000
    16  C   -0.000000  -0.000000  -0.000000   0.000000
    17  H   -0.000000  -0.000000   0.000000   0.000000
    18  H    0.000000   0.000000  -0.000000  -0.000000
    19  C    0.000000   0.000000   0.000000  -0.000000
    20  H   -0.000000  -0.000000   0.000000   0.000000
    21  C   -0.000000  -0.000000  -0.000000   0.000000
    22  H   -0.000000  -0.000000  -0.000000   0.000000
    23  C    0.000000  -0.000000  -0.000000  -0.000000
    24  H   -0.000000   0.000000   0.000000  -0.000000
    25  H   -0.000000   0.000000   0.000000  -0.000000
    26  C    0.000000  -0.000000  -0.000000  -0.000000
    27  H    0.000000  -0.000000  -0.000000   0.000000
    28  H   -0.000000  -0.000000   0.000000  -0.000001
 Mulliken charges and spin densities:
               1          2
     1  C   -0.204075  -0.000008
     2  C   -0.213486   0.000007
     3  H    0.148145   0.000000
     4  H    0.186809  -0.000000
     5  C   -0.167052   0.000012
     6  C   -0.211784  -0.000007
     7  H    0.161686  -0.000001
     8  H    0.185865   0.000000
     9  C   -0.237011  -0.000001
    10  H    0.135761   0.000000
    11  H    0.153466   0.000000
    12  C   -0.175120  -0.000005
    13  H    0.150185   0.000000
    14  C   -0.205667   0.000008
    15  H    0.148092  -0.000000
    16  C   -0.199905  -0.000000
    17  H    0.126567   0.000000
    18  H    0.135499   0.000000
    19  C   -0.167668  -0.000012
    20  H    0.161125   0.000001
    21  C   -0.177132   0.000005
    22  H    0.150569  -0.000000
    23  C   -0.233842   0.000001
    24  H    0.154371  -0.000000
    25  H    0.134648  -0.000000
    26  C   -0.202612   0.000000
    27  H    0.135813  -0.000000
    28  H    0.126753  -0.000000
 Sum of Mulliken charges =  -0.00000  -0.00000
 Mulliken charges and spin densities with hydrogens summed into heavy atoms:
               1          2
     1  C   -0.055930  -0.000007
     2  C   -0.026676   0.000007
     5  C   -0.005366   0.000011
     6  C   -0.025919  -0.000007
     9  C    0.052216  -0.000001
    12  C   -0.024936  -0.000005
    14  C   -0.057575   0.000008
    16  C    0.062161   0.000000
    19  C   -0.006542  -0.000011
    21  C   -0.026563   0.000005
    23  C    0.055178   0.000001
    26  C    0.059954  -0.000000
 Electronic spatial extent (au):  <R**2>=           2192.5675
 Charge=             -0.0000 electrons
 Dipole moment (field-independent basis, Debye):
    X=             -0.0015    Y=              0.0001    Z=             -0.0060  Tot=              0.0062
 Quadrupole moment (field-independent basis, Debye-Ang):
   XX=            -70.5193   YY=            -68.5231   ZZ=            -75.3795
   XY=             -3.2699   XZ=             -3.1786   YZ=             -1.1328
 Traceless Quadrupole moment (field-independent basis, Debye-Ang):
   XX=              0.9547   YY=              2.9508   ZZ=             -3.9055
   XY=             -3.2699   XZ=             -3.1786   YZ=             -1.1328
 Octapole moment (field-independent basis, Debye-Ang**2):
  XXX=             -0.0082  YYY=              0.0023  ZZZ=             -0.0332  XYY=              0.0048
  XXY=             -0.0142  XXZ=             -0.0345  XZZ=             -0.0145  YZZ=             -0.0036
  YYZ=             -0.0070  XYZ=              0.0004
 Hexadecapole moment (field-independent basis, Debye-Ang**3):
 XXXX=          -1979.0945 YYYY=           -606.3028 ZZZZ=           -312.1609 XXXY=            -98.3376
 XXXZ=           -118.0446 YYYX=            -55.1537 YYYZ=             -0.6147 ZZZX=            -65.3500
 ZZZY=            -10.3012 XXYY=           -427.7708 XXZZ=           -408.4134 YYZZ=           -168.1964
 XXYZ=            -20.1661 YYXZ=            -24.1008 ZZXY=            -41.4728
 N-N= 6.914220691477D+02 E-N=-2.465436787320D+03  KE= 4.643768953442D+02
                          Isotropic Fermi Contact Couplings
        Atom                 a.u.       MegaHertz       Gauss      10(-4) cm-1
     1  C(13)             -0.00000      -0.00032      -0.00011      -0.00011
     2  C(13)              0.00000       0.00060       0.00021       0.00020
     3  H(1)               0.00000       0.00033       0.00012       0.00011
     4  H(1)              -0.00000      -0.00029      -0.00010      -0.00010
     5  C(13)              0.00000       0.00077       0.00027       0.00026
     6  C(13)             -0.00000      -0.00062      -0.00022      -0.00021
     7  H(1)              -0.00000      -0.00059      -0.00021      -0.00020
     8  H(1)               0.00000       0.00030       0.00011       0.00010
     9  C(13)             -0.00000      -0.00026      -0.00009      -0.00009
    10  H(1)              -0.00000      -0.00001      -0.00000      -0.00000
    11  H(1)               0.00000       0.00019       0.00007       0.00006
    12  C(13)             -0.00000      -0.00071      -0.00025      -0.00024
    13  H(1)               0.00000       0.00034       0.00012       0.00011
    14  C(13)              0.00000       0.00034       0.00012       0.00011
    15  H(1)              -0.00000      -0.00035      -0.00012      -0.00012
    16  C(13)             -0.00000      -0.00000      -0.00000      -0.00000
    17  H(1)               0.00000       0.00038       0.00014       0.00013
    18  H(1)               0.00000       0.00019       0.00007       0.00006
    19  C(13)             -0.00000      -0.00075      -0.00027      -0.00025
    20  H(1)               0.00000       0.00059       0.00021       0.00020
    21  C(13)              0.00000       0.00069       0.00025       0.00023
    22  H(1)              -0.00000      -0.00033      -0.00012      -0.00011
    23  C(13)              0.00000       0.00027       0.00010       0.00009
    24  H(1)              -0.00000      -0.00019      -0.00007      -0.00006
    25  H(1)              -0.00000      -0.00000      -0.00000      -0.00000
    26  C(13)             -0.00000      -0.00000      -0.00000      -0.00000
    27  H(1)              -0.00000      -0.00018      -0.00006      -0.00006
    28  H(1)              -0.00000      -0.00037      -0.00013      -0.00012
 --------------------------------------------------------
       Center         ----  Spin Dipole Couplings  ----
                      3XX-RR        3YY-RR        3ZZ-RR
 --------------------------------------------------------
     1   Atom        0.000001      0.000004     -0.000006
     2   Atom       -0.000002     -0.000005      0.000007
     3   Atom       -0.000000      0.000001     -0.000000
     4   Atom        0.000000     -0.000000      0.000000
     5   Atom       -0.000003     -0.000006      0.000010
     6   Atom        0.000002      0.000005     -0.000007
     7   Atom       -0.000000      0.000000     -0.000000
     8   Atom       -0.000000      0.000000     -0.000000
     9   Atom        0.000000      0.000000     -0.000000
    10   Atom       -0.000000      0.000000     -0.000000
    11   Atom       -0.000000     -0.000000      0.000000
    12   Atom        0.000001      0.000002     -0.000004
    13   Atom        0.000000     -0.000000      0.000000
    14   Atom       -0.000001     -0.000005      0.000006
    15   Atom        0.000000     -0.000001      0.000000
    16   Atom        0.000000     -0.000000      0.000000
    17   Atom       -0.000000      0.000000      0.000000
    18   Atom       -0.000000      0.000000     -0.000000
    19   Atom        0.000003      0.000006     -0.000010
    20   Atom        0.000000     -0.000000      0.000000
    21   Atom       -0.000001     -0.000002      0.000003
    22   Atom       -0.000000      0.000000     -0.000000
    23   Atom       -0.000000     -0.000000      0.000000
    24   Atom        0.000000      0.000000     -0.000000
    25   Atom        0.000000     -0.000000      0.000000
    26   Atom       -0.000000      0.000000     -0.000000
    27   Atom        0.000000     -0.000000      0.000000
    28   Atom        0.000000     -0.000000     -0.000000
 --------------------------------------------------------
                        XY            XZ            YZ
 --------------------------------------------------------
     1   Atom        0.000000     -0.000005      0.000000
     2   Atom        0.000001      0.000006      0.000002
     3   Atom       -0.000000      0.000000      0.000000
     4   Atom       -0.000000     -0.000000      0.000000
     5   Atom        0.000000      0.000006      0.000001
     6   Atom       -0.000001     -0.000006     -0.000002
     7   Atom       -0.000001      0.000000      0.000000
     8   Atom        0.000000      0.000000     -0.000000
     9   Atom       -0.000000     -0.000000      0.000000
    10   Atom        0.000000     -0.000000     -0.000000
    11   Atom       -0.000000     -0.000000     -0.000000
    12   Atom       -0.000000     -0.000003      0.000000
    13   Atom       -0.000000     -0.000000      0.000000
    14   Atom       -0.000000      0.000005     -0.000000
    15   Atom        0.000000     -0.000000     -0.000000
    16   Atom        0.000000      0.000000      0.000000
    17   Atom        0.000000      0.000000      0.000000
    18   Atom       -0.000000      0.000000     -0.000000
    19   Atom       -0.000000     -0.000006     -0.000001
    20   Atom        0.000001     -0.000000     -0.000000
    21   Atom        0.000000      0.000002     -0.000000
    22   Atom        0.000000      0.000000     -0.000000
    23   Atom        0.000000      0.000000     -0.000000
    24   Atom        0.000000      0.000000      0.000000
    25   Atom       -0.000000      0.000000      0.000000
    26   Atom       -0.000000     -0.000000     -0.000000
    27   Atom        0.000000     -0.000000      0.000000
    28   Atom       -0.000000     -0.000000     -0.000000
 --------------------------------------------------------


 ---------------------------------------------------------------------------------
              Anisotropic Spin Dipole Couplings in Principal Axis System
 ---------------------------------------------------------------------------------

       Atom             a.u.   MegaHertz   Gauss  10(-4) cm-1        Axes

              Baa    -0.0000    -0.001    -0.000    -0.000  0.4671 -0.0315  0.8836
     1 C(13)  Bbb     0.0000     0.001     0.000     0.000  0.8794  0.1204 -0.4606
              Bcc     0.0000     0.001     0.000     0.000 -0.0919  0.9922  0.0839
 
              Baa    -0.0000    -0.001    -0.000    -0.000  0.0468  0.9764 -0.2108
     2 C(13)  Bbb    -0.0000    -0.001    -0.000    -0.000  0.9041 -0.1312 -0.4068
              Bcc     0.0000     0.001     0.000     0.000  0.4248  0.1715  0.8889
 
              Baa    -0.0000    -0.000    -0.000    -0.000  0.8715  0.1196 -0.4757
     3 H(1)   Bbb    -0.0000    -0.000    -0.000    -0.000  0.4814 -0.0234  0.8762
              Bcc     0.0000     0.000     0.000     0.000 -0.0937  0.9925  0.0780
 
              Baa    -0.0000    -0.000    -0.000    -0.000 -0.0467  0.9700 -0.2385
     4 H(1)   Bbb     0.0000     0.000     0.000     0.000  0.6472  0.2112  0.7325
              Bcc     0.0000     0.000     0.000     0.000  0.7609 -0.1201 -0.6376
 
              Baa    -0.0000    -0.001    -0.000    -0.000  0.4705  0.8458 -0.2515
     5 C(13)  Bbb    -0.0000    -0.001    -0.000    -0.000  0.8001 -0.5291 -0.2827
              Bcc     0.0000     0.002     0.001     0.001  0.3722  0.0682  0.9256
 
              Baa    -0.0000    -0.001    -0.000    -0.000  0.4243  0.1713  0.8892
     6 C(13)  Bbb     0.0000     0.001     0.000     0.000  0.9039 -0.1395 -0.4044
              Bcc     0.0000     0.001     0.000     0.000  0.0548  0.9753 -0.2140
 
              Baa    -0.0000    -0.000    -0.000    -0.000  0.7396  0.5856 -0.3317
     7 H(1)   Bbb     0.0000     0.000     0.000     0.000  0.3430  0.0961  0.9344
              Bcc     0.0000     0.000     0.000     0.000 -0.5791  0.8049  0.1298
 
              Baa    -0.0000    -0.000    -0.000    -0.000  0.7583 -0.1157 -0.6415
     8 H(1)   Bbb    -0.0000    -0.000    -0.000    -0.000  0.6500  0.2090  0.7307
              Bcc     0.0000     0.000     0.000     0.000 -0.0495  0.9711 -0.2337
 
              Baa    -0.0000    -0.000    -0.000    -0.000  0.5134  0.0305  0.8576
     9 C(13)  Bbb     0.0000     0.000     0.000     0.000  0.5790  0.7253 -0.3724
              Bcc     0.0000     0.000     0.000     0.000 -0.6334  0.6878  0.3547
 
              Baa    -0.0000    -0.000    -0.000    -0.000  0.5840  0.0760  0.8082
    10 H(1)   Bbb     0.0000     0.000     0.000     0.000 -0.5866  0.7277  0.3555
              Bcc     0.0000     0.000     0.000     0.000  0.5611  0.6817 -0.4696
 
              Baa    -0.0000    -0.000    -0.000    -0.000  0.6702  0.6156  0.4146
    11 H(1)   Bbb    -0.0000    -0.000    -0.000    -0.000 -0.5463  0.7873 -0.2858
              Bcc     0.0000     0.000     0.000     0.000 -0.5023 -0.0349  0.8640
 
              Baa    -0.0000    -0.001    -0.000    -0.000  0.3870 -0.0333  0.9215
    12 C(13)  Bbb     0.0000     0.000     0.000     0.000  0.6146  0.7543 -0.2308
              Bcc     0.0000     0.000     0.000     0.000  0.6874 -0.6557 -0.3124
 
              Baa    -0.0000    -0.000    -0.000    -0.000  0.3506  0.9243 -0.1508
    13 H(1)   Bbb    -0.0000    -0.000    -0.000    -0.000  0.4031 -0.0035  0.9152
              Bcc     0.0000     0.000     0.000     0.000  0.8454 -0.3816 -0.3738
 
              Baa    -0.0000    -0.001    -0.000    -0.000 -0.1011  0.9910  0.0882
    14 C(13)  Bbb    -0.0000    -0.001    -0.000    -0.000  0.8788  0.1305 -0.4591
              Bcc     0.0000     0.001     0.000     0.000  0.4665 -0.0311  0.8840
 
              Baa    -0.0000    -0.000    -0.000    -0.000 -0.0952  0.9924  0.0782
    15 H(1)   Bbb     0.0000     0.000     0.000     0.000  0.4812 -0.0229  0.8763
              Bcc     0.0000     0.000     0.000     0.000  0.8714  0.1211 -0.4754
 
              Baa    -0.0000    -0.000    -0.000    -0.000 -0.0379  0.9993 -0.0049
    16 C(13)  Bbb    -0.0000    -0.000    -0.000    -0.000  0.8402  0.0292 -0.5414
              Bcc     0.0000     0.000     0.000     0.000  0.5409  0.0246  0.8407
 
              Baa    -0.0000    -0.000    -0.000    -0.000  0.9100 -0.0932 -0.4040
    17 H(1)   Bbb    -0.0000    -0.000    -0.000    -0.000  0.2591 -0.6329  0.7296
              Bcc     0.0000     0.000     0.000     0.000  0.3237  0.7686  0.5518
 
              Baa    -0.0000    -0.000    -0.000    -0.000  0.9449  0.1452 -0.2932
    18 H(1)   Bbb    -0.0000    -0.000    -0.000    -0.000  0.2363  0.3171  0.9185
              Bcc     0.0000     0.000     0.000     0.000 -0.2264  0.9372 -0.2654
 
              Baa    -0.0000    -0.002    -0.001    -0.001  0.3722  0.0692  0.9256
    19 C(13)  Bbb     0.0000     0.001     0.000     0.000  0.8002 -0.5292 -0.2822
              Bcc     0.0000     0.001     0.000     0.000  0.4703  0.8457 -0.2524
 
              Baa    -0.0000    -0.000    -0.000    -0.000 -0.5788  0.8052  0.1293
    20 H(1)   Bbb    -0.0000    -0.000    -0.000    -0.000  0.3436  0.0970  0.9341
              Bcc     0.0000     0.000     0.000     0.000  0.7396  0.5851 -0.3328
 
              Baa    -0.0000    -0.000    -0.000    -0.000  0.6895 -0.6537 -0.3120
    21 C(13)  Bbb    -0.0000    -0.000    -0.000    -0.000  0.6130  0.7560 -0.2294
              Bcc     0.0000     0.001     0.000     0.000  0.3858 -0.0331  0.9220
 
              Baa    -0.0000    -0.000    -0.000    -0.000  0.8477 -0.3763 -0.3739
    22 H(1)   Bbb     0.0000     0.000     0.000     0.000  0.4029 -0.0017  0.9152
              Bcc     0.0000     0.000     0.000     0.000  0.3450  0.9265 -0.1502
 
              Baa    -0.0000    -0.000    -0.000    -0.000 -0.6336  0.6909  0.3481
    23 C(13)  Bbb    -0.0000    -0.000    -0.000    -0.000  0.5771  0.7217 -0.3821
              Bcc     0.0000     0.000     0.000     0.000  0.5152  0.0412  0.8561
 
              Baa    -0.0000    -0.000    -0.000    -0.000 -0.4979 -0.0330  0.8666
    24 H(1)   Bbb     0.0000     0.000     0.000     0.000 -0.5393  0.7944 -0.2796
              Bcc     0.0000     0.000     0.000     0.000  0.6792  0.6066  0.4133
 
              Baa    -0.0000    -0.000    -0.000    -0.000  0.5544  0.6900 -0.4653
    25 H(1)   Bbb    -0.0000    -0.000    -0.000    -0.000 -0.5964  0.7193  0.3562
              Bcc     0.0000     0.000     0.000     0.000  0.5805  0.0800  0.8103
 
              Baa    -0.0000    -0.000    -0.000    -0.000  0.5380  0.0254  0.8425
    26 C(13)  Bbb     0.0000     0.000     0.000     0.000  0.8425  0.0160 -0.5385
              Bcc     0.0000     0.000     0.000     0.000 -0.0272  0.9995 -0.0128
 
              Baa    -0.0000    -0.000    -0.000    -0.000 -0.2358  0.9348 -0.2658
    27 H(1)   Bbb     0.0000     0.000     0.000     0.000  0.2445  0.3217  0.9147
              Bcc     0.0000     0.000     0.000     0.000  0.9406  0.1507 -0.3044
 
              Baa    -0.0000    -0.000    -0.000    -0.000  0.3189  0.7645  0.5602
    28 H(1)   Bbb     0.0000     0.000     0.000     0.000  0.2684 -0.6397  0.7203
              Bcc     0.0000     0.000     0.000     0.000  0.9090 -0.0794 -0.4092
 

 ---------------------------------------------------------------------------------

 No NMR shielding tensors so no spin-rotation constants.
 Leave Link  601 at Tue Aug  4 12:54:43 2020, MaxMem=  6442450944 cpu:               8.0 elap:               0.4
 (Enter /scratch/scicomp/CentOS/7.3.1611/Haswell/software/Gaussian/g16/l9999.exe)
 1\1\GINC-ATLAS-205\SP\UwB97XD\def2TZVP\C12H16\BOCHEN\04-Aug-2020\0\\#p
  uwb97xd guess=mix def2tzvp # scrf=(iefpcm,solvent=Cyclohexane,read) n
 osym 6d 10f\\endo-2 xp-pcm for eta=3\\0,1\C,0,-3.118021,-0.436434,0.24
 6814\C,0,-0.540801,-0.189187,-0.905365\H,0,-4.082489,-0.549871,0.72804
 5\H,0,0.377295,-0.116929,-1.47326\C,0,1.091386,1.404996,0.687212\C,0,0
 .540801,0.189187,0.905365\H,0,0.527763,2.310929,0.87163\H,0,-0.377295,
 0.116929,1.47326\C,0,1.464971,-0.999714,0.988105\H,0,1.905333,-0.95607
 9,1.991084\H,0,0.918248,-1.940154,0.92832\C,0,2.416056,1.5169,0.113501
 \H,0,2.8264,2.506211,-0.052048\C,0,3.118021,0.436434,-0.246814\H,0,4.0
 82489,0.549871,-0.728045\C,0,2.591807,-0.958352,-0.044272\H,0,2.252673
 ,-1.356402,-1.008685\H,0,3.400675,-1.620592,0.272198\C,0,-1.091386,-1.
 404996,-0.687212\H,0,-0.527763,-2.310929,-0.87163\C,0,-2.416056,-1.516
 9,-0.113501\H,0,-2.8264,-2.506211,0.052048\C,0,-1.464971,0.999714,-0.9
 88105\H,0,-0.918248,1.940154,-0.92832\H,0,-1.905333,0.956079,-1.991084
 \C,0,-2.591807,0.958352,0.044272\H,0,-3.400675,1.620592,-0.272198\H,0,
 -2.252673,1.356402,1.008685\\Version=ES64L-G16RevB.01\HF=-466.774577\S
 2=0.\S2-1=0.\S2A=0.\RMSD=7.528e-09\Dipole=-0.0005748,0.0000481,-0.0023
 53\Quadrupole=0.709797,2.1938831,-2.9036801,-2.4310731,-2.3631741,-0.8
 422135\PG=CI [X(C12H16)]\\@


 THESE ARE THE TIMES THAT TRY MENS SOULS.
 THE SUMMER SOLDIER AND THE SUNSHINE PATRIOT WILL IN THIS CRISIS,
 SHRINK FROM THE SERVICE OF HIS COUNTRY.  BUT HE THAT STANDS NOW,
 DESERVES THE LOVE AND THANKS OF MAN AND WOMAN.
 TYRANNY, LIKE HELL, IS NOT EASILY CONQUERED,
 YET WE HAVE THIS CONSOLATION WITH US,
 THAT THE HARDER THE CONFLICT, THE MORE GLORIOUS THE TRIUMPH.
 WHAT WE OBTAIN TOO CHEAP, WE ESTEEM TOO LIGHTLY, 
 'TIS DEARNESS ONLY THAT GIVES EVERYTHING ITS VALUE.

                                              -- TOM PAINE
 Job cpu time:       0 days  2 hours 31 minutes 57.0 seconds.
 Elapsed time:       0 days  0 hours  6 minutes 23.1 seconds.
 File lengths (MBytes):  RWF=    608 Int=      0 D2E=      0 Chk=     24 Scr=      1
 Normal termination of Gaussian 16 at Tue Aug  4 12:54:43 2020.
