 Entering Gaussian System, Link 0=g16
 Input=meso-TS_58_2_pcm.com
 Output=meso-TS_58_2_pcm.log
 Initial command:
 /scratch/scicomp/CentOS/7.3.1611/Haswell/software/Gaussian/g16/l1.exe "/scratch/bochen/cyclohexadiene-dimerization/wb97xd-def2tzvp/xp-pcm/meso/Gau-22335.inp" -scrdir="/scratch/bochen/cyclohexadiene-dimerization/wb97xd-def2tzvp/xp-pcm/meso/"
 Entering Link 1 = /scratch/scicomp/CentOS/7.3.1611/Haswell/software/Gaussian/g16/l1.exe PID=     22336.
  
 Copyright (c) 1988-2017, Gaussian, Inc.  All Rights Reserved.
  
 This is part of the Gaussian(R) 16 program.  It is based on
 the Gaussian(R) 09 system (copyright 2009, Gaussian, Inc.),
 the Gaussian(R) 03 system (copyright 2003, Gaussian, Inc.),
 the Gaussian(R) 98 system (copyright 1998, Gaussian, Inc.),
 the Gaussian(R) 94 system (copyright 1995, Gaussian, Inc.),
 the Gaussian 92(TM) system (copyright 1992, Gaussian, Inc.),
 the Gaussian 90(TM) system (copyright 1990, Gaussian, Inc.),
 the Gaussian 88(TM) system (copyright 1988, Gaussian, Inc.),
 the Gaussian 86(TM) system (copyright 1986, Carnegie Mellon
 University), and the Gaussian 82(TM) system (copyright 1983,
 Carnegie Mellon University). Gaussian is a federally registered
 trademark of Gaussian, Inc.
  
 This software contains proprietary and confidential information,
 including trade secrets, belonging to Gaussian, Inc.
  
 This software is provided under written license and may be
 used, copied, transmitted, or stored only in accord with that
 written license.
  
 The following legend is applicable only to US Government
 contracts under FAR:
  
                    RESTRICTED RIGHTS LEGEND
  
 Use, reproduction and disclosure by the US Government is
 subject to restrictions as set forth in subparagraphs (a)
 and (c) of the Commercial Computer Software - Restricted
 Rights clause in FAR 52.227-19.
  
 Gaussian, Inc.
 340 Quinnipiac St., Bldg. 40, Wallingford CT 06492
  
  
 ---------------------------------------------------------------
 Warning -- This program may not be used in any manner that
 competes with the business of Gaussian, Inc. or will provide
 assistance to any competitor of Gaussian, Inc.  The licensee
 of this program is prohibited from giving any competitor of
 Gaussian, Inc. access to this program.  By using this program,
 the user acknowledges that Gaussian, Inc. is engaged in the
 business of creating and licensing software in the field of
 computational chemistry and represents and warrants to the
 licensee that it is not a competitor of Gaussian, Inc. and that
 it will not use this program in any manner prohibited above.
 ---------------------------------------------------------------
  

 Cite this work as:
 Gaussian 16, Revision B.01,
 M. J. Frisch, G. W. Trucks, H. B. Schlegel, G. E. Scuseria, 
 M. A. Robb, J. R. Cheeseman, G. Scalmani, V. Barone, 
 G. A. Petersson, H. Nakatsuji, X. Li, M. Caricato, A. V. Marenich, 
 J. Bloino, B. G. Janesko, R. Gomperts, B. Mennucci, H. P. Hratchian, 
 J. V. Ortiz, A. F. Izmaylov, J. L. Sonnenberg, D. Williams-Young, 
 F. Ding, F. Lipparini, F. Egidi, J. Goings, B. Peng, A. Petrone, 
 T. Henderson, D. Ranasinghe, V. G. Zakrzewski, J. Gao, N. Rega, 
 G. Zheng, W. Liang, M. Hada, M. Ehara, K. Toyota, R. Fukuda, 
 J. Hasegawa, M. Ishida, T. Nakajima, Y. Honda, O. Kitao, H. Nakai, 
 T. Vreven, K. Throssell, J. A. Montgomery, Jr., J. E. Peralta, 
 F. Ogliaro, M. J. Bearpark, J. J. Heyd, E. N. Brothers, K. N. Kudin, 
 V. N. Staroverov, T. A. Keith, R. Kobayashi, J. Normand, 
 K. Raghavachari, A. P. Rendell, J. C. Burant, S. S. Iyengar, 
 J. Tomasi, M. Cossi, J. M. Millam, M. Klene, C. Adamo, R. Cammi, 
 J. W. Ochterski, R. L. Martin, K. Morokuma, O. Farkas, 
 J. B. Foresman, and D. J. Fox, Gaussian, Inc., Wallingford CT, 2016.
 
 ******************************************
 Gaussian 16:  ES64L-G16RevB.01 20-Dec-2017
                 3-Aug-2020 
 ******************************************
 %nproc=24
 Will use up to   24 processors via shared memory.
 %mem=48GB
 ----------------------------------------------------------------------
 #p uwb97xd guess=mix def2tzvp # scrf=(iefpcm,solvent=Cyclohexane,read)
  nosym 6d 10f
 ----------------------------------------------------------------------
 1/38=1,40=2,172=1/1;
 2/12=2,15=1,17=6,18=5,40=1/2;
 3/5=44,7=101,8=22,11=2,25=1,30=1,70=2203,72=17,74=-58,116=2/1,2,3;
 4/13=-1/1;
 5/5=2,38=5,53=17/2;
 6/7=2,8=2,9=2,10=2,28=1/1;
 99/5=1,9=1/99;
 Leave Link    1 at Mon Aug  3 14:27:50 2020, MaxMem=  6442450944 cpu:               3.1 elap:               0.1
 (Enter /scratch/scicomp/CentOS/7.3.1611/Haswell/software/Gaussian/g16/l101.exe)
 -----------------------
 endo-2 xp-pcm for eta=3
 -----------------------
 Symbolic Z-matrix:
 Charge =  0 Multiplicity = 1
 6                    -3.12654  -0.44123   0.26819 
 6                    -0.75402  -0.25653  -1.27041 
 1                    -4.06271  -0.52977   0.80722 
 1                     0.19041  -0.17666  -1.79464 
 6                     1.18313   1.42926   0.81338 
 6                     0.75402   0.25653   1.27041 
 1                     0.59129   2.32604   0.95317 
 1                    -0.19041   0.17666   1.79464 
 6                     1.58454  -0.98735   1.13863 
 1                     2.13558  -1.11904   2.0787 
 1                     0.9363   -1.85938   1.04374 
 6                     2.46452   1.53174   0.11406 
 1                     2.86378   2.5164   -0.09795 
 6                     3.12654   0.44123  -0.26819 
 1                     4.06271   0.52977  -0.80722 
 6                     2.56996  -0.93669  -0.03365 
 1                     2.07583  -1.26812  -0.9552 
 1                     3.38118  -1.64698   0.13704 
 6                    -1.18313  -1.42926  -0.81338 
 1                    -0.59129  -2.32604  -0.95317 
 6                    -2.46452  -1.53174  -0.11406 
 1                    -2.86378  -2.5164    0.09795 
 6                    -1.58454   0.98735  -1.13863 
 1                    -0.9363    1.85938  -1.04374 
 1                    -2.13558   1.11904  -2.0787 
 6                    -2.56996   0.93669   0.03365 
 1                    -3.38118   1.64698  -0.13704 
 1                    -2.07583   1.26812   0.9552 
 
 ITRead=  0  0  0  0  0  0  0  0  0  0  0  0  0  0  0  0  0  0  0  0
 ITRead=  0  0  0  0  0  0  0  0
 MicOpt= -1 -1 -1 -1 -1 -1 -1 -1 -1 -1 -1 -1 -1 -1 -1 -1 -1 -1 -1 -1
 MicOpt= -1 -1 -1 -1 -1 -1 -1 -1
 NAtoms=     28 NQM=       28 NQMF=       0 NMMI=      0 NMMIF=      0
                NMic=       0 NMicF=      0.
                    Isotopes and Nuclear Properties:
 (Nuclear quadrupole moments (NQMom) in fm**2, nuclear magnetic moments (NMagM)
  in nuclear magnetons)

  Atom         1           2           3           4           5           6           7           8           9          10
 IAtWgt=          12          12           1           1          12          12           1           1          12           1
 AtmWgt=  12.0000000  12.0000000   1.0078250   1.0078250  12.0000000  12.0000000   1.0078250   1.0078250  12.0000000   1.0078250
 NucSpn=           0           0           1           1           0           0           1           1           0           1
 AtZEff=  -0.0000000  -0.0000000  -0.0000000  -0.0000000  -0.0000000  -0.0000000  -0.0000000  -0.0000000  -0.0000000  -0.0000000
 NQMom=    0.0000000   0.0000000   0.0000000   0.0000000   0.0000000   0.0000000   0.0000000   0.0000000   0.0000000   0.0000000
 NMagM=    0.0000000   0.0000000   2.7928460   2.7928460   0.0000000   0.0000000   2.7928460   2.7928460   0.0000000   2.7928460
 AtZNuc=   6.0000000   6.0000000   1.0000000   1.0000000   6.0000000   6.0000000   1.0000000   1.0000000   6.0000000   1.0000000

  Atom        11          12          13          14          15          16          17          18          19          20
 IAtWgt=           1          12           1          12           1          12           1           1          12           1
 AtmWgt=   1.0078250  12.0000000   1.0078250  12.0000000   1.0078250  12.0000000   1.0078250   1.0078250  12.0000000   1.0078250
 NucSpn=           1           0           1           0           1           0           1           1           0           1
 AtZEff=  -0.0000000  -0.0000000  -0.0000000  -0.0000000  -0.0000000  -0.0000000  -0.0000000  -0.0000000  -0.0000000  -0.0000000
 NQMom=    0.0000000   0.0000000   0.0000000   0.0000000   0.0000000   0.0000000   0.0000000   0.0000000   0.0000000   0.0000000
 NMagM=    2.7928460   0.0000000   2.7928460   0.0000000   2.7928460   0.0000000   2.7928460   2.7928460   0.0000000   2.7928460
 AtZNuc=   1.0000000   6.0000000   1.0000000   6.0000000   1.0000000   6.0000000   1.0000000   1.0000000   6.0000000   1.0000000

  Atom        21          22          23          24          25          26          27          28
 IAtWgt=          12           1          12           1           1          12           1           1
 AtmWgt=  12.0000000   1.0078250  12.0000000   1.0078250   1.0078250  12.0000000   1.0078250   1.0078250
 NucSpn=           0           1           0           1           1           0           1           1
 AtZEff=  -0.0000000  -0.0000000  -0.0000000  -0.0000000  -0.0000000  -0.0000000  -0.0000000  -0.0000000
 NQMom=    0.0000000   0.0000000   0.0000000   0.0000000   0.0000000   0.0000000   0.0000000   0.0000000
 NMagM=    0.0000000   2.7928460   0.0000000   2.7928460   2.7928460   0.0000000   2.7928460   2.7928460
 AtZNuc=   6.0000000   1.0000000   6.0000000   1.0000000   1.0000000   6.0000000   1.0000000   1.0000000
 Leave Link  101 at Mon Aug  3 14:27:50 2020, MaxMem=  6442450944 cpu:               2.4 elap:               0.1
 (Enter /scratch/scicomp/CentOS/7.3.1611/Haswell/software/Gaussian/g16/l202.exe)
                          Input orientation:                          
 ---------------------------------------------------------------------
 Center     Atomic      Atomic             Coordinates (Angstroms)
 Number     Number       Type             X           Y           Z
 ---------------------------------------------------------------------
      1          6           0       -3.126543   -0.441233    0.268190
      2          6           0       -0.754024   -0.256533   -1.270411
      3          1           0       -4.062711   -0.529769    0.807219
      4          1           0        0.190409   -0.176659   -1.794641
      5          6           0        1.183128    1.429264    0.813376
      6          6           0        0.754024    0.256533    1.270411
      7          1           0        0.591290    2.326044    0.953170
      8          1           0       -0.190409    0.176659    1.794641
      9          6           0        1.584536   -0.987345    1.138633
     10          1           0        2.135575   -1.119037    2.078702
     11          1           0        0.936296   -1.859379    1.043739
     12          6           0        2.464520    1.531740    0.114055
     13          1           0        2.863784    2.516400   -0.097950
     14          6           0        3.126543    0.441233   -0.268190
     15          1           0        4.062711    0.529769   -0.807219
     16          6           0        2.569963   -0.936686   -0.033648
     17          1           0        2.075826   -1.268120   -0.955200
     18          1           0        3.381182   -1.646980    0.137036
     19          6           0       -1.183128   -1.429264   -0.813376
     20          1           0       -0.591290   -2.326044   -0.953170
     21          6           0       -2.464520   -1.531740   -0.114055
     22          1           0       -2.863784   -2.516400    0.097950
     23          6           0       -1.584536    0.987345   -1.138633
     24          1           0       -0.936296    1.859379   -1.043739
     25          1           0       -2.135575    1.119037   -2.078702
     26          6           0       -2.569963    0.936686    0.033648
     27          1           0       -3.381182    1.646980   -0.137036
     28          1           0       -2.075826    1.268120    0.955200
 ---------------------------------------------------------------------
                    Distance matrix (angstroms):
                    1          2          3          4          5
     1  C    0.000000
     2  C    2.833770   0.000000
     3  H    1.083883   3.916454   0.000000
     4  H    3.915028   1.083121   4.998339   0.000000
     5  C    4.729614   3.307059   5.599703   3.219663   0.000000
     6  C    4.068184   2.998870   4.902423   3.146404   1.329778
     7  H    4.685008   3.663862   5.462298   3.738274   1.083526
     8  H    3.366411   3.146404   4.058173   3.626679   2.102024
     9  C    4.821843   3.436050   5.675439   3.347372   2.471218
    10  H    5.606002   4.506690   6.354735   4.435598   3.000341
    11  H    4.372559   3.283533   5.178212   3.382942   3.305929
    12  C    5.930967   3.933661   6.880047   3.425395   1.463392
    13  H    6.690715   4.706629   7.620683   4.156713   2.199315
    14  C    6.337786   4.068184   7.333807   3.366411   2.433691
    15  H    7.333807   4.902423   8.351737   4.058173   3.424532
    16  C    5.725972   3.611244   6.698134   3.056307   2.870275
    17  H    5.407871   3.021708   6.429068   2.334683   3.346737
    18  H    6.619782   4.584122   7.557040   4.009271   3.840853
    19  C    2.433691   1.329778   3.424532   2.102024   4.051749
    20  H    3.386996   2.100000   4.286763   2.437003   4.513489
    21  C    1.331762   2.426749   2.099263   3.421880   4.788842
    22  H    2.098652   3.380902   2.426353   4.287701   5.697157
    23  C    2.529382   1.501449   3.497045   2.221639   3.415493
    24  H    3.436736   2.135811   4.348396   2.445152   2.850585
    25  H    2.987367   2.110500   3.841999   2.677633   4.412952
    26  C    1.504477   2.534162   2.230964   3.493112   3.864751
    27  H    2.142354   3.436548   2.468671   4.339306   4.667291
    28  H    2.120820   3.004176   2.683657   3.845105   3.266016
                    6          7          8          9         10
     6  C    0.000000
     7  H    2.100000   0.000000
     8  H    1.083121   2.437003   0.000000
     9  C    1.501449   3.464027   2.221639   0.000000
    10  H    2.110500   3.939571   2.677633   1.097596   0.000000
    11  H    2.135811   4.200595   2.445152   1.090717   1.748578
    12  C    2.426749   2.200914   3.421880   2.858307   3.315820
    13  H    3.380902   2.511039   4.287701   3.929611   4.299361
    14  C    2.833770   3.386996   3.915028   2.529382   2.987367
    15  H    3.916454   4.286763   4.998339   3.497045   3.841999
    16  C    2.534162   3.941366   3.493112   1.532278   2.164248
    17  H    3.004176   4.331713   3.845105   2.168948   3.038150
    18  H    3.436548   4.922854   4.339306   2.160151   2.366501
    19  C    3.307059   4.513489   3.219663   3.415493   4.412952
    20  H    3.663862   5.164741   3.738274   3.301814   4.252635
    21  C    3.933661   5.035816   3.425395   4.273225   5.112669
    22  H    4.706629   6.009842   4.156713   4.817529   5.556041
    23  C    3.436050   3.301814   3.347372   4.373598   5.350450
    24  H    3.283533   2.557135   3.382942   4.384197   5.296885
    25  H    4.506690   4.252635   4.435598   5.350450   6.366766
    26  C    3.611244   3.573424   3.056307   4.709857   5.527235
    27  H    4.584122   4.174950   4.009271   5.764144   6.557054
    28  H    3.021708   2.869271   2.334683   4.303373   4.969575
                   11         12         13         14         15
    11  H    0.000000
    12  C    3.833989   0.000000
    13  H    4.915903   1.083473   0.000000
    14  C    3.436736   1.331762   2.098652   0.000000
    15  H    4.348396   2.099263   2.426353   1.083883   0.000000
    16  C    2.163560   2.475088   3.466160   1.504477   2.230964
    17  H    2.375684   3.022186   3.959589   2.120820   2.683657
    18  H    2.616236   3.308332   4.201982   2.142354   2.468671
    19  C    2.850585   4.788842   5.697157   4.729614   5.599703
    20  H    2.557135   5.035816   6.009842   4.685008   5.462298
    21  C    3.607407   5.807958   6.691675   5.930967   6.880047
    22  H    3.970743   6.691675   7.627089   6.690715   7.620683
    23  C    4.384197   4.273225   4.817529   4.821843   5.675439
    24  H    4.657610   3.607407   3.970743   4.372559   5.178212
    25  H    5.296885   5.112669   5.556041   5.606002   6.354735
    26  C    4.596968   5.070165   5.660249   5.725972   6.698134
    27  H    5.685895   5.852227   6.305317   6.619782   7.557040
    28  H    4.343037   4.625123   5.202603   5.407871   6.429068
                   16         17         18         19         20
    16  C    0.000000
    17  H    1.096940   0.000000
    18  H    1.091662   1.743694   0.000000
    19  C    3.864751   3.266016   4.667291   0.000000
    20  H    3.573424   2.869271   4.174950   1.083526   0.000000
    21  C    5.070165   4.625123   5.852227   1.463392   2.200914
    22  H    5.660249   5.202603   6.305317   2.199315   2.511039
    23  C    4.709857   4.303373   5.764144   2.471218   3.464027
    24  H    4.596968   4.343037   5.685895   3.305929   4.200595
    25  H    5.527235   4.969575   6.557054   3.000341   3.939571
    26  C    5.471096   5.236635   6.488617   2.870275   3.941366
    27  H    6.488617   6.240684   7.526942   3.840853   4.922854
    28  H    5.236635   5.226696   6.240684   3.346737   4.331713
                   21         22         23         24         25
    21  C    0.000000
    22  H    1.083473   0.000000
    23  C    2.858307   3.929611   0.000000
    24  H    3.833989   4.915903   1.090717   0.000000
    25  H    3.315820   4.299361   1.097596   1.748578   0.000000
    26  C    2.475088   3.466160   1.532278   2.163560   2.164248
    27  H    3.308332   4.201982   2.160151   2.616236   2.366501
    28  H    3.022186   3.959589   2.168948   2.375684   3.038150
                   26         27         28
    26  C    0.000000
    27  H    1.091662   0.000000
    28  H    1.096940   1.743694   0.000000
 Symmetry turned off by external request.
 Stoichiometry    C12H16
 Framework group  CI[X(C12H16)]
 Deg. of freedom    39
 Full point group                 CI      NOp   2
 Rotational constants (GHZ):           1.7367947           0.5884357           0.5336477
 Leave Link  202 at Mon Aug  3 14:27:50 2020, MaxMem=  6442450944 cpu:               0.3 elap:               0.0
 (Enter /scratch/scicomp/CentOS/7.3.1611/Haswell/software/Gaussian/g16/l301.exe)
 Standard basis: def2TZVP (6D, 10F)
 Ernie: Thresh=  0.10000D-02 Tol=  0.10000D-05 Strict=F.
   528 basis functions,   740 primitive gaussians,   528 cartesian basis functions
    44 alpha electrons       44 beta electrons
       nuclear repulsion energy       674.3036105176 Hartrees.
 IExCor= 4639 DFT=T Ex+Corr=wB97XD ExCW=0 ScaHFX=  1.000000
 ScaDFX=  1.000000  1.000000  1.000000  1.000000 ScalE2=  1.000000  1.000000
 IRadAn=      5 IRanWt=     -1 IRanGd=            0 ICorTp=0 IEmpDi=121
 HFx  wShort=  0.000000 wLong=  0.200000 cFull=  0.222036 cShort=  0.000000 cLong=  0.777964
 DFx  wShort=  0.000000 wLong=  0.200000 cFull=  0.000000 cShort=  0.000000 cLong=  1.000000
 NAtoms=   28 NActive=   28 NUniq=   28 SFac= 1.00D+00 NAtFMM=   60 NAOKFM=F Big=F
 Integral buffers will be    131072 words long.
 Raffenetti 2 integral format.
 Two-electron integral symmetry is turned off.
 R6Disp:  Grimme-D2 Dispersion energy=       -0.0219030452 Hartrees.
 Nuclear repulsion after empirical dispersion term =      674.2817074724 Hartrees.
 Using the following non-standard input for PCM:
 norep pcmdoc geomview  nodis nocav g03defaults tsare=0.075
 Warning! Using old PCM defaults because the g03defaults keyword was found.
 These settings can be overridden by following keywords.
 nsfe=28
 NVESolv=36  SolvMW=84.1595   Rsolv=2.815
 eps=2.0165 RhoS=0.7781
 --- end of non-standard input.
 Reading user-defined spheres from input:
 ISph  on   Nord    Re0     Alpha      Xe            Ye            Ze
 --- end of user-defined spheres data.
 ------------------------------------------------------------------------------
 Polarizable Continuum Model (PCM)
 =================================
 Model                : PCM.
 Atomic radii         : UA0 (Simple United Atom Topological Model).
 Polarization charges : Total charges.
 Charge compensation  : None.
 Solution method      : On-the-fly selection.
 Cavity type          : SES (Solvent Excluding Surface) (Alpha=1.000).
 Cavity algorithm     : GePol (RMin=0.200 OFac=0.890).
                        User-defined sphere list used, NSphG=   28.
                        Tesserae with average area of 0.075 Ang**2.
                        Smoothing algorithm: None.
                        Polarization charges: point-like.
                        Self-potential: constant (ISelfS= 1).
                        Self-field    : global E.n sum rule (ISelfD= 3).
 Solvent              : CycloHexane, Eps=   2.016500 Eps(inf)=   2.035188
                        RSolv=   2.815000 Ang.
 ------------------------------------------------------------------------------
 GePol: Number of generator spheres                  =      28
 GePol: Total number of spheres                      =     181
 GePol: Number of exposed spheres                    =     126 ( 69.61%)
 GePol: Number of tesserae                           =    4645
 GePol: Average area of tesserae                     =       0.05 Ang**2
 GePol: Minimum area of tessera                      =   0.10D-02 Ang**2
 GePol: Maximum area of tessera                      =    0.12447 Ang**2
 GePol: Number of small tesserae                     =       0
 GePol: Fraction of small tesserae (<1% of avg)      =       0.00%
 GePol: Total count of vertices                      =   16448
 GePol: Maximum number of vertices in a tessera      =       7
 GePol: Cavity surface area                          =    223.086 Ang**2
 GePol: Cavity volume                                =    253.954 Ang**3
 Leave Link  301 at Mon Aug  3 14:27:51 2020, MaxMem=  6442450944 cpu:               7.9 elap:               0.4
 (Enter /scratch/scicomp/CentOS/7.3.1611/Haswell/software/Gaussian/g16/l302.exe)
 NPDir=0 NMtPBC=     1 NCelOv=     1 NCel=       1 NClECP=     1 NCelD=      1
         NCelK=      1 NCelE2=     1 NClLst=     1 CellRange=     0.0.
 One-electron integrals computed using PRISM.
   1 Symmetry operations used in ECPInt.
 ECPInt:  NShTT=   19306 NPrTT=   56928 LenC2=   18471 LenP2D=   41863.
 LDataN:  DoStor=T MaxTD1= 6 Len=  172
 NBasis=   528 RedAO= T EigKep=  1.89D-05  NBF=   528
 NBsUse=   528 1.00D-06 EigRej= -1.00D+00 NBFU=   528
 Precomputing XC quadrature grid using
 IXCGrd= 4 IRadAn=           5 IRanWt=          -1 IRanGd=           0 AccXCQ= 0.00D+00.
 Generated NRdTot=       0 NPtTot=           0 NUsed=           0 NTot=          32
 NSgBfM=   525   524   524   525   525 MxSgAt=    28 MxSgA2=    28.
 Leave Link  302 at Mon Aug  3 14:27:52 2020, MaxMem=  6442450944 cpu:              12.7 elap:               0.6
 (Enter /scratch/scicomp/CentOS/7.3.1611/Haswell/software/Gaussian/g16/l303.exe)
 DipDrv:  MaxL=1.
 Leave Link  303 at Mon Aug  3 14:27:52 2020, MaxMem=  6442450944 cpu:               1.5 elap:               0.1
 (Enter /scratch/scicomp/CentOS/7.3.1611/Haswell/software/Gaussian/g16/l401.exe)
 ExpMin= 9.52D-02 ExpMax= 1.36D+04 ExpMxC= 4.63D+02 IAcc=3 IRadAn=         5 AccDes= 0.00D+00
 Harris functional with IExCor= 4639 and IRadAn=       5 diagonalized for initial guess.
 HarFok:  IExCor= 4639 AccDes= 0.00D+00 IRadAn=         5 IDoV= 1 UseB2=F ITyADJ=14
 ICtDFT=  3500011 ScaDFX=  1.000000  1.000000  1.000000  1.000000
 FoFCou: FMM=F IPFlag=           0 FMFlag=      100000 FMFlg1=           0
         NFxFlg=           0 DoJE=T BraDBF=F KetDBF=T FulRan=T
         wScrn=  0.000000 ICntrl=       500 IOpCl=  0 I1Cent=   200000004 NGrid=           0
         NMat0=    1 NMatS0=      1 NMatT0=    0 NMatD0=    1 NMtDS0=    0 NMtDT0=    0
 Symmetry not used in FoFCou.
 Harris En= -444.658294739938    
 JPrj=0 DoOrth=F DoCkMO=T.
 Mixing orbitals, IMix= 1 IMixAn=  0 NRI=1 NE=   44 Coef=  7.07106781D-01  7.07106781D-01
 Mixing orbitals, IMix= 1 IMixAn=  0 NRI=1 NE=   44 Coef= -7.07106781D-01  7.07106781D-01
 Initial guess <Sx>= 0.0000 <Sy>= 0.0000 <Sz>= 0.0000 <S**2>= 1.0000 S= 0.6180
 Leave Link  401 at Mon Aug  3 14:27:54 2020, MaxMem=  6442450944 cpu:              48.5 elap:               2.1
 (Enter /scratch/scicomp/CentOS/7.3.1611/Haswell/software/Gaussian/g16/l502.exe)
 Two-electron integral symmetry not used.
 UHF open shell SCF:
 Using DIIS extrapolation, IDIIS=  1040.
 NGot=  6442450944 LenX=  6441877030 LenY=  6441597718
 Requested convergence on RMS density matrix=1.00D-08 within 128 cycles.
 Requested convergence on MAX density matrix=1.00D-06.
 Requested convergence on             energy=1.00D-06.
 No special actions if energy rises.
 Fock matrices will be formed incrementally for  20 cycles.

 Cycle   1  Pass 1  IDiag  1:
 FoFJK:  IHMeth= 1 ICntrl=       0 DoSepK=T KAlg= 0 I1Cent=           0 FoldK=F
 IRaf=         1 NMat=       1 IRICut=       1 DoRegI=T DoRafI=F ISym2E= 0 IDoP0=0 IntGTp=1.
 FoFCou: FMM=F IPFlag=           0 FMFlag=      100000 FMFlg1=           0
         NFxFlg=           0 DoJE=T BraDBF=F KetDBF=F FulRan=T
         wScrn=  0.000000 ICntrl=       500 IOpCl=  0 I1Cent=           0 NGrid=           0
         NMat0=    1 NMatS0=      1 NMatT0=    0 NMatD0=    1 NMtDS0=    0 NMtDT0=    0
 Symmetry not used in FoFCou.
 Inv3:  Mode=1 IEnd=    64728075.
 Iteration    1 A*A^-1 deviation from unit magnitude is 4.00D-15 for    365.
 Iteration    1 A*A^-1 deviation from orthogonality  is 1.55D-15 for   2957   2100.
 Iteration    1 A^-1*A deviation from unit magnitude is 4.66D-15 for    365.
 Iteration    1 A^-1*A deviation from orthogonality  is 1.54D-15 for   1807   1358.
 E= -466.577487912251    
 DIIS: error= 5.29D-02 at cycle   1 NSaved=   1.
 NSaved= 1 IEnMin= 1 EnMin= -466.577487912251     IErMin= 1 ErrMin= 5.29D-02
 ErrMax= 5.29D-02  0.00D+00 EMaxC= 1.00D-01 BMatC= 4.12D+00 BMatP= 4.12D+00
 IDIUse=3 WtCom= 4.71D-01 WtEn= 5.29D-01
 Coeff-Com:  0.100D+01
 Coeff-En:   0.100D+01
 Coeff:      0.100D+01
 Gap=     0.181 Goal=   None    Shift=    0.000
 Gap=     0.181 Goal=   None    Shift=    0.000
 GapD=    0.181 DampG=1.000 DampE=0.500 DampFc=0.5000 IDamp=-1.
 Damping current iteration by 5.00D-01
 RMSDP=1.64D-03 MaxDP=9.28D-02              OVMax= 3.54D-01

 Cycle   2  Pass 1  IDiag  1:
 RMSU=  7.85D-04    CP:  9.63D-01
 E= -466.690320584566     Delta-E=       -0.112832672315 Rises=F Damp=T
 DIIS: error= 2.52D-02 at cycle   2 NSaved=   2.
 NSaved= 2 IEnMin= 2 EnMin= -466.690320584566     IErMin= 2 ErrMin= 2.52D-02
 ErrMax= 2.52D-02  0.00D+00 EMaxC= 1.00D-01 BMatC= 9.36D-01 BMatP= 4.12D+00
 IDIUse=3 WtCom= 7.48D-01 WtEn= 2.52D-01
 Coeff-Com: -0.868D+00 0.187D+01
 Coeff-En:   0.000D+00 0.100D+01
 Coeff:     -0.649D+00 0.165D+01
 Gap=     0.279 Goal=   None    Shift=    0.000
 Gap=     0.279 Goal=   None    Shift=    0.000
 RMSDP=1.17D-03 MaxDP=5.26D-02 DE=-1.13D-01 OVMax= 1.39D-01

 Cycle   3  Pass 1  IDiag  1:
 RMSU=  6.14D-04    CP:  9.08D-01  2.19D+00
 E= -466.837906817473     Delta-E=       -0.147586232907 Rises=F Damp=F
 DIIS: error= 7.86D-03 at cycle   3 NSaved=   3.
 NSaved= 3 IEnMin= 3 EnMin= -466.837906817473     IErMin= 3 ErrMin= 7.86D-03
 ErrMax= 7.86D-03  0.00D+00 EMaxC= 1.00D-01 BMatC= 2.40D-02 BMatP= 9.36D-01
 IDIUse=3 WtCom= 9.21D-01 WtEn= 7.86D-02
 Coeff-Com: -0.313D+00 0.671D+00 0.642D+00
 Coeff-En:   0.000D+00 0.000D+00 0.100D+01
 Coeff:     -0.288D+00 0.619D+00 0.670D+00
 Gap=     0.301 Goal=   None    Shift=    0.000
 Gap=     0.301 Goal=   None    Shift=    0.000
 RMSDP=2.16D-04 MaxDP=1.11D-02 DE=-1.48D-01 OVMax= 6.49D-02

 Cycle   4  Pass 1  IDiag  1:
 RMSU=  1.97D-04    CP:  9.01D-01  2.28D+00  9.98D-01
 E= -466.848747616429     Delta-E=       -0.010840798955 Rises=F Damp=F
 DIIS: error= 5.15D-03 at cycle   4 NSaved=   4.
 NSaved= 4 IEnMin= 4 EnMin= -466.848747616429     IErMin= 4 ErrMin= 5.15D-03
 ErrMax= 5.15D-03  0.00D+00 EMaxC= 1.00D-01 BMatC= 2.08D-03 BMatP= 2.40D-02
 IDIUse=3 WtCom= 9.49D-01 WtEn= 5.15D-02
 Coeff-Com:  0.146D+00-0.312D+00-0.753D-01 0.124D+01
 Coeff-En:   0.000D+00 0.000D+00 0.000D+00 0.100D+01
 Coeff:      0.138D+00-0.296D+00-0.714D-01 0.123D+01
 Gap=     0.313 Goal=   None    Shift=    0.000
 Gap=     0.313 Goal=   None    Shift=    0.000
 RMSDP=2.15D-04 MaxDP=1.29D-02 DE=-1.08D-02 OVMax= 7.76D-02

 Cycle   5  Pass 1  IDiag  1:
 RMSU=  8.66D-05    CP:  8.94D-01  2.34D+00  1.22D+00  1.64D+00
 E= -466.853442975700     Delta-E=       -0.004695359271 Rises=F Damp=F
 DIIS: error= 2.31D-03 at cycle   5 NSaved=   5.
 NSaved= 5 IEnMin= 5 EnMin= -466.853442975700     IErMin= 5 ErrMin= 2.31D-03
 ErrMax= 2.31D-03  0.00D+00 EMaxC= 1.00D-01 BMatC= 8.42D-04 BMatP= 2.08D-03
 IDIUse=3 WtCom= 9.77D-01 WtEn= 2.31D-02
 Coeff-Com:  0.643D-01-0.138D+00-0.702D-01 0.365D+00 0.779D+00
 Coeff-En:   0.000D+00 0.000D+00 0.000D+00 0.000D+00 0.100D+01
 Coeff:      0.628D-01-0.135D+00-0.686D-01 0.357D+00 0.784D+00
 Gap=     0.315 Goal=   None    Shift=    0.000
 Gap=     0.315 Goal=   None    Shift=    0.000
 RMSDP=7.44D-05 MaxDP=3.20D-03 DE=-4.70D-03 OVMax= 2.75D-02

 Cycle   6  Pass 1  IDiag  1:
 RMSU=  3.18D-05    CP:  8.92D-01  2.35D+00  1.26D+00  1.91D+00  1.38D+00
 E= -466.854782588598     Delta-E=       -0.001339612897 Rises=F Damp=F
 DIIS: error= 1.69D-03 at cycle   6 NSaved=   6.
 NSaved= 6 IEnMin= 6 EnMin= -466.854782588598     IErMin= 6 ErrMin= 1.69D-03
 ErrMax= 1.69D-03  0.00D+00 EMaxC= 1.00D-01 BMatC= 5.25D-04 BMatP= 8.42D-04
 IDIUse=3 WtCom= 9.83D-01 WtEn= 1.69D-02
 Coeff-Com: -0.804D-01 0.172D+00 0.572D-01-0.599D+00 0.625D-01 0.139D+01
 Coeff-En:   0.000D+00 0.000D+00 0.000D+00 0.000D+00 0.000D+00 0.100D+01
 Coeff:     -0.791D-01 0.170D+00 0.562D-01-0.589D+00 0.614D-01 0.138D+01
 Gap=     0.311 Goal=   None    Shift=    0.000
 Gap=     0.311 Goal=   None    Shift=    0.000
 RMSDP=9.98D-05 MaxDP=4.05D-03 DE=-1.34D-03 OVMax= 3.76D-02

 Cycle   7  Pass 1  IDiag  1:
 RMSU=  3.12D-05    CP:  8.90D-01  2.35D+00  1.29D+00  2.19D+00  2.08D+00
                    CP:  2.23D+00
 E= -466.856404379459     Delta-E=       -0.001621790861 Rises=F Damp=F
 DIIS: error= 1.08D-03 at cycle   7 NSaved=   7.
 NSaved= 7 IEnMin= 7 EnMin= -466.856404379459     IErMin= 7 ErrMin= 1.08D-03
 ErrMax= 1.08D-03  0.00D+00 EMaxC= 1.00D-01 BMatC= 2.68D-04 BMatP= 5.25D-04
 IDIUse=3 WtCom= 9.89D-01 WtEn= 1.08D-02
 Coeff-Com: -0.258D-01 0.560D-01 0.435D-01-0.630D-02-0.715D+00-0.508D+00
 Coeff-Com:  0.216D+01
 Coeff-En:   0.000D+00 0.000D+00 0.000D+00 0.000D+00 0.000D+00 0.000D+00
 Coeff-En:   0.100D+01
 Coeff:     -0.256D-01 0.554D-01 0.431D-01-0.623D-02-0.707D+00-0.503D+00
 Coeff:      0.214D+01
 Gap=     0.311 Goal=   None    Shift=    0.000
 Gap=     0.311 Goal=   None    Shift=    0.000
 RMSDP=1.38D-04 MaxDP=6.62D-03 DE=-1.62D-03 OVMax= 5.21D-02

 Cycle   8  Pass 1  IDiag  1:
 RMSU=  5.29D-05    CP:  8.88D-01  2.35D+00  1.33D+00  2.51D+00  2.95D+00
                    CP:  3.00D+00  2.72D+00
 E= -466.857828586234     Delta-E=       -0.001424206775 Rises=F Damp=F
 DIIS: error= 3.75D-04 at cycle   8 NSaved=   8.
 NSaved= 8 IEnMin= 8 EnMin= -466.857828586234     IErMin= 8 ErrMin= 3.75D-04
 ErrMax= 3.75D-04  0.00D+00 EMaxC= 1.00D-01 BMatC= 6.45D-05 BMatP= 2.68D-04
 IDIUse=3 WtCom= 9.96D-01 WtEn= 3.75D-03
 Coeff-Com:  0.244D-01-0.524D-01-0.692D-02 0.262D+00-0.233D+00-0.731D+00
 Coeff-Com:  0.629D+00 0.111D+01
 Coeff-En:   0.000D+00 0.000D+00 0.000D+00 0.000D+00 0.000D+00 0.000D+00
 Coeff-En:   0.000D+00 0.100D+01
 Coeff:      0.243D-01-0.522D-01-0.689D-02 0.261D+00-0.232D+00-0.728D+00
 Coeff:      0.626D+00 0.111D+01
 Gap=     0.313 Goal=   None    Shift=    0.000
 Gap=     0.313 Goal=   None    Shift=    0.000
 RMSDP=6.42D-05 MaxDP=3.17D-03 DE=-1.42D-03 OVMax= 2.37D-02

 Cycle   9  Pass 1  IDiag  1:
 RMSU=  3.66D-05    CP:  8.87D-01  2.35D+00  1.35D+00  2.61D+00  3.00D+00
                    CP:  3.00D+00  3.00D+00  1.74D+00
 E= -466.858077032816     Delta-E=       -0.000248446582 Rises=F Damp=F
 DIIS: error= 1.23D-04 at cycle   9 NSaved=   9.
 NSaved= 9 IEnMin= 9 EnMin= -466.858077032816     IErMin= 9 ErrMin= 1.23D-04
 ErrMax= 1.23D-04  0.00D+00 EMaxC= 1.00D-01 BMatC= 1.05D-05 BMatP= 6.45D-05
 IDIUse=3 WtCom= 9.99D-01 WtEn= 1.23D-03
 Coeff-Com:  0.134D-01-0.288D-01-0.920D-02 0.963D-01 0.319D-01-0.178D+00
 Coeff-Com: -0.119D+00 0.329D+00 0.865D+00
 Coeff-En:   0.000D+00 0.000D+00 0.000D+00 0.000D+00 0.000D+00 0.000D+00
 Coeff-En:   0.000D+00 0.000D+00 0.100D+01
 Coeff:      0.134D-01-0.288D-01-0.919D-02 0.962D-01 0.318D-01-0.178D+00
 Coeff:     -0.119D+00 0.328D+00 0.866D+00
 Gap=     0.313 Goal=   None    Shift=    0.000
 Gap=     0.313 Goal=   None    Shift=    0.000
 RMSDP=1.61D-05 MaxDP=8.02D-04 DE=-2.48D-04 OVMax= 5.87D-03

 Cycle  10  Pass 1  IDiag  1:
 RMSU=  4.75D-06    CP:  8.87D-01  2.35D+00  1.35D+00  2.63D+00  3.00D+00
                    CP:  3.00D+00  3.00D+00  1.92D+00  1.30D+00
 E= -466.858096209405     Delta-E=       -0.000019176589 Rises=F Damp=F
 DIIS: error= 5.42D-05 at cycle  10 NSaved=  10.
 NSaved=10 IEnMin=10 EnMin= -466.858096209405     IErMin=10 ErrMin= 5.42D-05
 ErrMax= 5.42D-05  0.00D+00 EMaxC= 1.00D-01 BMatC= 1.75D-06 BMatP= 1.05D-05
 IDIUse=1 WtCom= 1.00D+00 WtEn= 0.00D+00
 Coeff-Com: -0.139D-02 0.301D-02-0.679D-03-0.282D-01 0.444D-01 0.926D-01
 Coeff-Com: -0.122D+00-0.180D+00 0.180D+00 0.101D+01
 Coeff:     -0.139D-02 0.301D-02-0.679D-03-0.282D-01 0.444D-01 0.926D-01
 Coeff:     -0.122D+00-0.180D+00 0.180D+00 0.101D+01
 Gap=     0.312 Goal=   None    Shift=    0.000
 Gap=     0.312 Goal=   None    Shift=    0.000
 RMSDP=7.02D-06 MaxDP=3.45D-04 DE=-1.92D-05 OVMax= 2.70D-03

 Cycle  11  Pass 1  IDiag  1:
 RMSU=  2.49D-06    CP:  8.86D-01  2.35D+00  1.36D+00  2.64D+00  3.00D+00
                    CP:  3.00D+00  3.00D+00  1.99D+00  1.42D+00  1.38D+00
 E= -466.858098935712     Delta-E=       -0.000002726307 Rises=F Damp=F
 DIIS: error= 2.18D-05 at cycle  11 NSaved=  11.
 NSaved=11 IEnMin=11 EnMin= -466.858098935712     IErMin=11 ErrMin= 2.18D-05
 ErrMax= 2.18D-05  0.00D+00 EMaxC= 1.00D-01 BMatC= 3.93D-07 BMatP= 1.75D-06
 IDIUse=1 WtCom= 1.00D+00 WtEn= 0.00D+00
 Coeff-Com: -0.148D-02 0.319D-02 0.363D-03-0.178D-01 0.140D-01 0.467D-01
 Coeff-Com: -0.325D-01-0.978D-01-0.644D-02 0.407D+00 0.684D+00
 Coeff:     -0.148D-02 0.319D-02 0.363D-03-0.178D-01 0.140D-01 0.467D-01
 Coeff:     -0.325D-01-0.978D-01-0.644D-02 0.407D+00 0.684D+00
 Gap=     0.312 Goal=   None    Shift=    0.000
 Gap=     0.312 Goal=   None    Shift=    0.000
 RMSDP=1.17D-06 MaxDP=6.46D-05 DE=-2.73D-06 OVMax= 3.29D-04

 Cycle  12  Pass 1  IDiag  1:
 RMSU=  7.73D-07    CP:  8.86D-01  2.35D+00  1.36D+00  2.64D+00  3.00D+00
                    CP:  3.00D+00  3.00D+00  1.99D+00  1.43D+00  1.43D+00
                    CP:  1.23D+00
 E= -466.858099149805     Delta-E=       -0.000000214093 Rises=F Damp=F
 DIIS: error= 1.36D-05 at cycle  12 NSaved=  12.
 NSaved=12 IEnMin=12 EnMin= -466.858099149805     IErMin=12 ErrMin= 1.36D-05
 ErrMax= 1.36D-05  0.00D+00 EMaxC= 1.00D-01 BMatC= 6.77D-08 BMatP= 3.93D-07
 IDIUse=1 WtCom= 1.00D+00 WtEn= 0.00D+00
 Coeff-Com:  0.517D-03-0.112D-02-0.556D-04 0.779D-02-0.836D-02-0.238D-01
 Coeff-Com:  0.262D-01 0.454D-01-0.354D-01-0.253D+00 0.245D-01 0.122D+01
 Coeff:      0.517D-03-0.112D-02-0.556D-04 0.779D-02-0.836D-02-0.238D-01
 Coeff:      0.262D-01 0.454D-01-0.354D-01-0.253D+00 0.245D-01 0.122D+01
 Gap=     0.312 Goal=   None    Shift=    0.000
 Gap=     0.312 Goal=   None    Shift=    0.000
 RMSDP=8.95D-07 MaxDP=4.11D-05 DE=-2.14D-07 OVMax= 1.55D-04

 Cycle  13  Pass 1  IDiag  1:
 RMSU=  4.54D-07    CP:  8.86D-01  2.35D+00  1.36D+00  2.64D+00  3.00D+00
                    CP:  3.00D+00  3.00D+00  1.99D+00  1.43D+00  1.45D+00
                    CP:  1.46D+00  1.60D+00
 E= -466.858099249400     Delta-E=       -0.000000099595 Rises=F Damp=F
 DIIS: error= 7.13D-06 at cycle  13 NSaved=  13.
 NSaved=13 IEnMin=13 EnMin= -466.858099249400     IErMin=13 ErrMin= 7.13D-06
 ErrMax= 7.13D-06  0.00D+00 EMaxC= 1.00D-01 BMatC= 1.58D-08 BMatP= 6.77D-08
 IDIUse=1 WtCom= 1.00D+00 WtEn= 0.00D+00
 Coeff-Com: -0.893D-04 0.196D-03 0.929D-04-0.658D-03 0.128D-03 0.150D-02
 Coeff-Com: -0.166D-02-0.850D-04 0.259D-02 0.752D-03-0.104D+00-0.257D+00
 Coeff-Com:  0.136D+01
 Coeff:     -0.893D-04 0.196D-03 0.929D-04-0.658D-03 0.128D-03 0.150D-02
 Coeff:     -0.166D-02-0.850D-04 0.259D-02 0.752D-03-0.104D+00-0.257D+00
 Coeff:      0.136D+01
 Gap=     0.312 Goal=   None    Shift=    0.000
 Gap=     0.312 Goal=   None    Shift=    0.000
 RMSDP=4.04D-07 MaxDP=2.30D-05 DE=-9.96D-08 OVMax= 9.92D-05

 Cycle  14  Pass 1  IDiag  1:
 RMSU=  2.75D-07    CP:  8.86D-01  2.35D+00  1.36D+00  2.64D+00  3.00D+00
                    CP:  3.00D+00  3.00D+00  1.99D+00  1.43D+00  1.46D+00
                    CP:  1.50D+00  1.76D+00  1.51D+00
 E= -466.858099283117     Delta-E=       -0.000000033717 Rises=F Damp=F
 DIIS: error= 3.86D-06 at cycle  14 NSaved=  14.
 NSaved=14 IEnMin=14 EnMin= -466.858099283117     IErMin=14 ErrMin= 3.86D-06
 ErrMax= 3.86D-06  0.00D+00 EMaxC= 1.00D-01 BMatC= 4.91D-09 BMatP= 1.58D-08
 IDIUse=1 WtCom= 1.00D+00 WtEn= 0.00D+00
 Coeff-Com: -0.211D-03 0.456D-03 0.896D-04-0.257D-02 0.217D-02 0.739D-02
 Coeff-Com: -0.773D-02-0.135D-01 0.115D-01 0.797D-01-0.279D-01-0.436D+00
 Coeff-Com:  0.144D+00 0.124D+01
 Coeff:     -0.211D-03 0.456D-03 0.896D-04-0.257D-02 0.217D-02 0.739D-02
 Coeff:     -0.773D-02-0.135D-01 0.115D-01 0.797D-01-0.279D-01-0.436D+00
 Coeff:      0.144D+00 0.124D+01
 Gap=     0.312 Goal=   None    Shift=    0.000
 Gap=     0.312 Goal=   None    Shift=    0.000
 RMSDP=3.00D-07 MaxDP=1.38D-05 DE=-3.37D-08 OVMax= 7.18D-05

 Cycle  15  Pass 1  IDiag  1:
 RMSU=  1.16D-07    CP:  8.86D-01  2.35D+00  1.36D+00  2.64D+00  3.00D+00
                    CP:  3.00D+00  3.00D+00  1.99D+00  1.43D+00  1.47D+00
                    CP:  1.51D+00  1.84D+00  1.86D+00  1.76D+00
 E= -466.858099294086     Delta-E=       -0.000000010970 Rises=F Damp=F
 DIIS: error= 1.29D-06 at cycle  15 NSaved=  15.
 NSaved=15 IEnMin=15 EnMin= -466.858099294086     IErMin=15 ErrMin= 1.29D-06
 ErrMax= 1.29D-06  0.00D+00 EMaxC= 1.00D-01 BMatC= 7.12D-10 BMatP= 4.91D-09
 IDIUse=1 WtCom= 1.00D+00 WtEn= 0.00D+00
 Coeff-Com:  0.167D-04-0.364D-04-0.300D-04 0.505D-05 0.250D-03 0.304D-03
 Coeff-Com: -0.900D-03-0.979D-03 0.284D-02 0.107D-01 0.138D-01-0.209D-01
 Coeff-Com: -0.263D+00 0.201D+00 0.106D+01
 Coeff:      0.167D-04-0.364D-04-0.300D-04 0.505D-05 0.250D-03 0.304D-03
 Coeff:     -0.900D-03-0.979D-03 0.284D-02 0.107D-01 0.138D-01-0.209D-01
 Coeff:     -0.263D+00 0.201D+00 0.106D+01
 Gap=     0.312 Goal=   None    Shift=    0.000
 Gap=     0.312 Goal=   None    Shift=    0.000
 RMSDP=1.29D-07 MaxDP=5.62D-06 DE=-1.10D-08 OVMax= 2.80D-05

 Cycle  16  Pass 1  IDiag  1:
 RMSU=  5.02D-08    CP:  8.86D-01  2.35D+00  1.36D+00  2.64D+00  3.00D+00
                    CP:  3.00D+00  3.00D+00  1.99D+00  1.43D+00  1.47D+00
                    CP:  1.51D+00  1.86D+00  1.98D+00  2.04D+00  1.54D+00
 E= -466.858099295267     Delta-E=       -0.000000001181 Rises=F Damp=F
 DIIS: error= 2.53D-07 at cycle  16 NSaved=  16.
 NSaved=16 IEnMin=16 EnMin= -466.858099295267     IErMin=16 ErrMin= 2.53D-07
 ErrMax= 2.53D-07  0.00D+00 EMaxC= 1.00D-01 BMatC= 6.99D-11 BMatP= 7.12D-10
 IDIUse=1 WtCom= 1.00D+00 WtEn= 0.00D+00
 Coeff-Com:  0.124D-04-0.268D-04-0.102D-04 0.142D-03-0.841D-04-0.348D-03
 Coeff-Com:  0.277D-03 0.692D-03-0.399D-03-0.407D-02 0.620D-02 0.327D-01
 Coeff-Com: -0.686D-01-0.765D-01 0.234D+00 0.876D+00
 Coeff:      0.124D-04-0.268D-04-0.102D-04 0.142D-03-0.841D-04-0.348D-03
 Coeff:      0.277D-03 0.692D-03-0.399D-03-0.407D-02 0.620D-02 0.327D-01
 Coeff:     -0.686D-01-0.765D-01 0.234D+00 0.876D+00
 Gap=     0.312 Goal=   None    Shift=    0.000
 Gap=     0.312 Goal=   None    Shift=    0.000
 RMSDP=3.08D-08 MaxDP=1.71D-06 DE=-1.18D-09 OVMax= 4.62D-06

 Cycle  17  Pass 1  IDiag  1:
 RMSU=  1.30D-08    CP:  8.86D-01  2.35D+00  1.36D+00  2.64D+00  3.00D+00
                    CP:  3.00D+00  3.00D+00  1.99D+00  1.43D+00  1.47D+00
                    CP:  1.51D+00  1.86D+00  1.98D+00  2.08D+00  1.68D+00
                    CP:  1.31D+00
 E= -466.858099295323     Delta-E=       -0.000000000056 Rises=F Damp=F
 DIIS: error= 7.34D-08 at cycle  17 NSaved=  17.
 NSaved=17 IEnMin=17 EnMin= -466.858099295323     IErMin=17 ErrMin= 7.34D-08
 ErrMax= 7.34D-08  0.00D+00 EMaxC= 1.00D-01 BMatC= 8.24D-12 BMatP= 6.99D-11
 IDIUse=1 WtCom= 1.00D+00 WtEn= 0.00D+00
 Coeff-Com: -0.572D-08 0.548D-07 0.849D-06 0.119D-04-0.340D-04-0.357D-04
 Coeff-Com:  0.856D-04 0.172D-03-0.412D-03-0.171D-02-0.282D-03 0.728D-02
 Coeff-Com:  0.202D-01-0.364D-01-0.922D-01 0.155D+00 0.948D+00
 Coeff:     -0.572D-08 0.548D-07 0.849D-06 0.119D-04-0.340D-04-0.357D-04
 Coeff:      0.856D-04 0.172D-03-0.412D-03-0.171D-02-0.282D-03 0.728D-02
 Coeff:      0.202D-01-0.364D-01-0.922D-01 0.155D+00 0.948D+00
 Gap=     0.312 Goal=   None    Shift=    0.000
 Gap=     0.312 Goal=   None    Shift=    0.000
 RMSDP=1.05D-08 MaxDP=4.08D-07 DE=-5.60D-11 OVMax= 1.61D-06

 Cycle  18  Pass 1  IDiag  1:
 RMSU=  5.38D-09    CP:  8.86D-01  2.35D+00  1.36D+00  2.64D+00  3.00D+00
                    CP:  3.00D+00  3.00D+00  1.99D+00  1.43D+00  1.47D+00
                    CP:  1.51D+00  1.86D+00  1.98D+00  2.08D+00  1.72D+00
                    CP:  1.40D+00  1.22D+00
 E= -466.858099295328     Delta-E=       -0.000000000005 Rises=F Damp=F
 DIIS: error= 2.91D-08 at cycle  18 NSaved=  18.
 NSaved=18 IEnMin=18 EnMin= -466.858099295328     IErMin=18 ErrMin= 2.91D-08
 ErrMax= 2.91D-08  0.00D+00 EMaxC= 1.00D-01 BMatC= 6.58D-13 BMatP= 8.24D-12
 IDIUse=1 WtCom= 1.00D+00 WtEn= 0.00D+00
 Coeff-Com:  0.523D-06-0.114D-05 0.567D-06 0.621D-05-0.171D-04-0.143D-04
 Coeff-Com:  0.279D-04 0.294D-04-0.333D-04-0.792D-04-0.528D-03-0.137D-02
 Coeff-Com:  0.729D-02 0.316D-02-0.279D-01-0.774D-01 0.707D-01 0.103D+01
 Coeff:      0.523D-06-0.114D-05 0.567D-06 0.621D-05-0.171D-04-0.143D-04
 Coeff:      0.279D-04 0.294D-04-0.333D-04-0.792D-04-0.528D-03-0.137D-02
 Coeff:      0.729D-02 0.316D-02-0.279D-01-0.774D-01 0.707D-01 0.103D+01
 Gap=     0.312 Goal=   None    Shift=    0.000
 Gap=     0.312 Goal=   None    Shift=    0.000
 RMSDP=3.25D-09 MaxDP=1.30D-07 DE=-4.77D-12 OVMax= 3.89D-07

 Error on total polarization charges =  0.01184
 SCF Done:  E(UwB97XD) =  -466.858099295     A.U. after   18 cycles
            NFock= 18  Conv=0.33D-08     -V/T= 2.0058
 <Sx>= 0.0000 <Sy>= 0.0000 <Sz>= 0.0000 <S**2>= 0.0000 S= 0.0000
 <L.S>=  0.00000000000    
 KE= 4.641649374480D+02 PE=-2.430313224615D+03 EE= 8.250084803992D+02
 --------------------------------------------------------------------
 Variational PCM results
 =======================
 <psi(f)|   H    |psi(f)>                     (a.u.) =    -466.856574
 <psi(f)|H+V(f)/2|psi(f)>                     (a.u.) =    -466.858099
 (Polarized solute)-Solvent               (kcal/mol) =      -0.96
 --------------------------------------------------------------------
 Partition over spheres:
 Sphere  on Atom  Surface  Charge   GEl     GCav    GDR
    1      C1       7.07   0.010   -0.05    0.00    0.00
    2      C2       4.99   0.007   -0.04    0.00    0.00
    3      H3       7.52  -0.010   -0.04    0.00    0.00
    4      H4       3.32  -0.004   -0.01    0.00    0.00
    5      C5       4.57   0.009   -0.06    0.00    0.00
    6      C6       4.73   0.007   -0.04    0.00    0.00
    7      H7       4.71  -0.007   -0.03    0.00    0.00
    8      H8       4.11  -0.005   -0.01    0.00    0.00
    9      C9       3.54   0.002    0.00    0.00    0.00
   10      H10      7.08  -0.007   -0.01    0.00    0.00
   11      H11      2.71  -0.002   -0.01    0.00    0.00
   12      C12      6.43   0.010   -0.06    0.00    0.00
   13      H13      7.52  -0.010   -0.03    0.00    0.00
   14      C14      7.25   0.010   -0.05    0.00    0.00
   15      H15      7.52  -0.010   -0.04    0.00    0.00
   16      C16      3.80   0.001    0.00    0.00    0.00
   17      H17      3.07  -0.003   -0.01    0.00    0.00
   18      H18      7.30  -0.008   -0.03    0.00    0.00
   19      C19      5.10   0.009   -0.06    0.00    0.00
   20      H20      5.38  -0.008   -0.03    0.00    0.00
   21      C21      6.18   0.010   -0.06    0.00    0.00
   22      H22      7.51  -0.010   -0.03    0.00    0.00
   23      C23      3.81   0.002    0.00    0.00    0.00
   24      H24      4.06  -0.003   -0.01    0.00    0.00
   25      H25      6.90  -0.007   -0.01    0.00    0.00
   26      C26      3.46   0.001    0.00    0.00    0.00
   27      H27      7.40  -0.008   -0.03    0.00    0.00
   28      H28      3.09  -0.003   -0.01    0.00    0.00
 Added spheres:    72.94   0.013   -0.21    0.00    0.00
 --------------------------------------------------------------------
 After PCM corrections, the energy is  -466.858099295     a.u.
 --------------------------------------------------------------------
 Annihilation of the first spin contaminant:
 S**2 before annihilation     0.0000,   after     0.0000
 Leave Link  502 at Mon Aug  3 14:33:05 2020, MaxMem=  6442450944 cpu:            7406.5 elap:             311.3
 (Enter /scratch/scicomp/CentOS/7.3.1611/Haswell/software/Gaussian/g16/l601.exe)
 Copying SCF densities to generalized density rwf, IOpCl= 1 IROHF=0.

 **********************************************************************

            Population analysis using the SCF Density.

 **********************************************************************

 Alpha  occ. eigenvalues --  -10.28526 -10.28525 -10.28317 -10.28317 -10.28309
 Alpha  occ. eigenvalues --  -10.28309 -10.28216 -10.28215 -10.28020 -10.28020
 Alpha  occ. eigenvalues --  -10.27632 -10.27632  -0.94210  -0.93674  -0.84289
 Alpha  occ. eigenvalues --   -0.84195  -0.83896  -0.83751  -0.71458  -0.71257
 Alpha  occ. eigenvalues --   -0.68029  -0.67975  -0.59803  -0.59658  -0.57432
 Alpha  occ. eigenvalues --   -0.56764  -0.53641  -0.52817  -0.51015  -0.50966
 Alpha  occ. eigenvalues --   -0.49958  -0.49483  -0.47402  -0.46969  -0.45222
 Alpha  occ. eigenvalues --   -0.45119  -0.41329  -0.41067  -0.39770  -0.39339
 Alpha  occ. eigenvalues --   -0.39284  -0.39052  -0.29845  -0.27688
 Alpha virt. eigenvalues --    0.03539   0.04852   0.10512   0.12255   0.13339
 Alpha virt. eigenvalues --    0.14421   0.14800   0.15602   0.15672   0.15845
 Alpha virt. eigenvalues --    0.16800   0.16893   0.17153   0.18203   0.19943
 Alpha virt. eigenvalues --    0.21073   0.21375   0.22827   0.23536   0.23576
 Alpha virt. eigenvalues --    0.24697   0.25514   0.25752   0.26804   0.28051
 Alpha virt. eigenvalues --    0.28125   0.28898   0.29269   0.29949   0.30530
 Alpha virt. eigenvalues --    0.31379   0.31593   0.32211   0.32338   0.33184
 Alpha virt. eigenvalues --    0.33617   0.34152   0.35454   0.35830   0.37246
 Alpha virt. eigenvalues --    0.37631   0.39106   0.39224   0.41170   0.41307
 Alpha virt. eigenvalues --    0.41537   0.43461   0.43957   0.45089   0.45802
 Alpha virt. eigenvalues --    0.46351   0.46444   0.47623   0.47811   0.48367
 Alpha virt. eigenvalues --    0.48448   0.48868   0.49143   0.49572   0.49887
 Alpha virt. eigenvalues --    0.50303   0.50396   0.51591   0.51911   0.52517
 Alpha virt. eigenvalues --    0.52990   0.53829   0.54168   0.54624   0.55005
 Alpha virt. eigenvalues --    0.56851   0.57432   0.57815   0.58660   0.59530
 Alpha virt. eigenvalues --    0.59911   0.60620   0.62556   0.62737   0.64358
 Alpha virt. eigenvalues --    0.65395   0.66771   0.67783   0.68239   0.68601
 Alpha virt. eigenvalues --    0.70741   0.72273   0.72446   0.73338   0.74605
 Alpha virt. eigenvalues --    0.76849   0.78196   0.78220   0.80347   0.80599
 Alpha virt. eigenvalues --    0.81575   0.82184   0.82864   0.87466   0.88046
 Alpha virt. eigenvalues --    0.88187   0.89660   0.90150   0.91432   0.92424
 Alpha virt. eigenvalues --    0.92570   0.94883   0.96162   0.98529   0.98675
 Alpha virt. eigenvalues --    1.00548   1.03543   1.04420   1.04626   1.04647
 Alpha virt. eigenvalues --    1.06466   1.07486   1.07625   1.08830   1.11450
 Alpha virt. eigenvalues --    1.12879   1.13498   1.14097   1.14768   1.15618
 Alpha virt. eigenvalues --    1.15737   1.16706   1.17105   1.18685   1.20561
 Alpha virt. eigenvalues --    1.20593   1.21562   1.24063   1.24272   1.24675
 Alpha virt. eigenvalues --    1.25220   1.25741   1.26854   1.27600   1.28484
 Alpha virt. eigenvalues --    1.28751   1.30626   1.31565   1.32488   1.32585
 Alpha virt. eigenvalues --    1.33921   1.34654   1.36835   1.37038   1.37715
 Alpha virt. eigenvalues --    1.38632   1.39547   1.40322   1.41128   1.41390
 Alpha virt. eigenvalues --    1.42750   1.43138   1.43717   1.43775   1.45060
 Alpha virt. eigenvalues --    1.45783   1.46736   1.46945   1.47612   1.47964
 Alpha virt. eigenvalues --    1.49396   1.50689   1.51000   1.53974   1.55634
 Alpha virt. eigenvalues --    1.56840   1.57932   1.58444   1.59108   1.61045
 Alpha virt. eigenvalues --    1.61546   1.62999   1.63501   1.65677   1.67734
 Alpha virt. eigenvalues --    1.68501   1.70277   1.71596   1.74190   1.77338
 Alpha virt. eigenvalues --    1.77502   1.80115   1.80336   1.83688   1.83969
 Alpha virt. eigenvalues --    1.86160   1.87704   1.90014   1.90811   1.91499
 Alpha virt. eigenvalues --    1.92894   1.96506   1.98866   2.00437   2.01185
 Alpha virt. eigenvalues --    2.03840   2.04829   2.06362   2.08184   2.08567
 Alpha virt. eigenvalues --    2.09368   2.11735   2.12897   2.13198   2.15421
 Alpha virt. eigenvalues --    2.17846   2.19814   2.20338   2.21021   2.22434
 Alpha virt. eigenvalues --    2.23085   2.24447   2.24896   2.26647   2.26682
 Alpha virt. eigenvalues --    2.30168   2.34563   2.37250   2.38239   2.41042
 Alpha virt. eigenvalues --    2.43215   2.45224   2.45646   2.49033   2.49904
 Alpha virt. eigenvalues --    2.50011   2.50454   2.53740   2.54075   2.55223
 Alpha virt. eigenvalues --    2.55574   2.57660   2.58005   2.60792   2.61572
 Alpha virt. eigenvalues --    2.62391   2.64515   2.64744   2.65172   2.66054
 Alpha virt. eigenvalues --    2.67014   2.67816   2.70662   2.72232   2.72578
 Alpha virt. eigenvalues --    2.73243   2.73376   2.74711   2.75815   2.76965
 Alpha virt. eigenvalues --    2.77490   2.78309   2.79359   2.80719   2.81135
 Alpha virt. eigenvalues --    2.81167   2.82480   2.82794   2.83810   2.84957
 Alpha virt. eigenvalues --    2.85547   2.86405   2.87252   2.87822   2.89749
 Alpha virt. eigenvalues --    2.90569   2.90732   2.92511   2.92566   2.93756
 Alpha virt. eigenvalues --    2.94779   2.95266   2.95458   2.96314   3.00192
 Alpha virt. eigenvalues --    3.01397   3.02138   3.03006   3.04499   3.05989
 Alpha virt. eigenvalues --    3.07225   3.09010   3.09477   3.09756   3.10425
 Alpha virt. eigenvalues --    3.11860   3.12982   3.13284   3.14442   3.15047
 Alpha virt. eigenvalues --    3.15174   3.16674   3.17094   3.18641   3.19102
 Alpha virt. eigenvalues --    3.19893   3.20005   3.20419   3.20840   3.21528
 Alpha virt. eigenvalues --    3.21924   3.22824   3.23303   3.23776   3.24063
 Alpha virt. eigenvalues --    3.25893   3.26023   3.26629   3.26726   3.28008
 Alpha virt. eigenvalues --    3.28135   3.29993   3.30699   3.31296   3.31430
 Alpha virt. eigenvalues --    3.32321   3.32947   3.33148   3.33589   3.34142
 Alpha virt. eigenvalues --    3.35372   3.35949   3.36339   3.37736   3.38618
 Alpha virt. eigenvalues --    3.38902   3.41166   3.42581   3.43318   3.43741
 Alpha virt. eigenvalues --    3.45050   3.45442   3.46496   3.46524   3.46915
 Alpha virt. eigenvalues --    3.48287   3.49333   3.49697   3.50332   3.50965
 Alpha virt. eigenvalues --    3.51551   3.53010   3.53233   3.54912   3.54991
 Alpha virt. eigenvalues --    3.56564   3.57413   3.57500   3.59621   3.64091
 Alpha virt. eigenvalues --    3.64912   3.65372   3.65430   3.66338   3.67309
 Alpha virt. eigenvalues --    3.68368   3.68652   3.71357   3.71875   3.73341
 Alpha virt. eigenvalues --    3.75859   3.76200   3.77989   3.80113   3.81349
 Alpha virt. eigenvalues --    3.84897   3.85545   3.85713   3.86356   3.86382
 Alpha virt. eigenvalues --    3.88464   3.91162   3.91534   3.93837   3.94284
 Alpha virt. eigenvalues --    3.96021   3.96852   4.00893   4.01114   4.03292
 Alpha virt. eigenvalues --    4.05228   4.08112   4.08713   4.08920   4.10420
 Alpha virt. eigenvalues --    4.11783   4.12926   4.14003   4.15150   4.18221
 Alpha virt. eigenvalues --    4.18438   4.19808   4.20644   4.23162   4.24633
 Alpha virt. eigenvalues --    4.24873   4.27448   4.30650   4.30939   4.34022
 Alpha virt. eigenvalues --    4.34918   4.38130   4.38620   4.39034   4.42118
 Alpha virt. eigenvalues --    4.42678   4.43837   4.46957   4.48524   4.50698
 Alpha virt. eigenvalues --    4.52279   4.58862   4.60987   4.63107   4.66744
 Alpha virt. eigenvalues --    4.67851   4.68911   4.72611   4.73571   4.76012
 Alpha virt. eigenvalues --    4.76443   4.79171   4.79560   4.82516   4.84489
 Alpha virt. eigenvalues --    4.85024   4.85551   4.90110   4.92796   4.93574
 Alpha virt. eigenvalues --    4.94297   4.97111   4.99255   5.06401   5.07783
 Alpha virt. eigenvalues --    5.13242   5.14024   5.18994   5.19276   5.22657
 Alpha virt. eigenvalues --    5.23196   5.31518   5.32520   5.41007   5.41361
 Alpha virt. eigenvalues --    5.43136   5.44420   5.49691   5.50175   5.68189
 Alpha virt. eigenvalues --    5.70822   5.75816   5.78417   5.93810   6.01287
 Alpha virt. eigenvalues --    7.93883   7.95396   8.01247   8.04633   8.05718
 Alpha virt. eigenvalues --    8.07011   8.09937   8.11659   8.17931   8.18047
 Alpha virt. eigenvalues --    8.34673   8.35901  34.76074  34.77621  34.80869
 Alpha virt. eigenvalues --   34.81772  34.86017  34.87785  34.96617  34.98240
 Alpha virt. eigenvalues --   35.00808  35.01802  35.15830  35.18761
  Beta  occ. eigenvalues --  -10.28526 -10.28525 -10.28317 -10.28317 -10.28309
  Beta  occ. eigenvalues --  -10.28309 -10.28216 -10.28215 -10.28020 -10.28020
  Beta  occ. eigenvalues --  -10.27632 -10.27632  -0.94210  -0.93674  -0.84289
  Beta  occ. eigenvalues --   -0.84195  -0.83896  -0.83751  -0.71458  -0.71257
  Beta  occ. eigenvalues --   -0.68029  -0.67975  -0.59803  -0.59658  -0.57432
  Beta  occ. eigenvalues --   -0.56764  -0.53641  -0.52817  -0.51015  -0.50966
  Beta  occ. eigenvalues --   -0.49958  -0.49483  -0.47402  -0.46969  -0.45222
  Beta  occ. eigenvalues --   -0.45119  -0.41329  -0.41067  -0.39770  -0.39339
  Beta  occ. eigenvalues --   -0.39284  -0.39052  -0.29845  -0.27688
  Beta virt. eigenvalues --    0.03539   0.04852   0.10512   0.12255   0.13339
  Beta virt. eigenvalues --    0.14421   0.14800   0.15602   0.15672   0.15845
  Beta virt. eigenvalues --    0.16800   0.16893   0.17153   0.18203   0.19943
  Beta virt. eigenvalues --    0.21073   0.21375   0.22827   0.23536   0.23576
  Beta virt. eigenvalues --    0.24697   0.25514   0.25752   0.26804   0.28051
  Beta virt. eigenvalues --    0.28125   0.28898   0.29269   0.29949   0.30530
  Beta virt. eigenvalues --    0.31379   0.31593   0.32211   0.32338   0.33184
  Beta virt. eigenvalues --    0.33617   0.34152   0.35454   0.35830   0.37246
  Beta virt. eigenvalues --    0.37631   0.39106   0.39224   0.41170   0.41307
  Beta virt. eigenvalues --    0.41537   0.43461   0.43957   0.45089   0.45802
  Beta virt. eigenvalues --    0.46351   0.46444   0.47623   0.47811   0.48367
  Beta virt. eigenvalues --    0.48448   0.48868   0.49143   0.49572   0.49887
  Beta virt. eigenvalues --    0.50303   0.50396   0.51591   0.51911   0.52517
  Beta virt. eigenvalues --    0.52990   0.53829   0.54168   0.54624   0.55005
  Beta virt. eigenvalues --    0.56851   0.57432   0.57815   0.58660   0.59530
  Beta virt. eigenvalues --    0.59911   0.60620   0.62556   0.62737   0.64358
  Beta virt. eigenvalues --    0.65395   0.66771   0.67783   0.68239   0.68601
  Beta virt. eigenvalues --    0.70741   0.72273   0.72446   0.73338   0.74605
  Beta virt. eigenvalues --    0.76849   0.78196   0.78220   0.80347   0.80599
  Beta virt. eigenvalues --    0.81575   0.82184   0.82864   0.87466   0.88046
  Beta virt. eigenvalues --    0.88187   0.89660   0.90150   0.91432   0.92424
  Beta virt. eigenvalues --    0.92570   0.94883   0.96162   0.98529   0.98675
  Beta virt. eigenvalues --    1.00548   1.03543   1.04420   1.04626   1.04647
  Beta virt. eigenvalues --    1.06466   1.07486   1.07625   1.08830   1.11450
  Beta virt. eigenvalues --    1.12879   1.13498   1.14097   1.14768   1.15618
  Beta virt. eigenvalues --    1.15737   1.16706   1.17105   1.18685   1.20561
  Beta virt. eigenvalues --    1.20593   1.21562   1.24063   1.24272   1.24675
  Beta virt. eigenvalues --    1.25220   1.25741   1.26854   1.27600   1.28484
  Beta virt. eigenvalues --    1.28751   1.30626   1.31565   1.32488   1.32585
  Beta virt. eigenvalues --    1.33921   1.34654   1.36835   1.37038   1.37715
  Beta virt. eigenvalues --    1.38632   1.39547   1.40322   1.41128   1.41390
  Beta virt. eigenvalues --    1.42750   1.43138   1.43717   1.43775   1.45060
  Beta virt. eigenvalues --    1.45783   1.46736   1.46945   1.47612   1.47964
  Beta virt. eigenvalues --    1.49396   1.50689   1.51000   1.53974   1.55634
  Beta virt. eigenvalues --    1.56840   1.57932   1.58444   1.59108   1.61045
  Beta virt. eigenvalues --    1.61546   1.62999   1.63501   1.65677   1.67734
  Beta virt. eigenvalues --    1.68501   1.70277   1.71596   1.74190   1.77338
  Beta virt. eigenvalues --    1.77502   1.80115   1.80336   1.83688   1.83969
  Beta virt. eigenvalues --    1.86160   1.87704   1.90014   1.90811   1.91499
  Beta virt. eigenvalues --    1.92894   1.96506   1.98866   2.00437   2.01185
  Beta virt. eigenvalues --    2.03840   2.04829   2.06362   2.08184   2.08567
  Beta virt. eigenvalues --    2.09368   2.11735   2.12897   2.13198   2.15421
  Beta virt. eigenvalues --    2.17846   2.19814   2.20338   2.21021   2.22434
  Beta virt. eigenvalues --    2.23085   2.24447   2.24896   2.26647   2.26682
  Beta virt. eigenvalues --    2.30168   2.34563   2.37250   2.38239   2.41042
  Beta virt. eigenvalues --    2.43215   2.45224   2.45646   2.49033   2.49904
  Beta virt. eigenvalues --    2.50011   2.50454   2.53740   2.54075   2.55223
  Beta virt. eigenvalues --    2.55574   2.57660   2.58005   2.60792   2.61572
  Beta virt. eigenvalues --    2.62391   2.64515   2.64744   2.65172   2.66054
  Beta virt. eigenvalues --    2.67014   2.67816   2.70662   2.72232   2.72578
  Beta virt. eigenvalues --    2.73243   2.73376   2.74711   2.75815   2.76965
  Beta virt. eigenvalues --    2.77490   2.78309   2.79359   2.80719   2.81135
  Beta virt. eigenvalues --    2.81167   2.82480   2.82794   2.83810   2.84957
  Beta virt. eigenvalues --    2.85547   2.86405   2.87252   2.87822   2.89749
  Beta virt. eigenvalues --    2.90569   2.90732   2.92511   2.92566   2.93756
  Beta virt. eigenvalues --    2.94779   2.95266   2.95458   2.96314   3.00192
  Beta virt. eigenvalues --    3.01397   3.02138   3.03006   3.04499   3.05989
  Beta virt. eigenvalues --    3.07225   3.09010   3.09477   3.09756   3.10425
  Beta virt. eigenvalues --    3.11860   3.12982   3.13284   3.14442   3.15047
  Beta virt. eigenvalues --    3.15174   3.16674   3.17094   3.18641   3.19102
  Beta virt. eigenvalues --    3.19893   3.20005   3.20419   3.20840   3.21528
  Beta virt. eigenvalues --    3.21924   3.22824   3.23303   3.23776   3.24063
  Beta virt. eigenvalues --    3.25893   3.26023   3.26629   3.26726   3.28008
  Beta virt. eigenvalues --    3.28135   3.29993   3.30699   3.31296   3.31430
  Beta virt. eigenvalues --    3.32321   3.32947   3.33148   3.33589   3.34142
  Beta virt. eigenvalues --    3.35372   3.35949   3.36339   3.37736   3.38618
  Beta virt. eigenvalues --    3.38902   3.41166   3.42581   3.43318   3.43741
  Beta virt. eigenvalues --    3.45050   3.45442   3.46496   3.46524   3.46915
  Beta virt. eigenvalues --    3.48287   3.49333   3.49697   3.50332   3.50965
  Beta virt. eigenvalues --    3.51551   3.53010   3.53233   3.54912   3.54991
  Beta virt. eigenvalues --    3.56564   3.57413   3.57500   3.59621   3.64091
  Beta virt. eigenvalues --    3.64912   3.65372   3.65430   3.66338   3.67309
  Beta virt. eigenvalues --    3.68368   3.68652   3.71357   3.71875   3.73341
  Beta virt. eigenvalues --    3.75859   3.76200   3.77989   3.80113   3.81349
  Beta virt. eigenvalues --    3.84897   3.85545   3.85713   3.86356   3.86382
  Beta virt. eigenvalues --    3.88464   3.91162   3.91534   3.93837   3.94284
  Beta virt. eigenvalues --    3.96021   3.96852   4.00893   4.01114   4.03292
  Beta virt. eigenvalues --    4.05228   4.08112   4.08713   4.08920   4.10420
  Beta virt. eigenvalues --    4.11783   4.12926   4.14003   4.15150   4.18221
  Beta virt. eigenvalues --    4.18438   4.19808   4.20644   4.23162   4.24633
  Beta virt. eigenvalues --    4.24873   4.27448   4.30650   4.30939   4.34022
  Beta virt. eigenvalues --    4.34918   4.38130   4.38620   4.39034   4.42118
  Beta virt. eigenvalues --    4.42678   4.43837   4.46957   4.48524   4.50698
  Beta virt. eigenvalues --    4.52279   4.58862   4.60987   4.63107   4.66744
  Beta virt. eigenvalues --    4.67851   4.68911   4.72611   4.73571   4.76012
  Beta virt. eigenvalues --    4.76443   4.79171   4.79560   4.82516   4.84489
  Beta virt. eigenvalues --    4.85024   4.85551   4.90110   4.92796   4.93574
  Beta virt. eigenvalues --    4.94297   4.97111   4.99255   5.06401   5.07783
  Beta virt. eigenvalues --    5.13242   5.14024   5.18994   5.19276   5.22657
  Beta virt. eigenvalues --    5.23196   5.31518   5.32520   5.41007   5.41361
  Beta virt. eigenvalues --    5.43136   5.44420   5.49691   5.50175   5.68189
  Beta virt. eigenvalues --    5.70822   5.75816   5.78417   5.93810   6.01287
  Beta virt. eigenvalues --    7.93883   7.95396   8.01247   8.04633   8.05718
  Beta virt. eigenvalues --    8.07011   8.09937   8.11659   8.17931   8.18047
  Beta virt. eigenvalues --    8.34673   8.35901  34.76074  34.77621  34.80869
  Beta virt. eigenvalues --   34.81772  34.86017  34.87785  34.96617  34.98240
  Beta virt. eigenvalues --   35.00808  35.01802  35.15830  35.18761
          Condensed to atoms (all electrons):
               1          2          3          4          5          6
     1  C    5.121043   0.006780   0.424329  -0.001775   0.000626  -0.004138
     2  C    0.006780   5.284129  -0.002258   0.425062  -0.027340  -0.051298
     3  H    0.424329  -0.002258   0.498008   0.000035  -0.000046  -0.000007
     4  H   -0.001775   0.425062   0.000035   0.476777  -0.003035   0.003270
     5  C    0.000626  -0.027340  -0.000046  -0.003035   5.130784   0.534435
     6  C   -0.004138  -0.051298  -0.000007   0.003270   0.534435   5.284258
     7  H    0.000287  -0.001321   0.000001  -0.000095   0.424765  -0.028414
     8  H   -0.001185   0.003272  -0.000014   0.000013  -0.042364   0.425038
     9  C    0.001599  -0.001066  -0.000005  -0.001097  -0.066708   0.248840
    10  H   -0.000033   0.000018  -0.000001  -0.000089  -0.004337  -0.034065
    11  H    0.000105  -0.003176   0.000001   0.000079   0.007343  -0.054371
    12  C   -0.000130   0.008169   0.000002   0.001691   0.303188  -0.076781
    13  H   -0.000001   0.000008   0.000000   0.000014  -0.039450   0.005442
    14  C    0.000134  -0.004133  -0.000000  -0.001182  -0.060051   0.006755
    15  H   -0.000000  -0.000007  -0.000000  -0.000014   0.007657  -0.002256
    16  C   -0.000583   0.010172   0.000000   0.000328   0.000001  -0.069413
    17  H   -0.000055  -0.000804  -0.000001  -0.001166   0.010383  -0.000935
    18  H    0.000002   0.000544   0.000000   0.000159  -0.002484   0.011081
    19  C   -0.060014   0.534454   0.007660  -0.042406  -0.005556  -0.027344
    20  H    0.004013  -0.028289  -0.000112  -0.005416   0.000288  -0.001322
    21  C    0.599672  -0.076801  -0.033744   0.005619   0.000821   0.008178
    22  H   -0.028526   0.005449  -0.006558  -0.000076   0.000019   0.000008
    23  C   -0.087888   0.248820   0.005703  -0.015675   0.004869  -0.001077
    24  H    0.012729  -0.054352  -0.000131  -0.004076   0.001465  -0.003180
    25  H    0.005038  -0.034137  -0.000033  -0.000107   0.000456   0.000018
    26  C    0.288428  -0.069390  -0.031844   0.004081  -0.003670   0.010177
    27  H   -0.036069   0.011081  -0.004516  -0.000131   0.000311   0.000544
    28  H   -0.034353  -0.000946   0.001462  -0.000151  -0.003580  -0.000809
               7          8          9         10         11         12
     1  C    0.000287  -0.001185   0.001599  -0.000033   0.000105  -0.000130
     2  C   -0.001321   0.003272  -0.001066   0.000018  -0.003176   0.008169
     3  H    0.000001  -0.000014  -0.000005  -0.000001   0.000001   0.000002
     4  H   -0.000095   0.000013  -0.001097  -0.000089   0.000079   0.001691
     5  C    0.424765  -0.042364  -0.066708  -0.004337   0.007343   0.303188
     6  C   -0.028414   0.425038   0.248840  -0.034065  -0.054371  -0.076781
     7  H    0.484749  -0.005411   0.003642  -0.000306  -0.000060  -0.032200
     8  H   -0.005411   0.476493  -0.015647  -0.000104  -0.004075   0.005614
     9  C    0.003642  -0.015647   4.945585   0.380415   0.451955   0.035437
    10  H   -0.000306  -0.000104   0.380415   0.580478  -0.022275   0.001863
    11  H   -0.000060  -0.004075   0.451955  -0.022275   0.541784  -0.003735
    12  C   -0.032200   0.005614   0.035437   0.001863  -0.003735   4.991981
    13  H   -0.003555  -0.000076  -0.000579  -0.000049   0.000036   0.427297
    14  C    0.004013  -0.001772  -0.087876   0.005036   0.012731   0.599744
    15  H   -0.000112   0.000035   0.005702  -0.000033  -0.000131  -0.033702
    16  C   -0.000864   0.004076   0.367275  -0.023956  -0.052179  -0.062202
    17  H    0.000017  -0.000151  -0.034212   0.007528  -0.009085  -0.015688
    18  H    0.000038  -0.000131  -0.042123  -0.009194  -0.000886   0.005588
    19  C    0.000289  -0.003037   0.004850   0.000456   0.001463   0.000826
    20  H    0.000009  -0.000095   0.002138   0.000171  -0.000777  -0.000154
    21  C   -0.000155   0.001695  -0.000901   0.000005  -0.000133  -0.000219
    22  H   -0.000001   0.000014  -0.000056  -0.000001   0.000010   0.000000
    23  C    0.002135  -0.001095   0.000723  -0.000024   0.000136  -0.000901
    24  H   -0.000775   0.000079   0.000137  -0.000002  -0.000018  -0.000133
    25  H    0.000171  -0.000089  -0.000024   0.000002  -0.000002   0.000006
    26  C   -0.001600   0.000325  -0.000863   0.000074  -0.000106   0.000683
    27  H   -0.000024   0.000159  -0.000027   0.000001  -0.000002  -0.000047
    28  H    0.001681  -0.001172   0.000416  -0.000013   0.000017   0.000519
              13         14         15         16         17         18
     1  C   -0.000001   0.000134  -0.000000  -0.000583  -0.000055   0.000002
     2  C    0.000008  -0.004133  -0.000007   0.010172  -0.000804   0.000544
     3  H    0.000000  -0.000000  -0.000000   0.000000  -0.000001   0.000000
     4  H    0.000014  -0.001182  -0.000014   0.000328  -0.001166   0.000159
     5  C   -0.039450  -0.060051   0.007657   0.000001   0.010383  -0.002484
     6  C    0.005442   0.006755  -0.002256  -0.069413  -0.000935   0.011081
     7  H   -0.003555   0.004013  -0.000112  -0.000864   0.000017   0.000038
     8  H   -0.000076  -0.001772   0.000035   0.004076  -0.000151  -0.000131
     9  C   -0.000579  -0.087876   0.005702   0.367275  -0.034212  -0.042123
    10  H   -0.000049   0.005036  -0.000033  -0.023956   0.007528  -0.009194
    11  H    0.000036   0.012731  -0.000131  -0.052179  -0.009085  -0.000886
    12  C    0.427297   0.599744  -0.033702  -0.062202  -0.015688   0.005588
    13  H    0.495741  -0.028549  -0.006556   0.005233  -0.000415  -0.000137
    14  C   -0.028549   5.120877   0.424289   0.288455  -0.034359  -0.036076
    15  H   -0.006556   0.424289   0.498018  -0.031846   0.001463  -0.004517
    16  C    0.005233   0.288455  -0.031846   4.918238   0.397488   0.428892
    17  H   -0.000415  -0.034359   0.001463   0.397488   0.593122  -0.022815
    18  H   -0.000137  -0.036076  -0.004517   0.428892  -0.022815   0.546416
    19  C    0.000019   0.000624  -0.000046  -0.003664  -0.003588   0.000311
    20  H   -0.000001   0.000286   0.000001  -0.001602   0.001679  -0.000024
    21  C    0.000000  -0.000130   0.000002   0.000682   0.000519  -0.000047
    22  H    0.000000  -0.000001   0.000000   0.000014  -0.000002  -0.000001
    23  C   -0.000056   0.001597  -0.000005  -0.000862   0.000418  -0.000027
    24  H    0.000010   0.000105   0.000001  -0.000106   0.000017  -0.000002
    25  H   -0.000001  -0.000033  -0.000001   0.000074  -0.000013   0.000001
    26  C    0.000014  -0.000583   0.000000   0.000895   0.000103  -0.000003
    27  H   -0.000001   0.000002   0.000000  -0.000003   0.000002  -0.000000
    28  H   -0.000002  -0.000056  -0.000001   0.000103  -0.000025   0.000002
              19         20         21         22         23         24
     1  C   -0.060014   0.004013   0.599672  -0.028526  -0.087888   0.012729
     2  C    0.534454  -0.028289  -0.076801   0.005449   0.248820  -0.054352
     3  H    0.007660  -0.000112  -0.033744  -0.006558   0.005703  -0.000131
     4  H   -0.042406  -0.005416   0.005619  -0.000076  -0.015675  -0.004076
     5  C   -0.005556   0.000288   0.000821   0.000019   0.004869   0.001465
     6  C   -0.027344  -0.001322   0.008178   0.000008  -0.001077  -0.003180
     7  H    0.000289   0.000009  -0.000155  -0.000001   0.002135  -0.000775
     8  H   -0.003037  -0.000095   0.001695   0.000014  -0.001095   0.000079
     9  C    0.004850   0.002138  -0.000901  -0.000056   0.000723   0.000137
    10  H    0.000456   0.000171   0.000005  -0.000001  -0.000024  -0.000002
    11  H    0.001463  -0.000777  -0.000133   0.000010   0.000136  -0.000018
    12  C    0.000826  -0.000154  -0.000219   0.000000  -0.000901  -0.000133
    13  H    0.000019  -0.000001   0.000000   0.000000  -0.000056   0.000010
    14  C    0.000624   0.000286  -0.000130  -0.000001   0.001597   0.000105
    15  H   -0.000046   0.000001   0.000002   0.000000  -0.000005   0.000001
    16  C   -0.003664  -0.001602   0.000682   0.000014  -0.000862  -0.000106
    17  H   -0.003588   0.001679   0.000519  -0.000002   0.000418   0.000017
    18  H    0.000311  -0.000024  -0.000047  -0.000001  -0.000027  -0.000002
    19  C    5.130892   0.424700   0.303098  -0.039485  -0.066725   0.007345
    20  H    0.424700   0.484663  -0.032245  -0.003553   0.003642  -0.000060
    21  C    0.303098  -0.032245   4.991938   0.427292   0.035443  -0.003733
    22  H   -0.039485  -0.003553   0.427292   0.495776  -0.000579   0.000036
    23  C   -0.066725   0.003642   0.035443  -0.000579   4.945723   0.451956
    24  H    0.007345  -0.000060  -0.003733   0.000036   0.451956   0.541654
    25  H   -0.004308  -0.000306   0.001856  -0.000049   0.380466  -0.022255
    26  C   -0.000028  -0.000866  -0.062188   0.005236   0.367268  -0.052171
    27  H   -0.002482   0.000038   0.005577  -0.000137  -0.042137  -0.000886
    28  H    0.010385   0.000017  -0.015671  -0.000414  -0.034200  -0.009081
              25         26         27         28
     1  C    0.005038   0.288428  -0.036069  -0.034353
     2  C   -0.034137  -0.069390   0.011081  -0.000946
     3  H   -0.000033  -0.031844  -0.004516   0.001462
     4  H   -0.000107   0.004081  -0.000131  -0.000151
     5  C    0.000456  -0.003670   0.000311  -0.003580
     6  C    0.000018   0.010177   0.000544  -0.000809
     7  H    0.000171  -0.001600  -0.000024   0.001681
     8  H   -0.000089   0.000325   0.000159  -0.001172
     9  C   -0.000024  -0.000863  -0.000027   0.000416
    10  H    0.000002   0.000074   0.000001  -0.000013
    11  H   -0.000002  -0.000106  -0.000002   0.000017
    12  C    0.000006   0.000683  -0.000047   0.000519
    13  H   -0.000001   0.000014  -0.000001  -0.000002
    14  C   -0.000033  -0.000583   0.000002  -0.000056
    15  H   -0.000001   0.000000   0.000000  -0.000001
    16  C    0.000074   0.000895  -0.000003   0.000103
    17  H   -0.000013   0.000103   0.000002  -0.000025
    18  H    0.000001  -0.000003  -0.000000   0.000002
    19  C   -0.004308  -0.000028  -0.002482   0.010385
    20  H   -0.000306  -0.000866   0.000038   0.000017
    21  C    0.001856  -0.062188   0.005577  -0.015671
    22  H   -0.000049   0.005236  -0.000137  -0.000414
    23  C    0.380466   0.367268  -0.042137  -0.034200
    24  H   -0.022255  -0.052171  -0.000886  -0.009081
    25  H    0.580521  -0.023985  -0.009197   0.007528
    26  C   -0.023985   4.918253   0.428901   0.397484
    27  H   -0.009197   0.428901   0.546410  -0.022813
    28  H    0.007528   0.397484  -0.022813   0.593078
          Atomic-Atomic Spin Densities.
               1          2          3          4          5          6
     1  C    0.000000   0.000000   0.000000  -0.000000  -0.000000  -0.000000
     2  C    0.000000  -0.000000  -0.000000  -0.000000   0.000000   0.000000
     3  H    0.000000  -0.000000  -0.000000   0.000000   0.000000  -0.000000
     4  H   -0.000000  -0.000000   0.000000   0.000000  -0.000000   0.000000
     5  C   -0.000000   0.000000   0.000000  -0.000000   0.000000  -0.000000
     6  C   -0.000000   0.000000  -0.000000   0.000000  -0.000000   0.000000
     7  H    0.000000  -0.000000  -0.000000   0.000000   0.000000   0.000000
     8  H   -0.000000   0.000000   0.000000   0.000000  -0.000000   0.000000
     9  C    0.000000  -0.000000   0.000000   0.000000  -0.000000  -0.000000
    10  H   -0.000000   0.000000   0.000000  -0.000000   0.000000   0.000000
    11  H   -0.000000   0.000000  -0.000000  -0.000000  -0.000000   0.000000
    12  C    0.000000  -0.000000  -0.000000   0.000000   0.000000   0.000000
    13  H   -0.000000  -0.000000  -0.000000  -0.000000  -0.000000   0.000000
    14  C   -0.000000   0.000000   0.000000   0.000000  -0.000000  -0.000000
    15  H   -0.000000   0.000000   0.000000  -0.000000  -0.000000   0.000000
    16  C    0.000000  -0.000000  -0.000000  -0.000000   0.000000   0.000000
    17  H   -0.000000   0.000000   0.000000  -0.000000  -0.000000   0.000000
    18  H    0.000000  -0.000000  -0.000000  -0.000000  -0.000000   0.000000
    19  C   -0.000000   0.000000  -0.000000   0.000000   0.000000  -0.000000
    20  H   -0.000000  -0.000000  -0.000000  -0.000000   0.000000   0.000000
    21  C   -0.000000   0.000000  -0.000000   0.000000  -0.000000   0.000000
    22  H    0.000000  -0.000000   0.000000   0.000000  -0.000000   0.000000
    23  C   -0.000000   0.000000  -0.000000   0.000000   0.000000   0.000000
    24  H    0.000000   0.000000   0.000000  -0.000000  -0.000000  -0.000000
    25  H    0.000000  -0.000000  -0.000000  -0.000000   0.000000  -0.000000
    26  C   -0.000000  -0.000000   0.000000   0.000000  -0.000000   0.000000
    27  H   -0.000000  -0.000000   0.000000  -0.000000  -0.000000   0.000000
    28  H    0.000000  -0.000000  -0.000000  -0.000000   0.000000  -0.000000
               7          8          9         10         11         12
     1  C    0.000000  -0.000000   0.000000  -0.000000  -0.000000   0.000000
     2  C   -0.000000   0.000000  -0.000000   0.000000   0.000000  -0.000000
     3  H   -0.000000   0.000000   0.000000   0.000000  -0.000000  -0.000000
     4  H    0.000000   0.000000   0.000000  -0.000000  -0.000000   0.000000
     5  C    0.000000  -0.000000  -0.000000   0.000000  -0.000000   0.000000
     6  C    0.000000   0.000000  -0.000000   0.000000   0.000000   0.000000
     7  H   -0.000000   0.000000  -0.000000   0.000000   0.000000   0.000000
     8  H    0.000000  -0.000000  -0.000000   0.000000  -0.000000  -0.000000
     9  C   -0.000000  -0.000000   0.000001   0.000000  -0.000000   0.000000
    10  H    0.000000   0.000000   0.000000  -0.000000   0.000000   0.000000
    11  H    0.000000  -0.000000  -0.000000   0.000000  -0.000000   0.000000
    12  C    0.000000  -0.000000   0.000000   0.000000   0.000000  -0.000000
    13  H   -0.000000  -0.000000  -0.000000   0.000000   0.000000   0.000000
    14  C   -0.000000   0.000000  -0.000000  -0.000000  -0.000000   0.000000
    15  H    0.000000  -0.000000   0.000000   0.000000   0.000000   0.000000
    16  C    0.000000  -0.000000  -0.000000   0.000000   0.000000  -0.000000
    17  H    0.000000   0.000000  -0.000000  -0.000000   0.000000  -0.000000
    18  H   -0.000000   0.000000  -0.000000   0.000000   0.000000   0.000000
    19  C   -0.000000   0.000000  -0.000000  -0.000000   0.000000   0.000000
    20  H   -0.000000  -0.000000  -0.000000   0.000000  -0.000000  -0.000000
    21  C    0.000000  -0.000000   0.000000  -0.000000  -0.000000   0.000000
    22  H    0.000000   0.000000   0.000000  -0.000000  -0.000000  -0.000000
    23  C    0.000000  -0.000000   0.000000   0.000000  -0.000000  -0.000000
    24  H    0.000000   0.000000   0.000000  -0.000000   0.000000   0.000000
    25  H   -0.000000   0.000000  -0.000000   0.000000   0.000000  -0.000000
    26  C    0.000000   0.000000  -0.000000  -0.000000   0.000000   0.000000
    27  H    0.000000   0.000000   0.000000  -0.000000  -0.000000   0.000000
    28  H   -0.000000   0.000000  -0.000000   0.000000   0.000000  -0.000000
              13         14         15         16         17         18
     1  C   -0.000000  -0.000000  -0.000000   0.000000  -0.000000   0.000000
     2  C   -0.000000   0.000000   0.000000  -0.000000   0.000000  -0.000000
     3  H   -0.000000   0.000000   0.000000  -0.000000   0.000000  -0.000000
     4  H   -0.000000   0.000000  -0.000000  -0.000000  -0.000000  -0.000000
     5  C   -0.000000  -0.000000  -0.000000   0.000000  -0.000000  -0.000000
     6  C    0.000000  -0.000000   0.000000   0.000000   0.000000   0.000000
     7  H   -0.000000  -0.000000   0.000000   0.000000   0.000000  -0.000000
     8  H   -0.000000   0.000000  -0.000000  -0.000000   0.000000   0.000000
     9  C   -0.000000  -0.000000   0.000000  -0.000000  -0.000000  -0.000000
    10  H    0.000000  -0.000000   0.000000   0.000000  -0.000000   0.000000
    11  H    0.000000  -0.000000   0.000000   0.000000   0.000000   0.000000
    12  C    0.000000   0.000000   0.000000  -0.000000  -0.000000   0.000000
    13  H    0.000000  -0.000000  -0.000000   0.000000   0.000000  -0.000000
    14  C   -0.000000  -0.000000  -0.000000   0.000000  -0.000000   0.000000
    15  H   -0.000000  -0.000000   0.000000  -0.000000  -0.000000  -0.000000
    16  C    0.000000   0.000000  -0.000000  -0.000000   0.000000   0.000000
    17  H    0.000000  -0.000000  -0.000000   0.000000   0.000000  -0.000000
    18  H   -0.000000   0.000000  -0.000000   0.000000  -0.000000   0.000000
    19  C    0.000000   0.000000  -0.000000   0.000000  -0.000000   0.000000
    20  H   -0.000000  -0.000000   0.000000   0.000000   0.000000  -0.000000
    21  C    0.000000  -0.000000   0.000000  -0.000000   0.000000  -0.000000
    22  H    0.000000   0.000000   0.000000  -0.000000   0.000000  -0.000000
    23  C   -0.000000  -0.000000  -0.000000   0.000000   0.000000  -0.000000
    24  H    0.000000   0.000000   0.000000  -0.000000  -0.000000   0.000000
    25  H    0.000000   0.000000  -0.000000   0.000000  -0.000000   0.000000
    26  C    0.000000  -0.000000   0.000000   0.000000  -0.000000  -0.000000
    27  H    0.000000  -0.000000   0.000000   0.000000  -0.000000  -0.000000
    28  H   -0.000000   0.000000  -0.000000   0.000000  -0.000000   0.000000
              19         20         21         22         23         24
     1  C   -0.000000  -0.000000  -0.000000   0.000000  -0.000000   0.000000
     2  C    0.000000  -0.000000   0.000000  -0.000000   0.000000   0.000000
     3  H   -0.000000  -0.000000  -0.000000   0.000000  -0.000000   0.000000
     4  H    0.000000  -0.000000   0.000000   0.000000   0.000000  -0.000000
[...]
     1  C    0.000000  -0.000000  -0.000000   0.000000
     2  C   -0.000000  -0.000000  -0.000000  -0.000000
     3  H   -0.000000   0.000000   0.000000  -0.000000
     4  H   -0.000000   0.000000  -0.000000  -0.000000
     5  C    0.000000  -0.000000  -0.000000   0.000000
     6  C   -0.000000   0.000000   0.000000  -0.000000
     7  H   -0.000000   0.000000   0.000000  -0.000000
     8  H    0.000000   0.000000   0.000000   0.000000
     9  C   -0.000000  -0.000000   0.000000  -0.000000
    10  H    0.000000  -0.000000  -0.000000   0.000000
    11  H    0.000000   0.000000  -0.000000   0.000000
    12  C   -0.000000   0.000000   0.000000  -0.000000
    13  H    0.000000   0.000000   0.000000  -0.000000
    14  C    0.000000  -0.000000  -0.000000   0.000000
    15  H   -0.000000   0.000000   0.000000  -0.000000
    16  C    0.000000   0.000000   0.000000   0.000000
    17  H   -0.000000  -0.000000  -0.000000  -0.000000
    18  H    0.000000  -0.000000  -0.000000   0.000000
    19  C   -0.000000  -0.000000  -0.000000   0.000000
    20  H   -0.000000  -0.000000   0.000000  -0.000000
    21  C   -0.000000   0.000000  -0.000000   0.000000
    22  H   -0.000000  -0.000000   0.000000  -0.000000
    23  C   -0.000000   0.000000   0.000000   0.000000
    24  H   -0.000000  -0.000000  -0.000000  -0.000000
    25  H    0.000000  -0.000000  -0.000000   0.000000
    26  C   -0.000000   0.000000  -0.000000  -0.000000
    27  H   -0.000000  -0.000000  -0.000000   0.000000
    28  H    0.000000  -0.000000   0.000000  -0.000000
 Mulliken charges and spin densities:
               1          2
     1  C   -0.210036   0.000000
     2  C   -0.182641  -0.000000
     3  H    0.142069  -0.000000
     4  H    0.159363   0.000000
     5  C   -0.168791   0.000000
     6  C   -0.182636  -0.000000
     7  H    0.153096  -0.000000
     8  H    0.159606  -0.000000
     9  C   -0.197531   0.000000
    10  H    0.118434  -0.000000
    11  H    0.135351  -0.000000
    12  C   -0.156715  -0.000000
    13  H    0.145612   0.000000
    14  C   -0.209847  -0.000000
    15  H    0.142060   0.000000
    16  C   -0.174644  -0.000000
    17  H    0.110576   0.000000
    18  H    0.125433   0.000000
    19  C   -0.168687   0.000000
    20  H    0.153174   0.000000
    21  C   -0.156430  -0.000000
    22  H    0.145584  -0.000000
    23  C   -0.197646  -0.000000
    24  H    0.135429   0.000000
    25  H    0.118403   0.000000
    26  C   -0.174626   0.000000
    27  H    0.125444  -0.000000
    28  H    0.110595  -0.000000
 Sum of Mulliken charges =  -0.00000  -0.00000
 Mulliken charges and spin densities with hydrogens summed into heavy atoms:
               1          2
     1  C   -0.067967   0.000000
     2  C   -0.023278  -0.000000
     5  C   -0.015695   0.000000
     6  C   -0.023030  -0.000000
     9  C    0.056254   0.000000
    12  C   -0.011104   0.000000
    14  C   -0.067787  -0.000000
    16  C    0.061365  -0.000000
    19  C   -0.015513   0.000000
    21  C   -0.010846  -0.000000
    23  C    0.056185  -0.000000
    26  C    0.061413   0.000000
 Electronic spatial extent (au):  <R**2>=           2312.9922
 Charge=              0.0000 electrons
 Dipole moment (field-independent basis, Debye):
    X=             -0.0005    Y=              0.0004    Z=              0.0007  Tot=              0.0009
 Quadrupole moment (field-independent basis, Debye-Ang):
   XX=            -72.4873   YY=            -69.7972   ZZ=            -76.8080
   XY=             -3.2872   XZ=             -3.8336   YZ=             -1.7326
 Traceless Quadrupole moment (field-independent basis, Debye-Ang):
   XX=              0.5435   YY=              3.2337   ZZ=             -3.7772
   XY=             -3.2872   XZ=             -3.8336   YZ=             -1.7326
 Octapole moment (field-independent basis, Debye-Ang**2):
  XXX=             -0.0092  YYY=              0.0038  ZZZ=              0.0034  XYY=              0.0020
  XXY=              0.0022  XXZ=              0.0034  XZZ=              0.0003  YZZ=             -0.0003
  YYZ=             -0.0005  XYZ=             -0.0008
 Hexadecapole moment (field-independent basis, Debye-Ang**3):
 XXXX=          -2108.3785 YYYY=           -629.8274 ZZZZ=           -426.8023 XXXY=           -116.7185
 XXXZ=           -159.4267 YYYX=            -67.6009 YYYZ=             -7.3585 ZZZX=           -104.2281
 ZZZY=            -19.7485 XXYY=           -452.6020 XXZZ=           -442.9394 YYZZ=           -191.2869
 XXYZ=            -25.2647 YYXZ=            -37.6554 ZZXY=            -46.9336
 N-N= 6.742817074724D+02 E-N=-2.430313226427D+03  KE= 4.641649374480D+02
                          Isotropic Fermi Contact Couplings
        Atom                 a.u.       MegaHertz       Gauss      10(-4) cm-1
     1  C(13)              0.00000       0.00003       0.00001       0.00001
     2  C(13)             -0.00000      -0.00000      -0.00000      -0.00000
     3  H(1)              -0.00000      -0.00002      -0.00001      -0.00001
     4  H(1)               0.00000       0.00000       0.00000       0.00000
     5  C(13)              0.00000       0.00004       0.00001       0.00001
     6  C(13)             -0.00000      -0.00002      -0.00001      -0.00001
     7  H(1)              -0.00000      -0.00007      -0.00002      -0.00002
     8  H(1)               0.00000       0.00001       0.00000       0.00000
     9  C(13)              0.00000       0.00012       0.00004       0.00004
    10  H(1)              -0.00000      -0.00006      -0.00002      -0.00002
    11  H(1)              -0.00000      -0.00008      -0.00003      -0.00003
    12  C(13)             -0.00000      -0.00003      -0.00001      -0.00001
    13  H(1)               0.00000       0.00005       0.00002       0.00002
    14  C(13)             -0.00000      -0.00001      -0.00000      -0.00000
    15  H(1)               0.00000       0.00000       0.00000       0.00000
    16  C(13)             -0.00000      -0.00007      -0.00003      -0.00002
    17  H(1)               0.00000       0.00002       0.00001       0.00001
    18  H(1)               0.00000       0.00001       0.00000       0.00000
    19  C(13)             -0.00000      -0.00002      -0.00001      -0.00001
    20  H(1)               0.00000       0.00006       0.00002       0.00002
    21  C(13)              0.00000       0.00001       0.00000       0.00000
    22  H(1)              -0.00000      -0.00004      -0.00002      -0.00001
    23  C(13)             -0.00000      -0.00011      -0.00004      -0.00004
    24  H(1)               0.00000       0.00008       0.00003       0.00003
    25  H(1)               0.00000       0.00005       0.00002       0.00002
    26  C(13)              0.00000       0.00006       0.00002       0.00002
    27  H(1)              -0.00000      -0.00001      -0.00000      -0.00000
    28  H(1)              -0.00000      -0.00000      -0.00000      -0.00000
 --------------------------------------------------------
       Center         ----  Spin Dipole Couplings  ----
                      3XX-RR        3YY-RR        3ZZ-RR
 --------------------------------------------------------
     1   Atom        0.000000     -0.000000      0.000000
     2   Atom       -0.000000      0.000000     -0.000000
     3   Atom        0.000000     -0.000000      0.000000
     4   Atom       -0.000000      0.000000     -0.000000
     5   Atom        0.000000      0.000000     -0.000000
     6   Atom        0.000000     -0.000000     -0.000000
     7   Atom       -0.000000      0.000000     -0.000000
     8   Atom       -0.000000     -0.000000      0.000000
     9   Atom        0.000000     -0.000000      0.000000
    10   Atom       -0.000000     -0.000000      0.000000
    11   Atom       -0.000000      0.000000     -0.000000
    12   Atom       -0.000000     -0.000000      0.000000
    13   Atom        0.000000     -0.000000      0.000000
    14   Atom       -0.000000      0.000000      0.000000
    15   Atom        0.000000      0.000000     -0.000000
    16   Atom       -0.000000      0.000000     -0.000000
    17   Atom        0.000000      0.000000     -0.000000
    18   Atom       -0.000000     -0.000000      0.000000
    19   Atom       -0.000000     -0.000000      0.000000
    20   Atom        0.000000     -0.000000      0.000000
    21   Atom        0.000000      0.000000     -0.000000
    22   Atom        0.000000      0.000000     -0.000000
    23   Atom       -0.000000      0.000000     -0.000000
    24   Atom        0.000000     -0.000000      0.000000
    25   Atom        0.000000      0.000000     -0.000000
    26   Atom        0.000000     -0.000000      0.000000
    27   Atom        0.000000      0.000000     -0.000000
    28   Atom       -0.000000     -0.000000      0.000000
 --------------------------------------------------------
                        XY            XZ            YZ
 --------------------------------------------------------
     1   Atom       -0.000000      0.000000     -0.000000
     2   Atom       -0.000000     -0.000000     -0.000000
     3   Atom        0.000000     -0.000000     -0.000000
     4   Atom        0.000000      0.000000     -0.000000
     5   Atom       -0.000000      0.000000      0.000000
     6   Atom        0.000000      0.000000     -0.000000
     7   Atom       -0.000000     -0.000000      0.000000
     8   Atom       -0.000000     -0.000000      0.000000
     9   Atom        0.000000     -0.000000     -0.000000
    10   Atom       -0.000000      0.000000     -0.000000
    11   Atom        0.000000      0.000000      0.000000
    12   Atom        0.000000     -0.000000      0.000000
    13   Atom       -0.000000      0.000000      0.000000
    14   Atom        0.000000     -0.000000      0.000000
    15   Atom        0.000000      0.000000      0.000000
    16   Atom        0.000000      0.000000      0.000000
    17   Atom       -0.000000     -0.000000     -0.000000
    18   Atom        0.000000     -0.000000      0.000000
    19   Atom        0.000000      0.000000      0.000000
    20   Atom        0.000000      0.000000     -0.000000
    21   Atom       -0.000000     -0.000000     -0.000000
    22   Atom       -0.000000     -0.000000     -0.000000
    23   Atom       -0.000000      0.000000     -0.000000
    24   Atom       -0.000000     -0.000000     -0.000000
    25   Atom        0.000000     -0.000000      0.000000
    26   Atom       -0.000000     -0.000000     -0.000000
    27   Atom       -0.000000      0.000000     -0.000000
    28   Atom        0.000000      0.000000      0.000000
 --------------------------------------------------------


 ---------------------------------------------------------------------------------
              Anisotropic Spin Dipole Couplings in Principal Axis System
 ---------------------------------------------------------------------------------

       Atom             a.u.   MegaHertz   Gauss  10(-4) cm-1        Axes

              Baa    -0.0000    -0.000    -0.000    -0.000 -0.4944  0.5761  0.6509
     1 C(13)  Bbb    -0.0000    -0.000    -0.000    -0.000  0.4884  0.8035 -0.3403
              Bcc     0.0000     0.000     0.000     0.000  0.7191 -0.1496  0.6786
 
              Baa    -0.0000    -0.000    -0.000    -0.000  0.6797  0.2052  0.7042
     2 C(13)  Bbb     0.0000     0.000     0.000     0.000 -0.4819 -0.5988  0.6397
              Bcc     0.0000     0.000     0.000     0.000 -0.5529  0.7741  0.3082
 
              Baa    -0.0000    -0.000    -0.000    -0.000  0.0253  0.9804  0.1956
     3 H(1)   Bbb    -0.0000    -0.000    -0.000    -0.000  0.8768 -0.1158  0.4668
              Bcc     0.0000     0.000     0.000     0.000 -0.4802 -0.1597  0.8625
 
              Baa    -0.0000    -0.000    -0.000    -0.000 -0.5512  0.0943  0.8290
     4 H(1)   Bbb     0.0000     0.000     0.000     0.000  0.8286  0.1787  0.5306
              Bcc     0.0000     0.000     0.000     0.000 -0.0981  0.9794 -0.1766
 
              Baa    -0.0000    -0.000    -0.000    -0.000 -0.2150 -0.1564  0.9640
     5 C(13)  Bbb     0.0000     0.000     0.000     0.000  0.3337  0.9159  0.2230
              Bcc     0.0000     0.000     0.000     0.000  0.9178 -0.3696  0.1448
 
              Baa    -0.0000    -0.000    -0.000    -0.000 -0.3214  0.3244  0.8897
     6 C(13)  Bbb    -0.0000    -0.000    -0.000    -0.000 -0.1584  0.9078 -0.3883
              Bcc     0.0000     0.000     0.000     0.000  0.9336  0.2657  0.2403
 
              Baa    -0.0000    -0.000    -0.000    -0.000 -0.0118 -0.2775  0.9607
     7 H(1)   Bbb    -0.0000    -0.000    -0.000    -0.000  0.8642  0.4805  0.1494
              Bcc     0.0000     0.000     0.000     0.000 -0.5031  0.8319  0.2341
 
              Baa    -0.0000    -0.000    -0.000    -0.000  0.9426  0.2000  0.2675
     8 H(1)   Bbb    -0.0000    -0.000    -0.000    -0.000 -0.1125  0.9442 -0.3097
              Bcc     0.0000     0.000     0.000     0.000 -0.3145  0.2618  0.9124
 
              Baa    -0.0000    -0.000    -0.000    -0.000 -0.4434  0.8929 -0.0779
     9 C(13)  Bbb     0.0000     0.000     0.000     0.000  0.2731  0.2174  0.9371
              Bcc     0.0000     0.000     0.000     0.000  0.8537  0.3943 -0.3403
 
              Baa    -0.0000    -0.000    -0.000    -0.000  0.7067 -0.5525 -0.4419
    10 H(1)   Bbb    -0.0000    -0.000    -0.000    -0.000  0.5363  0.8258 -0.1746
              Bcc     0.0000     0.000     0.000     0.000  0.4614 -0.1137  0.8799
 
              Baa    -0.0000    -0.000    -0.000    -0.000  0.7619 -0.5956  0.2545
    11 H(1)   Bbb    -0.0000    -0.000    -0.000    -0.000 -0.2834  0.0467  0.9579
              Bcc     0.0000     0.000     0.000     0.000  0.5824  0.8019  0.1332
 
              Baa    -0.0000    -0.000    -0.000    -0.000  0.9334 -0.2682  0.2383
    12 C(13)  Bbb    -0.0000    -0.000    -0.000    -0.000  0.3040  0.9440 -0.1283
              Bcc     0.0000     0.000     0.000     0.000 -0.1905  0.1922  0.9627
 
              Baa    -0.0000    -0.000    -0.000    -0.000  0.2285  0.9169 -0.3271
    13 H(1)   Bbb     0.0000     0.000     0.000     0.000  0.9690 -0.1818  0.1673
              Bcc     0.0000     0.000     0.000     0.000 -0.0939  0.3552  0.9301
 
              Baa    -0.0000    -0.000    -0.000    -0.000  0.8822 -0.2631  0.3904
    14 C(13)  Bbb     0.0000     0.000     0.000     0.000  0.3579  0.9136 -0.1932
              Bcc     0.0000     0.000     0.000     0.000 -0.3058  0.3101  0.9002
 
              Baa    -0.0000    -0.000    -0.000    -0.000 -0.2903 -0.1961  0.9366
    15 H(1)   Bbb     0.0000     0.000     0.000     0.000 -0.2830  0.9526  0.1117
              Bcc     0.0000     0.000     0.000     0.000  0.9141  0.2326  0.3320
 
              Baa    -0.0000    -0.000    -0.000    -0.000  0.7320 -0.0124 -0.6812
    16 C(13)  Bbb     0.0000     0.000     0.000     0.000  0.6691 -0.1751  0.7222
              Bcc     0.0000     0.000     0.000     0.000  0.1282  0.9845  0.1198
 
              Baa    -0.0000    -0.000    -0.000    -0.000  0.4487  0.3003  0.8417
    17 H(1)   Bbb     0.0000     0.000     0.000     0.000  0.8928 -0.1932 -0.4070
              Bcc     0.0000     0.000     0.000     0.000  0.0403  0.9341 -0.3548
 
              Baa    -0.0000    -0.000    -0.000    -0.000 -0.6672  0.6993 -0.2565
    18 H(1)   Bbb     0.0000     0.000     0.000     0.000 -0.4667 -0.1241  0.8757
              Bcc     0.0000     0.000     0.000     0.000  0.5805  0.7040  0.4092
 
              Baa    -0.0000    -0.000    -0.000    -0.000 -0.4635  0.8852  0.0384
    19 C(13)  Bbb    -0.0000    -0.000    -0.000    -0.000  0.8696  0.4628 -0.1720
              Bcc     0.0000     0.000     0.000     0.000  0.1700  0.0463  0.9844
 
              Baa    -0.0000    -0.000    -0.000    -0.000 -0.3958  0.8906  0.2240
    20 H(1)   Bbb     0.0000     0.000     0.000     0.000  0.7920  0.4545 -0.4076
              Bcc     0.0000     0.000     0.000     0.000  0.4648 -0.0161  0.8853
 
              Baa    -0.0000    -0.000    -0.000    -0.000  0.1657  0.0852  0.9825
    21 C(13)  Bbb     0.0000     0.000     0.000     0.000  0.9833  0.0611 -0.1712
              Bcc     0.0000     0.000     0.000     0.000 -0.0746  0.9945 -0.0736
 
              Baa    -0.0000    -0.000    -0.000    -0.000  0.3967  0.2781  0.8748
    22 H(1)   Bbb     0.0000     0.000     0.000     0.000  0.8513  0.2451 -0.4640
              Bcc     0.0000     0.000     0.000     0.000 -0.3434  0.9288 -0.1395
 
              Baa    -0.0000    -0.000    -0.000    -0.000  0.8716  0.3978 -0.2865
    23 C(13)  Bbb    -0.0000    -0.000    -0.000    -0.000  0.2335  0.1770  0.9561
              Bcc     0.0000     0.000     0.000     0.000 -0.4310  0.9003 -0.0614
 
              Baa    -0.0000    -0.000    -0.000    -0.000  0.5423  0.8295  0.1335
    24 H(1)   Bbb     0.0000     0.000     0.000     0.000 -0.4293  0.1370  0.8927
              Bcc     0.0000     0.000     0.000     0.000  0.7222 -0.5414  0.4304
 
              Baa    -0.0000    -0.000    -0.000    -0.000  0.4900 -0.1378  0.8607
    25 H(1)   Bbb     0.0000     0.000     0.000     0.000 -0.4075  0.8367  0.3660
              Bcc     0.0000     0.000     0.000     0.000  0.7706  0.5301 -0.3538
 
              Baa    -0.0000    -0.000    -0.000    -0.000  0.1111  0.9873  0.1136
    26 C(13)  Bbb    -0.0000    -0.000    -0.000    -0.000  0.6698 -0.1588  0.7254
              Bcc     0.0000     0.000     0.000     0.000  0.7342 -0.0045 -0.6789
 
              Baa    -0.0000    -0.000    -0.000    -0.000  0.3898  0.5700  0.7233
    27 H(1)   Bbb    -0.0000    -0.000    -0.000    -0.000  0.7035  0.3224 -0.6333
              Bcc     0.0000     0.000     0.000     0.000 -0.5942  0.7557 -0.2753
 
              Baa    -0.0000    -0.000    -0.000    -0.000 -0.6921  0.7164  0.0878
    28 H(1)   Bbb    -0.0000    -0.000    -0.000    -0.000 -0.5313 -0.5880  0.6099
              Bcc     0.0000     0.000     0.000     0.000  0.4886  0.3755  0.7876
 

 ---------------------------------------------------------------------------------

 No NMR shielding tensors so no spin-rotation constants.
 Leave Link  601 at Mon Aug  3 14:33:06 2020, MaxMem=  6442450944 cpu:               7.9 elap:               0.4
 (Enter /scratch/scicomp/CentOS/7.3.1611/Haswell/software/Gaussian/g16/l9999.exe)
 1\1\GINC-ATLAS-205\SP\UwB97XD\def2TZVP\C12H16\BOCHEN\03-Aug-2020\0\\#p
  uwb97xd guess=mix def2tzvp # scrf=(iefpcm,solvent=Cyclohexane,read) n
 osym 6d 10f\\endo-2 xp-pcm for eta=3\\0,1\C,0,-3.126543,-0.441233,0.26
 819\C,0,-0.754024,-0.256533,-1.270411\H,0,-4.062711,-0.529769,0.807219
 \H,0,0.190409,-0.176659,-1.794641\C,0,1.183128,1.429264,0.813376\C,0,0
 .754024,0.256533,1.270411\H,0,0.59129,2.326044,0.95317\H,0,-0.190409,0
 .176659,1.794641\C,0,1.584536,-0.987345,1.138633\H,0,2.135575,-1.11903
 7,2.078702\H,0,0.936296,-1.859379,1.043739\C,0,2.46452,1.53174,0.11405
 5\H,0,2.863784,2.5164,-0.09795\C,0,3.126543,0.441233,-0.26819\H,0,4.06
 2711,0.529769,-0.807219\C,0,2.569963,-0.936686,-0.033648\H,0,2.075826,
 -1.26812,-0.9552\H,0,3.381182,-1.64698,0.137036\C,0,-1.183128,-1.42926
 4,-0.813376\H,0,-0.59129,-2.326044,-0.95317\C,0,-2.46452,-1.53174,-0.1
 14055\H,0,-2.863784,-2.5164,0.09795\C,0,-1.584536,0.987345,-1.138633\H
 ,0,-0.936296,1.859379,-1.043739\H,0,-2.135575,1.119037,-2.078702\C,0,-
 2.569963,0.936686,0.033648\H,0,-3.381182,1.64698,-0.137036\H,0,-2.0758
 26,1.26812,0.9552\\Version=ES64L-G16RevB.01\HF=-466.8580993\S2=0.\S2-1
 =0.\S2A=0.\RMSD=3.255e-09\Dipole=-0.0001842,0.0001382,0.0002598\Quadru
 pole=0.4041008,2.4041438,-2.8082446,-2.4439395,-2.8502135,-1.2881585\P
 G=CI [X(C12H16)]\\@


 ONE THORN OF EXPERIENCE IS WORTH A WHOLE WILDERNESS OF
 WARNING....  LOWELL - AMONG MY BOOKS
 Job cpu time:       0 days  2 hours  4 minutes 52.7 seconds.
 Elapsed time:       0 days  0 hours  5 minutes 15.3 seconds.
 File lengths (MBytes):  RWF=    632 Int=      0 D2E=      0 Chk=     23 Scr=      1
 Normal termination of Gaussian 16 at Mon Aug  3 14:33:06 2020.
