 Entering Gaussian System, Link 0=g16
 Input=meso-TS_22_2_pcm.com
 Output=meso-TS_22_2_pcm.log
 Initial command:
 /scratch/scicomp/CentOS/7.3.1611/Haswell/software/Gaussian/g16/l1.exe "/scratch/bochen/cyclohexadiene-dimerization/wb97xd-def2tzvp/xp-pcm/meso/Gau-38446.inp" -scrdir="/scratch/bochen/cyclohexadiene-dimerization/wb97xd-def2tzvp/xp-pcm/meso/"
 Entering Link 1 = /scratch/scicomp/CentOS/7.3.1611/Haswell/software/Gaussian/g16/l1.exe PID=     38447.
  
 Copyright (c) 1988-2017, Gaussian, Inc.  All Rights Reserved.
  
 This is part of the Gaussian(R) 16 program.  It is based on
 the Gaussian(R) 09 system (copyright 2009, Gaussian, Inc.),
 the Gaussian(R) 03 system (copyright 2003, Gaussian, Inc.),
 the Gaussian(R) 98 system (copyright 1998, Gaussian, Inc.),
 the Gaussian(R) 94 system (copyright 1995, Gaussian, Inc.),
 the Gaussian 92(TM) system (copyright 1992, Gaussian, Inc.),
 the Gaussian 90(TM) system (copyright 1990, Gaussian, Inc.),
 the Gaussian 88(TM) system (copyright 1988, Gaussian, Inc.),
 the Gaussian 86(TM) system (copyright 1986, Carnegie Mellon
 University), and the Gaussian 82(TM) system (copyright 1983,
 Carnegie Mellon University). Gaussian is a federally registered
 trademark of Gaussian, Inc.
  
 This software contains proprietary and confidential information,
 including trade secrets, belonging to Gaussian, Inc.
  
 This software is provided under written license and may be
 used, copied, transmitted, or stored only in accord with that
 written license.
  
 The following legend is applicable only to US Government
 contracts under FAR:
  
                    RESTRICTED RIGHTS LEGEND
  
 Use, reproduction and disclosure by the US Government is
 subject to restrictions as set forth in subparagraphs (a)
 and (c) of the Commercial Computer Software - Restricted
 Rights clause in FAR 52.227-19.
  
 Gaussian, Inc.
 340 Quinnipiac St., Bldg. 40, Wallingford CT 06492
  
  
 ---------------------------------------------------------------
 Warning -- This program may not be used in any manner that
 competes with the business of Gaussian, Inc. or will provide
 assistance to any competitor of Gaussian, Inc.  The licensee
 of this program is prohibited from giving any competitor of
 Gaussian, Inc. access to this program.  By using this program,
 the user acknowledges that Gaussian, Inc. is engaged in the
 business of creating and licensing software in the field of
 computational chemistry and represents and warrants to the
 licensee that it is not a competitor of Gaussian, Inc. and that
 it will not use this program in any manner prohibited above.
 ---------------------------------------------------------------
  

 Cite this work as:
 Gaussian 16, Revision B.01,
 M. J. Frisch, G. W. Trucks, H. B. Schlegel, G. E. Scuseria, 
 M. A. Robb, J. R. Cheeseman, G. Scalmani, V. Barone, 
 G. A. Petersson, H. Nakatsuji, X. Li, M. Caricato, A. V. Marenich, 
 J. Bloino, B. G. Janesko, R. Gomperts, B. Mennucci, H. P. Hratchian, 
 J. V. Ortiz, A. F. Izmaylov, J. L. Sonnenberg, D. Williams-Young, 
 F. Ding, F. Lipparini, F. Egidi, J. Goings, B. Peng, A. Petrone, 
 T. Henderson, D. Ranasinghe, V. G. Zakrzewski, J. Gao, N. Rega, 
 G. Zheng, W. Liang, M. Hada, M. Ehara, K. Toyota, R. Fukuda, 
 J. Hasegawa, M. Ishida, T. Nakajima, Y. Honda, O. Kitao, H. Nakai, 
 T. Vreven, K. Throssell, J. A. Montgomery, Jr., J. E. Peralta, 
 F. Ogliaro, M. J. Bearpark, J. J. Heyd, E. N. Brothers, K. N. Kudin, 
 V. N. Staroverov, T. A. Keith, R. Kobayashi, J. Normand, 
 K. Raghavachari, A. P. Rendell, J. C. Burant, S. S. Iyengar, 
 J. Tomasi, M. Cossi, J. M. Millam, M. Klene, C. Adamo, R. Cammi, 
 J. W. Ochterski, R. L. Martin, K. Morokuma, O. Farkas, 
 J. B. Foresman, and D. J. Fox, Gaussian, Inc., Wallingford CT, 2016.
 
 ******************************************
 Gaussian 16:  ES64L-G16RevB.01 20-Dec-2017
                 3-Aug-2020 
 ******************************************
 %nproc=24
 Will use up to   24 processors via shared memory.
 %mem=48GB
 ----------------------------------------------------------------------
 #p uwb97xd guess=mix def2tzvp # scrf=(iefpcm,solvent=Cyclohexane,read)
  nosym 6d 10f
 ----------------------------------------------------------------------
 1/38=1,40=2,172=1/1;
 2/12=2,15=1,17=6,18=5,40=1/2;
 3/5=44,7=101,8=22,11=2,25=1,30=1,70=2203,72=17,74=-58,116=2/1,2,3;
 4/13=-1/1;
 5/5=2,38=5,53=17/2;
 6/7=2,8=2,9=2,10=2,28=1/1;
 99/5=1,9=1/99;
 Leave Link    1 at Mon Aug  3 15:32:08 2020, MaxMem=  6442450944 cpu:               2.9 elap:               0.1
 (Enter /scratch/scicomp/CentOS/7.3.1611/Haswell/software/Gaussian/g16/l101.exe)
 -----------------------
 endo-2 xp-pcm for eta=3
 -----------------------
 Symbolic Z-matrix:
 Charge =  0 Multiplicity = 1
 6                    -3.12169  -0.43794   0.24848 
 6                    -0.60889  -0.21827  -1.03699 
 1                    -4.08505  -0.54816   0.73279 
 1                     0.36031  -0.12471  -1.50659 
 6                     1.0996    1.41098   0.7054 
 6                     0.60889   0.21827   1.03699 
 1                     0.51411   2.31109   0.84333 
 1                    -0.36031   0.12471   1.50659 
 6                     1.48341  -1.00069   1.0115 
 1                     1.95092  -1.04772   2.0031 
 1                     0.89193  -1.90928   0.91402 
 6                     2.4259    1.51795   0.10904 
 1                     2.8341    2.50596  -0.06791 
 6                     3.12169   0.43794  -0.24848 
 1                     4.08505   0.54816  -0.73279 
 6                     2.59025  -0.95486  -0.04578 
 1                     2.23599  -1.34484  -1.00803 
 1                     3.40096  -1.62171   0.25523 
 6                    -1.0996   -1.41098  -0.7054 
 1                    -0.51411  -2.31109  -0.84333 
 6                    -2.4259   -1.51795  -0.10904 
 1                    -2.8341   -2.50596   0.06791 
 6                    -1.48341   1.00069  -1.0115 
 1                    -0.89193   1.90928  -0.91402 
 1                    -1.95092   1.04772  -2.0031 
 6                    -2.59025   0.95486   0.04578 
 1                    -3.40096   1.62171  -0.25523 
 1                    -2.23599   1.34484   1.00803 
 
 ITRead=  0  0  0  0  0  0  0  0  0  0  0  0  0  0  0  0  0  0  0  0
 ITRead=  0  0  0  0  0  0  0  0
 MicOpt= -1 -1 -1 -1 -1 -1 -1 -1 -1 -1 -1 -1 -1 -1 -1 -1 -1 -1 -1 -1
 MicOpt= -1 -1 -1 -1 -1 -1 -1 -1
 NAtoms=     28 NQM=       28 NQMF=       0 NMMI=      0 NMMIF=      0
                NMic=       0 NMicF=      0.
                    Isotopes and Nuclear Properties:
 (Nuclear quadrupole moments (NQMom) in fm**2, nuclear magnetic moments (NMagM)
  in nuclear magnetons)

  Atom         1           2           3           4           5           6           7           8           9          10
 IAtWgt=          12          12           1           1          12          12           1           1          12           1
 AtmWgt=  12.0000000  12.0000000   1.0078250   1.0078250  12.0000000  12.0000000   1.0078250   1.0078250  12.0000000   1.0078250
 NucSpn=           0           0           1           1           0           0           1           1           0           1
 AtZEff=  -0.0000000  -0.0000000  -0.0000000  -0.0000000  -0.0000000  -0.0000000  -0.0000000  -0.0000000  -0.0000000  -0.0000000
 NQMom=    0.0000000   0.0000000   0.0000000   0.0000000   0.0000000   0.0000000   0.0000000   0.0000000   0.0000000   0.0000000
 NMagM=    0.0000000   0.0000000   2.7928460   2.7928460   0.0000000   0.0000000   2.7928460   2.7928460   0.0000000   2.7928460
 AtZNuc=   6.0000000   6.0000000   1.0000000   1.0000000   6.0000000   6.0000000   1.0000000   1.0000000   6.0000000   1.0000000

  Atom        11          12          13          14          15          16          17          18          19          20
 IAtWgt=           1          12           1          12           1          12           1           1          12           1
 AtmWgt=   1.0078250  12.0000000   1.0078250  12.0000000   1.0078250  12.0000000   1.0078250   1.0078250  12.0000000   1.0078250
 NucSpn=           1           0           1           0           1           0           1           1           0           1
 AtZEff=  -0.0000000  -0.0000000  -0.0000000  -0.0000000  -0.0000000  -0.0000000  -0.0000000  -0.0000000  -0.0000000  -0.0000000
 NQMom=    0.0000000   0.0000000   0.0000000   0.0000000   0.0000000   0.0000000   0.0000000   0.0000000   0.0000000   0.0000000
 NMagM=    2.7928460   0.0000000   2.7928460   0.0000000   2.7928460   0.0000000   2.7928460   2.7928460   0.0000000   2.7928460
 AtZNuc=   1.0000000   6.0000000   1.0000000   6.0000000   1.0000000   6.0000000   1.0000000   1.0000000   6.0000000   1.0000000

  Atom        21          22          23          24          25          26          27          28
 IAtWgt=          12           1          12           1           1          12           1           1
 AtmWgt=  12.0000000   1.0078250  12.0000000   1.0078250   1.0078250  12.0000000   1.0078250   1.0078250
 NucSpn=           0           1           0           1           1           0           1           1
 AtZEff=  -0.0000000  -0.0000000  -0.0000000  -0.0000000  -0.0000000  -0.0000000  -0.0000000  -0.0000000
 NQMom=    0.0000000   0.0000000   0.0000000   0.0000000   0.0000000   0.0000000   0.0000000   0.0000000
 NMagM=    0.0000000   2.7928460   0.0000000   2.7928460   2.7928460   0.0000000   2.7928460   2.7928460
 AtZNuc=   6.0000000   1.0000000   6.0000000   1.0000000   1.0000000   6.0000000   1.0000000   1.0000000
 Leave Link  101 at Mon Aug  3 15:32:09 2020, MaxMem=  6442450944 cpu:               2.4 elap:               0.1
 (Enter /scratch/scicomp/CentOS/7.3.1611/Haswell/software/Gaussian/g16/l202.exe)
                          Input orientation:                          
 ---------------------------------------------------------------------
 Center     Atomic      Atomic             Coordinates (Angstroms)
 Number     Number       Type             X           Y           Z
 ---------------------------------------------------------------------
      1          6           0       -3.121693   -0.437935    0.248475
      2          6           0       -0.608894   -0.218266   -1.036985
      3          1           0       -4.085054   -0.548156    0.732789
      4          1           0        0.360308   -0.124712   -1.506593
      5          6           0        1.099596    1.410984    0.705395
      6          6           0        0.608894    0.218266    1.036985
      7          1           0        0.514105    2.311092    0.843328
      8          1           0       -0.360308    0.124712    1.506593
      9          6           0        1.483411   -1.000688    1.011498
     10          1           0        1.950917   -1.047718    2.003099
     11          1           0        0.891930   -1.909281    0.914020
     12          6           0        2.425900    1.517947    0.109041
     13          1           0        2.834101    2.505963   -0.067907
     14          6           0        3.121693    0.437935   -0.248475
     15          1           0        4.085054    0.548156   -0.732789
     16          6           0        2.590248   -0.954860   -0.045775
     17          1           0        2.235992   -1.344838   -1.008028
     18          1           0        3.400959   -1.621706    0.255233
     19          6           0       -1.099596   -1.410984   -0.705395
     20          1           0       -0.514105   -2.311092   -0.843328
     21          6           0       -2.425900   -1.517947   -0.109041
     22          1           0       -2.834101   -2.505963    0.067907
     23          6           0       -1.483411    1.000688   -1.011498
     24          1           0       -0.891929    1.909281   -0.914020
     25          1           0       -1.950917    1.047718   -2.003099
     26          6           0       -2.590248    0.954860    0.045775
     27          1           0       -3.400959    1.621706   -0.255234
     28          1           0       -2.235992    1.344838    1.008028
 ---------------------------------------------------------------------
                    Distance matrix (angstroms):
                    1          2          3          4          5
     1  C    0.000000
     2  C    2.831046   0.000000
     3  H    1.083870   3.914667   0.000000
     4  H    3.911867   1.081035   4.995536   0.000000
     5  C    4.631043   2.934158   5.542524   2.792454   0.000000
     6  C    3.869060   2.444365   4.765825   2.578608   1.331659
     7  H    4.596741   3.345797   5.416621   3.388056   1.082599
     8  H    3.086208   2.578608   3.863322   3.108181   2.104218
     9  C    4.701689   3.030876   5.593770   2.893005   2.461133
    10  H    5.402029   4.059893   6.188392   3.962312   2.907576
    11  H    4.326312   2.986373   5.162933   3.053961   3.333288
    12  C    5.883936   3.679373   6.859327   3.094394   1.458136
    13  H    6.651174   4.496082   7.605489   3.887148   2.192141
    14  C    6.324079   3.869060   7.339786   3.086208   2.438354
    15  H    7.339786   4.765825   8.372603   3.863322   3.424296
    16  C    5.742827   3.429224   6.732847   2.792090   2.895430
    17  H    5.577281   3.059964   6.604602   2.292480   3.438280
    18  H    6.629204   4.440540   7.577662   3.819762   3.833553
    19  C    2.438354   1.331659   3.424296   2.104218   3.845813
    20  H    3.391204   2.103903   4.282962   2.446380   4.342398
    21  C    1.333556   2.419041   2.098086   3.414266   4.655219
    22  H    2.095723   3.377261   2.416601   4.284117   5.587740
    23  C    2.518161   1.500426   3.494281   2.216065   3.128576
    24  H    3.439864   2.149811   4.352818   2.460969   2.614761
    25  H    2.940658   2.082575   3.819220   2.638725   4.095550
    26  C    1.504460   2.544476   2.228338   3.504440   3.775989
    27  H    2.138652   3.433986   2.480419   4.331628   4.606757
    28  H    2.130649   3.045131   2.660491   3.901752   3.349942
                    6          7          8          9         10
     6  C    0.000000
     7  H    2.103903   0.000000
     8  H    1.081035   2.446380   0.000000
     9  C    1.500426   3.454811   2.216065   0.000000
    10  H    2.082575   3.832897   2.638725   1.097290   0.000000
    11  H    2.149811   4.237841   2.460969   1.088528   1.746378
    12  C    2.419041   2.196182   3.414266   2.836589   3.224237
    13  H    3.377261   2.500141   4.284117   3.909742   4.206867
    14  C    2.831046   3.391204   3.911867   2.518161   2.940658
    15  H    3.914667   4.282962   4.995536   3.494281   3.819220
    16  C    2.544476   3.970808   3.504440   1.531344   2.148314
    17  H    3.045131   4.445024   3.901752   2.182499   3.039150
    18  H    3.433986   4.913927   4.331629   2.152810   2.342460
    19  C    2.934158   4.342398   2.792454   3.128576   4.095550
    20  H    3.345797   5.026590   3.388056   3.024501   3.971724
    21  C    3.679373   4.920587   3.094394   4.099497   4.882497
    22  H    4.496082   5.917413   3.887148   4.668739   5.363566
    23  C    3.030876   3.024501   2.893005   4.110967   5.007831
    24  H    2.986373   2.286188   3.053960   4.221111   5.033408
    25  H    4.059893   3.971724   3.962312   5.007831   5.972000
    26  C    3.429224   3.480296   2.792090   4.620767   5.335130
    27  H    4.440540   4.124296   3.819762   5.686706   6.392845
    28  H    3.059964   2.919556   2.292480   4.397211   4.923890
                   11         12         13         14         15
    11  H    0.000000
    12  C    3.840175   0.000000
    13  H    4.922458   1.083566   0.000000
    14  C    3.439863   1.333556   2.095723   0.000000
    15  H    4.352817   2.098086   2.416601   1.083870   0.000000
    16  C    2.171730   2.483093   3.469474   1.504460   2.228338
    17  H    2.412336   3.078871   4.008769   2.130649   2.660491
    18  H    2.609967   3.290826   4.178923   2.138652   2.480418
    19  C    2.614762   4.655219   5.587740   4.631043   5.542524
    20  H    2.286189   4.920587   5.917413   4.596741   5.416621
    21  C    3.493965   5.727493   6.622775   5.883936   6.859327
    22  H    3.867201   6.622775   7.567454   6.651174   7.605489
    23  C    4.221112   4.099497   4.668739   4.701689   5.593770
    24  H    4.594050   3.493964   3.867200   4.326311   5.162932
    25  H    5.033409   4.882497   5.363566   5.402029   6.188392
    26  C    4.591592   5.048050   5.642908   5.742827   6.732847
    27  H    5.680134   5.839156   6.300236   6.629204   7.577662
    28  H    4.514646   4.750935   5.311468   5.577281   6.604602
                   16         17         18         19         20
    16  C    0.000000
    17  H    1.097046   0.000000
    18  H    1.092036   1.740584   0.000000
    19  C    3.775989   3.349942   4.606756   0.000000
    20  H    3.480296   2.919556   4.124296   1.082599   0.000000
    21  C    5.048050   4.750935   5.839156   1.458136   2.196182
    22  H    5.642908   5.311468   6.300236   2.192141   2.500141
    23  C    4.620767   4.397211   5.686706   2.461133   3.454811
    24  H    4.591591   4.514645   5.680133   3.333288   4.237841
    25  H    5.335130   4.923890   6.392845   2.907576   3.832897
    26  C    5.522042   5.449009   6.525115   2.895430   3.970808
    27  H    6.525115   6.414226   7.552906   3.833553   4.913927
    28  H    5.449009   5.594415   6.414226   3.438280   4.445024
                   21         22         23         24         25
    21  C    0.000000
    22  H    1.083566   0.000000
    23  C    2.836589   3.909742   0.000000
    24  H    3.840176   4.922458   1.088528   0.000000
    25  H    3.224237   4.206867   1.097290   1.746379   0.000000
    26  C    2.483093   3.469474   1.531344   2.171730   2.148314
    27  H    3.290826   4.178923   2.152810   2.609967   2.342459
    28  H    3.078871   4.008769   2.182499   2.412337   3.039150
                   26         27         28
    26  C    0.000000
    27  H    1.092036   0.000000
    28  H    1.097046   1.740585   0.000000
 Symmetry turned off by external request.
 Stoichiometry    C12H16
 Framework group  CI[X(C12H16)]
 Deg. of freedom    39
 Full point group                 CI      NOp   2
 Rotational constants (GHZ):           1.8833190           0.6233103           0.5480463
 Leave Link  202 at Mon Aug  3 15:32:09 2020, MaxMem=  6442450944 cpu:               0.3 elap:               0.0
 (Enter /scratch/scicomp/CentOS/7.3.1611/Haswell/software/Gaussian/g16/l301.exe)
 Standard basis: def2TZVP (6D, 10F)
 Ernie: Thresh=  0.10000D-02 Tol=  0.10000D-05 Strict=F.
   528 basis functions,   740 primitive gaussians,   528 cartesian basis functions
    44 alpha electrons       44 beta electrons
       nuclear repulsion energy       687.0344264793 Hartrees.
 IExCor= 4639 DFT=T Ex+Corr=wB97XD ExCW=0 ScaHFX=  1.000000
 ScaDFX=  1.000000  1.000000  1.000000  1.000000 ScalE2=  1.000000  1.000000
 IRadAn=      5 IRanWt=     -1 IRanGd=            0 ICorTp=0 IEmpDi=121
 HFx  wShort=  0.000000 wLong=  0.200000 cFull=  0.222036 cShort=  0.000000 cLong=  0.777964
 DFx  wShort=  0.000000 wLong=  0.200000 cFull=  0.000000 cShort=  0.000000 cLong=  1.000000
 NAtoms=   28 NActive=   28 NUniq=   28 SFac= 1.00D+00 NAtFMM=   60 NAOKFM=F Big=F
 Integral buffers will be    131072 words long.
 Raffenetti 2 integral format.
 Two-electron integral symmetry is turned off.
 R6Disp:  Grimme-D2 Dispersion energy=       -0.0229525597 Hartrees.
 Nuclear repulsion after empirical dispersion term =      687.0114739197 Hartrees.
 Using the following non-standard input for PCM:
 norep pcmdoc geomview  nodis nocav g03defaults tsare=0.075
 Warning! Using old PCM defaults because the g03defaults keyword was found.
 These settings can be overridden by following keywords.
 nsfe=28
 NVESolv=36  SolvMW=84.1595   Rsolv=2.815
 eps=2.0165 RhoS=0.7781
 --- end of non-standard input.
 Reading user-defined spheres from input:
 ISph  on   Nord    Re0     Alpha      Xe            Ye            Ze
 --- end of user-defined spheres data.
 ------------------------------------------------------------------------------
 Polarizable Continuum Model (PCM)
 =================================
 Model                : PCM.
 Atomic radii         : UA0 (Simple United Atom Topological Model).
 Polarization charges : Total charges.
 Charge compensation  : None.
 Solution method      : On-the-fly selection.
 Cavity type          : SES (Solvent Excluding Surface) (Alpha=1.000).
 Cavity algorithm     : GePol (RMin=0.200 OFac=0.890).
                        User-defined sphere list used, NSphG=   28.
                        Tesserae with average area of 0.075 Ang**2.
                        Smoothing algorithm: None.
                        Polarization charges: point-like.
                        Self-potential: constant (ISelfS= 1).
                        Self-field    : global E.n sum rule (ISelfD= 3).
 Solvent              : CycloHexane, Eps=   2.016500 Eps(inf)=   2.035188
                        RSolv=   2.815000 Ang.
 ------------------------------------------------------------------------------
 GePol: Number of generator spheres                  =      28
 GePol: Total number of spheres                      =     175
 GePol: Number of exposed spheres                    =     124 ( 70.86%)
 GePol: Number of tesserae                           =    4590
 GePol: Average area of tesserae                     =       0.05 Ang**2
 GePol: Minimum area of tessera                      =   0.10D-02 Ang**2
 GePol: Maximum area of tessera                      =    0.12395 Ang**2
 GePol: Number of small tesserae                     =       0
 GePol: Fraction of small tesserae (<1% of avg)      =       0.00%
 GePol: Total count of vertices                      =   16212
 GePol: Maximum number of vertices in a tessera      =       7
 GePol: Cavity surface area                          =    219.040 Ang**2
 GePol: Cavity volume                                =    246.877 Ang**3
 Leave Link  301 at Mon Aug  3 15:32:09 2020, MaxMem=  6442450944 cpu:               7.4 elap:               0.3
 (Enter /scratch/scicomp/CentOS/7.3.1611/Haswell/software/Gaussian/g16/l302.exe)
 NPDir=0 NMtPBC=     1 NCelOv=     1 NCel=       1 NClECP=     1 NCelD=      1
         NCelK=      1 NCelE2=     1 NClLst=     1 CellRange=     0.0.
 One-electron integrals computed using PRISM.
   1 Symmetry operations used in ECPInt.
 ECPInt:  NShTT=   19306 NPrTT=   56928 LenC2=   18510 LenP2D=   42170.
 LDataN:  DoStor=T MaxTD1= 6 Len=  172
 NBasis=   528 RedAO= T EigKep=  1.86D-05  NBF=   528
 NBsUse=   528 1.00D-06 EigRej= -1.00D+00 NBFU=   528
 Precomputing XC quadrature grid using
 IXCGrd= 4 IRadAn=           5 IRanWt=          -1 IRanGd=           0 AccXCQ= 0.00D+00.
 Generated NRdTot=       0 NPtTot=           0 NUsed=           0 NTot=          32
 NSgBfM=   526   526   526   526   526 MxSgAt=    28 MxSgA2=    28.
 Leave Link  302 at Mon Aug  3 15:32:10 2020, MaxMem=  6442450944 cpu:              12.7 elap:               0.6
 (Enter /scratch/scicomp/CentOS/7.3.1611/Haswell/software/Gaussian/g16/l303.exe)
 DipDrv:  MaxL=1.
 Leave Link  303 at Mon Aug  3 15:32:10 2020, MaxMem=  6442450944 cpu:               1.5 elap:               0.1
 (Enter /scratch/scicomp/CentOS/7.3.1611/Haswell/software/Gaussian/g16/l401.exe)
 ExpMin= 9.52D-02 ExpMax= 1.36D+04 ExpMxC= 4.63D+02 IAcc=3 IRadAn=         5 AccDes= 0.00D+00
 Harris functional with IExCor= 4639 and IRadAn=       5 diagonalized for initial guess.
 HarFok:  IExCor= 4639 AccDes= 0.00D+00 IRadAn=         5 IDoV= 1 UseB2=F ITyADJ=14
 ICtDFT=  3500011 ScaDFX=  1.000000  1.000000  1.000000  1.000000
 FoFCou: FMM=F IPFlag=           0 FMFlag=      100000 FMFlg1=           0
         NFxFlg=           0 DoJE=T BraDBF=F KetDBF=T FulRan=T
         wScrn=  0.000000 ICntrl=       500 IOpCl=  0 I1Cent=   200000004 NGrid=           0
         NMat0=    1 NMatS0=      1 NMatT0=    0 NMatD0=    1 NMtDS0=    0 NMtDT0=    0
 Symmetry not used in FoFCou.
 Harris En= -444.637476428046    
 JPrj=0 DoOrth=F DoCkMO=T.
 Mixing orbitals, IMix= 1 IMixAn=  0 NRI=1 NE=   44 Coef=  7.07106781D-01  7.07106781D-01
 Mixing orbitals, IMix= 1 IMixAn=  0 NRI=1 NE=   44 Coef= -7.07106781D-01  7.07106781D-01
 Initial guess <Sx>= 0.0000 <Sy>= 0.0000 <Sz>= 0.0000 <S**2>= 1.0000 S= 0.6180
 Leave Link  401 at Mon Aug  3 15:32:12 2020, MaxMem=  6442450944 cpu:              49.3 elap:               2.1
 (Enter /scratch/scicomp/CentOS/7.3.1611/Haswell/software/Gaussian/g16/l502.exe)
 Two-electron integral symmetry not used.
 UHF open shell SCF:
 Using DIIS extrapolation, IDIIS=  1040.
 NGot=  6442450944 LenX=  6441877030 LenY=  6441597718
 Requested convergence on RMS density matrix=1.00D-08 within 128 cycles.
 Requested convergence on MAX density matrix=1.00D-06.
 Requested convergence on             energy=1.00D-06.
 No special actions if energy rises.
 Fock matrices will be formed incrementally for  20 cycles.

 Cycle   1  Pass 1  IDiag  1:
 FoFJK:  IHMeth= 1 ICntrl=       0 DoSepK=T KAlg= 0 I1Cent=           0 FoldK=F
 IRaf=         1 NMat=       1 IRICut=       1 DoRegI=T DoRafI=F ISym2E= 0 IDoP0=0 IntGTp=1.
 FoFCou: FMM=F IPFlag=           0 FMFlag=      100000 FMFlg1=           0
         NFxFlg=           0 DoJE=T BraDBF=F KetDBF=F FulRan=T
         wScrn=  0.000000 ICntrl=       500 IOpCl=  0 I1Cent=           0 NGrid=           0
         NMat0=    1 NMatS0=      1 NMatT0=    0 NMatD0=    1 NMtDS0=    0 NMtDT0=    0
 Symmetry not used in FoFCou.
 Inv3:  Mode=1 IEnd=    63204300.
 Iteration    1 A*A^-1 deviation from unit magnitude is 4.55D-15 for   4344.
 Iteration    1 A*A^-1 deviation from orthogonality  is 4.13D-15 for   3766   3712.
 Iteration    1 A^-1*A deviation from unit magnitude is 4.11D-15 for   4344.
 Iteration    1 A^-1*A deviation from orthogonality  is 1.81D-15 for   3750   3185.
 E= -466.592368372712    
 DIIS: error= 5.79D-02 at cycle   1 NSaved=   1.
 NSaved= 1 IEnMin= 1 EnMin= -466.592368372712     IErMin= 1 ErrMin= 5.79D-02
 ErrMax= 5.79D-02  0.00D+00 EMaxC= 1.00D-01 BMatC= 4.11D+00 BMatP= 4.11D+00
 IDIUse=3 WtCom= 4.21D-01 WtEn= 5.79D-01
 Coeff-Com:  0.100D+01
 Coeff-En:   0.100D+01
 Coeff:      0.100D+01
 Gap=     0.189 Goal=   None    Shift=    0.000
 Gap=     0.189 Goal=   None    Shift=    0.000
 GapD=    0.189 DampG=1.000 DampE=0.500 DampFc=0.5000 IDamp=-1.
 Damping current iteration by 5.00D-01
 RMSDP=1.60D-03 MaxDP=9.19D-02              OVMax= 2.99D-01

 Cycle   2  Pass 1  IDiag  1:
 RMSU=  7.73D-04    CP:  9.68D-01
 E= -466.692782174449     Delta-E=       -0.100413801737 Rises=F Damp=T
 DIIS: error= 2.75D-02 at cycle   2 NSaved=   2.
 NSaved= 2 IEnMin= 2 EnMin= -466.692782174449     IErMin= 2 ErrMin= 2.75D-02
 ErrMax= 2.75D-02  0.00D+00 EMaxC= 1.00D-01 BMatC= 9.32D-01 BMatP= 4.11D+00
 IDIUse=3 WtCom= 7.25D-01 WtEn= 2.75D-01
 Coeff-Com: -0.866D+00 0.187D+01
 Coeff-En:   0.000D+00 0.100D+01
 Coeff:     -0.628D+00 0.163D+01
 Gap=     0.259 Goal=   None    Shift=    0.000
 Gap=     0.259 Goal=   None    Shift=    0.000
 RMSDP=1.13D-03 MaxDP=4.87D-02 DE=-1.00D-01 OVMax= 1.31D-01

 Cycle   3  Pass 1  IDiag  1:
 RMSU=  6.44D-04    CP:  9.23D-01  2.14D+00
 E= -466.819728551186     Delta-E=       -0.126946376738 Rises=F Damp=F
 DIIS: error= 7.45D-03 at cycle   3 NSaved=   3.
 NSaved= 3 IEnMin= 3 EnMin= -466.819728551186     IErMin= 3 ErrMin= 7.45D-03
 ErrMax= 7.45D-03  0.00D+00 EMaxC= 1.00D-01 BMatC= 2.35D-02 BMatP= 9.32D-01
 IDIUse=3 WtCom= 9.26D-01 WtEn= 7.45D-02
 Coeff-Com: -0.314D+00 0.675D+00 0.639D+00
 Coeff-En:   0.000D+00 0.000D+00 0.100D+01
 Coeff:     -0.291D+00 0.625D+00 0.666D+00
 Gap=     0.276 Goal=   None    Shift=    0.000
 Gap=     0.276 Goal=   None    Shift=    0.000
 RMSDP=2.43D-04 MaxDP=1.32D-02 DE=-1.27D-01 OVMax= 6.75D-02

 Cycle   4  Pass 1  IDiag  1:
 RMSU=  2.21D-04    CP:  9.14D-01  2.25D+00  9.82D-01
 E= -466.830702366345     Delta-E=       -0.010973815159 Rises=F Damp=F
 DIIS: error= 5.15D-03 at cycle   4 NSaved=   4.
 NSaved= 4 IEnMin= 4 EnMin= -466.830702366345     IErMin= 4 ErrMin= 5.15D-03
 ErrMax= 5.15D-03  0.00D+00 EMaxC= 1.00D-01 BMatC= 2.20D-03 BMatP= 2.35D-02
 IDIUse=3 WtCom= 9.48D-01 WtEn= 5.15D-02
 Coeff-Com:  0.110D+00-0.237D+00-0.404D-01 0.117D+01
 Coeff-En:   0.000D+00 0.000D+00 0.000D+00 0.100D+01
 Coeff:      0.105D+00-0.225D+00-0.383D-01 0.116D+01
 Gap=     0.287 Goal=   None    Shift=    0.000
 Gap=     0.287 Goal=   None    Shift=    0.000
 RMSDP=2.31D-04 MaxDP=9.37D-03 DE=-1.10D-02 OVMax= 8.03D-02

 Cycle   5  Pass 1  IDiag  1:
 RMSU=  9.55D-05    CP:  9.07D-01  2.31D+00  1.21D+00  1.62D+00
 E= -466.835765706432     Delta-E=       -0.005063340086 Rises=F Damp=F
 DIIS: error= 2.82D-03 at cycle   5 NSaved=   5.
 NSaved= 5 IEnMin= 5 EnMin= -466.835765706432     IErMin= 5 ErrMin= 2.82D-03
 ErrMax= 2.82D-03  0.00D+00 EMaxC= 1.00D-01 BMatC= 1.12D-03 BMatP= 2.20D-03
 IDIUse=3 WtCom= 9.72D-01 WtEn= 2.82D-02
 Coeff-Com:  0.878D-01-0.189D+00-0.110D+00 0.480D+00 0.732D+00
 Coeff-En:   0.000D+00 0.000D+00 0.000D+00 0.000D+00 0.100D+01
 Coeff:      0.853D-01-0.184D+00-0.107D+00 0.466D+00 0.739D+00
 Gap=     0.291 Goal=   None    Shift=    0.000
 Gap=     0.291 Goal=   None    Shift=    0.000
 RMSDP=1.05D-04 MaxDP=4.72D-03 DE=-5.06D-03 OVMax= 3.77D-02

 Cycle   6  Pass 1  IDiag  1:
 RMSU=  3.75D-05    CP:  9.04D-01  2.32D+00  1.27D+00  1.97D+00  1.43D+00
 E= -466.837558543001     Delta-E=       -0.001792836569 Rises=F Damp=F
 DIIS: error= 1.93D-03 at cycle   6 NSaved=   6.
 NSaved= 6 IEnMin= 6 EnMin= -466.837558543001     IErMin= 6 ErrMin= 1.93D-03
 ErrMax= 1.93D-03  0.00D+00 EMaxC= 1.00D-01 BMatC= 5.61D-04 BMatP= 1.12D-03
 IDIUse=3 WtCom= 9.81D-01 WtEn= 1.93D-02
 Coeff-Com: -0.627D-01 0.135D+00 0.551D-01-0.458D+00-0.756D-02 0.134D+01
 Coeff-En:   0.000D+00 0.000D+00 0.000D+00 0.000D+00 0.000D+00 0.100D+01
 Coeff:     -0.615D-01 0.132D+00 0.541D-01-0.450D+00-0.741D-02 0.133D+01
 Gap=     0.287 Goal=   None    Shift=    0.000
 Gap=     0.287 Goal=   None    Shift=    0.000
 RMSDP=1.13D-04 MaxDP=4.13D-03 DE=-1.79D-03 OVMax= 4.25D-02

 Cycle   7  Pass 1  IDiag  1:
 RMSU=  3.26D-05    CP:  9.02D-01  2.32D+00  1.31D+00  2.29D+00  2.12D+00
                    CP:  1.99D+00
 E= -466.839282822429     Delta-E=       -0.001724279428 Rises=F Damp=F
 DIIS: error= 1.34D-03 at cycle   7 NSaved=   7.
 NSaved= 7 IEnMin= 7 EnMin= -466.839282822429     IErMin= 7 ErrMin= 1.34D-03
 ErrMax= 1.34D-03  0.00D+00 EMaxC= 1.00D-01 BMatC= 3.24D-04 BMatP= 5.61D-04
 IDIUse=3 WtCom= 9.87D-01 WtEn= 1.34D-02
 Coeff-Com: -0.217D-01 0.472D-01 0.489D-01 0.662D-01-0.501D+00-0.953D+00
 Coeff-Com:  0.231D+01
 Coeff-En:   0.000D+00 0.000D+00 0.000D+00 0.000D+00 0.000D+00 0.000D+00
 Coeff-En:   0.100D+01
 Coeff:     -0.214D-01 0.466D-01 0.483D-01 0.653D-01-0.494D+00-0.940D+00
 Coeff:      0.230D+01
 Gap=     0.286 Goal=   None    Shift=    0.000
 Gap=     0.286 Goal=   None    Shift=    0.000
 RMSDP=1.56D-04 MaxDP=7.01D-03 DE=-1.72D-03 OVMax= 6.05D-02

 Cycle   8  Pass 1  IDiag  1:
 RMSU=  4.06D-05    CP:  8.99D-01  2.32D+00  1.36D+00  2.66D+00  3.00D+00
                    CP:  3.00D+00  2.90D+00
 E= -466.841065326172     Delta-E=       -0.001782503744 Rises=F Damp=F
 DIIS: error= 6.68D-04 at cycle   8 NSaved=   8.
 NSaved= 8 IEnMin= 8 EnMin= -466.841065326172     IErMin= 8 ErrMin= 6.68D-04
 ErrMax= 6.68D-04  0.00D+00 EMaxC= 1.00D-01 BMatC= 1.25D-04 BMatP= 3.24D-04
 IDIUse=3 WtCom= 9.93D-01 WtEn= 6.68D-03
 Coeff-Com:  0.352D-01-0.758D-01-0.172D-01 0.367D+00-0.142D+00-0.123D+01
 Coeff-Com:  0.761D+00 0.130D+01
 Coeff-En:   0.000D+00 0.000D+00 0.000D+00 0.000D+00 0.000D+00 0.000D+00
 Coeff-En:   0.000D+00 0.100D+01
 Coeff:      0.350D-01-0.753D-01-0.171D-01 0.365D+00-0.141D+00-0.122D+01
 Coeff:      0.756D+00 0.130D+01
 Gap=     0.288 Goal=   None    Shift=    0.000
 Gap=     0.288 Goal=   None    Shift=    0.000
 RMSDP=1.15D-04 MaxDP=5.34D-03 DE=-1.78D-03 OVMax= 4.54D-02

 Cycle   9  Pass 1  IDiag  1:
 RMSU=  7.67D-05    CP:  8.96D-01  2.32D+00  1.39D+00  2.88D+00  3.00D+00
                    CP:  3.00D+00  3.00D+00  2.54D+00
 E= -466.841746816866     Delta-E=       -0.000681490694 Rises=F Damp=F
 DIIS: error= 2.87D-04 at cycle   9 NSaved=   9.
 NSaved= 9 IEnMin= 9 EnMin= -466.841746816866     IErMin= 9 ErrMin= 2.87D-04
 ErrMax= 2.87D-04  0.00D+00 EMaxC= 1.00D-01 BMatC= 3.30D-05 BMatP= 1.25D-04
 IDIUse=3 WtCom= 9.97D-01 WtEn= 2.87D-03
 Coeff-Com:  0.251D-01-0.540D-01-0.220D-01 0.178D+00 0.585D-01-0.372D+00
 Coeff-Com: -0.212D+00 0.561D+00 0.837D+00
 Coeff-En:   0.000D+00 0.000D+00 0.000D+00 0.000D+00 0.000D+00 0.000D+00
 Coeff-En:   0.000D+00 0.000D+00 0.100D+01
 Coeff:      0.250D-01-0.539D-01-0.219D-01 0.178D+00 0.583D-01-0.371D+00
 Coeff:     -0.212D+00 0.559D+00 0.838D+00
 Gap=     0.288 Goal=   None    Shift=    0.000
 Gap=     0.288 Goal=   None    Shift=    0.000
 RMSDP=4.15D-05 MaxDP=2.03D-03 DE=-6.81D-04 OVMax= 1.66D-02

 Cycle  10  Pass 1  IDiag  1:
 RMSU=  1.01D-05    CP:  8.95D-01  2.32D+00  1.40D+00  2.95D+00  3.00D+00
                    CP:  3.00D+00  3.00D+00  3.00D+00  1.35D+00
 E= -466.841850348524     Delta-E=       -0.000103531658 Rises=F Damp=F
 DIIS: error= 1.43D-04 at cycle  10 NSaved=  10.
 NSaved=10 IEnMin=10 EnMin= -466.841850348524     IErMin=10 ErrMin= 1.43D-04
 ErrMax= 1.43D-04  0.00D+00 EMaxC= 1.00D-01 BMatC= 5.13D-06 BMatP= 3.30D-05
 IDIUse=3 WtCom= 9.99D-01 WtEn= 1.43D-03
 Coeff-Com: -0.190D-02 0.416D-02-0.107D-02-0.435D-01 0.344D-01 0.189D+00
 Coeff-Com: -0.171D+00-0.265D+00 0.652D-01 0.119D+01
 Coeff-En:   0.000D+00 0.000D+00 0.000D+00 0.000D+00 0.000D+00 0.000D+00
 Coeff-En:   0.000D+00 0.000D+00 0.000D+00 0.100D+01
 Coeff:     -0.190D-02 0.416D-02-0.106D-02-0.434D-01 0.344D-01 0.188D+00
 Coeff:     -0.170D+00-0.264D+00 0.651D-01 0.119D+01
 Gap=     0.287 Goal=   None    Shift=    0.000
 Gap=     0.287 Goal=   None    Shift=    0.000
 RMSDP=2.58D-05 MaxDP=1.12D-03 DE=-1.04D-04 OVMax= 1.03D-02

 Cycle  11  Pass 1  IDiag  1:
 RMSU=  1.08D-05    CP:  8.95D-01  2.32D+00  1.41D+00  3.00D+00  3.00D+00
                    CP:  3.00D+00  3.00D+00  3.00D+00  1.56D+00  2.28D+00
 E= -466.841872774503     Delta-E=       -0.000022425979 Rises=F Damp=F
 DIIS: error= 3.66D-05 at cycle  11 NSaved=  11.
 NSaved=11 IEnMin=11 EnMin= -466.841872774503     IErMin=11 ErrMin= 3.66D-05
 ErrMax= 3.66D-05  0.00D+00 EMaxC= 1.00D-01 BMatC= 1.03D-06 BMatP= 5.13D-06
 IDIUse=1 WtCom= 1.00D+00 WtEn= 0.00D+00
 Coeff-Com: -0.301D-02 0.650D-02 0.182D-02-0.322D-01 0.430D-02 0.957D-01
 Coeff-Com: -0.234D-01-0.161D+00-0.872D-01 0.455D+00 0.744D+00
 Coeff:     -0.301D-02 0.650D-02 0.182D-02-0.322D-01 0.430D-02 0.957D-01
 Coeff:     -0.234D-01-0.161D+00-0.872D-01 0.455D+00 0.744D+00
 Gap=     0.287 Goal=   None    Shift=    0.000
 Gap=     0.287 Goal=   None    Shift=    0.000
 RMSDP=5.24D-06 MaxDP=2.04D-04 DE=-2.24D-05 OVMax= 1.96D-03

 Cycle  12  Pass 1  IDiag  1:
 RMSU=  1.81D-06    CP:  8.95D-01  2.32D+00  1.41D+00  3.00D+00  3.00D+00
                    CP:  3.00D+00  3.00D+00  3.00D+00  1.60D+00  2.56D+00
                    CP:  1.17D+00
 E= -466.841873905520     Delta-E=       -0.000001131017 Rises=F Damp=F
 DIIS: error= 1.43D-05 at cycle  12 NSaved=  12.
 NSaved=12 IEnMin=12 EnMin= -466.841873905520     IErMin=12 ErrMin= 1.43D-05
 ErrMax= 1.43D-05  0.00D+00 EMaxC= 1.00D-01 BMatC= 1.06D-07 BMatP= 1.03D-06
 IDIUse=1 WtCom= 1.00D+00 WtEn= 0.00D+00
 Coeff-Com:  0.105D-02-0.229D-02-0.489D-03 0.122D-01-0.338D-02-0.433D-01
 Coeff-Com:  0.278D-01 0.550D-01 0.352D-02-0.209D+00 0.265D-02 0.116D+01
 Coeff:      0.105D-02-0.229D-02-0.489D-03 0.122D-01-0.338D-02-0.433D-01
 Coeff:      0.278D-01 0.550D-01 0.352D-02-0.209D+00 0.265D-02 0.116D+01
 Gap=     0.287 Goal=   None    Shift=    0.000
 Gap=     0.287 Goal=   None    Shift=    0.000
 RMSDP=1.39D-06 MaxDP=4.81D-05 DE=-1.13D-06 OVMax= 2.78D-04

 Cycle  13  Pass 1  IDiag  1:
 RMSU=  8.50D-07    CP:  8.95D-01  2.32D+00  1.41D+00  3.00D+00  3.00D+00
                    CP:  3.00D+00  3.00D+00  3.00D+00  1.60D+00  2.61D+00
                    CP:  1.20D+00  1.48D+00
 E= -466.841874045534     Delta-E=       -0.000000140014 Rises=F Damp=F
 DIIS: error= 7.47D-06 at cycle  13 NSaved=  13.
 NSaved=13 IEnMin=13 EnMin= -466.841874045534     IErMin=13 ErrMin= 7.47D-06
 ErrMax= 7.47D-06  0.00D+00 EMaxC= 1.00D-01 BMatC= 2.06D-08 BMatP= 1.06D-07
 IDIUse=1 WtCom= 1.00D+00 WtEn= 0.00D+00
 Coeff-Com:  0.143D-03-0.307D-03-0.324D-04 0.215D-02-0.857D-03-0.762D-02
 Coeff-Com:  0.418D-02 0.129D-01 0.279D-02-0.517D-01-0.648D-01 0.619D-01
 Coeff-Com:  0.104D+01
 Coeff:      0.143D-03-0.307D-03-0.324D-04 0.215D-02-0.857D-03-0.762D-02
 Coeff:      0.418D-02 0.129D-01 0.279D-02-0.517D-01-0.648D-01 0.619D-01
 Coeff:      0.104D+01
 Gap=     0.287 Goal=   None    Shift=    0.000
 Gap=     0.287 Goal=   None    Shift=    0.000
 RMSDP=5.14D-07 MaxDP=2.89D-05 DE=-1.40D-07 OVMax= 1.67D-04

 Cycle  14  Pass 1  IDiag  1:
 RMSU=  2.72D-07    CP:  8.94D-01  2.32D+00  1.41D+00  3.00D+00  3.00D+00
                    CP:  3.00D+00  3.00D+00  3.00D+00  1.61D+00  2.64D+00
                    CP:  1.21D+00  1.58D+00  1.24D+00
 E= -466.841874079999     Delta-E=       -0.000000034465 Rises=F Damp=F
 DIIS: error= 4.54D-06 at cycle  14 NSaved=  14.
 NSaved=14 IEnMin=14 EnMin= -466.841874079999     IErMin=14 ErrMin= 4.54D-06
 ErrMax= 4.54D-06  0.00D+00 EMaxC= 1.00D-01 BMatC= 7.49D-09 BMatP= 2.06D-08
 IDIUse=1 WtCom= 1.00D+00 WtEn= 0.00D+00
 Coeff-Com: -0.402D-03 0.869D-03 0.264D-03-0.403D-02 0.668D-03 0.134D-01
 Coeff-Com: -0.751D-02-0.171D-01-0.261D-02 0.634D-01 0.574D-02-0.330D+00
 Coeff-Com: -0.125D+00 0.140D+01
 Coeff:     -0.402D-03 0.869D-03 0.264D-03-0.403D-02 0.668D-03 0.134D-01
 Coeff:     -0.751D-02-0.171D-01-0.261D-02 0.634D-01 0.574D-02-0.330D+00
 Coeff:     -0.125D+00 0.140D+01
 Gap=     0.287 Goal=   None    Shift=    0.000
 Gap=     0.287 Goal=   None    Shift=    0.000
 RMSDP=3.52D-07 MaxDP=2.00D-05 DE=-3.45D-08 OVMax= 8.49D-05

 Cycle  15  Pass 1  IDiag  1:
 RMSU=  1.57D-07    CP:  8.94D-01  2.32D+00  1.41D+00  3.00D+00  3.00D+00
                    CP:  3.00D+00  3.00D+00  3.00D+00  1.61D+00  2.64D+00
                    CP:  1.21D+00  1.58D+00  1.37D+00  2.04D+00
 E= -466.841874096429     Delta-E=       -0.000000016430 Rises=F Damp=F
 DIIS: error= 2.31D-06 at cycle  15 NSaved=  15.
 NSaved=15 IEnMin=15 EnMin= -466.841874096429     IErMin=15 ErrMin= 2.31D-06
 ErrMax= 2.31D-06  0.00D+00 EMaxC= 1.00D-01 BMatC= 1.99D-09 BMatP= 7.49D-09
 IDIUse=1 WtCom= 1.00D+00 WtEn= 0.00D+00
 Coeff-Com: -0.699D-04 0.150D-03 0.130D-04-0.100D-02 0.528D-03 0.369D-02
 Coeff-Com: -0.301D-02-0.522D-02 0.102D-02 0.259D-01 0.172D-01-0.763D-01
 Coeff-Com: -0.336D+00 0.198D+00 0.118D+01
 Coeff:     -0.699D-04 0.150D-03 0.130D-04-0.100D-02 0.528D-03 0.369D-02
 Coeff:     -0.301D-02-0.522D-02 0.102D-02 0.259D-01 0.172D-01-0.763D-01
 Coeff:     -0.336D+00 0.198D+00 0.118D+01
 Gap=     0.287 Goal=   None    Shift=    0.000
 Gap=     0.287 Goal=   None    Shift=    0.000
 RMSDP=2.44D-07 MaxDP=1.11D-05 DE=-1.64D-08 OVMax= 6.09D-05

 Cycle  16  Pass 1  IDiag  1:
 RMSU=  7.86D-08    CP:  8.94D-01  2.32D+00  1.41D+00  3.00D+00  3.00D+00
                    CP:  3.00D+00  3.00D+00  3.00D+00  1.60D+00  2.64D+00
                    CP:  1.20D+00  1.56D+00  1.44D+00  2.62D+00  1.56D+00
 E= -466.841874100814     Delta-E=       -0.000000004385 Rises=F Damp=F
 DIIS: error= 8.26D-07 at cycle  16 NSaved=  16.
 NSaved=16 IEnMin=16 EnMin= -466.841874100814     IErMin=16 ErrMin= 8.26D-07
 ErrMax= 8.26D-07  0.00D+00 EMaxC= 1.00D-01 BMatC= 2.75D-10 BMatP= 1.99D-09
 IDIUse=1 WtCom= 1.00D+00 WtEn= 0.00D+00
 Coeff-Com:  0.124D-04-0.271D-04-0.115D-04 0.156D-03 0.454D-04-0.503D-03
 Coeff-Com:  0.170D-03 0.772D-03 0.435D-03-0.289D-02 0.313D-02 0.309D-01
 Coeff-Com: -0.501D-01-0.205D+00 0.253D+00 0.970D+00
 Coeff:      0.124D-04-0.271D-04-0.115D-04 0.156D-03 0.454D-04-0.503D-03
 Coeff:      0.170D-03 0.772D-03 0.435D-03-0.289D-02 0.313D-02 0.309D-01
 Coeff:     -0.501D-01-0.205D+00 0.253D+00 0.970D+00
 Gap=     0.287 Goal=   None    Shift=    0.000
 Gap=     0.287 Goal=   None    Shift=    0.000
 RMSDP=8.35D-08 MaxDP=3.93D-06 DE=-4.39D-09 OVMax= 2.15D-05

 Cycle  17  Pass 1  IDiag  1:
 RMSU=  3.06D-08    CP:  8.94D-01  2.32D+00  1.41D+00  3.00D+00  3.00D+00
                    CP:  3.00D+00  3.00D+00  3.00D+00  1.60D+00  2.64D+00
                    CP:  1.20D+00  1.54D+00  1.46D+00  2.76D+00  1.75D+00
                    CP:  1.56D+00
 E= -466.841874101225     Delta-E=       -0.000000000411 Rises=F Damp=F
 DIIS: error= 2.38D-07 at cycle  17 NSaved=  17.
 NSaved=17 IEnMin=17 EnMin= -466.841874101225     IErMin=17 ErrMin= 2.38D-07
 ErrMax= 2.38D-07  0.00D+00 EMaxC= 1.00D-01 BMatC= 3.28D-11 BMatP= 2.75D-10
 IDIUse=1 WtCom= 1.00D+00 WtEn= 0.00D+00
 Coeff-Com: -0.131D-05 0.294D-05 0.262D-05 0.230D-04-0.246D-04-0.100D-03
 Coeff-Com:  0.118D-03 0.325D-03-0.133D-03-0.236D-02-0.942D-03 0.113D-01
 Coeff-Com:  0.289D-01-0.583D-01-0.983D-01 0.218D+00 0.901D+00
 Coeff:     -0.131D-05 0.294D-05 0.262D-05 0.230D-04-0.246D-04-0.100D-03
 Coeff:      0.118D-03 0.325D-03-0.133D-03-0.236D-02-0.942D-03 0.113D-01
 Coeff:      0.289D-01-0.583D-01-0.983D-01 0.218D+00 0.901D+00
 Gap=     0.287 Goal=   None    Shift=    0.000
 Gap=     0.287 Goal=   None    Shift=    0.000
 RMSDP=1.99D-08 MaxDP=7.71D-07 DE=-4.11D-10 OVMax= 4.16D-06

 Cycle  18  Pass 1  IDiag  1:
 RMSU=  1.14D-08    CP:  8.94D-01  2.32D+00  1.41D+00  3.00D+00  3.00D+00
                    CP:  3.00D+00  3.00D+00  3.00D+00  1.60D+00  2.64D+00
                    CP:  1.20D+00  1.54D+00  1.46D+00  2.78D+00  1.80D+00
                    CP:  1.71D+00  1.18D+00
 E= -466.841874101251     Delta-E=       -0.000000000026 Rises=F Damp=F
 DIIS: error= 8.23D-08 at cycle  18 NSaved=  18.
 NSaved=18 IEnMin=18 EnMin= -466.841874101251     IErMin=18 ErrMin= 8.23D-08
 ErrMax= 8.23D-08  0.00D+00 EMaxC= 1.00D-01 BMatC= 5.21D-12 BMatP= 3.28D-11
 IDIUse=1 WtCom= 1.00D+00 WtEn= 0.00D+00
 Coeff-Com: -0.171D-05 0.371D-05 0.190D-05-0.123D-04-0.124D-04 0.399D-04
 Coeff-Com: -0.127D-04 0.328D-04-0.656D-04-0.418D-03-0.696D-03 0.280D-03
 Coeff-Com:  0.158D-01 0.348D-02-0.636D-01-0.360D-01 0.293D+00 0.788D+00
 Coeff:     -0.171D-05 0.371D-05 0.190D-05-0.123D-04-0.124D-04 0.399D-04
 Coeff:     -0.127D-04 0.328D-04-0.656D-04-0.418D-03-0.696D-03 0.280D-03
 Coeff:      0.158D-01 0.348D-02-0.636D-01-0.360D-01 0.293D+00 0.788D+00
 Gap=     0.287 Goal=   None    Shift=    0.000
 Gap=     0.287 Goal=   None    Shift=    0.000
 RMSDP=6.06D-09 MaxDP=2.49D-07 DE=-2.59D-11 OVMax= 1.11D-06

 Error on total polarization charges =  0.01181
 SCF Done:  E(UwB97XD) =  -466.841874101     A.U. after   18 cycles
            NFock= 18  Conv=0.61D-08     -V/T= 2.0055
 <Sx>= 0.0000 <Sy>= 0.0000 <Sz>= 0.0000 <S**2>= 0.0000 S= 0.0000
 <L.S>=  0.00000000000    
 KE= 4.642833149923D+02 PE=-2.455827582099D+03 EE= 8.376909190856D+02
 --------------------------------------------------------------------
 Variational PCM results
 =======================
 <psi(f)|   H    |psi(f)>                     (a.u.) =    -466.840343
 <psi(f)|H+V(f)/2|psi(f)>                     (a.u.) =    -466.841874
 (Polarized solute)-Solvent               (kcal/mol) =      -0.96
 --------------------------------------------------------------------
 Partition over spheres:
 Sphere  on Atom  Surface  Charge   GEl     GCav    GDR
    1      C1       7.18   0.011   -0.05    0.00    0.00
    2      C2       3.75   0.005   -0.03    0.00    0.00
    3      H3       7.52  -0.010   -0.03    0.00    0.00
    4      H4       2.26  -0.003   -0.01    0.00    0.00
    5      C5       4.62   0.009   -0.06    0.00    0.00
    6      C6       3.04   0.004   -0.02    0.00    0.00
    7      H7       4.70  -0.006   -0.03    0.00    0.00
    8      H8       2.27  -0.003   -0.01    0.00    0.00
    9      C9       3.29   0.002    0.00    0.00    0.00
   10      H10      6.57  -0.007   -0.01    0.00    0.00
   11      H11      3.78  -0.003   -0.01    0.00    0.00
   12      C12      6.77   0.011   -0.06    0.00    0.00
   13      H13      7.50  -0.010   -0.03    0.00    0.00
   14      C14      6.62   0.010   -0.05    0.00    0.00
   15      H15      7.52  -0.010   -0.03    0.00    0.00
   16      C16      3.55   0.001    0.00    0.00    0.00
   17      H17      4.70  -0.005   -0.02    0.00    0.00
   18      H18      7.05  -0.008   -0.03    0.00    0.00
   19      C19      5.40   0.010   -0.07    0.00    0.00
   20      H20      4.74  -0.006   -0.03    0.00    0.00
   21      C21      7.09   0.011   -0.06    0.00    0.00
   22      H22      7.52  -0.010   -0.03    0.00    0.00
   23      C23      3.57   0.002    0.00    0.00    0.00
   24      H24      4.18  -0.004   -0.01    0.00    0.00
   25      H25      6.60  -0.007   -0.01    0.00    0.00
   26      C26      3.30   0.001    0.00    0.00    0.00
   27      H27      6.97  -0.008   -0.03    0.00    0.00
   28      H28      4.67  -0.005   -0.02    0.00    0.00
 Added spheres:    72.32   0.014   -0.22    0.00    0.00
 --------------------------------------------------------------------
 After PCM corrections, the energy is  -466.841874101     a.u.
 --------------------------------------------------------------------
 Annihilation of the first spin contaminant:
 S**2 before annihilation     0.0000,   after    -0.0000
 Leave Link  502 at Mon Aug  3 15:37:34 2020, MaxMem=  6442450944 cpu:            7646.8 elap:             321.4
 (Enter /scratch/scicomp/CentOS/7.3.1611/Haswell/software/Gaussian/g16/l601.exe)
 Copying SCF densities to generalized density rwf, IOpCl= 1 IROHF=0.

 **********************************************************************

            Population analysis using the SCF Density.

 **********************************************************************

 Alpha  occ. eigenvalues --  -10.28631 -10.28631 -10.28337 -10.28337 -10.28265
 Alpha  occ. eigenvalues --  -10.28265 -10.28216 -10.28215 -10.28018 -10.28018
 Alpha  occ. eigenvalues --  -10.27247 -10.27247  -0.94703  -0.93532  -0.84831
 Alpha  occ. eigenvalues --   -0.84421  -0.83702  -0.83523  -0.71747  -0.71033
 Alpha  occ. eigenvalues --   -0.68448  -0.67882  -0.59949  -0.59933  -0.57737
 Alpha  occ. eigenvalues --   -0.56468  -0.53698  -0.53058  -0.51114  -0.50946
 Alpha  occ. eigenvalues --   -0.49916  -0.49095  -0.47700  -0.46979  -0.45925
 Alpha  occ. eigenvalues --   -0.44885  -0.41548  -0.41029  -0.39971  -0.39261
 Alpha  occ. eigenvalues --   -0.39207  -0.38641  -0.30373  -0.26414
 Alpha virt. eigenvalues --    0.02249   0.06337   0.10494   0.12371   0.13451
 Alpha virt. eigenvalues --    0.14557   0.14859   0.15701   0.15785   0.16084
 Alpha virt. eigenvalues --    0.16552   0.17198   0.17441   0.18354   0.19946
 Alpha virt. eigenvalues --    0.21059   0.21454   0.22852   0.23446   0.24216
 Alpha virt. eigenvalues --    0.24552   0.25253   0.26043   0.26566   0.27634
 Alpha virt. eigenvalues --    0.28613   0.29219   0.29534   0.30370   0.30602
 Alpha virt. eigenvalues --    0.30949   0.31624   0.32543   0.32969   0.34083
 Alpha virt. eigenvalues --    0.34214   0.34856   0.35712   0.36344   0.37419
 Alpha virt. eigenvalues --    0.38175   0.38622   0.41334   0.41807   0.42138
 Alpha virt. eigenvalues --    0.43282   0.44047   0.44263   0.44844   0.45490
 Alpha virt. eigenvalues --    0.46716   0.47672   0.48093   0.48359   0.48707
 Alpha virt. eigenvalues --    0.48875   0.48911   0.49145   0.49942   0.50029
 Alpha virt. eigenvalues --    0.50419   0.50515   0.52059   0.52361   0.52893
 Alpha virt. eigenvalues --    0.53050   0.54321   0.54336   0.55160   0.55285
 Alpha virt. eigenvalues --    0.56887   0.57170   0.57816   0.59373   0.60245
 Alpha virt. eigenvalues --    0.60779   0.61328   0.62603   0.62889   0.63901
 Alpha virt. eigenvalues --    0.66031   0.66210   0.67820   0.68373   0.69004
 Alpha virt. eigenvalues --    0.69447   0.71966   0.73806   0.75130   0.76009
 Alpha virt. eigenvalues --    0.77808   0.78138   0.78610   0.80181   0.81428
 Alpha virt. eigenvalues --    0.82338   0.83382   0.84548   0.84931   0.87585
 Alpha virt. eigenvalues --    0.89354   0.90818   0.91627   0.93674   0.93712
 Alpha virt. eigenvalues --    0.94883   0.97108   0.97141   0.98759   0.99902
 Alpha virt. eigenvalues --    1.01504   1.02973   1.04208   1.04968   1.05217
 Alpha virt. eigenvalues --    1.07242   1.07749   1.08208   1.09922   1.11965
 Alpha virt. eigenvalues --    1.12326   1.12451   1.14646   1.15956   1.16832
 Alpha virt. eigenvalues --    1.16898   1.18840   1.18960   1.19155   1.19701
 Alpha virt. eigenvalues --    1.20076   1.20913   1.23469   1.25155   1.25654
 Alpha virt. eigenvalues --    1.26190   1.26788   1.28181   1.28968   1.29314
 Alpha virt. eigenvalues --    1.30651   1.30872   1.32071   1.32216   1.33279
 Alpha virt. eigenvalues --    1.34431   1.34617   1.36931   1.37659   1.38507
 Alpha virt. eigenvalues --    1.39303   1.39697   1.40591   1.40870   1.42392
 Alpha virt. eigenvalues --    1.42601   1.42823   1.43455   1.44547   1.44880
 Alpha virt. eigenvalues --    1.45146   1.45972   1.47686   1.48802   1.49212
 Alpha virt. eigenvalues --    1.50654   1.52221   1.53173   1.55897   1.56761
 Alpha virt. eigenvalues --    1.58131   1.58892   1.60083   1.60994   1.61836
 Alpha virt. eigenvalues --    1.63337   1.64311   1.64649   1.65845   1.67680
 Alpha virt. eigenvalues --    1.68268   1.71720   1.75606   1.75963   1.77303
 Alpha virt. eigenvalues --    1.80007   1.81997   1.82807   1.84471   1.85284
 Alpha virt. eigenvalues --    1.88816   1.89538   1.90545   1.92527   1.93325
 Alpha virt. eigenvalues --    1.94723   1.96244   1.97611   2.00569   2.01310
 Alpha virt. eigenvalues --    2.04461   2.04869   2.09071   2.11779   2.11899
 Alpha virt. eigenvalues --    2.12293   2.13769   2.15656   2.16692   2.17947
 Alpha virt. eigenvalues --    2.18063   2.19433   2.19864   2.23462   2.24045
 Alpha virt. eigenvalues --    2.24761   2.24910   2.25349   2.29258   2.32053
 Alpha virt. eigenvalues --    2.36094   2.36583   2.38792   2.41434   2.42060
 Alpha virt. eigenvalues --    2.44386   2.46496   2.46843   2.48204   2.49736
 Alpha virt. eigenvalues --    2.50155   2.51408   2.51645   2.54029   2.56505
 Alpha virt. eigenvalues --    2.58708   2.59771   2.60872   2.62787   2.63156
 Alpha virt. eigenvalues --    2.63889   2.64641   2.65370   2.66481   2.66924
 Alpha virt. eigenvalues --    2.69177   2.69639   2.69823   2.72781   2.73944
 Alpha virt. eigenvalues --    2.74457   2.74754   2.75262   2.75733   2.77110
 Alpha virt. eigenvalues --    2.79164   2.80157   2.80921   2.81282   2.81708
 Alpha virt. eigenvalues --    2.81880   2.83621   2.83846   2.84106   2.86081
 Alpha virt. eigenvalues --    2.86230   2.88091   2.88101   2.89692   2.90636
 Alpha virt. eigenvalues --    2.92624   2.92649   2.94047   2.94737   2.96585
 Alpha virt. eigenvalues --    2.97203   2.98271   2.98932   2.99800   3.00912
 Alpha virt. eigenvalues --    3.01532   3.01956   3.03924   3.04458   3.06525
 Alpha virt. eigenvalues --    3.07082   3.09022   3.09938   3.10275   3.11203
 Alpha virt. eigenvalues --    3.11473   3.13135   3.13451   3.14687   3.15155
 Alpha virt. eigenvalues --    3.16150   3.16594   3.17138   3.17884   3.19512
 Alpha virt. eigenvalues --    3.20193   3.20756   3.20845   3.21752   3.21887
 Alpha virt. eigenvalues --    3.23050   3.23136   3.23329   3.24711   3.25563
 Alpha virt. eigenvalues --    3.25654   3.27690   3.28052   3.28110   3.29350
 Alpha virt. eigenvalues --    3.29649   3.30712   3.31035   3.31047   3.33025
 Alpha virt. eigenvalues --    3.33032   3.33708   3.35215   3.36455   3.36516
 Alpha virt. eigenvalues --    3.37178   3.37384   3.38945   3.40518   3.42174
 Alpha virt. eigenvalues --    3.43021   3.44131   3.44715   3.45683   3.46136
 Alpha virt. eigenvalues --    3.46855   3.47336   3.47706   3.48106   3.48340
 Alpha virt. eigenvalues --    3.49206   3.51505   3.51545   3.52438   3.54513
 Alpha virt. eigenvalues --    3.54671   3.55513   3.56257   3.57435   3.59360
 Alpha virt. eigenvalues --    3.61087   3.61605   3.62921   3.62940   3.63570
 Alpha virt. eigenvalues --    3.65156   3.67382   3.69224   3.70009   3.70080
 Alpha virt. eigenvalues --    3.71033   3.72230   3.74075   3.78117   3.78607
 Alpha virt. eigenvalues --    3.79996   3.80674   3.81606   3.82641   3.83800
 Alpha virt. eigenvalues --    3.84162   3.85997   3.87519   3.89559   3.90247
 Alpha virt. eigenvalues --    3.91761   3.93428   3.96084   3.98083   4.00472
 Alpha virt. eigenvalues --    4.01061   4.04124   4.04172   4.05594   4.08662
 Alpha virt. eigenvalues --    4.09089   4.09962   4.10190   4.11444   4.13002
 Alpha virt. eigenvalues --    4.13903   4.14760   4.17235   4.18653   4.19047
 Alpha virt. eigenvalues --    4.20713   4.22581   4.23759   4.27038   4.27581
 Alpha virt. eigenvalues --    4.28706   4.31191   4.32313   4.32488   4.37027
 Alpha virt. eigenvalues --    4.38314   4.38675   4.40549   4.42705   4.47267
 Alpha virt. eigenvalues --    4.48177   4.49388   4.50387   4.52439   4.54209
 Alpha virt. eigenvalues --    4.56241   4.60804   4.62315   4.67723   4.68147
 Alpha virt. eigenvalues --    4.71182   4.72116   4.72754   4.76023   4.78860
 Alpha virt. eigenvalues --    4.79509   4.81824   4.83225   4.85476   4.86324
 Alpha virt. eigenvalues --    4.88265   4.90074   4.93701   4.94537   4.96793
 Alpha virt. eigenvalues --    4.98870   5.05571   5.06160   5.10744   5.11448
 Alpha virt. eigenvalues --    5.16041   5.19390   5.19460   5.22659   5.24652
 Alpha virt. eigenvalues --    5.26999   5.35527   5.37060   5.40893   5.42659
 Alpha virt. eigenvalues --    5.46062   5.46676   5.51341   5.56522   5.71601
 Alpha virt. eigenvalues --    5.72317   5.77970   5.78235   5.97249   6.02086
 Alpha virt. eigenvalues --    7.95321   7.95460   8.03078   8.03802   8.05328
 Alpha virt. eigenvalues --    8.09694   8.11291   8.14386   8.18370   8.19847
 Alpha virt. eigenvalues --    8.35907   8.37128  34.77358  34.77850  34.81473
 Alpha virt. eigenvalues --   34.81512  34.84963  34.91683  34.96601  35.00371
 Alpha virt. eigenvalues --   35.01800  35.03350  35.17862  35.18937
  Beta  occ. eigenvalues --  -10.28631 -10.28631 -10.28337 -10.28337 -10.28265
  Beta  occ. eigenvalues --  -10.28265 -10.28216 -10.28215 -10.28018 -10.28018
  Beta  occ. eigenvalues --  -10.27247 -10.27247  -0.94703  -0.93532  -0.84831
  Beta  occ. eigenvalues --   -0.84421  -0.83702  -0.83523  -0.71747  -0.71033
  Beta  occ. eigenvalues --   -0.68448  -0.67882  -0.59949  -0.59933  -0.57737
  Beta  occ. eigenvalues --   -0.56468  -0.53698  -0.53058  -0.51114  -0.50946
  Beta  occ. eigenvalues --   -0.49916  -0.49095  -0.47700  -0.46979  -0.45925
  Beta  occ. eigenvalues --   -0.44885  -0.41548  -0.41029  -0.39971  -0.39261
  Beta  occ. eigenvalues --   -0.39207  -0.38641  -0.30373  -0.26414
  Beta virt. eigenvalues --    0.02249   0.06337   0.10494   0.12371   0.13451
  Beta virt. eigenvalues --    0.14557   0.14859   0.15701   0.15785   0.16084
  Beta virt. eigenvalues --    0.16552   0.17198   0.17441   0.18354   0.19946
  Beta virt. eigenvalues --    0.21059   0.21454   0.22852   0.23446   0.24216
  Beta virt. eigenvalues --    0.24552   0.25253   0.26043   0.26566   0.27634
  Beta virt. eigenvalues --    0.28613   0.29219   0.29534   0.30370   0.30602
  Beta virt. eigenvalues --    0.30949   0.31624   0.32543   0.32969   0.34083
  Beta virt. eigenvalues --    0.34214   0.34856   0.35712   0.36344   0.37419
  Beta virt. eigenvalues --    0.38175   0.38622   0.41334   0.41807   0.42138
  Beta virt. eigenvalues --    0.43282   0.44047   0.44263   0.44844   0.45490
  Beta virt. eigenvalues --    0.46716   0.47672   0.48093   0.48359   0.48707
  Beta virt. eigenvalues --    0.48875   0.48911   0.49145   0.49942   0.50029
  Beta virt. eigenvalues --    0.50419   0.50515   0.52059   0.52361   0.52893
  Beta virt. eigenvalues --    0.53050   0.54321   0.54336   0.55160   0.55285
  Beta virt. eigenvalues --    0.56887   0.57170   0.57816   0.59373   0.60245
  Beta virt. eigenvalues --    0.60779   0.61328   0.62603   0.62889   0.63901
  Beta virt. eigenvalues --    0.66031   0.66210   0.67820   0.68373   0.69004
  Beta virt. eigenvalues --    0.69447   0.71966   0.73806   0.75130   0.76009
  Beta virt. eigenvalues --    0.77808   0.78138   0.78610   0.80181   0.81428
  Beta virt. eigenvalues --    0.82338   0.83382   0.84548   0.84931   0.87585
  Beta virt. eigenvalues --    0.89354   0.90818   0.91627   0.93674   0.93712
  Beta virt. eigenvalues --    0.94883   0.97108   0.97141   0.98759   0.99902
  Beta virt. eigenvalues --    1.01504   1.02973   1.04208   1.04968   1.05217
  Beta virt. eigenvalues --    1.07242   1.07749   1.08208   1.09922   1.11965
  Beta virt. eigenvalues --    1.12326   1.12451   1.14646   1.15956   1.16832
  Beta virt. eigenvalues --    1.16898   1.18840   1.18960   1.19155   1.19701
  Beta virt. eigenvalues --    1.20076   1.20913   1.23469   1.25155   1.25654
  Beta virt. eigenvalues --    1.26190   1.26788   1.28181   1.28968   1.29314
  Beta virt. eigenvalues --    1.30651   1.30872   1.32071   1.32216   1.33279
  Beta virt. eigenvalues --    1.34431   1.34617   1.36931   1.37659   1.38507
  Beta virt. eigenvalues --    1.39303   1.39697   1.40591   1.40870   1.42392
  Beta virt. eigenvalues --    1.42601   1.42823   1.43455   1.44547   1.44880
  Beta virt. eigenvalues --    1.45146   1.45972   1.47686   1.48802   1.49212
  Beta virt. eigenvalues --    1.50654   1.52221   1.53173   1.55897   1.56761
  Beta virt. eigenvalues --    1.58131   1.58892   1.60083   1.60994   1.61836
  Beta virt. eigenvalues --    1.63337   1.64311   1.64649   1.65845   1.67680
  Beta virt. eigenvalues --    1.68268   1.71720   1.75606   1.75963   1.77303
  Beta virt. eigenvalues --    1.80007   1.81997   1.82807   1.84471   1.85284
  Beta virt. eigenvalues --    1.88816   1.89538   1.90545   1.92527   1.93325
  Beta virt. eigenvalues --    1.94723   1.96244   1.97611   2.00569   2.01310
  Beta virt. eigenvalues --    2.04461   2.04869   2.09071   2.11779   2.11899
  Beta virt. eigenvalues --    2.12293   2.13769   2.15656   2.16692   2.17947
  Beta virt. eigenvalues --    2.18063   2.19433   2.19864   2.23462   2.24045
  Beta virt. eigenvalues --    2.24761   2.24910   2.25349   2.29258   2.32053
  Beta virt. eigenvalues --    2.36094   2.36583   2.38792   2.41434   2.42060
  Beta virt. eigenvalues --    2.44386   2.46496   2.46843   2.48204   2.49736
  Beta virt. eigenvalues --    2.50155   2.51408   2.51645   2.54029   2.56505
  Beta virt. eigenvalues --    2.58708   2.59771   2.60872   2.62787   2.63156
  Beta virt. eigenvalues --    2.63889   2.64641   2.65370   2.66481   2.66924
  Beta virt. eigenvalues --    2.69177   2.69639   2.69823   2.72781   2.73944
  Beta virt. eigenvalues --    2.74457   2.74754   2.75262   2.75733   2.77110
  Beta virt. eigenvalues --    2.79164   2.80157   2.80921   2.81282   2.81708
  Beta virt. eigenvalues --    2.81880   2.83621   2.83846   2.84106   2.86081
  Beta virt. eigenvalues --    2.86230   2.88091   2.88101   2.89692   2.90636
  Beta virt. eigenvalues --    2.92624   2.92649   2.94047   2.94737   2.96585
  Beta virt. eigenvalues --    2.97203   2.98271   2.98932   2.99800   3.00912
  Beta virt. eigenvalues --    3.01532   3.01956   3.03924   3.04458   3.06525
  Beta virt. eigenvalues --    3.07082   3.09022   3.09938   3.10275   3.11203
  Beta virt. eigenvalues --    3.11473   3.13135   3.13451   3.14687   3.15155
  Beta virt. eigenvalues --    3.16150   3.16594   3.17138   3.17884   3.19512
  Beta virt. eigenvalues --    3.20193   3.20756   3.20845   3.21752   3.21887
  Beta virt. eigenvalues --    3.23050   3.23136   3.23329   3.24711   3.25563
  Beta virt. eigenvalues --    3.25654   3.27690   3.28052   3.28110   3.29350
  Beta virt. eigenvalues --    3.29649   3.30712   3.31035   3.31047   3.33025
  Beta virt. eigenvalues --    3.33032   3.33708   3.35215   3.36455   3.36516
  Beta virt. eigenvalues --    3.37178   3.37384   3.38945   3.40518   3.42174
  Beta virt. eigenvalues --    3.43021   3.44131   3.44715   3.45683   3.46136
  Beta virt. eigenvalues --    3.46855   3.47336   3.47706   3.48106   3.48340
  Beta virt. eigenvalues --    3.49206   3.51505   3.51545   3.52438   3.54513
  Beta virt. eigenvalues --    3.54671   3.55513   3.56257   3.57435   3.59360
  Beta virt. eigenvalues --    3.61087   3.61605   3.62921   3.62940   3.63570
  Beta virt. eigenvalues --    3.65156   3.67382   3.69224   3.70009   3.70080
  Beta virt. eigenvalues --    3.71033   3.72230   3.74075   3.78117   3.78607
  Beta virt. eigenvalues --    3.79996   3.80674   3.81606   3.82641   3.83800
  Beta virt. eigenvalues --    3.84162   3.85997   3.87519   3.89559   3.90247
  Beta virt. eigenvalues --    3.91761   3.93428   3.96084   3.98083   4.00472
  Beta virt. eigenvalues --    4.01061   4.04124   4.04172   4.05594   4.08662
  Beta virt. eigenvalues --    4.09089   4.09962   4.10190   4.11444   4.13002
  Beta virt. eigenvalues --    4.13903   4.14760   4.17235   4.18653   4.19047
  Beta virt. eigenvalues --    4.20713   4.22581   4.23759   4.27038   4.27581
  Beta virt. eigenvalues --    4.28706   4.31191   4.32313   4.32488   4.37027
  Beta virt. eigenvalues --    4.38314   4.38675   4.40549   4.42705   4.47267
  Beta virt. eigenvalues --    4.48177   4.49388   4.50387   4.52439   4.54209
  Beta virt. eigenvalues --    4.56241   4.60804   4.62315   4.67723   4.68147
  Beta virt. eigenvalues --    4.71182   4.72116   4.72754   4.76023   4.78860
  Beta virt. eigenvalues --    4.79509   4.81824   4.83225   4.85476   4.86324
  Beta virt. eigenvalues --    4.88265   4.90074   4.93701   4.94537   4.96793
  Beta virt. eigenvalues --    4.98870   5.05571   5.06160   5.10744   5.11448
  Beta virt. eigenvalues --    5.16041   5.19390   5.19460   5.22659   5.24652
  Beta virt. eigenvalues --    5.26999   5.35527   5.37060   5.40893   5.42659
  Beta virt. eigenvalues --    5.46062   5.46676   5.51341   5.56522   5.71601
  Beta virt. eigenvalues --    5.72317   5.77970   5.78235   5.97249   6.02086
  Beta virt. eigenvalues --    7.95321   7.95460   8.03078   8.03802   8.05328
  Beta virt. eigenvalues --    8.09694   8.11291   8.14386   8.18370   8.19847
  Beta virt. eigenvalues --    8.35907   8.37128  34.77358  34.77850  34.81473
  Beta virt. eigenvalues --   34.81512  34.84963  34.91683  34.96601  35.00371
  Beta virt. eigenvalues --   35.01800  35.03350  35.17862  35.18937
          Condensed to atoms (all electrons):
               1          2          3          4          5          6
     1  C    5.140132  -0.003544   0.425945  -0.001953   0.001625  -0.009312
     2  C   -0.003544   5.390779  -0.002469   0.423496  -0.071074  -0.019839
     3  H    0.425945  -0.002469   0.498107   0.000036  -0.000052   0.000038
     4  H   -0.001953   0.423496   0.000036   0.466943  -0.014629   0.002056
     5  C    0.001625  -0.071074  -0.000052  -0.014629   5.209665   0.503762
     6  C   -0.009312  -0.019839   0.000038   0.002056   0.503762   5.390733
     7  H    0.000306  -0.003210   0.000002  -0.000076   0.432341  -0.029982
     8  H   -0.001920   0.002058  -0.000087   0.000403  -0.033484   0.423482
     9  C    0.002954  -0.016885  -0.000009  -0.003480  -0.063217   0.224866
    10  H   -0.000048   0.002200  -0.000001  -0.000406  -0.007042  -0.042736
    11  H    0.000186  -0.008174   0.000003   0.000514   0.009862  -0.060584
    12  C   -0.000205   0.018599   0.000001   0.005478   0.283221  -0.070145
    13  H   -0.000001   0.000157   0.000000   0.000057  -0.040753   0.006021
    14  C    0.000162  -0.009313  -0.000000  -0.001919  -0.044600  -0.003535
    15  H   -0.000000   0.000038  -0.000000  -0.000087   0.007535  -0.002473
    16  C   -0.000585   0.016605   0.000001   0.000425  -0.006714  -0.061917
    17  H   -0.000009   0.001081  -0.000000  -0.004017   0.010662  -0.002755
    18  H    0.000003   0.000223   0.000000   0.000427  -0.002884   0.011773
    19  C   -0.044639   0.503724   0.007529  -0.033481  -0.027855  -0.071064
    20  H    0.004547  -0.030073  -0.000118  -0.004966   0.000296  -0.003206
    21  C    0.583193  -0.070135  -0.033990   0.005035   0.003649   0.018591
    22  H   -0.029761   0.006009  -0.006818  -0.000066   0.000050   0.000157
    23  C   -0.089462   0.224844   0.005927  -0.012011   0.010695  -0.016884
    24  H    0.013212  -0.060558  -0.000108  -0.003983   0.000324  -0.008174
    25  H    0.005726  -0.042733  -0.000018  -0.001193   0.000846   0.002200
    26  C    0.277755  -0.061960  -0.032532   0.004644  -0.009741   0.016610
    27  H   -0.034050   0.011777  -0.004277  -0.000096   0.000341   0.000223
    28  H   -0.030942  -0.002758   0.001332  -0.000205  -0.004342   0.001083
               7          8          9         10         11         12
     1  C    0.000306  -0.001920   0.002954  -0.000048   0.000186  -0.000205
     2  C   -0.003210   0.002058  -0.016885   0.002200  -0.008174   0.018599
     3  H    0.000002  -0.000087  -0.000009  -0.000001   0.000003   0.000001
     4  H   -0.000076   0.000403  -0.003480  -0.000406   0.000514   0.005478
     5  C    0.432341  -0.033484  -0.063217  -0.007042   0.009862   0.283221
     6  C   -0.029982   0.423482   0.224866  -0.042736  -0.060584  -0.070145
     7  H    0.482973  -0.004969   0.003432  -0.000220  -0.000033  -0.034504
     8  H   -0.004969   0.466984  -0.012009  -0.001194  -0.003983   0.005038
     9  C    0.003432  -0.012009   4.977835   0.389811   0.464835   0.036508
    10  H   -0.000220  -0.001194   0.389811   0.580594  -0.021818   0.001153
    11  H   -0.000033  -0.003983   0.464835  -0.021818   0.532793  -0.004599
    12  C   -0.034504   0.005038   0.036508   0.001153  -0.004599   5.014407
    13  H   -0.003757  -0.000066  -0.000290  -0.000077   0.000034   0.428602
    14  C    0.004546  -0.001955  -0.089477   0.005721   0.013214   0.583102
    15  H   -0.000118   0.000036   0.005929  -0.000018  -0.000108  -0.034035
    16  C   -0.001262   0.004646   0.350444  -0.024002  -0.055579  -0.051384
    17  H    0.000013  -0.000206  -0.029016   0.007135  -0.007907  -0.015032
    18  H    0.000039  -0.000096  -0.042094  -0.010574  -0.000658   0.005104
    19  C    0.000297  -0.014629   0.010704   0.000846   0.000325   0.003648
    20  H    0.000009  -0.000077   0.003412   0.000393  -0.002347  -0.000177
    21  C   -0.000177   0.005478  -0.003714  -0.000111   0.000052  -0.000416
    22  H   -0.000001   0.000057  -0.000106  -0.000000  -0.000016  -0.000001
    23  C    0.003415  -0.003484   0.002629  -0.000096   0.000395  -0.003712
    24  H   -0.002350   0.000514   0.000395  -0.000027  -0.000016   0.000053
    25  H    0.000393  -0.000406  -0.000095   0.000012  -0.000027  -0.000111
    26  C   -0.002264   0.000427  -0.001534   0.000073  -0.000164   0.001208
    27  H   -0.000015   0.000427  -0.000003   0.000000  -0.000000  -0.000042
    28  H    0.001999  -0.004015   0.000478   0.000005  -0.000004   0.000324
              13         14         15         16         17         18
     1  C   -0.000001   0.000162  -0.000000  -0.000585  -0.000009   0.000003
     2  C    0.000157  -0.009313   0.000038   0.016605   0.001081   0.000223
     3  H    0.000000  -0.000000  -0.000000   0.000001  -0.000000   0.000000
     4  H    0.000057  -0.001919  -0.000087   0.000425  -0.004017   0.000427
     5  C   -0.040753  -0.044600   0.007535  -0.006714   0.010662  -0.002884
     6  C    0.006021  -0.003535  -0.002473  -0.061917  -0.002755   0.011773
     7  H   -0.003757   0.004546  -0.000118  -0.001262   0.000013   0.000039
     8  H   -0.000066  -0.001955   0.000036   0.004646  -0.000206  -0.000096
     9  C   -0.000290  -0.089477   0.005929   0.350444  -0.029016  -0.042094
    10  H   -0.000077   0.005721  -0.000018  -0.024002   0.007135  -0.010574
    11  H    0.000034   0.013214  -0.000108  -0.055579  -0.007907  -0.000658
    12  C    0.428602   0.583102  -0.034035  -0.051384  -0.015032   0.005104
    13  H    0.497315  -0.029747  -0.006820   0.005402  -0.000443  -0.000137
    14  C   -0.029747   5.140205   0.425977   0.277772  -0.030936  -0.034042
    15  H   -0.006820   0.425977   0.498105  -0.032523   0.001332  -0.004276
    16  C    0.005402   0.277772  -0.032523   4.946268   0.393438   0.427661
    17  H   -0.000443  -0.030936   0.001332   0.393438   0.586123  -0.023042
    18  H   -0.000137  -0.034042  -0.004276   0.427661  -0.023042   0.545719
    19  C    0.000050   0.001625  -0.000052  -0.009745  -0.004338   0.000341
    20  H   -0.000001   0.000306   0.000002  -0.002263   0.001998  -0.000015
    21  C   -0.000001  -0.000205   0.000001   0.001209   0.000324  -0.000042
    22  H    0.000000  -0.000001   0.000000   0.000013  -0.000001  -0.000001
    23  C   -0.000106   0.002953  -0.000009  -0.001533   0.000478  -0.000003
    24  H   -0.000016   0.000186   0.000003  -0.000164  -0.000004  -0.000000
    25  H   -0.000000  -0.000048  -0.000001   0.000073   0.000005   0.000000
    26  C    0.000013  -0.000585   0.000001   0.000690   0.000019  -0.000004
    27  H   -0.000001   0.000003   0.000000  -0.000004   0.000001  -0.000000
    28  H   -0.000001  -0.000009  -0.000000   0.000019  -0.000013   0.000001
              19         20         21         22         23         24
     1  C   -0.044639   0.004547   0.583193  -0.029761  -0.089462   0.013212
     2  C    0.503724  -0.030073  -0.070135   0.006009   0.224844  -0.060558
     3  H    0.007529  -0.000118  -0.033990  -0.006818   0.005927  -0.000108
     4  H   -0.033481  -0.004966   0.005035  -0.000066  -0.012011  -0.003983
     5  C   -0.027855   0.000296   0.003649   0.000050   0.010695   0.000324
     6  C   -0.071064  -0.003206   0.018591   0.000157  -0.016884  -0.008174
     7  H    0.000297   0.000009  -0.000177  -0.000001   0.003415  -0.002350
     8  H   -0.014629  -0.000077   0.005478   0.000057  -0.003484   0.000514
     9  C    0.010704   0.003412  -0.003714  -0.000106   0.002629   0.000395
    10  H    0.000846   0.000393  -0.000111  -0.000000  -0.000096  -0.000027
    11  H    0.000325  -0.002347   0.000052  -0.000016   0.000395  -0.000016
    12  C    0.003648  -0.000177  -0.000416  -0.000001  -0.003712   0.000053
    13  H    0.000050  -0.000001  -0.000001   0.000000  -0.000106  -0.000016
    14  C    0.001625   0.000306  -0.000205  -0.000001   0.002953   0.000186
    15  H   -0.000052   0.000002   0.000001   0.000000  -0.000009   0.000003
    16  C   -0.009745  -0.002263   0.001209   0.000013  -0.001533  -0.000164
    17  H   -0.004338   0.001998   0.000324  -0.000001   0.000478  -0.000004
    18  H    0.000341  -0.000015  -0.000042  -0.000001  -0.000003  -0.000000
    19  C    5.209627   0.432396   0.283334  -0.040714  -0.063185   0.009854
    20  H    0.432396   0.483004  -0.034478  -0.003758   0.003432  -0.000033
    21  C    0.283334  -0.034478   5.014264   0.428591   0.036499  -0.004598
    22  H   -0.040714  -0.003758   0.428591   0.497282  -0.000289   0.000034
    23  C   -0.063185   0.003432   0.036499  -0.000289   4.977801   0.464817
    24  H    0.009854  -0.000033  -0.004598   0.000034   0.464817   0.532738
    25  H   -0.007043  -0.000219   0.001150  -0.000077   0.389814  -0.021812
    26  C   -0.006687  -0.001261  -0.051402   0.005401   0.350450  -0.055570
    27  H   -0.002887   0.000039   0.005111  -0.000136  -0.042082  -0.000660
    28  H    0.010661   0.000013  -0.015032  -0.000443  -0.029025  -0.007906
              25         26         27         28
     1  C    0.005726   0.277755  -0.034050  -0.030942
     2  C   -0.042733  -0.061960   0.011777  -0.002758
     3  H   -0.000018  -0.032532  -0.004277   0.001332
     4  H   -0.001193   0.004644  -0.000096  -0.000205
     5  C    0.000846  -0.009741   0.000341  -0.004342
     6  C    0.002200   0.016610   0.000223   0.001083
     7  H    0.000393  -0.002264  -0.000015   0.001999
     8  H   -0.000406   0.000427   0.000427  -0.004015
     9  C   -0.000095  -0.001534  -0.000003   0.000478
    10  H    0.000012   0.000073   0.000000   0.000005
    11  H   -0.000027  -0.000164  -0.000000  -0.000004
    12  C   -0.000111   0.001208  -0.000042   0.000324
    13  H   -0.000000   0.000013  -0.000001  -0.000001
    14  C   -0.000048  -0.000585   0.000003  -0.000009
    15  H   -0.000001   0.000001   0.000000  -0.000000
    16  C    0.000073   0.000690  -0.000004   0.000019
    17  H    0.000005   0.000019   0.000001  -0.000013
    18  H    0.000000  -0.000004  -0.000000   0.000001
    19  C   -0.007043  -0.006687  -0.002887   0.010661
    20  H   -0.000219  -0.001261   0.000039   0.000013
    21  C    0.001150  -0.051402   0.005111  -0.015032
    22  H   -0.000077   0.005401  -0.000136  -0.000443
    23  C    0.389814   0.350450  -0.042082  -0.029025
    24  H   -0.021812  -0.055570  -0.000660  -0.007906
    25  H    0.580590  -0.024010  -0.010572   0.007136
    26  C   -0.024010   4.946348   0.427658   0.393443
    27  H   -0.010572   0.427658   0.545702  -0.023046
    28  H    0.007136   0.393443  -0.023046   0.586148
          Atomic-Atomic Spin Densities.
               1          2          3          4          5          6
     1  C   -0.000000   0.000000  -0.000000  -0.000000  -0.000000  -0.000000
     2  C    0.000000   0.000000   0.000000  -0.000000  -0.000000  -0.000000
     3  H   -0.000000   0.000000  -0.000000   0.000000   0.000000  -0.000000
     4  H   -0.000000  -0.000000   0.000000   0.000000   0.000000   0.000000
     5  C   -0.000000  -0.000000   0.000000   0.000000  -0.000000  -0.000000
     6  C   -0.000000  -0.000000  -0.000000   0.000000  -0.000000   0.000000
     7  H    0.000000  -0.000000  -0.000000  -0.000000   0.000000  -0.000000
     8  H    0.000000  -0.000000   0.000000   0.000000   0.000000   0.000000
     9  C    0.000000  -0.000000   0.000000   0.000000   0.000000  -0.000000
    10  H   -0.000000  -0.000000   0.000000  -0.000000  -0.000000  -0.000000
    11  H   -0.000000   0.000000  -0.000000   0.000000  -0.000000   0.000000
    12  C    0.000000   0.000000  -0.000000  -0.000000   0.000000  -0.000000
    13  H    0.000000  -0.000000  -0.000000  -0.000000   0.000000  -0.000000
    14  C   -0.000000   0.000000   0.000000  -0.000000   0.000000  -0.000000
    15  H   -0.000000   0.000000  -0.000000  -0.000000   0.000000  -0.000000
    16  C    0.000000   0.000000  -0.000000  -0.000000  -0.000000   0.000000
    17  H   -0.000000  -0.000000   0.000000   0.000000   0.000000  -0.000000
    18  H    0.000000   0.000000  -0.000000  -0.000000  -0.000000   0.000000
    19  C   -0.000000   0.000000  -0.000000  -0.000000   0.000000   0.000000
    20  H   -0.000000   0.000000   0.000000  -0.000000   0.000000   0.000000
    21  C    0.000000   0.000000   0.000000   0.000000   0.000000  -0.000000
    22  H   -0.000000   0.000000   0.000000   0.000000   0.000000   0.000000
    23  C   -0.000000   0.000000  -0.000000  -0.000000   0.000000   0.000000
    24  H    0.000000  -0.000000   0.000000   0.000000  -0.000000  -0.000000
    25  H    0.000000  -0.000000  -0.000000  -0.000000  -0.000000   0.000000
    26  C   -0.000000  -0.000000   0.000000   0.000000  -0.000000  -0.000000
    27  H    0.000000  -0.000000   0.000000   0.000000  -0.000000  -0.000000
    28  H    0.000000   0.000000  -0.000000  -0.000000   0.000000   0.000000
               7          8          9         10         11         12
     1  C    0.000000   0.000000   0.000000  -0.000000  -0.000000   0.000000
     2  C   -0.000000  -0.000000  -0.000000  -0.000000   0.000000   0.000000
     3  H   -0.000000   0.000000   0.000000   0.000000  -0.000000  -0.000000
     4  H   -0.000000   0.000000   0.000000  -0.000000   0.000000  -0.000000
     5  C    0.000000   0.000000   0.000000  -0.000000  -0.000000   0.000000
     6  C   -0.000000   0.000000  -0.000000  -0.000000   0.000000  -0.000000
     7  H    0.000000   0.000000  -0.000000   0.000000  -0.000000  -0.000000
     8  H    0.000000  -0.000000   0.000000   0.000000  -0.000000  -0.000000
     9  C   -0.000000   0.000000   0.000001   0.000000  -0.000000  -0.000000
    10  H    0.000000   0.000000   0.000000  -0.000000   0.000000   0.000000
    11  H   -0.000000  -0.000000  -0.000000   0.000000  -0.000000   0.000000
    12  C   -0.000000  -0.000000  -0.000000   0.000000   0.000000   0.000001
    13  H    0.000000  -0.000000  -0.000000   0.000000  -0.000000  -0.000000
    14  C    0.000000   0.000000   0.000000  -0.000000  -0.000000  -0.000000
    15  H   -0.000000  -0.000000   0.000000   0.000000  -0.000000  -0.000000
    16  C   -0.000000  -0.000000  -0.000000   0.000000   0.000000   0.000000
    17  H    0.000000   0.000000  -0.000000  -0.000000  -0.000000  -0.000000
    18  H   -0.000000  -0.000000  -0.000000   0.000000   0.000000   0.000000
    19  C   -0.000000  -0.000000  -0.000000   0.000000   0.000000   0.000000
    20  H    0.000000   0.000000  -0.000000  -0.000000   0.000000  -0.000000
    21  C    0.000000   0.000000   0.000000  -0.000000  -0.000000  -0.000000
    22  H    0.000000   0.000000   0.000000  -0.000000   0.000000  -0.000000
    23  C    0.000000   0.000000  -0.000000   0.000000  -0.000000  -0.000000
    24  H   -0.000000  -0.000000   0.000000  -0.000000   0.000000   0.000000
    25  H    0.000000   0.000000  -0.000000   0.000000   0.000000   0.000000
    26  C   -0.000000   0.000000   0.000000  -0.000000   0.000000   0.000000
    27  H    0.000000  -0.000000   0.000000  -0.000000  -0.000000   0.000000
    28  H   -0.000000  -0.000000  -0.000000   0.000000   0.000000  -0.000000
              13         14         15         16         17         18
     1  C    0.000000  -0.000000  -0.000000   0.000000  -0.000000   0.000000
     2  C   -0.000000   0.000000   0.000000   0.000000  -0.000000   0.000000
     3  H   -0.000000   0.000000  -0.000000  -0.000000   0.000000  -0.000000
     4  H   -0.000000  -0.000000  -0.000000  -0.000000   0.000000  -0.000000
     5  C    0.000000   0.000000   0.000000  -0.000000   0.000000  -0.000000
     6  C   -0.000000  -0.000000  -0.000000   0.000000  -0.000000   0.000000
     7  H    0.000000   0.000000  -0.000000  -0.000000   0.000000  -0.000000
     8  H   -0.000000   0.000000  -0.000000  -0.000000   0.000000  -0.000000
     9  C   -0.000000   0.000000   0.000000  -0.000000  -0.000000  -0.000000
    10  H    0.000000  -0.000000   0.000000   0.000000  -0.000000   0.000000
    11  H   -0.000000  -0.000000  -0.000000   0.000000  -0.000000   0.000000
    12  C   -0.000000  -0.000000  -0.000000   0.000000  -0.000000   0.000000
    13  H   -0.000000   0.000000  -0.000000  -0.000000   0.000000   0.000000
    14  C    0.000000  -0.000000   0.000000   0.000000  -0.000000   0.000000
    15  H   -0.000000   0.000000   0.000000  -0.000000   0.000000  -0.000000
    16  C   -0.000000   0.000000  -0.000000  -0.000001  -0.000000   0.000000
    17  H    0.000000  -0.000000   0.000000  -0.000000   0.000000  -0.000000
    18  H    0.000000   0.000000  -0.000000   0.000000  -0.000000   0.000000
    19  C   -0.000000   0.000000  -0.000000   0.000000  -0.000000   0.000000
    20  H   -0.000000  -0.000000   0.000000   0.000000   0.000000  -0.000000
    21  C    0.000000  -0.000000   0.000000  -0.000000   0.000000  -0.000000
    22  H   -0.000000   0.000000   0.000000  -0.000000   0.000000  -0.000000
    23  C   -0.000000  -0.000000  -0.000000  -0.000000   0.000000  -0.000000
    24  H   -0.000000   0.000000   0.000000  -0.000000  -0.000000   0.000000
    25  H    0.000000   0.000000  -0.000000   0.000000  -0.000000   0.000000
    26  C    0.000000  -0.000000   0.000000  -0.000000  -0.000000   0.000000
    27  H    0.000000  -0.000000   0.000000  -0.000000  -0.000000   0.000000
    28  H   -0.000000   0.000000  -0.000000   0.000000  -0.000000   0.000000
              19         20         21         22         23         24
     1  C   -0.000000  -0.000000   0.000000  -0.000000  -0.000000   0.000000
     2  C    0.000000   0.000000   0.000000   0.000000   0.000000  -0.000000
[...]
     2  C   -0.000000  -0.000000  -0.000000   0.000000
     3  H   -0.000000   0.000000   0.000000  -0.000000
     4  H   -0.000000   0.000000   0.000000  -0.000000
     5  C   -0.000000  -0.000000  -0.000000   0.000000
     6  C    0.000000  -0.000000  -0.000000   0.000000
     7  H    0.000000  -0.000000   0.000000  -0.000000
     8  H    0.000000   0.000000  -0.000000  -0.000000
     9  C   -0.000000   0.000000   0.000000  -0.000000
    10  H    0.000000  -0.000000  -0.000000   0.000000
    11  H    0.000000   0.000000  -0.000000   0.000000
    12  C    0.000000   0.000000   0.000000  -0.000000
    13  H    0.000000   0.000000   0.000000  -0.000000
    14  C    0.000000  -0.000000  -0.000000   0.000000
    15  H   -0.000000   0.000000   0.000000  -0.000000
    16  C    0.000000  -0.000000  -0.000000   0.000000
    17  H   -0.000000  -0.000000  -0.000000  -0.000000
    18  H    0.000000   0.000000   0.000000   0.000000
    19  C    0.000000   0.000000   0.000000  -0.000000
    20  H   -0.000000   0.000000   0.000000  -0.000000
    21  C   -0.000000  -0.000000  -0.000000   0.000000
    22  H   -0.000000   0.000000  -0.000000  -0.000000
    23  C   -0.000000   0.000000   0.000000   0.000000
    24  H   -0.000000  -0.000000  -0.000000   0.000000
    25  H    0.000000  -0.000000  -0.000000   0.000000
    26  C   -0.000000   0.000001  -0.000000  -0.000000
    27  H   -0.000000  -0.000000  -0.000000   0.000000
    28  H    0.000000  -0.000000   0.000000  -0.000000
 Mulliken charges and spin densities:
               1          2
     1  C   -0.209314  -0.000000
     2  C   -0.198864   0.000000
     3  H    0.141559  -0.000000
     4  H    0.173054   0.000000
     5  C   -0.148486   0.000000
     6  C   -0.198988   0.000000
     7  H    0.153172   0.000000
     8  H    0.173027  -0.000000
     9  C   -0.212303   0.000001
    10  H    0.120424  -0.000000
    11  H    0.143803  -0.000000
    12  C   -0.172085   0.000001
    13  H    0.144565  -0.000000
    14  C   -0.209401  -0.000000
    15  H    0.141562   0.000000
    16  C   -0.176991  -0.000000
    17  H    0.115109   0.000000
    18  H    0.126576   0.000000
    19  C   -0.148641  -0.000000
    20  H    0.153145  -0.000000
    21  C   -0.172182  -0.000000
    22  H    0.144596   0.000000
    23  C   -0.212267  -0.000001
    24  H    0.143849   0.000000
    25  H    0.120421   0.000000
    26  C   -0.177029   0.000001
    27  H    0.126589  -0.000000
    28  H    0.115099  -0.000000
 Sum of Mulliken charges =  -0.00000  -0.00000
 Mulliken charges and spin densities with hydrogens summed into heavy atoms:
               1          2
     1  C   -0.067755  -0.000000
     2  C   -0.025809   0.000000
     5  C    0.004686   0.000000
     6  C   -0.025961  -0.000000
     9  C    0.051924   0.000000
    12  C   -0.027520   0.000000
    14  C   -0.067839  -0.000000
    16  C    0.064695  -0.000000
    19  C    0.004504  -0.000001
    21  C   -0.027586   0.000000
    23  C    0.052003  -0.000000
    26  C    0.064659   0.000000
 Electronic spatial extent (au):  <R**2>=           2222.1042
 Charge=             -0.0000 electrons
 Dipole moment (field-independent basis, Debye):
    X=              0.0003    Y=             -0.0004    Z=             -0.0002  Tot=              0.0006
 Quadrupole moment (field-independent basis, Debye-Ang):
   XX=            -72.2790   YY=            -69.9125   ZZ=            -77.2161
   XY=             -3.3336   XZ=             -3.3069   YZ=             -1.5204
 Traceless Quadrupole moment (field-independent basis, Debye-Ang):
   XX=              0.8568   YY=              3.2234   ZZ=             -4.0802
   XY=             -3.3336   XZ=             -3.3069   YZ=             -1.5204
 Octapole moment (field-independent basis, Debye-Ang**2):
  XXX=              0.0107  YYY=             -0.0038  ZZZ=             -0.0003  XYY=             -0.0028
  XXY=             -0.0039  XXZ=             -0.0015  XZZ=              0.0003  YZZ=              0.0005
  YYZ=             -0.0008  XYZ=              0.0003
 Hexadecapole moment (field-independent basis, Debye-Ang**3):
 XXXX=          -2048.3511 YYYY=           -627.0771 ZZZZ=           -348.0164 XXXY=           -103.3492
 XXXZ=           -124.0201 YYYX=            -58.9480 YYYZ=             -2.8782 ZZZX=            -73.6810
 ZZZY=            -12.9016 XXYY=           -444.1007 XXZZ=           -423.4460 YYZZ=           -177.8184
 XXYZ=            -21.1349 YYXZ=            -27.2163 ZZXY=            -42.9942
 N-N= 6.870114739197D+02 E-N=-2.455827583346D+03  KE= 4.642833149923D+02
                          Isotropic Fermi Contact Couplings
        Atom                 a.u.       MegaHertz       Gauss      10(-4) cm-1
     1  C(13)              0.00000       0.00002       0.00001       0.00001
     2  C(13)             -0.00000      -0.00006      -0.00002      -0.00002
     3  H(1)              -0.00000      -0.00005      -0.00002      -0.00002
     4  H(1)               0.00000       0.00011       0.00004       0.00004
     5  C(13)             -0.00000      -0.00010      -0.00003      -0.00003
     6  C(13)              0.00000       0.00009       0.00003       0.00003
     7  H(1)               0.00000       0.00005       0.00002       0.00002
     8  H(1)              -0.00000      -0.00013      -0.00005      -0.00004
     9  C(13)              0.00000       0.00022       0.00008       0.00007
    10  H(1)              -0.00000      -0.00017      -0.00006      -0.00006
    11  H(1)              -0.00000      -0.00021      -0.00007      -0.00007
    12  C(13)              0.00000       0.00014       0.00005       0.00005
    13  H(1)              -0.00000      -0.00012      -0.00004      -0.00004
    14  C(13)             -0.00000      -0.00005      -0.00002      -0.00002
    15  H(1)               0.00000       0.00007       0.00002       0.00002
    16  C(13)             -0.00000      -0.00015      -0.00005      -0.00005
    17  H(1)               0.00000       0.00007       0.00002       0.00002
    18  H(1)               0.00000       0.00001       0.00000       0.00000
    19  C(13)              0.00000       0.00007       0.00002       0.00002
    20  H(1)              -0.00000      -0.00003      -0.00001      -0.00001
    21  C(13)             -0.00000      -0.00011      -0.00004      -0.00004
    22  H(1)               0.00000       0.00011       0.00004       0.00004
    23  C(13)             -0.00000      -0.00024      -0.00008      -0.00008
    24  H(1)               0.00000       0.00021       0.00008       0.00007
    25  H(1)               0.00000       0.00019       0.00007       0.00006
    26  C(13)              0.00000       0.00017       0.00006       0.00006
    27  H(1)              -0.00000      -0.00002      -0.00001      -0.00001
    28  H(1)              -0.00000      -0.00009      -0.00003      -0.00003
 --------------------------------------------------------
       Center         ----  Spin Dipole Couplings  ----
                      3XX-RR        3YY-RR        3ZZ-RR
 --------------------------------------------------------
     1   Atom        0.000000      0.000000     -0.000000
     2   Atom       -0.000000     -0.000000      0.000000
     3   Atom       -0.000000      0.000000      0.000000
     4   Atom       -0.000000     -0.000000      0.000000
     5   Atom       -0.000000     -0.000000      0.000000
     6   Atom        0.000000     -0.000000     -0.000000
     7   Atom        0.000000     -0.000000      0.000000
     8   Atom        0.000000     -0.000000     -0.000000
     9   Atom       -0.000000     -0.000000      0.000000
    10   Atom       -0.000000     -0.000000      0.000000
    11   Atom       -0.000000      0.000000     -0.000000
    12   Atom       -0.000000     -0.000000      0.000000
    13   Atom       -0.000000      0.000000     -0.000000
    14   Atom       -0.000000      0.000000     -0.000000
    15   Atom       -0.000000      0.000000     -0.000000
    16   Atom       -0.000000      0.000000     -0.000000
    17   Atom        0.000000      0.000000     -0.000000
    18   Atom       -0.000000     -0.000000      0.000000
    19   Atom        0.000000      0.000000     -0.000001
    20   Atom        0.000000      0.000000     -0.000000
    21   Atom       -0.000000     -0.000000      0.000000
    22   Atom        0.000000     -0.000000      0.000000
    23   Atom       -0.000000      0.000000     -0.000000
    24   Atom        0.000000     -0.000000      0.000000
    25   Atom        0.000000      0.000000     -0.000000
    26   Atom        0.000000     -0.000000      0.000000
    27   Atom        0.000000     -0.000000     -0.000000
    28   Atom       -0.000000     -0.000000      0.000000
 --------------------------------------------------------
                        XY            XZ            YZ
 --------------------------------------------------------
     1   Atom       -0.000000     -0.000000     -0.000000
     2   Atom        0.000000      0.000001      0.000000
     3   Atom       -0.000000     -0.000000     -0.000000
     4   Atom       -0.000000     -0.000000      0.000000
     5   Atom        0.000000      0.000000      0.000000
     6   Atom       -0.000000     -0.000000     -0.000000
     7   Atom       -0.000000      0.000000      0.000000
     8   Atom        0.000000     -0.000000     -0.000000
     9   Atom        0.000000      0.000000      0.000000
    10   Atom       -0.000000      0.000000     -0.000000
    11   Atom        0.000000      0.000000      0.000000
    12   Atom        0.000000     -0.000000     -0.000000
    13   Atom        0.000000     -0.000000     -0.000000
    14   Atom        0.000000     -0.000000      0.000000
    15   Atom       -0.000000      0.000000      0.000000
    16   Atom        0.000000      0.000000     -0.000000
    17   Atom       -0.000000     -0.000000     -0.000000
    18   Atom        0.000000     -0.000000      0.000000
    19   Atom       -0.000000     -0.000001     -0.000000
    20   Atom        0.000000     -0.000000     -0.000000
    21   Atom       -0.000000      0.000000      0.000000
    22   Atom       -0.000000      0.000000      0.000000
    23   Atom       -0.000000     -0.000000     -0.000000
    24   Atom       -0.000000     -0.000000     -0.000000
    25   Atom       -0.000000     -0.000000      0.000000
    26   Atom       -0.000000     -0.000000      0.000000
    27   Atom       -0.000000      0.000000     -0.000000
    28   Atom        0.000000      0.000000      0.000000
 --------------------------------------------------------


 ---------------------------------------------------------------------------------
              Anisotropic Spin Dipole Couplings in Principal Axis System
 ---------------------------------------------------------------------------------

       Atom             a.u.   MegaHertz   Gauss  10(-4) cm-1        Axes

              Baa    -0.0000    -0.000    -0.000    -0.000  0.1933  0.2996  0.9343
     1 C(13)  Bbb     0.0000     0.000     0.000     0.000  0.0967  0.9418 -0.3220
              Bcc     0.0000     0.000     0.000     0.000  0.9764 -0.1526 -0.1531
 
              Baa    -0.0000    -0.000    -0.000    -0.000  0.7955  0.2441 -0.5546
     2 C(13)  Bbb    -0.0000    -0.000    -0.000    -0.000 -0.3822  0.9124 -0.1465
              Bcc     0.0000     0.000     0.000     0.000  0.4702  0.3285  0.8191
 
              Baa    -0.0000    -0.000    -0.000    -0.000  0.9043  0.1541  0.3982
     3 H(1)   Bbb     0.0000     0.000     0.000     0.000 -0.2706  0.9282  0.2554
              Bcc     0.0000     0.000     0.000     0.000 -0.3302 -0.3387  0.8810
 
              Baa    -0.0000    -0.000    -0.000    -0.000  0.9897  0.1433  0.0054
     4 H(1)   Bbb    -0.0000    -0.000    -0.000    -0.000 -0.1388  0.9669 -0.2141
              Bcc     0.0000     0.000     0.000     0.000 -0.0359  0.2111  0.9768
 
              Baa    -0.0000    -0.000    -0.000    -0.000  0.9102 -0.1829 -0.3717
     5 C(13)  Bbb    -0.0000    -0.000    -0.000    -0.000  0.0550  0.9427 -0.3291
              Bcc     0.0000     0.000     0.000     0.000  0.4106  0.2791  0.8681
 
              Baa    -0.0000    -0.000    -0.000    -0.000  0.4929  0.4701  0.7321
     6 C(13)  Bbb     0.0000     0.000     0.000     0.000 -0.4884  0.8459 -0.2144
              Bcc     0.0000     0.000     0.000     0.000  0.7201  0.2519 -0.6466
 
              Baa    -0.0000    -0.000    -0.000    -0.000  0.5772  0.7730 -0.2632
     7 H(1)   Bbb     0.0000     0.000     0.000     0.000 -0.5145  0.5946  0.6178
              Bcc     0.0000     0.000     0.000     0.000  0.6341 -0.2212  0.7410
 
              Baa    -0.0000    -0.000    -0.000    -0.000  0.0417  0.3526  0.9348
     8 H(1)   Bbb    -0.0000    -0.000    -0.000    -0.000 -0.1577  0.9262 -0.3423
              Bcc     0.0000     0.000     0.000     0.000  0.9866  0.1332 -0.0943
 
              Baa    -0.0000    -0.000    -0.000    -0.000 -0.5941  0.8033 -0.0415
     9 C(13)  Bbb     0.0000     0.000     0.000     0.000 -0.5029 -0.3307  0.7985
              Bcc     0.0000     0.000     0.000     0.000  0.6277  0.4953  0.6005
 
              Baa    -0.0000    -0.000    -0.000    -0.000  0.8572 -0.3438 -0.3834
    10 H(1)   Bbb    -0.0000    -0.000    -0.000    -0.000  0.3457  0.9360 -0.0663
              Bcc     0.0000     0.000     0.000     0.000  0.3816 -0.0757  0.9212
 
              Baa    -0.0000    -0.000    -0.000    -0.000  0.8384 -0.5059  0.2030
    11 H(1)   Bbb    -0.0000    -0.000    -0.000    -0.000 -0.2082  0.0469  0.9770
              Bcc     0.0000     0.000     0.000     0.000  0.5037  0.8613  0.0660
 
              Baa    -0.0000    -0.000    -0.000    -0.000  0.7791 -0.6225  0.0740
    12 C(13)  Bbb     0.0000     0.000     0.000     0.000  0.5404  0.7268  0.4240
              Bcc     0.0000     0.000     0.000     0.000 -0.3177 -0.2903  0.9027
 
              Baa    -0.0000    -0.000    -0.000    -0.000  0.8279 -0.3560  0.4333
    13 H(1)   Bbb    -0.0000    -0.000    -0.000    -0.000 -0.3280  0.3192  0.8891
              Bcc     0.0000     0.000     0.000     0.000  0.4549  0.8783 -0.1475
 
              Baa    -0.0000    -0.000    -0.000    -0.000  0.7299 -0.2465  0.6376
    14 C(13)  Bbb     0.0000     0.000     0.000     0.000  0.6755  0.4031 -0.6174
              Bcc     0.0000     0.000     0.000     0.000 -0.1049  0.8813  0.4607
 
              Baa    -0.0000    -0.000    -0.000    -0.000 -0.5795 -0.1950  0.7913
    15 H(1)   Bbb     0.0000     0.000     0.000     0.000  0.8111 -0.2322  0.5368
              Bcc     0.0000     0.000     0.000     0.000  0.0791  0.9529  0.2927
 
              Baa    -0.0000    -0.000    -0.000    -0.000 -0.6336  0.1015  0.7670
    16 C(13)  Bbb    -0.0000    -0.000    -0.000    -0.000  0.7736  0.0654  0.6303
              Bcc     0.0000     0.000     0.000     0.000  0.0138  0.9927 -0.1200
 
              Baa    -0.0000    -0.000    -0.000    -0.000  0.2924  0.3382  0.8945
    17 H(1)   Bbb     0.0000     0.000     0.000     0.000  0.8740  0.2850 -0.3934
              Bcc     0.0000     0.000     0.000     0.000 -0.3880  0.8969 -0.2123
 
              Baa    -0.0000    -0.000    -0.000    -0.000  0.7085 -0.6275  0.3229
    18 H(1)   Bbb     0.0000     0.000     0.000     0.000 -0.5253 -0.1635  0.8351
              Bcc     0.0000     0.000     0.000     0.000  0.4712  0.7613  0.4455
 
              Baa    -0.0000    -0.000    -0.000    -0.000  0.4032  0.2189  0.8886
    19 C(13)  Bbb     0.0000     0.000     0.000     0.000  0.0107  0.9698 -0.2437
              Bcc     0.0000     0.000     0.000     0.000  0.9151 -0.1077 -0.3887
 
              Baa    -0.0000    -0.000    -0.000    -0.000  0.7370 -0.4487  0.5055
    20 H(1)   Bbb    -0.0000    -0.000    -0.000    -0.000 -0.2258  0.5416  0.8098
              Bcc     0.0000     0.000     0.000     0.000  0.6371  0.7109 -0.2978
 
              Baa    -0.0000    -0.000    -0.000    -0.000  0.6805  0.5747 -0.4546
    21 C(13)  Bbb    -0.0000    -0.000    -0.000    -0.000 -0.4032  0.8117  0.4226
              Bcc     0.0000     0.000     0.000     0.000  0.6119 -0.1043  0.7840
 
              Baa    -0.0000    -0.000    -0.000    -0.000  0.4497  0.8824 -0.1384
    22 H(1)   Bbb     0.0000     0.000     0.000     0.000  0.7294 -0.4522 -0.5133
              Bcc     0.0000     0.000     0.000     0.000  0.5155 -0.1299  0.8470
 
              Baa    -0.0000    -0.000    -0.000    -0.000  0.6594  0.5269  0.5363
    23 C(13)  Bbb    -0.0000    -0.000    -0.000    -0.000 -0.4591 -0.2827  0.8422
              Bcc     0.0000     0.000     0.000     0.000 -0.5953  0.8016 -0.0555
 
              Baa    -0.0000    -0.000    -0.000    -0.000  0.5334  0.8431  0.0677
    24 H(1)   Bbb     0.0000     0.000     0.000     0.000 -0.2179  0.0597  0.9741
              Bcc     0.0000     0.000     0.000     0.000  0.8173 -0.5344  0.2155
 
              Baa    -0.0000    -0.000    -0.000    -0.000  0.3595 -0.0636  0.9310
    25 H(1)   Bbb     0.0000     0.000     0.000     0.000  0.5763  0.7998 -0.1679
              Bcc     0.0000     0.000     0.000     0.000  0.7339 -0.5969 -0.3241
 
              Baa    -0.0000    -0.000    -0.000    -0.000  0.0164  0.9919 -0.1261
    26 C(13)  Bbb     0.0000     0.000     0.000     0.000  0.7612  0.0694  0.6448
              Bcc     0.0000     0.000     0.000     0.000 -0.6483  0.1065  0.7539
 
              Baa    -0.0000    -0.000    -0.000    -0.000  0.5028  0.8093  0.3038
    27 H(1)   Bbb    -0.0000    -0.000    -0.000    -0.000 -0.4243 -0.0751  0.9024
              Bcc     0.0000     0.000     0.000     0.000  0.7531 -0.5826  0.3056
 
              Baa    -0.0000    -0.000    -0.000    -0.000 -0.1249  0.9495 -0.2878
    28 H(1)   Bbb    -0.0000    -0.000    -0.000    -0.000  0.9559  0.0375 -0.2912
              Bcc     0.0000     0.000     0.000     0.000  0.2657  0.3114  0.9124
 

 ---------------------------------------------------------------------------------

 No NMR shielding tensors so no spin-rotation constants.
 Leave Link  601 at Mon Aug  3 15:37:34 2020, MaxMem=  6442450944 cpu:               7.9 elap:               0.4
 (Enter /scratch/scicomp/CentOS/7.3.1611/Haswell/software/Gaussian/g16/l9999.exe)
 1\1\GINC-ATLAS-205\SP\UwB97XD\def2TZVP\C12H16\BOCHEN\03-Aug-2020\0\\#p
  uwb97xd guess=mix def2tzvp # scrf=(iefpcm,solvent=Cyclohexane,read) n
 osym 6d 10f\\endo-2 xp-pcm for eta=3\\0,1\C,0,-3.121693,-0.437935,0.24
 8475\C,0,-0.608894,-0.218266,-1.036985\H,0,-4.085054,-0.548156,0.73278
 9\H,0,0.360308,-0.124712,-1.506593\C,0,1.099596,1.410984,0.705395\C,0,
 0.608894,0.218266,1.036985\H,0,0.514105,2.311092,0.843328\H,0,-0.36030
 8,0.124712,1.506593\C,0,1.483411,-1.000688,1.011498\H,0,1.950917,-1.04
 7718,2.003099\H,0,0.89193,-1.909281,0.91402\C,0,2.4259,1.517947,0.1090
 41\H,0,2.834101,2.505963,-0.067907\C,0,3.121693,0.437935,-0.248475\H,0
 ,4.085054,0.548156,-0.732789\C,0,2.590248,-0.95486,-0.045775\H,0,2.235
 992,-1.344838,-1.008028\H,0,3.400959,-1.621706,0.255233\C,0,-1.099596,
 -1.410984,-0.705395\H,0,-0.514105,-2.311092,-0.843328\C,0,-2.4259,-1.5
 17947,-0.109041\H,0,-2.834101,-2.505963,0.067907\C,0,-1.483411,1.00068
 8,-1.011498\H,0,-0.891929,1.909281,-0.91402\H,0,-1.950917,1.047718,-2.
 003099\C,0,-2.590248,0.95486,0.045775\H,0,-3.400959,1.621706,-0.255234
 \H,0,-2.235992,1.344838,1.008028\\Version=ES64L-G16RevB.01\HF=-466.841
 8741\S2=0.\S2-1=0.\S2A=0.\RMSD=6.057e-09\Dipole=0.0001317,-0.0001656,-
 0.0000622\Quadrupole=0.6370287,2.396516,-3.0335447,-2.4784304,-2.45862
 1,-1.1303903\PG=CI [X(C12H16)]\\@


 YOU WILL NEVER "FIND" TIME FOR ANYTHING.
 IF YOU WANT TIME, YOU MUST MAKE IT.

                        -- CHARLES BIXTON
 Job cpu time:       0 days  2 hours  8 minutes 53.2 seconds.
 Elapsed time:       0 days  0 hours  5 minutes 25.4 seconds.
 File lengths (MBytes):  RWF=    624 Int=      0 D2E=      0 Chk=     23 Scr=      1
 Normal termination of Gaussian 16 at Mon Aug  3 15:37:34 2020.
