 Entering Gaussian System, Link 0=g16
 Input=meso-TS_13_1_pcm.com
 Output=meso-TS_13_1_pcm.log
 Initial command:
 /scratch/scicomp/CentOS/7.3.1611/Haswell/software/Gaussian/g16/l1.exe "/scratch/bochen/cyclohexadiene-dimerization/wb97xd-def2tzvp/xp-pcm/meso/Gau-57172.inp" -scrdir="/scratch/bochen/cyclohexadiene-dimerization/wb97xd-def2tzvp/xp-pcm/meso/"
 Entering Link 1 = /scratch/scicomp/CentOS/7.3.1611/Haswell/software/Gaussian/g16/l1.exe PID=     57173.
  
 Copyright (c) 1988-2017, Gaussian, Inc.  All Rights Reserved.
  
 This is part of the Gaussian(R) 16 program.  It is based on
 the Gaussian(R) 09 system (copyright 2009, Gaussian, Inc.),
 the Gaussian(R) 03 system (copyright 2003, Gaussian, Inc.),
 the Gaussian(R) 98 system (copyright 1998, Gaussian, Inc.),
 the Gaussian(R) 94 system (copyright 1995, Gaussian, Inc.),
 the Gaussian 92(TM) system (copyright 1992, Gaussian, Inc.),
 the Gaussian 90(TM) system (copyright 1990, Gaussian, Inc.),
 the Gaussian 88(TM) system (copyright 1988, Gaussian, Inc.),
 the Gaussian 86(TM) system (copyright 1986, Carnegie Mellon
 University), and the Gaussian 82(TM) system (copyright 1983,
 Carnegie Mellon University). Gaussian is a federally registered
 trademark of Gaussian, Inc.
  
 This software contains proprietary and confidential information,
 including trade secrets, belonging to Gaussian, Inc.
  
 This software is provided under written license and may be
 used, copied, transmitted, or stored only in accord with that
 written license.
  
 The following legend is applicable only to US Government
 contracts under FAR:
  
                    RESTRICTED RIGHTS LEGEND
  
 Use, reproduction and disclosure by the US Government is
 subject to restrictions as set forth in subparagraphs (a)
 and (c) of the Commercial Computer Software - Restricted
 Rights clause in FAR 52.227-19.
  
 Gaussian, Inc.
 340 Quinnipiac St., Bldg. 40, Wallingford CT 06492
  
  
 ---------------------------------------------------------------
 Warning -- This program may not be used in any manner that
 competes with the business of Gaussian, Inc. or will provide
 assistance to any competitor of Gaussian, Inc.  The licensee
 of this program is prohibited from giving any competitor of
 Gaussian, Inc. access to this program.  By using this program,
 the user acknowledges that Gaussian, Inc. is engaged in the
 business of creating and licensing software in the field of
 computational chemistry and represents and warrants to the
 licensee that it is not a competitor of Gaussian, Inc. and that
 it will not use this program in any manner prohibited above.
 ---------------------------------------------------------------
  

 Cite this work as:
 Gaussian 16, Revision B.01,
 M. J. Frisch, G. W. Trucks, H. B. Schlegel, G. E. Scuseria, 
 M. A. Robb, J. R. Cheeseman, G. Scalmani, V. Barone, 
 G. A. Petersson, H. Nakatsuji, X. Li, M. Caricato, A. V. Marenich, 
 J. Bloino, B. G. Janesko, R. Gomperts, B. Mennucci, H. P. Hratchian, 
 J. V. Ortiz, A. F. Izmaylov, J. L. Sonnenberg, D. Williams-Young, 
 F. Ding, F. Lipparini, F. Egidi, J. Goings, B. Peng, A. Petrone, 
 T. Henderson, D. Ranasinghe, V. G. Zakrzewski, J. Gao, N. Rega, 
 G. Zheng, W. Liang, M. Hada, M. Ehara, K. Toyota, R. Fukuda, 
 J. Hasegawa, M. Ishida, T. Nakajima, Y. Honda, O. Kitao, H. Nakai, 
 T. Vreven, K. Throssell, J. A. Montgomery, Jr., J. E. Peralta, 
 F. Ogliaro, M. J. Bearpark, J. J. Heyd, E. N. Brothers, K. N. Kudin, 
 V. N. Staroverov, T. A. Keith, R. Kobayashi, J. Normand, 
 K. Raghavachari, A. P. Rendell, J. C. Burant, S. S. Iyengar, 
 J. Tomasi, M. Cossi, J. M. Millam, M. Klene, C. Adamo, R. Cammi, 
 J. W. Ochterski, R. L. Martin, K. Morokuma, O. Farkas, 
 J. B. Foresman, and D. J. Fox, Gaussian, Inc., Wallingford CT, 2016.
 
 ******************************************
 Gaussian 16:  ES64L-G16RevB.01 20-Dec-2017
                 3-Aug-2020 
 ******************************************
 %nproc=24
 Will use up to   24 processors via shared memory.
 %mem=48GB
 ----------------------------------------------------------------------
 #p uwb97xd guess=mix def2tzvp # scrf=(iefpcm,solvent=Cyclohexane,read)
  nosym 6d 10f
 ----------------------------------------------------------------------
 1/38=1,40=2,172=1/1;
 2/12=2,15=1,17=6,18=5,40=1/2;
 3/5=44,7=101,8=22,11=2,25=1,30=1,70=2203,72=17,74=-58,116=2/1,2,3;
 4/13=-1/1;
 5/5=2,38=5,53=17/2;
 6/7=2,8=2,9=2,10=2,28=1/1;
 99/5=1,9=1/99;
 Leave Link    1 at Mon Aug  3 16:45:04 2020, MaxMem=  6442450944 cpu:               2.0 elap:               0.1
 (Enter /scratch/scicomp/CentOS/7.3.1611/Haswell/software/Gaussian/g16/l101.exe)
 -----------------------
 endo-2 xp-pcm for eta=3
 -----------------------
 Symbolic Z-matrix:
 Charge =  0 Multiplicity = 1
 6                    -3.11969  -0.42583   0.24843 
 6                    -0.43806  -0.12757  -0.74044 
 1                    -4.08679  -0.54686   0.72095 
 1                     0.32983  -0.10973  -1.51528 
 6                     1.11621   1.43259   0.66879 
 6                     0.43806   0.12757   0.74044 
 1                     0.56738   2.33326   0.91353 
 1                    -0.32983   0.10973   1.51528 
 6                     1.45396  -0.99782   0.97882 
 1                     1.87262  -0.88792   1.9834 
 1                     0.9501   -1.96534   0.95 
 6                     2.39583   1.52976   0.12511 
 1                     2.82794   2.51333  -0.02297 
 6                     3.11969   0.42583  -0.24843 
 1                     4.08679   0.54686  -0.72095 
 6                     2.5929   -0.95974  -0.04239 
 1                     2.24694  -1.36016  -1.00466 
 1                     3.4014   -1.625     0.27229 
 6                    -1.11621  -1.43259  -0.66879 
 1                    -0.56738  -2.33326  -0.91353 
 6                    -2.39583  -1.52976  -0.12511 
 1                    -2.82794  -2.51333   0.02297 
 6                    -1.45396   0.99782  -0.97882 
 1                    -0.9501    1.96534  -0.95 
 1                    -1.87262   0.88792  -1.9834 
 6                    -2.5929    0.95974   0.04239 
 1                    -3.4014    1.625    -0.27228 
 1                    -2.24694   1.36016   1.00466 
 
 ITRead=  0  0  0  0  0  0  0  0  0  0  0  0  0  0  0  0  0  0  0  0
 ITRead=  0  0  0  0  0  0  0  0
 MicOpt= -1 -1 -1 -1 -1 -1 -1 -1 -1 -1 -1 -1 -1 -1 -1 -1 -1 -1 -1 -1
 MicOpt= -1 -1 -1 -1 -1 -1 -1 -1
 NAtoms=     28 NQM=       28 NQMF=       0 NMMI=      0 NMMIF=      0
                NMic=       0 NMicF=      0.
                    Isotopes and Nuclear Properties:
 (Nuclear quadrupole moments (NQMom) in fm**2, nuclear magnetic moments (NMagM)
  in nuclear magnetons)

  Atom         1           2           3           4           5           6           7           8           9          10
 IAtWgt=          12          12           1           1          12          12           1           1          12           1
 AtmWgt=  12.0000000  12.0000000   1.0078250   1.0078250  12.0000000  12.0000000   1.0078250   1.0078250  12.0000000   1.0078250
 NucSpn=           0           0           1           1           0           0           1           1           0           1
 AtZEff=  -0.0000000  -0.0000000  -0.0000000  -0.0000000  -0.0000000  -0.0000000  -0.0000000  -0.0000000  -0.0000000  -0.0000000
 NQMom=    0.0000000   0.0000000   0.0000000   0.0000000   0.0000000   0.0000000   0.0000000   0.0000000   0.0000000   0.0000000
 NMagM=    0.0000000   0.0000000   2.7928460   2.7928460   0.0000000   0.0000000   2.7928460   2.7928460   0.0000000   2.7928460
 AtZNuc=   6.0000000   6.0000000   1.0000000   1.0000000   6.0000000   6.0000000   1.0000000   1.0000000   6.0000000   1.0000000

  Atom        11          12          13          14          15          16          17          18          19          20
 IAtWgt=           1          12           1          12           1          12           1           1          12           1
 AtmWgt=   1.0078250  12.0000000   1.0078250  12.0000000   1.0078250  12.0000000   1.0078250   1.0078250  12.0000000   1.0078250
 NucSpn=           1           0           1           0           1           0           1           1           0           1
 AtZEff=  -0.0000000  -0.0000000  -0.0000000  -0.0000000  -0.0000000  -0.0000000  -0.0000000  -0.0000000  -0.0000000  -0.0000000
 NQMom=    0.0000000   0.0000000   0.0000000   0.0000000   0.0000000   0.0000000   0.0000000   0.0000000   0.0000000   0.0000000
 NMagM=    2.7928460   0.0000000   2.7928460   0.0000000   2.7928460   0.0000000   2.7928460   2.7928460   0.0000000   2.7928460
 AtZNuc=   1.0000000   6.0000000   1.0000000   6.0000000   1.0000000   6.0000000   1.0000000   1.0000000   6.0000000   1.0000000

  Atom        21          22          23          24          25          26          27          28
 IAtWgt=          12           1          12           1           1          12           1           1
 AtmWgt=  12.0000000   1.0078250  12.0000000   1.0078250   1.0078250  12.0000000   1.0078250   1.0078250
 NucSpn=           0           1           0           1           1           0           1           1
 AtZEff=  -0.0000000  -0.0000000  -0.0000000  -0.0000000  -0.0000000  -0.0000000  -0.0000000  -0.0000000
 NQMom=    0.0000000   0.0000000   0.0000000   0.0000000   0.0000000   0.0000000   0.0000000   0.0000000
 NMagM=    0.0000000   2.7928460   0.0000000   2.7928460   2.7928460   0.0000000   2.7928460   2.7928460
 AtZNuc=   6.0000000   1.0000000   6.0000000   1.0000000   1.0000000   6.0000000   1.0000000   1.0000000
 Leave Link  101 at Mon Aug  3 16:45:04 2020, MaxMem=  6442450944 cpu:               2.4 elap:               0.1
 (Enter /scratch/scicomp/CentOS/7.3.1611/Haswell/software/Gaussian/g16/l202.exe)
                          Input orientation:                          
 ---------------------------------------------------------------------
 Center     Atomic      Atomic             Coordinates (Angstroms)
 Number     Number       Type             X           Y           Z
 ---------------------------------------------------------------------
      1          6           0       -3.119691   -0.425826    0.248428
      2          6           0       -0.438059   -0.127566   -0.740444
      3          1           0       -4.086791   -0.546863    0.720948
      4          1           0        0.329828   -0.109733   -1.515278
      5          6           0        1.116208    1.432588    0.668787
      6          6           0        0.438059    0.127566    0.740444
      7          1           0        0.567375    2.333262    0.913532
      8          1           0       -0.329828    0.109733    1.515278
      9          6           0        1.453963   -0.997822    0.978822
     10          1           0        1.872621   -0.887919    1.983401
     11          1           0        0.950096   -1.965338    0.950002
     12          6           0        2.395835    1.529761    0.125114
     13          1           0        2.827943    2.513325   -0.022973
     14          6           0        3.119691    0.425826   -0.248428
     15          1           0        4.086791    0.546863   -0.720948
     16          6           0        2.592903   -0.959744   -0.042391
     17          1           0        2.246941   -1.360164   -1.004660
     18          1           0        3.401404   -1.625003    0.272285
     19          6           0       -1.116208   -1.432588   -0.668787
     20          1           0       -0.567375   -2.333262   -0.913532
     21          6           0       -2.395835   -1.529761   -0.125114
     22          1           0       -2.827943   -2.513325    0.022973
     23          6           0       -1.453963    0.997822   -0.978822
     24          1           0       -0.950096    1.965338   -0.950002
     25          1           0       -1.872621    0.887919   -1.983401
     26          6           0       -2.592903    0.959744    0.042391
     27          1           0       -3.401404    1.625003   -0.272284
     28          1           0       -2.246941    1.360164    1.004660
 ---------------------------------------------------------------------
                    Distance matrix (angstroms):
                    1          2          3          4          5
     1  C    0.000000
     2  C    2.873670   0.000000
     3  H    1.083147   3.952812   0.000000
     4  H    3.887127   1.091025   4.969740   0.000000
     5  C    4.644701   2.614528   5.567059   2.786985   0.000000
     6  C    3.633993   1.739455   4.574877   2.270750   1.472448
     7  H    4.652890   3.130848   5.476629   3.453081   1.082743
     8  H    3.110477   2.270750   3.895748   3.109273   2.134833
     9  C    4.666794   2.700550   5.565053   2.876268   2.473276
    10  H    5.305360   3.651946   6.101205   3.902120   2.772205
    11  H    4.407433   2.856919   5.237821   3.147318   3.413587
    12  C    5.853252   3.395126   6.833142   3.105996   1.393725
    13  H    6.639775   4.260967   7.598139   3.917651   2.139290
    14  C    6.316808   3.633993   7.336157   3.110477   2.422560
    15  H    7.336157   4.574877   8.371544   3.895748   3.397092
    16  C    5.744856   3.219709   6.735835   2.830799   2.899940
    17  H    5.589629   2.966198   6.614782   2.345129   3.446512
    18  H    6.630481   4.243750   7.578704   3.863419   3.837733
    19  C    2.422560   1.472448   3.397092   2.134833   3.870661
    20  H    3.391575   2.216253   4.271889   2.472075   4.418123
    21  C    1.371923   2.485492   2.131019   3.373170   4.662643
    22  H    2.119811   3.462109   2.436974   4.256171   5.616372
    23  C    2.511487   1.534726   3.493859   2.167112   3.083734
    24  H    3.443986   2.164796   4.352250   2.502731   2.678416
    25  H    2.874399   2.152701   3.778181   2.462769   4.032848
    26  C    1.496583   2.537405   2.227556   3.480297   3.791234
    27  H    2.134573   3.474491   2.484606   4.298422   4.618599
    28  H    2.126814   2.920750   2.665013   3.892354   3.380655
                    6          7          8          9         10
     6  C    0.000000
     7  H    2.216253   0.000000
     8  H    1.091025   2.472075   0.000000
     9  C    1.534726   3.447669   2.167112   0.000000
    10  H    2.152701   3.636522   2.462769   1.093861   0.000000
    11  H    2.164796   4.315758   2.502731   1.091238   1.754935
    12  C    2.485492   2.147203   3.373170   2.829243   3.093891
    13  H    3.462109   2.453494   4.256171   3.901226   4.062836
    14  C    2.873670   3.391575   3.887127   2.511487   2.874399
    15  H    3.952812   4.271889   4.969740   3.493859   3.778181
    16  C    2.537405   3.982517   3.480297   1.530199   2.151232
    17  H    2.920750   4.487961   3.892354   2.166635   3.048219
    18  H    3.474491   4.910273   4.298422   2.164504   2.410060
    19  C    2.614528   4.418123   2.786985   3.083734   4.032848
    20  H    3.130848   5.138314   3.453081   3.074120   4.053988
    21  C    3.395126   4.978187   3.105996   4.040121   4.803906
    22  H    4.260967   5.984203   3.917651   4.641672   5.346076
    23  C    2.700550   3.074120   2.876268   4.033733   4.837039
    24  H    2.856919   2.431223   3.147318   4.275533   4.971284
    25  H    3.651946   4.053988   3.902120   4.837039   5.737243
    26  C    3.219709   3.554264   2.830799   4.591960   5.207906
    27  H    4.243750   4.202261   3.863418   5.658539   6.262446
    28  H    2.966198   2.979194   2.345129   4.388332   4.794017
                   11         12         13         14         15
    11  H    0.000000
    12  C    3.871217   0.000000
    13  H    4.952920   1.084456   0.000000
    14  C    3.443986   1.371923   2.119811   0.000000
    15  H    4.352250   2.131019   2.436974   1.083147   0.000000
    16  C    2.166767   2.502904   3.481067   1.496583   2.227556
    17  H    2.422549   3.106481   4.037969   2.126814   2.665013
    18  H    2.565938   3.314418   4.188292   2.134573   2.484606
    19  C    2.678416   4.662643   5.616372   4.644701   5.567059
    20  H    2.431223   4.978187   5.984203   4.652890   5.476629
    21  C    3.541307   5.690641   6.606424   5.853252   6.833142
    22  H    3.928518   6.606424   7.566926   6.639775   7.598139
    23  C    4.275533   4.040121   4.641672   4.666794   5.565053
    24  H    4.761403   3.541307   3.928518   4.407433   5.237821
    25  H    4.971284   4.803906   5.346076   5.305360   6.101205
    26  C    4.683237   5.021879   5.639455   5.744856   6.735835
    27  H    5.772355   5.811624   6.297304   6.630481   7.578704
    28  H    4.613350   4.728396   5.304739   5.589629   6.614782
                   16         17         18         19         20
    16  C    0.000000
    17  H    1.098175   0.000000
    18  H    1.093281   1.741698   0.000000
    19  C    3.791234   3.380655   4.618599   0.000000
    20  H    3.554264   2.979194   4.202261   1.082743   0.000000
    21  C    5.021879   4.728396   5.811624   1.393725   2.147203
    22  H    5.639455   5.304739   6.297304   2.139290   2.453494
    23  C    4.591960   4.388332   5.658539   2.473276   3.447669
    24  H    4.683237   4.613350   5.772355   3.413587   4.315758
    25  H    5.207906   4.794017   6.262446   2.772205   3.636522
    26  C    5.530299   5.468307   6.531882   2.899940   3.982517
    27  H    6.531882   6.430505   7.558921   3.837733   4.910273
    28  H    5.468307   5.624280   6.430505   3.446512   4.487961
                   21         22         23         24         25
    21  C    0.000000
    22  H    1.084456   0.000000
    23  C    2.829243   3.901226   0.000000
    24  H    3.871217   4.952920   1.091238   0.000000
    25  H    3.093891   4.062836   1.093861   1.754935   0.000000
    26  C    2.502904   3.481067   1.530199   2.166767   2.151232
    27  H    3.314418   4.188292   2.164504   2.565939   2.410061
    28  H    3.106481   4.037969   2.166635   2.422549   3.048219
                   26         27         28
    26  C    0.000000
    27  H    1.093281   0.000000
    28  H    1.098175   1.741698   0.000000
 Symmetry turned off by external request.
 Stoichiometry    C12H16
 Framework group  CI[X(C12H16)]
 Deg. of freedom    39
 Full point group                 CI      NOp   2
 Rotational constants (GHZ):           1.9718699           0.6426352           0.5533878
 Leave Link  202 at Mon Aug  3 16:45:04 2020, MaxMem=  6442450944 cpu:               0.3 elap:               0.1
 (Enter /scratch/scicomp/CentOS/7.3.1611/Haswell/software/Gaussian/g16/l301.exe)
 Standard basis: def2TZVP (6D, 10F)
 Ernie: Thresh=  0.10000D-02 Tol=  0.10000D-05 Strict=F.
   528 basis functions,   740 primitive gaussians,   528 cartesian basis functions
    44 alpha electrons       44 beta electrons
       nuclear repulsion energy       693.4122594659 Hartrees.
 IExCor= 4639 DFT=T Ex+Corr=wB97XD ExCW=0 ScaHFX=  1.000000
 ScaDFX=  1.000000  1.000000  1.000000  1.000000 ScalE2=  1.000000  1.000000
 IRadAn=      5 IRanWt=     -1 IRanGd=            0 ICorTp=0 IEmpDi=121
 HFx  wShort=  0.000000 wLong=  0.200000 cFull=  0.222036 cShort=  0.000000 cLong=  0.777964
 DFx  wShort=  0.000000 wLong=  0.200000 cFull=  0.000000 cShort=  0.000000 cLong=  1.000000
 NAtoms=   28 NActive=   28 NUniq=   28 SFac= 1.00D+00 NAtFMM=   60 NAOKFM=F Big=F
 Integral buffers will be    131072 words long.
 Raffenetti 2 integral format.
 Two-electron integral symmetry is turned off.
 R6Disp:  Grimme-D2 Dispersion energy=       -0.0228639708 Hartrees.
 Nuclear repulsion after empirical dispersion term =      693.3893954951 Hartrees.
 Using the following non-standard input for PCM:
 norep pcmdoc geomview  nodis nocav g03defaults tsare=0.075
 Warning! Using old PCM defaults because the g03defaults keyword was found.
 These settings can be overridden by following keywords.
 nsfe=28
 NVESolv=36  SolvMW=84.1595   Rsolv=2.815
 eps=2.0165 RhoS=0.7781
 --- end of non-standard input.
 Reading user-defined spheres from input:
 ISph  on   Nord    Re0     Alpha      Xe            Ye            Ze
 --- end of user-defined spheres data.
 ------------------------------------------------------------------------------
 Polarizable Continuum Model (PCM)
 =================================
 Model                : PCM.
 Atomic radii         : UA0 (Simple United Atom Topological Model).
 Polarization charges : Total charges.
 Charge compensation  : None.
 Solution method      : On-the-fly selection.
 Cavity type          : SES (Solvent Excluding Surface) (Alpha=1.000).
 Cavity algorithm     : GePol (RMin=0.200 OFac=0.890).
                        User-defined sphere list used, NSphG=   28.
                        Tesserae with average area of 0.075 Ang**2.
                        Smoothing algorithm: None.
                        Polarization charges: point-like.
                        Self-potential: constant (ISelfS= 1).
                        Self-field    : global E.n sum rule (ISelfD= 3).
 Solvent              : CycloHexane, Eps=   2.016500 Eps(inf)=   2.035188
                        RSolv=   2.815000 Ang.
 ------------------------------------------------------------------------------
 GePol: Number of generator spheres                  =      28
 GePol: Total number of spheres                      =     171
 GePol: Number of exposed spheres                    =     122 ( 71.35%)
 GePol: Number of tesserae                           =    4613
 GePol: Average area of tesserae                     =       0.05 Ang**2
 GePol: Minimum area of tessera                      =   0.10D-02 Ang**2
 GePol: Maximum area of tessera                      =    0.12547 Ang**2
 GePol: Number of small tesserae                     =       0
 GePol: Fraction of small tesserae (<1% of avg)      =       0.00%
 GePol: Total count of vertices                      =   16292
 GePol: Maximum number of vertices in a tessera      =       7
 GePol: Cavity surface area                          =    219.020 Ang**2
 GePol: Cavity volume                                =    245.653 Ang**3
 Leave Link  301 at Mon Aug  3 16:45:05 2020, MaxMem=  6442450944 cpu:               7.6 elap:               0.4
 (Enter /scratch/scicomp/CentOS/7.3.1611/Haswell/software/Gaussian/g16/l302.exe)
 NPDir=0 NMtPBC=     1 NCelOv=     1 NCel=       1 NClECP=     1 NCelD=      1
         NCelK=      1 NCelE2=     1 NClLst=     1 CellRange=     0.0.
 One-electron integrals computed using PRISM.
   1 Symmetry operations used in ECPInt.
 ECPInt:  NShTT=   19306 NPrTT=   56928 LenC2=   18534 LenP2D=   42296.
 LDataN:  DoStor=T MaxTD1= 6 Len=  172
 NBasis=   528 RedAO= T EigKep=  2.67D-05  NBF=   528
 NBsUse=   528 1.00D-06 EigRej= -1.00D+00 NBFU=   528
 Precomputing XC quadrature grid using
 IXCGrd= 4 IRadAn=           5 IRanWt=          -1 IRanGd=           0 AccXCQ= 0.00D+00.
 Generated NRdTot=       0 NPtTot=           0 NUsed=           0 NTot=          32
 NSgBfM=   526   526   526   526   526 MxSgAt=    28 MxSgA2=    28.
 Leave Link  302 at Mon Aug  3 16:45:06 2020, MaxMem=  6442450944 cpu:              18.7 elap:               0.8
 (Enter /scratch/scicomp/CentOS/7.3.1611/Haswell/software/Gaussian/g16/l303.exe)
 DipDrv:  MaxL=1.
 Leave Link  303 at Mon Aug  3 16:45:06 2020, MaxMem=  6442450944 cpu:               2.2 elap:               0.1
 (Enter /scratch/scicomp/CentOS/7.3.1611/Haswell/software/Gaussian/g16/l401.exe)
 ExpMin= 9.52D-02 ExpMax= 1.36D+04 ExpMxC= 4.63D+02 IAcc=3 IRadAn=         5 AccDes= 0.00D+00
 Harris functional with IExCor= 4639 and IRadAn=       5 diagonalized for initial guess.
 HarFok:  IExCor= 4639 AccDes= 0.00D+00 IRadAn=         5 IDoV= 1 UseB2=F ITyADJ=14
 ICtDFT=  3500011 ScaDFX=  1.000000  1.000000  1.000000  1.000000
 FoFCou: FMM=F IPFlag=           0 FMFlag=      100000 FMFlg1=           0
         NFxFlg=           0 DoJE=T BraDBF=F KetDBF=T FulRan=T
         wScrn=  0.000000 ICntrl=       500 IOpCl=  0 I1Cent=   200000004 NGrid=           0
         NMat0=    1 NMatS0=      1 NMatT0=    0 NMatD0=    1 NMtDS0=    0 NMtDT0=    0
 Symmetry not used in FoFCou.
 Harris En= -444.611108054331    
 JPrj=0 DoOrth=F DoCkMO=T.
 Mixing orbitals, IMix= 1 IMixAn=  0 NRI=1 NE=   44 Coef=  7.07106781D-01  7.07106781D-01
 Mixing orbitals, IMix= 1 IMixAn=  0 NRI=1 NE=   44 Coef= -7.07106781D-01  7.07106781D-01
 Initial guess <Sx>= 0.0000 <Sy>= 0.0000 <Sz>= 0.0000 <S**2>= 1.0000 S= 0.6180
 Leave Link  401 at Mon Aug  3 16:45:08 2020, MaxMem=  6442450944 cpu:              50.8 elap:               2.2
 (Enter /scratch/scicomp/CentOS/7.3.1611/Haswell/software/Gaussian/g16/l502.exe)
 Two-electron integral symmetry not used.
 UHF open shell SCF:
 Using DIIS extrapolation, IDIIS=  1040.
 NGot=  6442450944 LenX=  6441877030 LenY=  6441597718
 Requested convergence on RMS density matrix=1.00D-08 within 128 cycles.
 Requested convergence on MAX density matrix=1.00D-06.
 Requested convergence on             energy=1.00D-06.
 No special actions if energy rises.
 Fock matrices will be formed incrementally for  20 cycles.

 Cycle   1  Pass 1  IDiag  1:
 FoFJK:  IHMeth= 1 ICntrl=       0 DoSepK=T KAlg= 0 I1Cent=           0 FoldK=F
 IRaf=         1 NMat=       1 IRICut=       1 DoRegI=T DoRafI=F ISym2E= 0 IDoP0=0 IntGTp=1.
 FoFCou: FMM=F IPFlag=           0 FMFlag=      100000 FMFlg1=           0
         NFxFlg=           0 DoJE=T BraDBF=F KetDBF=F FulRan=T
         wScrn=  0.000000 ICntrl=       500 IOpCl=  0 I1Cent=           0 NGrid=           0
         NMat0=    1 NMatS0=      1 NMatT0=    0 NMatD0=    1 NMtDS0=    0 NMtDT0=    0
 Symmetry not used in FoFCou.
 Inv3:  Mode=1 IEnd=    63839307.
 Iteration    1 A*A^-1 deviation from unit magnitude is 3.77D-15 for   1483.
 Iteration    1 A*A^-1 deviation from orthogonality  is 1.67D-15 for   2552   1035.
 Iteration    1 A^-1*A deviation from unit magnitude is 3.55D-15 for   1483.
 Iteration    1 A^-1*A deviation from orthogonality  is 1.97D-15 for   1814   1786.
 E= -466.683582201533    
 DIIS: error= 6.10D-02 at cycle   1 NSaved=   1.
 NSaved= 1 IEnMin= 1 EnMin= -466.683582201533     IErMin= 1 ErrMin= 6.10D-02
 ErrMax= 6.10D-02  0.00D+00 EMaxC= 1.00D-01 BMatC= 4.11D+00 BMatP= 4.11D+00
 IDIUse=3 WtCom= 3.90D-01 WtEn= 6.10D-01
 Coeff-Com:  0.100D+01
 Coeff-En:   0.100D+01
 Coeff:      0.100D+01
 Gap=     0.229 Goal=   None    Shift=    0.000
 Gap=     0.229 Goal=   None    Shift=    0.000
 GapD=    0.229 DampG=1.000 DampE=0.500 DampFc=0.5000 IDamp=-1.
 Damping current iteration by 5.00D-01
 RMSDP=1.37D-03 MaxDP=9.24D-02              OVMax= 7.30D-02

 Cycle   2  Pass 1  IDiag  1:
 RMSU=  6.66D-04    CP:  9.75D-01
 E= -466.754590808483     Delta-E=       -0.071008606949 Rises=F Damp=T
 DIIS: error= 2.89D-02 at cycle   2 NSaved=   2.
 NSaved= 2 IEnMin= 2 EnMin= -466.754590808483     IErMin= 2 ErrMin= 2.89D-02
 ErrMax= 2.89D-02  0.00D+00 EMaxC= 1.00D-01 BMatC= 9.20D-01 BMatP= 4.11D+00
 IDIUse=3 WtCom= 7.11D-01 WtEn= 2.89D-01
 Coeff-Com: -0.861D+00 0.186D+01
 Coeff-En:   0.000D+00 0.100D+01
 Coeff:     -0.613D+00 0.161D+01
 Gap=     0.238 Goal=   None    Shift=    0.000
 Gap=     0.238 Goal=   None    Shift=    0.000
 RMSDP=8.20D-04 MaxDP=4.83D-02 DE=-7.10D-02 OVMax= 3.15D-02

 Cycle   3  Pass 1  IDiag  1:
 RMSU=  4.13D-04    CP:  9.47D-01  2.03D+00
 E= -466.824297595642     Delta-E=       -0.069706787159 Rises=F Damp=F
 DIIS: error= 2.50D-03 at cycle   3 NSaved=   3.
 NSaved= 3 IEnMin= 3 EnMin= -466.824297595642     IErMin= 3 ErrMin= 2.50D-03
 ErrMax= 2.50D-03  0.00D+00 EMaxC= 1.00D-01 BMatC= 1.71D-02 BMatP= 9.20D-01
 IDIUse=3 WtCom= 9.75D-01 WtEn= 2.50D-02
 Coeff-Com: -0.305D+00 0.659D+00 0.645D+00
 Coeff-En:   0.000D+00 0.000D+00 0.100D+01
 Coeff:     -0.297D+00 0.643D+00 0.654D+00
 Gap=     0.242 Goal=   None    Shift=    0.000
 Gap=     0.242 Goal=   None    Shift=    0.000
 RMSDP=1.08D-04 MaxDP=4.76D-03 DE=-6.97D-02 OVMax= 1.23D-02

 Cycle   4  Pass 1  IDiag  1:
 RMSU=  8.94D-05    CP:  9.44D-01  2.10D+00  9.10D-01
 E= -466.828736401483     Delta-E=       -0.004438805841 Rises=F Damp=F
 DIIS: error= 9.21D-04 at cycle   4 NSaved=   4.
 NSaved= 4 IEnMin= 4 EnMin= -466.828736401483     IErMin= 4 ErrMin= 9.21D-04
 ErrMax= 9.21D-04  0.00D+00 EMaxC= 1.00D-01 BMatC= 5.37D-04 BMatP= 1.71D-02
 IDIUse=3 WtCom= 9.91D-01 WtEn= 9.21D-03
 Coeff-Com:  0.116D+00-0.249D+00-0.143D+00 0.128D+01
 Coeff-En:   0.000D+00 0.000D+00 0.000D+00 0.100D+01
 Coeff:      0.115D+00-0.247D+00-0.142D+00 0.127D+01
 Gap=     0.247 Goal=   None    Shift=    0.000
 Gap=     0.247 Goal=   None    Shift=    0.000
 RMSDP=7.90D-05 MaxDP=4.59D-03 DE=-4.44D-03 OVMax= 1.18D-02

 Cycle   5  Pass 1  IDiag  1:
 RMSU=  3.32D-05    CP:  9.43D-01  2.13D+00  1.04D+00  1.47D+00
 E= -466.829386695636     Delta-E=       -0.000650294153 Rises=F Damp=F
 DIIS: error= 4.31D-04 at cycle   5 NSaved=   5.
 NSaved= 5 IEnMin= 5 EnMin= -466.829386695636     IErMin= 5 ErrMin= 4.31D-04
 ErrMax= 4.31D-04  0.00D+00 EMaxC= 1.00D-01 BMatC= 1.12D-04 BMatP= 5.37D-04
 IDIUse=3 WtCom= 9.96D-01 WtEn= 4.31D-03
 Coeff-Com:  0.296D-01-0.645D-01-0.666D-01-0.597D-01 0.116D+01
 Coeff-En:   0.000D+00 0.000D+00 0.000D+00 0.000D+00 0.100D+01
 Coeff:      0.295D-01-0.642D-01-0.663D-01-0.594D-01 0.116D+01
 Gap=     0.249 Goal=   None    Shift=    0.000
 Gap=     0.249 Goal=   None    Shift=    0.000
 RMSDP=3.12D-05 MaxDP=1.62D-03 DE=-6.50D-04 OVMax= 6.36D-03

 Cycle   6  Pass 1  IDiag  1:
 RMSU=  1.26D-05    CP:  9.42D-01  2.14D+00  1.07D+00  1.66D+00  1.56D+00
 E= -466.829524637683     Delta-E=       -0.000137942047 Rises=F Damp=F
 DIIS: error= 1.91D-04 at cycle   6 NSaved=   6.
 NSaved= 6 IEnMin= 6 EnMin= -466.829524637683     IErMin= 6 ErrMin= 1.91D-04
 ErrMax= 1.91D-04  0.00D+00 EMaxC= 1.00D-01 BMatC= 3.68D-05 BMatP= 1.12D-04
 IDIUse=3 WtCom= 9.98D-01 WtEn= 1.91D-03
 Coeff-Com: -0.226D-01 0.487D-01 0.165D-01-0.395D+00 0.427D+00 0.925D+00
 Coeff-En:   0.000D+00 0.000D+00 0.000D+00 0.000D+00 0.000D+00 0.100D+01
 Coeff:     -0.226D-01 0.486D-01 0.164D-01-0.394D+00 0.426D+00 0.925D+00
 Gap=     0.250 Goal=   None    Shift=    0.000
 Gap=     0.250 Goal=   None    Shift=    0.000
 RMSDP=1.46D-05 MaxDP=1.05D-03 DE=-1.38D-04 OVMax= 3.84D-03

 Cycle   7  Pass 1  IDiag  1:
 RMSU=  6.66D-06    CP:  9.42D-01  2.14D+00  1.07D+00  1.73D+00  1.88D+00
                    CP:  1.36D+00
 E= -466.829556771814     Delta-E=       -0.000032134131 Rises=F Damp=F
 DIIS: error= 7.05D-05 at cycle   7 NSaved=   7.
 NSaved= 7 IEnMin= 7 EnMin= -466.829556771814     IErMin= 7 ErrMin= 7.05D-05
 ErrMax= 7.05D-05  0.00D+00 EMaxC= 1.00D-01 BMatC= 2.83D-06 BMatP= 3.68D-05
 IDIUse=1 WtCom= 1.00D+00 WtEn= 0.00D+00
 Coeff-Com: -0.783D-02 0.170D-01 0.108D-01-0.619D-01-0.680D-01 0.158D+00
 Coeff-Com:  0.952D+00
 Coeff:     -0.783D-02 0.170D-01 0.108D-01-0.619D-01-0.680D-01 0.158D+00
 Coeff:      0.952D+00
 Gap=     0.250 Goal=   None    Shift=    0.000
 Gap=     0.250 Goal=   None    Shift=    0.000
 RMSDP=4.98D-06 MaxDP=3.42D-04 DE=-3.21D-05 OVMax= 1.11D-03

 Cycle   8  Pass 1  IDiag  1:
 RMSU=  2.35D-06    CP:  9.42D-01  2.14D+00  1.07D+00  1.72D+00  1.94D+00
                    CP:  1.58D+00  1.26D+00
 E= -466.829559506146     Delta-E=       -0.000002734332 Rises=F Damp=F
 DIIS: error= 3.78D-05 at cycle   8 NSaved=   8.
 NSaved= 8 IEnMin= 8 EnMin= -466.829559506146     IErMin= 8 ErrMin= 3.78D-05
 ErrMax= 3.78D-05  0.00D+00 EMaxC= 1.00D-01 BMatC= 5.03D-07 BMatP= 2.83D-06
 IDIUse=1 WtCom= 1.00D+00 WtEn= 0.00D+00
 Coeff-Com:  0.112D-02-0.240D-02 0.534D-03 0.396D-01-0.803D-01-0.929D-01
 Coeff-Com:  0.253D+00 0.882D+00
 Coeff:      0.112D-02-0.240D-02 0.534D-03 0.396D-01-0.803D-01-0.929D-01
 Coeff:      0.253D+00 0.882D+00
 Gap=     0.250 Goal=   None    Shift=    0.000
 Gap=     0.250 Goal=   None    Shift=    0.000
 RMSDP=2.19D-06 MaxDP=1.16D-04 DE=-2.73D-06 OVMax= 5.37D-04

 Cycle   9  Pass 1  IDiag  1:
 RMSU=  1.06D-06    CP:  9.42D-01  2.13D+00  1.07D+00  1.72D+00  1.94D+00
                    CP:  1.65D+00  1.45D+00  1.31D+00
 E= -466.829559927661     Delta-E=       -0.000000421515 Rises=F Damp=F
 DIIS: error= 1.70D-05 at cycle   9 NSaved=   9.
 NSaved= 9 IEnMin= 9 EnMin= -466.829559927661     IErMin= 9 ErrMin= 1.70D-05
 ErrMax= 1.70D-05  0.00D+00 EMaxC= 1.00D-01 BMatC= 8.25D-08 BMatP= 5.03D-07
 IDIUse=1 WtCom= 1.00D+00 WtEn= 0.00D+00
 Coeff-Com:  0.156D-02-0.337D-02-0.152D-02 0.215D-01-0.152D-01-0.522D-01
 Coeff-Com: -0.573D-01 0.282D+00 0.825D+00
 Coeff:      0.156D-02-0.337D-02-0.152D-02 0.215D-01-0.152D-01-0.522D-01
 Coeff:     -0.573D-01 0.282D+00 0.825D+00
 Gap=     0.250 Goal=   None    Shift=    0.000
 Gap=     0.250 Goal=   None    Shift=    0.000
 RMSDP=8.84D-07 MaxDP=5.24D-05 DE=-4.22D-07 OVMax= 2.20D-04

 Cycle  10  Pass 1  IDiag  1:
 RMSU=  3.23D-07    CP:  9.42D-01  2.13D+00  1.06D+00  1.71D+00  1.93D+00
                    CP:  1.66D+00  1.51D+00  1.52D+00  1.29D+00
 E= -466.829559991761     Delta-E=       -0.000000064100 Rises=F Damp=F
 DIIS: error= 6.37D-06 at cycle  10 NSaved=  10.
 NSaved=10 IEnMin=10 EnMin= -466.829559991761     IErMin=10 ErrMin= 6.37D-06
 ErrMax= 6.37D-06  0.00D+00 EMaxC= 1.00D-01 BMatC= 8.54D-09 BMatP= 8.25D-08
 IDIUse=1 WtCom= 1.00D+00 WtEn= 0.00D+00
 Coeff-Com: -0.211D-03 0.456D-03-0.269D-04-0.644D-02 0.115D-01 0.149D-01
 Coeff-Com: -0.313D-01-0.132D+00-0.780D-02 0.115D+01
 Coeff:     -0.211D-03 0.456D-03-0.269D-04-0.644D-02 0.115D-01 0.149D-01
 Coeff:     -0.313D-01-0.132D+00-0.780D-02 0.115D+01
 Gap=     0.250 Goal=   None    Shift=    0.000
 Gap=     0.250 Goal=   None    Shift=    0.000
 RMSDP=5.00D-07 MaxDP=4.05D-05 DE=-6.41D-08 OVMax= 1.17D-04

 Cycle  11  Pass 1  IDiag  1:
 RMSU=  1.50D-07    CP:  9.42D-01  2.13D+00  1.07D+00  1.71D+00  1.93D+00
                    CP:  1.66D+00  1.53D+00  1.62D+00  1.57D+00  1.47D+00
 E= -466.829560002445     Delta-E=       -0.000000010684 Rises=F Damp=F
 DIIS: error= 1.58D-06 at cycle  11 NSaved=  11.
 NSaved=11 IEnMin=11 EnMin= -466.829560002445     IErMin=11 ErrMin= 1.58D-06
 ErrMax= 1.58D-06  0.00D+00 EMaxC= 1.00D-01 BMatC= 2.17D-09 BMatP= 8.54D-09
 IDIUse=1 WtCom= 1.00D+00 WtEn= 0.00D+00
 Coeff-Com: -0.306D-03 0.662D-03 0.204D-03-0.561D-02 0.649D-02 0.135D-01
 Coeff-Com: -0.236D-02-0.900D-01-0.122D+00 0.430D+00 0.769D+00
 Coeff:     -0.306D-03 0.662D-03 0.204D-03-0.561D-02 0.649D-02 0.135D-01
 Coeff:     -0.236D-02-0.900D-01-0.122D+00 0.430D+00 0.769D+00
 Gap=     0.250 Goal=   None    Shift=    0.000
 Gap=     0.250 Goal=   None    Shift=    0.000
 RMSDP=1.42D-07 MaxDP=1.11D-05 DE=-1.07D-08 OVMax= 3.00D-05

 Cycle  12  Pass 1  IDiag  1:
 RMSU=  5.44D-08    CP:  9.42D-01  2.13D+00  1.07D+00  1.71D+00  1.93D+00
                    CP:  1.66D+00  1.53D+00  1.64D+00  1.65D+00  1.67D+00
                    CP:  1.32D+00
 E= -466.829560003798     Delta-E=       -0.000000001353 Rises=F Damp=F
 DIIS: error= 4.37D-07 at cycle  12 NSaved=  12.
 NSaved=12 IEnMin=12 EnMin= -466.829560003798     IErMin=12 ErrMin= 4.37D-07
 ErrMax= 4.37D-07  0.00D+00 EMaxC= 1.00D-01 BMatC= 2.21D-10 BMatP= 2.17D-09
 IDIUse=1 WtCom= 1.00D+00 WtEn= 0.00D+00
 Coeff-Com:  0.650D-05-0.146D-04 0.203D-04 0.499D-03-0.122D-02-0.104D-02
 Coeff-Com:  0.458D-02 0.126D-01-0.693D-02-0.141D+00 0.753D-01 0.106D+01
 Coeff:      0.650D-05-0.146D-04 0.203D-04 0.499D-03-0.122D-02-0.104D-02
 Coeff:      0.458D-02 0.126D-01-0.693D-02-0.141D+00 0.753D-01 0.106D+01
 Gap=     0.250 Goal=   None    Shift=    0.000
 Gap=     0.250 Goal=   None    Shift=    0.000
 RMSDP=6.37D-08 MaxDP=3.97D-06 DE=-1.35D-09 OVMax= 1.11D-05

 Cycle  13  Pass 1  IDiag  1:
 RMSU=  2.30D-08    CP:  9.42D-01  2.13D+00  1.07D+00  1.71D+00  1.93D+00
                    CP:  1.66D+00  1.53D+00  1.63D+00  1.67D+00  1.74D+00
                    CP:  1.60D+00  1.34D+00
 E= -466.829560004029     Delta-E=       -0.000000000231 Rises=F Damp=F
 DIIS: error= 1.67D-07 at cycle  13 NSaved=  13.
 NSaved=13 IEnMin=13 EnMin= -466.829560004029     IErMin=13 ErrMin= 1.67D-07
 ErrMax= 1.67D-07  0.00D+00 EMaxC= 1.00D-01 BMatC= 4.63D-11 BMatP= 2.21D-10
 IDIUse=1 WtCom= 1.00D+00 WtEn= 0.00D+00
 Coeff-Com:  0.506D-04-0.110D-03-0.265D-04 0.102D-02-0.137D-02-0.238D-02
 Coeff-Com:  0.180D-02 0.175D-01 0.180D-01-0.109D+00-0.105D+00 0.270D+00
 Coeff-Com:  0.910D+00
 Coeff:      0.506D-04-0.110D-03-0.265D-04 0.102D-02-0.137D-02-0.238D-02
 Coeff:      0.180D-02 0.175D-01 0.180D-01-0.109D+00-0.105D+00 0.270D+00
 Coeff:      0.910D+00
 Gap=     0.250 Goal=   None    Shift=    0.000
 Gap=     0.250 Goal=   None    Shift=    0.000
 RMSDP=2.23D-08 MaxDP=8.66D-07 DE=-2.31D-10 OVMax= 4.00D-06

 Cycle  14  Pass 1  IDiag  1:
 RMSU=  9.19D-09    CP:  9.42D-01  2.13D+00  1.07D+00  1.71D+00  1.93D+00
                    CP:  1.66D+00  1.53D+00  1.63D+00  1.67D+00  1.76D+00
                    CP:  1.69D+00  1.52D+00  1.25D+00
 E= -466.829560004067     Delta-E=       -0.000000000038 Rises=F Damp=F
 DIIS: error= 9.89D-08 at cycle  14 NSaved=  14.
 NSaved=14 IEnMin=14 EnMin= -466.829560004067     IErMin=14 ErrMin= 9.89D-08
 ErrMax= 9.89D-08  0.00D+00 EMaxC= 1.00D-01 BMatC= 8.31D-12 BMatP= 4.63D-11
 IDIUse=1 WtCom= 1.00D+00 WtEn= 0.00D+00
 Coeff-Com:  0.776D-05-0.167D-04-0.550D-05 0.122D-03-0.909D-04-0.308D-03
 Coeff-Com: -0.324D-03 0.147D-02 0.526D-02-0.191D-02-0.316D-01-0.102D+00
 Coeff-Com:  0.199D+00 0.930D+00
 Coeff:      0.776D-05-0.167D-04-0.550D-05 0.122D-03-0.909D-04-0.308D-03
 Coeff:     -0.324D-03 0.147D-02 0.526D-02-0.191D-02-0.316D-01-0.102D+00
 Coeff:      0.199D+00 0.930D+00
 Gap=     0.250 Goal=   None    Shift=    0.000
 Gap=     0.250 Goal=   None    Shift=    0.000
 RMSDP=7.57D-09 MaxDP=3.20D-07 DE=-3.76D-11 OVMax= 1.76D-06

 Error on total polarization charges =  0.01165
 SCF Done:  E(UwB97XD) =  -466.829560004     A.U. after   14 cycles
            NFock= 14  Conv=0.76D-08     -V/T= 2.0062
 <Sx>= 0.0000 <Sy>= 0.0000 <Sz>= 0.0000 <S**2>= 1.0244 S= 0.6289
 <L.S>=  0.00000000000    
 KE= 4.639338052618D+02 PE=-2.468267314128D+03 EE= 8.441145533672D+02
 --------------------------------------------------------------------
 Variational PCM results
 =======================
 <psi(f)|   H    |psi(f)>                     (a.u.) =    -466.828329
 <psi(f)|H+V(f)/2|psi(f)>                     (a.u.) =    -466.829560
 (Polarized solute)-Solvent               (kcal/mol) =      -0.77
 --------------------------------------------------------------------
 Partition over spheres:
 Sphere  on Atom  Surface  Charge   GEl     GCav    GDR
    1      C1       7.75   0.011   -0.04    0.00    0.00
    2      C2       0.54   0.000   -0.00    0.00    0.00
    3      H3       7.51  -0.010   -0.04    0.00    0.00
    4      H4       3.87  -0.004   -0.01    0.00    0.00
    5      C5       4.87   0.008   -0.04    0.00    0.00
    6      C6       0.39   0.000   -0.00    0.00    0.00
    7      H7       5.15  -0.007   -0.03    0.00    0.00
    8      H8       3.42  -0.004   -0.01    0.00    0.00
    9      C9       3.63   0.002   -0.00    0.00    0.00
   10      H10      6.43  -0.005   -0.01    0.00    0.00
   11      H11      4.92  -0.003   -0.01    0.00    0.00
   12      C12      6.89   0.011   -0.06    0.00    0.00
   13      H13      7.51  -0.010   -0.03    0.00    0.00
   14      C14      7.40   0.010   -0.04    0.00    0.00
   15      H15      7.51  -0.010   -0.04    0.00    0.00
   16      C16      3.32   0.001    0.00    0.00    0.00
   17      H17      3.86  -0.004   -0.01    0.00    0.00
   18      H18      7.54  -0.008   -0.03    0.00    0.00
   19      C19      4.91   0.008   -0.04    0.00    0.00
   20      H20      5.13  -0.007   -0.03    0.00    0.00
   21      C21      6.67   0.011   -0.06    0.00    0.00
   22      H22      7.51  -0.010   -0.03    0.00    0.00
   23      C23      3.34   0.002   -0.00    0.00    0.00
   24      H24      4.58  -0.003   -0.01    0.00    0.00
   25      H25      6.32  -0.006   -0.01    0.00    0.00
   26      C26      3.75   0.002    0.00    0.00    0.00
   27      H27      7.45  -0.008   -0.03    0.00    0.00
   28      H28      4.12  -0.004   -0.02    0.00    0.00
 Added spheres:    72.74   0.022   -0.17    0.00    0.00
 --------------------------------------------------------------------
 After PCM corrections, the energy is  -466.829560004     a.u.
 --------------------------------------------------------------------
 Annihilation of the first spin contaminant:
 S**2 before annihilation     1.0244,   after     0.5088
 Leave Link  502 at Mon Aug  3 16:49:22 2020, MaxMem=  6442450944 cpu:            6038.3 elap:             254.2
 (Enter /scratch/scicomp/CentOS/7.3.1611/Haswell/software/Gaussian/g16/l601.exe)
 Copying SCF densities to generalized density rwf, IOpCl= 1 IROHF=0.

 **********************************************************************

            Population analysis using the SCF Density.

 **********************************************************************

 Alpha  occ. eigenvalues --  -10.29814 -10.29631 -10.28818 -10.28560 -10.28447
 Alpha  occ. eigenvalues --  -10.28402 -10.28207 -10.28135 -10.27976 -10.27956
 Alpha  occ. eigenvalues --  -10.27889 -10.27837  -0.95031  -0.92800  -0.85334
 Alpha  occ. eigenvalues --   -0.84532  -0.83604  -0.81422  -0.71072  -0.70425
 Alpha  occ. eigenvalues --   -0.69425  -0.67693  -0.59974  -0.59171  -0.58588
 Alpha  occ. eigenvalues --   -0.56323  -0.53509  -0.52768  -0.50729  -0.49310
 Alpha  occ. eigenvalues --   -0.48878  -0.48245  -0.48017  -0.47311  -0.46411
 Alpha  occ. eigenvalues --   -0.44758  -0.41532  -0.40866  -0.39968  -0.39393
 Alpha  occ. eigenvalues --   -0.38249  -0.37143  -0.34002  -0.25031
 Alpha virt. eigenvalues --    0.00012   0.10098   0.10514   0.12486   0.13128
 Alpha virt. eigenvalues --    0.14070   0.14634   0.15434   0.16041   0.16301
 Alpha virt. eigenvalues --    0.16896   0.17075   0.18365   0.19963   0.20388
 Alpha virt. eigenvalues --    0.21350   0.22062   0.22428   0.23466   0.23841
 Alpha virt. eigenvalues --    0.24886   0.25131   0.26265   0.26512   0.26937
 Alpha virt. eigenvalues --    0.28484   0.28921   0.29463   0.30533   0.31244
 Alpha virt. eigenvalues --    0.31451   0.31842   0.31942   0.32521   0.33898
 Alpha virt. eigenvalues --    0.33975   0.35508   0.35961   0.36572   0.37098
 Alpha virt. eigenvalues --    0.37773   0.38439   0.40870   0.41160   0.41803
 Alpha virt. eigenvalues --    0.43190   0.43760   0.44940   0.45430   0.45822
 Alpha virt. eigenvalues --    0.46466   0.46608   0.47856   0.48295   0.48403
 Alpha virt. eigenvalues --    0.48499   0.49044   0.49247   0.49862   0.50463
 Alpha virt. eigenvalues --    0.50671   0.51002   0.51231   0.52142   0.52782
 Alpha virt. eigenvalues --    0.52855   0.53950   0.54102   0.54682   0.55536
 Alpha virt. eigenvalues --    0.56118   0.56406   0.57519   0.58153   0.58275
 Alpha virt. eigenvalues --    0.58467   0.60515   0.61385   0.63593   0.65473
 Alpha virt. eigenvalues --    0.66396   0.67364   0.67607   0.68990   0.69350
 Alpha virt. eigenvalues --    0.70399   0.71474   0.74332   0.75237   0.75388
 Alpha virt. eigenvalues --    0.78872   0.79156   0.79457   0.81763   0.81771
 Alpha virt. eigenvalues --    0.82889   0.84218   0.86466   0.87360   0.87981
 Alpha virt. eigenvalues --    0.89548   0.89949   0.92248   0.93924   0.94742
 Alpha virt. eigenvalues --    0.96147   0.97154   0.97649   0.98816   0.99579
 Alpha virt. eigenvalues --    1.01486   1.01621   1.03865   1.04687   1.05477
 Alpha virt. eigenvalues --    1.06894   1.08385   1.09633   1.09689   1.10328
 Alpha virt. eigenvalues --    1.11739   1.14056   1.15548   1.16770   1.17312
 Alpha virt. eigenvalues --    1.18312   1.18997   1.19448   1.19623   1.20493
 Alpha virt. eigenvalues --    1.21486   1.23142   1.24760   1.25613   1.26324
 Alpha virt. eigenvalues --    1.26843   1.27905   1.28580   1.29083   1.29300
 Alpha virt. eigenvalues --    1.30312   1.30772   1.33163   1.33683   1.34607
 Alpha virt. eigenvalues --    1.35244   1.36242   1.36453   1.38086   1.38753
 Alpha virt. eigenvalues --    1.38960   1.39201   1.40062   1.41145   1.41982
 Alpha virt. eigenvalues --    1.42922   1.42957   1.44273   1.45011   1.46099
 Alpha virt. eigenvalues --    1.46281   1.47370   1.47604   1.49833   1.50663
 Alpha virt. eigenvalues --    1.51152   1.53833   1.54069   1.57373   1.57418
 Alpha virt. eigenvalues --    1.59353   1.60146   1.60934   1.62372   1.63426
 Alpha virt. eigenvalues --    1.66021   1.66753   1.68004   1.69157   1.69790
 Alpha virt. eigenvalues --    1.73427   1.73994   1.76878   1.77916   1.78356
 Alpha virt. eigenvalues --    1.80298   1.81156   1.82779   1.85104   1.87056
 Alpha virt. eigenvalues --    1.88678   1.89191   1.91832   1.91902   1.94248
 Alpha virt. eigenvalues --    1.97203   1.98316   2.01437   2.04854   2.06205
 Alpha virt. eigenvalues --    2.07577   2.07838   2.08309   2.11398   2.11665
 Alpha virt. eigenvalues --    2.13151   2.13452   2.16437   2.17885   2.18036
 Alpha virt. eigenvalues --    2.18498   2.19217   2.20212   2.21870   2.23969
 Alpha virt. eigenvalues --    2.25544   2.26364   2.28679   2.31283   2.31832
 Alpha virt. eigenvalues --    2.34699   2.36648   2.37236   2.39830   2.42686
 Alpha virt. eigenvalues --    2.45687   2.46615   2.46794   2.48236   2.49964
 Alpha virt. eigenvalues --    2.50789   2.54528   2.55106   2.56361   2.57338
 Alpha virt. eigenvalues --    2.57629   2.60183   2.60360   2.62835   2.63233
 Alpha virt. eigenvalues --    2.64034   2.64528   2.67322   2.67836   2.68564
 Alpha virt. eigenvalues --    2.69085   2.70690   2.71781   2.72991   2.73143
 Alpha virt. eigenvalues --    2.73956   2.74982   2.76126   2.77717   2.79821
 Alpha virt. eigenvalues --    2.79934   2.81324   2.81987   2.82216   2.82478
 Alpha virt. eigenvalues --    2.83156   2.85118   2.86197   2.86267   2.87136
 Alpha virt. eigenvalues --    2.87736   2.88272   2.89299   2.89656   2.90647
 Alpha virt. eigenvalues --    2.93075   2.94026   2.94270   2.95728   2.95906
 Alpha virt. eigenvalues --    2.98649   2.99763   3.00709   3.02274   3.03274
 Alpha virt. eigenvalues --    3.05612   3.06037   3.06744   3.07075   3.07657
 Alpha virt. eigenvalues --    3.09746   3.10148   3.10951   3.11597   3.11957
 Alpha virt. eigenvalues --    3.12872   3.13742   3.14826   3.15244   3.15535
 Alpha virt. eigenvalues --    3.15848   3.16683   3.16963   3.19503   3.20036
 Alpha virt. eigenvalues --    3.20840   3.21025   3.21547   3.22743   3.23310
 Alpha virt. eigenvalues --    3.24400   3.24627   3.25507   3.25882   3.26359
 Alpha virt. eigenvalues --    3.27067   3.27533   3.28669   3.30873   3.31122
 Alpha virt. eigenvalues --    3.31970   3.32361   3.32598   3.34069   3.35117
 Alpha virt. eigenvalues --    3.35991   3.36516   3.37500   3.38091   3.38868
 Alpha virt. eigenvalues --    3.39547   3.40456   3.41064   3.41466   3.42748
 Alpha virt. eigenvalues --    3.43214   3.44487   3.45758   3.46548   3.48685
 Alpha virt. eigenvalues --    3.49251   3.50009   3.50682   3.51246   3.51672
 Alpha virt. eigenvalues --    3.52861   3.53100   3.54807   3.56156   3.56686
 Alpha virt. eigenvalues --    3.57320   3.58184   3.58949   3.60382   3.61292
 Alpha virt. eigenvalues --    3.62147   3.62912   3.63229   3.64666   3.65551
 Alpha virt. eigenvalues --    3.67872   3.68783   3.71029   3.71984   3.72765
 Alpha virt. eigenvalues --    3.73309   3.77756   3.78828   3.79282   3.80495
 Alpha virt. eigenvalues --    3.82689   3.82979   3.83249   3.83616   3.84865
 Alpha virt. eigenvalues --    3.87910   3.88465   3.90447   3.90608   3.94095
 Alpha virt. eigenvalues --    3.94961   3.95480   3.95618   3.98190   4.02090
 Alpha virt. eigenvalues --    4.03821   4.05335   4.07016   4.09659   4.09815
 Alpha virt. eigenvalues --    4.10836   4.12425   4.12711   4.14882   4.16985
 Alpha virt. eigenvalues --    4.18560   4.19561   4.21869   4.22995   4.23816
 Alpha virt. eigenvalues --    4.24000   4.25885   4.27367   4.28019   4.28561
 Alpha virt. eigenvalues --    4.29682   4.35348   4.37277   4.37781   4.38427
 Alpha virt. eigenvalues --    4.40724   4.42868   4.44294   4.46268   4.49243
 Alpha virt. eigenvalues --    4.51712   4.53756   4.54794   4.56264   4.56755
 Alpha virt. eigenvalues --    4.57630   4.61193   4.62775   4.63936   4.67415
 Alpha virt. eigenvalues --    4.68354   4.69011   4.73329   4.73733   4.76907
 Alpha virt. eigenvalues --    4.78577   4.80949   4.81383   4.88402   4.89616
 Alpha virt. eigenvalues --    4.91441   4.91736   4.94829   4.94867   4.96761
 Alpha virt. eigenvalues --    4.99092   5.05254   5.06035   5.10582   5.12300
 Alpha virt. eigenvalues --    5.20224   5.20787   5.24675   5.25637   5.27124
 Alpha virt. eigenvalues --    5.31985   5.36151   5.36937   5.37207   5.39028
 Alpha virt. eigenvalues --    5.40641   5.44034   5.51431   5.52371   5.55018
 Alpha virt. eigenvalues --    5.62069   5.72063   5.73127   5.80324   5.82374
 Alpha virt. eigenvalues --    7.94149   7.95006   8.02485   8.04545   8.07837
 Alpha virt. eigenvalues --    8.10202   8.11375   8.15589   8.16242   8.23103
 Alpha virt. eigenvalues --    8.33696   8.36827  34.75207  34.75781  34.81472
 Alpha virt. eigenvalues --   34.82324  34.85855  34.87976  34.98249  34.99552
 Alpha virt. eigenvalues --   35.01412  35.04560  35.17735  35.22334
  Beta  occ. eigenvalues --  -10.29814 -10.29631 -10.28818 -10.28560 -10.28447
  Beta  occ. eigenvalues --  -10.28403 -10.28207 -10.28135 -10.27977 -10.27955
  Beta  occ. eigenvalues --  -10.27889 -10.27837  -0.95031  -0.92800  -0.85334
  Beta  occ. eigenvalues --   -0.84532  -0.83603  -0.81422  -0.71072  -0.70425
  Beta  occ. eigenvalues --   -0.69425  -0.67693  -0.59974  -0.59171  -0.58588
  Beta  occ. eigenvalues --   -0.56323  -0.53509  -0.52768  -0.50729  -0.49309
  Beta  occ. eigenvalues --   -0.48878  -0.48245  -0.48017  -0.47311  -0.46411
  Beta  occ. eigenvalues --   -0.44758  -0.41532  -0.40866  -0.39968  -0.39393
  Beta  occ. eigenvalues --   -0.38249  -0.37143  -0.34002  -0.25031
  Beta virt. eigenvalues --    0.00011   0.10098   0.10514   0.12486   0.13127
  Beta virt. eigenvalues --    0.14070   0.14634   0.15434   0.16041   0.16301
  Beta virt. eigenvalues --    0.16896   0.17075   0.18366   0.19963   0.20389
  Beta virt. eigenvalues --    0.21350   0.22062   0.22428   0.23466   0.23841
  Beta virt. eigenvalues --    0.24886   0.25131   0.26265   0.26512   0.26937
  Beta virt. eigenvalues --    0.28484   0.28921   0.29463   0.30533   0.31245
  Beta virt. eigenvalues --    0.31451   0.31842   0.31942   0.32521   0.33898
  Beta virt. eigenvalues --    0.33975   0.35508   0.35961   0.36572   0.37098
  Beta virt. eigenvalues --    0.37773   0.38439   0.40870   0.41160   0.41803
  Beta virt. eigenvalues --    0.43190   0.43760   0.44940   0.45430   0.45822
  Beta virt. eigenvalues --    0.46466   0.46608   0.47856   0.48295   0.48403
  Beta virt. eigenvalues --    0.48499   0.49044   0.49247   0.49862   0.50463
  Beta virt. eigenvalues --    0.50671   0.51001   0.51231   0.52142   0.52782
  Beta virt. eigenvalues --    0.52855   0.53950   0.54102   0.54682   0.55536
  Beta virt. eigenvalues --    0.56118   0.56407   0.57519   0.58153   0.58275
  Beta virt. eigenvalues --    0.58467   0.60515   0.61385   0.63593   0.65473
  Beta virt. eigenvalues --    0.66396   0.67364   0.67607   0.68990   0.69350
  Beta virt. eigenvalues --    0.70399   0.71474   0.74332   0.75237   0.75389
  Beta virt. eigenvalues --    0.78872   0.79156   0.79457   0.81763   0.81771
  Beta virt. eigenvalues --    0.82889   0.84219   0.86466   0.87360   0.87981
  Beta virt. eigenvalues --    0.89548   0.89949   0.92248   0.93924   0.94742
  Beta virt. eigenvalues --    0.96147   0.97154   0.97649   0.98816   0.99579
  Beta virt. eigenvalues --    1.01486   1.01621   1.03865   1.04687   1.05477
  Beta virt. eigenvalues --    1.06894   1.08385   1.09633   1.09689   1.10328
  Beta virt. eigenvalues --    1.11739   1.14056   1.15548   1.16770   1.17312
  Beta virt. eigenvalues --    1.18312   1.18997   1.19448   1.19623   1.20493
  Beta virt. eigenvalues --    1.21486   1.23142   1.24760   1.25613   1.26324
  Beta virt. eigenvalues --    1.26843   1.27905   1.28580   1.29083   1.29300
  Beta virt. eigenvalues --    1.30312   1.30772   1.33163   1.33683   1.34607
  Beta virt. eigenvalues --    1.35244   1.36242   1.36453   1.38086   1.38753
  Beta virt. eigenvalues --    1.38960   1.39201   1.40062   1.41145   1.41982
  Beta virt. eigenvalues --    1.42922   1.42957   1.44273   1.45011   1.46099
  Beta virt. eigenvalues --    1.46281   1.47370   1.47604   1.49833   1.50663
  Beta virt. eigenvalues --    1.51152   1.53833   1.54068   1.57373   1.57419
  Beta virt. eigenvalues --    1.59353   1.60146   1.60934   1.62372   1.63426
  Beta virt. eigenvalues --    1.66021   1.66753   1.68004   1.69157   1.69790
  Beta virt. eigenvalues --    1.73427   1.73994   1.76878   1.77916   1.78356
  Beta virt. eigenvalues --    1.80298   1.81156   1.82779   1.85103   1.87056
  Beta virt. eigenvalues --    1.88678   1.89191   1.91832   1.91902   1.94248
  Beta virt. eigenvalues --    1.97203   1.98316   2.01437   2.04854   2.06205
  Beta virt. eigenvalues --    2.07577   2.07838   2.08309   2.11397   2.11665
  Beta virt. eigenvalues --    2.13151   2.13452   2.16437   2.17885   2.18036
  Beta virt. eigenvalues --    2.18498   2.19217   2.20212   2.21870   2.23969
  Beta virt. eigenvalues --    2.25544   2.26364   2.28679   2.31283   2.31832
  Beta virt. eigenvalues --    2.34699   2.36648   2.37236   2.39830   2.42686
  Beta virt. eigenvalues --    2.45687   2.46615   2.46794   2.48236   2.49964
  Beta virt. eigenvalues --    2.50789   2.54528   2.55106   2.56361   2.57338
  Beta virt. eigenvalues --    2.57629   2.60183   2.60360   2.62835   2.63233
  Beta virt. eigenvalues --    2.64034   2.64528   2.67322   2.67836   2.68564
  Beta virt. eigenvalues --    2.69085   2.70690   2.71781   2.72991   2.73143
  Beta virt. eigenvalues --    2.73956   2.74982   2.76126   2.77717   2.79821
  Beta virt. eigenvalues --    2.79934   2.81324   2.81987   2.82216   2.82478
  Beta virt. eigenvalues --    2.83156   2.85118   2.86197   2.86267   2.87136
  Beta virt. eigenvalues --    2.87736   2.88272   2.89299   2.89656   2.90647
  Beta virt. eigenvalues --    2.93075   2.94026   2.94270   2.95728   2.95906
  Beta virt. eigenvalues --    2.98649   2.99763   3.00709   3.02274   3.03275
  Beta virt. eigenvalues --    3.05612   3.06037   3.06744   3.07075   3.07657
  Beta virt. eigenvalues --    3.09746   3.10148   3.10951   3.11597   3.11957
  Beta virt. eigenvalues --    3.12871   3.13742   3.14826   3.15244   3.15535
  Beta virt. eigenvalues --    3.15848   3.16683   3.16963   3.19503   3.20036
  Beta virt. eigenvalues --    3.20840   3.21025   3.21547   3.22743   3.23311
  Beta virt. eigenvalues --    3.24400   3.24627   3.25507   3.25881   3.26360
  Beta virt. eigenvalues --    3.27067   3.27533   3.28669   3.30873   3.31122
  Beta virt. eigenvalues --    3.31970   3.32361   3.32598   3.34069   3.35117
  Beta virt. eigenvalues --    3.35991   3.36516   3.37500   3.38091   3.38868
  Beta virt. eigenvalues --    3.39547   3.40456   3.41064   3.41466   3.42748
  Beta virt. eigenvalues --    3.43214   3.44487   3.45758   3.46548   3.48685
  Beta virt. eigenvalues --    3.49251   3.50009   3.50682   3.51246   3.51672
  Beta virt. eigenvalues --    3.52861   3.53100   3.54807   3.56156   3.56686
  Beta virt. eigenvalues --    3.57320   3.58184   3.58949   3.60382   3.61292
  Beta virt. eigenvalues --    3.62147   3.62912   3.63229   3.64666   3.65551
  Beta virt. eigenvalues --    3.67872   3.68783   3.71029   3.71984   3.72765
  Beta virt. eigenvalues --    3.73309   3.77756   3.78828   3.79282   3.80495
  Beta virt. eigenvalues --    3.82689   3.82979   3.83249   3.83616   3.84865
  Beta virt. eigenvalues --    3.87910   3.88465   3.90447   3.90608   3.94095
  Beta virt. eigenvalues --    3.94961   3.95480   3.95618   3.98190   4.02090
  Beta virt. eigenvalues --    4.03821   4.05335   4.07016   4.09659   4.09815
  Beta virt. eigenvalues --    4.10836   4.12425   4.12711   4.14882   4.16985
  Beta virt. eigenvalues --    4.18560   4.19561   4.21869   4.22995   4.23816
  Beta virt. eigenvalues --    4.24000   4.25885   4.27367   4.28018   4.28561
  Beta virt. eigenvalues --    4.29682   4.35348   4.37277   4.37781   4.38427
  Beta virt. eigenvalues --    4.40724   4.42868   4.44294   4.46268   4.49243
  Beta virt. eigenvalues --    4.51712   4.53756   4.54794   4.56264   4.56754
  Beta virt. eigenvalues --    4.57630   4.61193   4.62775   4.63936   4.67415
  Beta virt. eigenvalues --    4.68354   4.69011   4.73329   4.73733   4.76907
  Beta virt. eigenvalues --    4.78577   4.80949   4.81383   4.88402   4.89616
  Beta virt. eigenvalues --    4.91441   4.91736   4.94830   4.94867   4.96761
  Beta virt. eigenvalues --    4.99092   5.05254   5.06035   5.10582   5.12300
  Beta virt. eigenvalues --    5.20224   5.20787   5.24675   5.25637   5.27124
  Beta virt. eigenvalues --    5.31985   5.36151   5.36937   5.37207   5.39028
  Beta virt. eigenvalues --    5.40641   5.44034   5.51431   5.52371   5.55018
  Beta virt. eigenvalues --    5.62069   5.72063   5.73127   5.80324   5.82374
  Beta virt. eigenvalues --    7.94150   7.95006   8.02485   8.04545   8.07837
  Beta virt. eigenvalues --    8.10202   8.11375   8.15589   8.16242   8.23103
  Beta virt. eigenvalues --    8.33696   8.36827  34.75207  34.75781  34.81472
  Beta virt. eigenvalues --   34.82324  34.85855  34.87976  34.98249  34.99552
  Beta virt. eigenvalues --   35.01412  35.04560  35.17735  35.22334
          Condensed to atoms (all electrons):
               1          2          3          4          5          6
     1  C    5.250034   0.022296   0.429604  -0.003176   0.001208  -0.008565
     2  C    0.022296   5.299764  -0.001711   0.425099  -0.110211   0.291885
     3  H    0.429604  -0.001711   0.491461   0.000044  -0.000006   0.000165
     4  H   -0.003176   0.425099   0.000044   0.530455  -0.001634  -0.014458
     5  C    0.001208  -0.110211  -0.000006  -0.001634   5.318686   0.276109
     6  C   -0.008565   0.291885   0.000165  -0.014458   0.276109   5.299728
     7  H    0.000068  -0.000131   0.000004   0.000189   0.433330  -0.034339
     8  H   -0.001555  -0.014456  -0.000108   0.001726  -0.048975   0.425093
     9  C    0.002230  -0.065972  -0.000000  -0.007489  -0.049479   0.259025
    10  H   -0.000029   0.007523  -0.000001  -0.000324  -0.001027  -0.044806
    11  H   -0.000305  -0.006332   0.000003   0.000954   0.011805  -0.053563
    12  C   -0.000199   0.009282  -0.000001   0.004461   0.423007  -0.067805
    13  H   -0.000000  -0.000179  -0.000000  -0.000020  -0.030043   0.003756
    14  C    0.000071  -0.008555  -0.000000  -0.001556  -0.058105   0.022304
    15  H   -0.000000   0.000165  -0.000000  -0.000108   0.004396  -0.001711
    16  C   -0.000336   0.017321   0.000000   0.001274  -0.002395  -0.080484
    17  H    0.000040   0.002282  -0.000000  -0.003555   0.006621  -0.010409
    18  H    0.000002  -0.000268   0.000000   0.000372  -0.002002   0.012395
    19  C   -0.058088   0.276088   0.004398  -0.048976   0.006078  -0.110231
    20  H    0.004830  -0.034353  -0.000153  -0.005881  -0.000499  -0.000131
    21  C    0.467503  -0.067795  -0.034361   0.007284   0.000134   0.009289
    22  H   -0.030577   0.003756  -0.005572  -0.000135   0.000053  -0.000179
    23  C   -0.097135   0.259023   0.005547  -0.021377   0.014155  -0.065972
    24  H    0.013180  -0.053581  -0.000076  -0.003318   0.006054  -0.006330
    25  H   -0.000005  -0.044785  -0.000129  -0.005259  -0.000411   0.007520
    26  C    0.277539  -0.080489  -0.030518   0.009300  -0.009563   0.017329
    27  H   -0.030603   0.012404  -0.004182  -0.000174   0.000137  -0.000269
    28  H   -0.037794  -0.010418   0.000658  -0.000162  -0.001625   0.002287
               7          8          9         10         11         12
     1  C    0.000068  -0.001555   0.002230  -0.000029  -0.000305  -0.000199
     2  C   -0.000131  -0.014456  -0.065972   0.007523  -0.006332   0.009282
     3  H    0.000004  -0.000108  -0.000000  -0.000001   0.000003  -0.000001
     4  H    0.000189   0.001726  -0.007489  -0.000324   0.000954   0.004461
     5  C    0.433330  -0.048975  -0.049479  -0.001027   0.011805   0.423007
     6  C   -0.034339   0.425093   0.259025  -0.044806  -0.053563  -0.067805
     7  H    0.482330  -0.005882   0.003757   0.000194  -0.000068  -0.035917
     8  H   -0.005882   0.530532  -0.021398  -0.005258  -0.003318   0.007286
     9  C    0.003757  -0.021398   5.009966   0.410543   0.450020   0.027579
    10  H    0.000194  -0.005258   0.410543   0.558637  -0.016690   0.001396
    11  H   -0.000068  -0.003318   0.450020  -0.016690   0.532461  -0.005137
    12  C   -0.035917   0.007286   0.027579   0.001396  -0.005137   5.001125
    13  H   -0.004815  -0.000135   0.000310  -0.000136   0.000038   0.421225
    14  C    0.004831  -0.003176  -0.097137   0.000015   0.013175   0.467523
    15  H   -0.000153   0.000044   0.005547  -0.000129  -0.000076  -0.034363
    16  C   -0.001379   0.009302   0.338729  -0.027391  -0.054056  -0.047108
    17  H   -0.000009  -0.000162  -0.029252   0.005358  -0.004851  -0.007393
    18  H    0.000058  -0.000174  -0.039279  -0.006633  -0.002620   0.004348
    19  C   -0.000499  -0.001638   0.014177  -0.000412   0.006048   0.000133
    20  H    0.000002   0.000188   0.002691   0.000308  -0.002868  -0.000070
    21  C   -0.000070   0.004465  -0.003669  -0.000087   0.000325   0.000077
    22  H   -0.000002  -0.000020  -0.000062  -0.000003  -0.000015   0.000000
    23  C    0.002692  -0.007486   0.008832  -0.000267   0.000104  -0.003666
    24  H   -0.002868   0.000954   0.000104  -0.000022  -0.000011   0.000325
    25  H    0.000308  -0.000324  -0.000267   0.000016  -0.000022  -0.000087
    26  C   -0.001267   0.001275  -0.002035   0.000066   0.000041   0.001311
    27  H   -0.000030   0.000372   0.000028  -0.000001  -0.000003  -0.000014
    28  H    0.002185  -0.003557   0.000829   0.000007   0.000012   0.000018
              13         14         15         16         17         18
     1  C   -0.000000   0.000071  -0.000000  -0.000336   0.000040   0.000002
     2  C   -0.000179  -0.008555   0.000165   0.017321   0.002282  -0.000268
     3  H   -0.000000  -0.000000  -0.000000   0.000000  -0.000000   0.000000
     4  H   -0.000020  -0.001556  -0.000108   0.001274  -0.003555   0.000372
     5  C   -0.030043  -0.058105   0.004396  -0.002395   0.006621  -0.002002
     6  C    0.003756   0.022304  -0.001711  -0.080484  -0.010409   0.012395
     7  H   -0.004815   0.004831  -0.000153  -0.001379  -0.000009   0.000058
     8  H   -0.000135  -0.003176   0.000044   0.009302  -0.000162  -0.000174
     9  C    0.000310  -0.097137   0.005547   0.338729  -0.029252  -0.039279
    10  H   -0.000136   0.000015  -0.000129  -0.027391   0.005358  -0.006633
    11  H    0.000038   0.013175  -0.000076  -0.054056  -0.004851  -0.002620
    12  C    0.421225   0.467523  -0.034363  -0.047108  -0.007393   0.004348
    13  H    0.499545  -0.030582  -0.005572   0.004711  -0.000403  -0.000150
    14  C   -0.030582   5.249981   0.429602   0.277593  -0.037825  -0.030555
    15  H   -0.005572   0.429602   0.491454  -0.030509   0.000656  -0.004178
    16  C    0.004711   0.277593  -0.030509   4.968984   0.400997   0.416160
    17  H   -0.000403  -0.037825   0.000656   0.400997   0.583036  -0.023385
    18  H   -0.000150  -0.030555  -0.004178   0.416160  -0.023385   0.548355
    19  C    0.000053   0.001208  -0.000006  -0.009562  -0.001622   0.000136
    20  H   -0.000002   0.000068   0.000004  -0.001267   0.002184  -0.000030
    21  C    0.000000  -0.000199  -0.000001   0.001311   0.000019  -0.000014
    22  H    0.000000  -0.000000  -0.000000   0.000003  -0.000005  -0.000001
    23  C   -0.000062   0.002229  -0.000000  -0.002034   0.000829   0.000028
    24  H   -0.000015  -0.000306   0.000003   0.000041   0.000012  -0.000003
    25  H   -0.000003  -0.000029  -0.000001   0.000066   0.000007  -0.000001
    26  C    0.000003  -0.000336   0.000000   0.000412  -0.000048  -0.000001
    27  H   -0.000001   0.000002   0.000000  -0.000001   0.000001  -0.000000
    28  H   -0.000005   0.000040  -0.000000  -0.000048  -0.000004   0.000001
              19         20         21         22         23         24
     1  C   -0.058088   0.004830   0.467503  -0.030577  -0.097135   0.013180
     2  C    0.276088  -0.034353  -0.067795   0.003756   0.259023  -0.053581
     3  H    0.004398  -0.000153  -0.034361  -0.005572   0.005547  -0.000076
     4  H   -0.048976  -0.005881   0.007284  -0.000135  -0.021377  -0.003318
     5  C    0.006078  -0.000499   0.000134   0.000053   0.014155   0.006054
     6  C   -0.110231  -0.000131   0.009289  -0.000179  -0.065972  -0.006330
     7  H   -0.000499   0.000002  -0.000070  -0.000002   0.002692  -0.002868
     8  H   -0.001638   0.000188   0.004465  -0.000020  -0.007486   0.000954
     9  C    0.014177   0.002691  -0.003669  -0.000062   0.008832   0.000104
    10  H   -0.000412   0.000308  -0.000087  -0.000003  -0.000267  -0.000022
    11  H    0.006048  -0.002868   0.000325  -0.000015   0.000104  -0.000011
    12  C    0.000133  -0.000070   0.000077   0.000000  -0.003666   0.000325
    13  H    0.000053  -0.000002   0.000000   0.000000  -0.000062  -0.000015
    14  C    0.001208   0.000068  -0.000199  -0.000000   0.002229  -0.000306
    15  H   -0.000006   0.000004  -0.000001  -0.000000  -0.000000   0.000003
    16  C   -0.009562  -0.001267   0.001311   0.000003  -0.002034   0.000041
    17  H   -0.001622   0.002184   0.000019  -0.000005   0.000829   0.000012
    18  H    0.000136  -0.000030  -0.000014  -0.000001   0.000028  -0.000003
    19  C    5.318676   0.433317   0.423003  -0.030043  -0.049467   0.011806
    20  H    0.433317   0.482334  -0.035893  -0.004815   0.003757  -0.000068
    21  C    0.423003  -0.035893   5.001120   0.421218   0.027576  -0.005139
    22  H   -0.030043  -0.004815   0.421218   0.499539   0.000310   0.000038
    23  C   -0.049467   0.003757   0.027576   0.000310   5.009945   0.450031
    24  H    0.011806  -0.000068  -0.005139   0.000038   0.450031   0.532521
    25  H   -0.001033   0.000194   0.001409  -0.000136   0.410518  -0.016686
    26  C   -0.002398  -0.001377  -0.047099   0.004710   0.338746  -0.054070
    27  H   -0.002008   0.000058   0.004365  -0.000150  -0.039298  -0.002619
    28  H    0.006627  -0.000009  -0.007406  -0.000403  -0.029225  -0.004852
              25         26         27         28
     1  C   -0.000005   0.277539  -0.030603  -0.037794
     2  C   -0.044785  -0.080489   0.012404  -0.010418
     3  H   -0.000129  -0.030518  -0.004182   0.000658
     4  H   -0.005259   0.009300  -0.000174  -0.000162
     5  C   -0.000411  -0.009563   0.000137  -0.001625
     6  C    0.007520   0.017329  -0.000269   0.002287
     7  H    0.000308  -0.001267  -0.000030   0.002185
     8  H   -0.000324   0.001275   0.000372  -0.003557
     9  C   -0.000267  -0.002035   0.000028   0.000829
    10  H    0.000016   0.000066  -0.000001   0.000007
    11  H   -0.000022   0.000041  -0.000003   0.000012
    12  C   -0.000087   0.001311  -0.000014   0.000018
    13  H   -0.000003   0.000003  -0.000001  -0.000005
    14  C   -0.000029  -0.000336   0.000002   0.000040
    15  H   -0.000001   0.000000   0.000000  -0.000000
    16  C    0.000066   0.000412  -0.000001  -0.000048
    17  H    0.000007  -0.000048   0.000001  -0.000004
    18  H   -0.000001  -0.000001  -0.000000   0.000001
    19  C   -0.001033  -0.002398  -0.002008   0.006627
    20  H    0.000194  -0.001377   0.000058  -0.000009
    21  C    0.001409  -0.047099   0.004365  -0.007406
    22  H   -0.000136   0.004710  -0.000150  -0.000403
    23  C    0.410518   0.338746  -0.039298  -0.029225
    24  H   -0.016686  -0.054070  -0.002619  -0.004852
    25  H    0.558618  -0.027375  -0.006637   0.005359
    26  C   -0.027375   4.969073   0.416215   0.400954
    27  H   -0.006637   0.416215   0.548362  -0.023386
    28  H    0.005359   0.400954  -0.023386   0.583026
          Atomic-Atomic Spin Densities.
               1          2          3          4          5          6
     1  C   -0.666106  -0.004886   0.000958  -0.000092   0.000166  -0.005964
     2  C   -0.004886   0.151951  -0.000166  -0.003597  -0.060931  -0.000009
     3  H    0.000958  -0.000166   0.024093   0.000002   0.000002   0.000031
     4  H   -0.000092  -0.003597   0.000002  -0.011652   0.003540   0.009044
     5  C    0.000166  -0.060931   0.000002   0.003540   0.771980  -0.036718
     6  C   -0.005964  -0.000009   0.000031   0.009044  -0.036718  -0.151949
     7  H    0.000001   0.000398   0.000000   0.000007  -0.002394   0.000337
     8  H    0.001875  -0.009047   0.000006   0.000000   0.000135   0.003596
     9  C   -0.000045  -0.012589   0.000000  -0.001083  -0.003029   0.011773
    10  H   -0.000037   0.000493  -0.000000   0.000012  -0.001519   0.000551
    11  H    0.000285   0.001145  -0.000000  -0.000075   0.000014   0.002044
    12  C    0.000089   0.009630  -0.000000  -0.001926  -0.011076   0.011314
    13  H    0.000000   0.000197  -0.000000  -0.000031  -0.001554   0.000422
    14  C    0.000000   0.005971  -0.000000  -0.001876  -0.058103   0.004887
    15  H    0.000000  -0.000031  -0.000000  -0.000006  -0.000363   0.000166
    16  C    0.000027  -0.001741   0.000000   0.001111   0.006945  -0.002897
    17  H   -0.000015  -0.003589   0.000000   0.000708   0.004641  -0.003348
    18  H    0.000001   0.000304   0.000000  -0.000051  -0.000330   0.000872
    19  C    0.058094   0.036728   0.000363  -0.000135   0.000001   0.060929
    20  H    0.000296  -0.000338  -0.000006  -0.000357  -0.000084  -0.000398
    21  C   -0.007318  -0.011321  -0.000487   0.001219   0.000999  -0.009632
    22  H    0.000880  -0.000423  -0.000264   0.000025   0.000011  -0.000197
    23  C   -0.002802  -0.011761   0.000287  -0.004196  -0.000085   0.012600
    24  H   -0.000169  -0.002047  -0.000005   0.000282   0.002757  -0.001146
    25  H    0.000577  -0.000550   0.000002   0.000107  -0.000414  -0.000493
    26  C    0.032468   0.002896  -0.001089  -0.000125   0.000430   0.001735
    27  H    0.007344  -0.000874  -0.000204   0.000049   0.000011  -0.000304
    28  H    0.020683   0.003352   0.000095  -0.000212  -0.000127   0.003587
               7          8          9         10         11         12
     1  C    0.000001   0.001875  -0.000045  -0.000037   0.000285   0.000089
     2  C    0.000398  -0.009047  -0.012589   0.000493   0.001145   0.009630
     3  H    0.000000   0.000006   0.000000  -0.000000  -0.000000  -0.000000
     4  H    0.000007   0.000000  -0.001083   0.000012  -0.000075  -0.001926
     5  C   -0.002394   0.000135  -0.003029  -0.001519   0.000014  -0.011076
     6  C    0.000337   0.003596   0.011773   0.000551   0.002044   0.011314
     7  H   -0.025943   0.000357  -0.000265  -0.000022   0.000007   0.001927
     8  H    0.000357   0.011656   0.004195  -0.000107  -0.000282  -0.001219
     9  C   -0.000265   0.004195   0.009048  -0.001756  -0.001034  -0.003228
    10  H   -0.000022  -0.000107  -0.001756  -0.000643   0.000735   0.000987
    11  H    0.000007  -0.000282  -0.001034   0.000735  -0.000923  -0.000089
    12  C    0.001927  -0.001219  -0.003228   0.000987  -0.000089  -0.242978
    13  H    0.000272  -0.000025  -0.000146   0.000021  -0.000001   0.001833
    14  C   -0.000296   0.000092   0.002801  -0.000577   0.000169   0.007330
    15  H    0.000006  -0.000002  -0.000287  -0.000002   0.000005   0.000487
    16  C    0.000050   0.000126   0.006241   0.000654  -0.000174   0.003463
    17  H   -0.000019   0.000212  -0.002070   0.000155  -0.000388  -0.001017
    18  H    0.000001  -0.000049   0.002614  -0.000433   0.000228   0.000883
    19  C    0.000084  -0.003539   0.000080   0.000414  -0.002753  -0.000999
    20  H    0.000000  -0.000007   0.000153   0.000014  -0.000171   0.000030
    21  C   -0.000030   0.001927  -0.000198  -0.000049   0.000231   0.000000
    22  H   -0.000000   0.000031  -0.000009  -0.000000   0.000015  -0.000000
    23  C   -0.000153   0.001083  -0.000001  -0.000005  -0.000183   0.000198
    24  H    0.000171   0.000075   0.000183  -0.000002   0.000000  -0.000231
    25  H   -0.000014  -0.000012   0.000005  -0.000000   0.000002   0.000049
    26  C    0.000145  -0.001110  -0.000049   0.000015  -0.000045  -0.000246
    27  H    0.000005   0.000051   0.000008  -0.000000   0.000002   0.000009
    28  H   -0.000078  -0.000708  -0.000122   0.000009  -0.000042  -0.000143
              13         14         15         16         17         18
     1  C    0.000000   0.000000   0.000000   0.000027  -0.000015   0.000001
     2  C    0.000197   0.005971  -0.000031  -0.001741  -0.003589   0.000304
     3  H   -0.000000  -0.000000  -0.000000   0.000000   0.000000   0.000000
     4  H   -0.000031  -0.001876  -0.000006   0.001111   0.000708  -0.000051
     5  C   -0.001554  -0.058103  -0.000363   0.006945   0.004641  -0.000330
     6  C    0.000422   0.004887   0.000166  -0.002897  -0.003348   0.000872
     7  H    0.000272  -0.000296   0.000006   0.000050  -0.000019   0.000001
     8  H   -0.000025   0.000092  -0.000002   0.000126   0.000212  -0.000049
     9  C   -0.000146   0.002801  -0.000287   0.006241  -0.002070   0.002614
    10  H    0.000021  -0.000577  -0.000002   0.000654   0.000155  -0.000433
    11  H   -0.000001   0.000169   0.000005  -0.000174  -0.000388   0.000228
    12  C    0.001833   0.007330   0.000487   0.003463  -0.001017   0.000883
    13  H    0.008735  -0.000879   0.000264   0.000061  -0.000051   0.000021
    14  C   -0.000879   0.666099  -0.000959  -0.032466  -0.020690  -0.007342
    15  H    0.000264  -0.000959  -0.024093   0.001089  -0.000095   0.000205
    16  C    0.000061  -0.032466   0.001089  -0.034050   0.012040   0.004539
    17  H   -0.000051  -0.020690  -0.000095   0.012040   0.052820  -0.008391
    18  H    0.000021  -0.007342   0.000205   0.004539  -0.008391   0.020355
    19  C   -0.000011  -0.000166  -0.000002  -0.000429   0.000127  -0.000011
    20  H    0.000000  -0.000001  -0.000000  -0.000145   0.000077  -0.000005
    21  C    0.000000  -0.000089   0.000000   0.000246   0.000143  -0.000009
    22  H    0.000000  -0.000000   0.000000   0.000004   0.000002  -0.000000
    23  C    0.000009   0.000045  -0.000000   0.000049   0.000122  -0.000008
    24  H   -0.000015  -0.000285   0.000000   0.000045   0.000042  -0.000002
    25  H    0.000000   0.000037   0.000000  -0.000015  -0.000009   0.000000
    26  C   -0.000004  -0.000027  -0.000000   0.000000   0.000015  -0.000001
    27  H    0.000000  -0.000001  -0.000000   0.000001  -0.000000  -0.000000
    28  H   -0.000002   0.000015  -0.000000  -0.000015  -0.000000   0.000000
              19         20         21         22         23         24
     1  C    0.058094   0.000296  -0.007318   0.000880  -0.002802  -0.000169
     2  C    0.036728  -0.000338  -0.011321  -0.000423  -0.011761  -0.002047
     3  H    0.000363  -0.000006  -0.000487  -0.000264   0.000287  -0.000005
     4  H   -0.000135  -0.000357   0.001219   0.000025  -0.004196   0.000282
     5  C    0.000001  -0.000084   0.000999   0.000011  -0.000085   0.002757
     6  C    0.060929  -0.000398  -0.009632  -0.000197   0.012600  -0.001146
     7  H    0.000084   0.000000  -0.000030  -0.000000  -0.000153   0.000171
     8  H   -0.003539  -0.000007   0.001927   0.000031   0.001083   0.000075
     9  C    0.000080   0.000153  -0.000198  -0.000009  -0.000001   0.000183
    10  H    0.000414   0.000014  -0.000049  -0.000000  -0.000005  -0.000002
    11  H   -0.002753  -0.000171   0.000231   0.000015  -0.000183   0.000000
    12  C   -0.000999   0.000030   0.000000  -0.000000   0.000198  -0.000231
    13  H   -0.000011   0.000000   0.000000   0.000000   0.000009  -0.000015
    14  C   -0.000166  -0.000001  -0.000089  -0.000000   0.000045  -0.000285
    15  H   -0.000002  -0.000000   0.000000   0.000000  -0.000000   0.000000
    16  C   -0.000429  -0.000145   0.000246   0.000004   0.000049   0.000045
    17  H    0.000127   0.000077   0.000143   0.000002   0.000122   0.000042
    18  H   -0.000011  -0.000005  -0.000009  -0.000000  -0.000008  -0.000002
    19  C   -0.771994   0.002394   0.011087   0.001555   0.003022  -0.000014
    20  H    0.002394   0.025944  -0.001926  -0.000272   0.000265  -0.000007
    21  C    0.011087  -0.001926   0.242964  -0.001834   0.003233   0.000089
    22  H    0.001555  -0.000272  -0.001834  -0.008735   0.000146   0.000001
    23  C    0.003022   0.000265   0.003233   0.000146  -0.009056   0.001035
    24  H   -0.000014  -0.000007   0.000089   0.000001   0.001035   0.000923
    25  H    0.001519   0.000022  -0.000987  -0.000021   0.001756  -0.000735
    26  C   -0.006941  -0.000050  -0.003467  -0.000062  -0.006242   0.000173
    27  H    0.000330  -0.000001  -0.000883  -0.000021  -0.002611  -0.000229
    28  H   -0.004641   0.000019   0.001019   0.000051   0.002063   0.000389
              25         26         27         28
     1  C    0.000577   0.032468   0.007344   0.020683
     2  C   -0.000550   0.002896  -0.000874   0.003352
     3  H    0.000002  -0.001089  -0.000204   0.000095
     4  H    0.000107  -0.000125   0.000049  -0.000212
     5  C   -0.000414   0.000430   0.000011  -0.000127
     6  C   -0.000493   0.001735  -0.000304   0.003587
     7  H   -0.000014   0.000145   0.000005  -0.000078
     8  H   -0.000012  -0.001110   0.000051  -0.000708
     9  C    0.000005  -0.000049   0.000008  -0.000122
    10  H   -0.000000   0.000015  -0.000000   0.000009
    11  H    0.000002  -0.000045   0.000002  -0.000042
    12  C    0.000049  -0.000246   0.000009  -0.000143
    13  H    0.000000  -0.000004   0.000000  -0.000002
    14  C    0.000037  -0.000027  -0.000001   0.000015
    15  H    0.000000  -0.000000  -0.000000  -0.000000
    16  C   -0.000015   0.000000   0.000001  -0.000015
    17  H   -0.000009   0.000015  -0.000000  -0.000000
    18  H    0.000000  -0.000001  -0.000000   0.000000
    19  C    0.001519  -0.006941   0.000330  -0.004641
    20  H    0.000022  -0.000050  -0.000001   0.000019
    21  C   -0.000987  -0.003467  -0.000883   0.001019
    22  H   -0.000021  -0.000062  -0.000021   0.000051
    23  C    0.001756  -0.006242  -0.002611   0.002063
    24  H   -0.000735   0.000173  -0.000229   0.000389
    25  H    0.000643  -0.000653   0.000433  -0.000155
    26  C   -0.000653   0.034051  -0.004543  -0.012032
    27  H    0.000433  -0.004543  -0.020355   0.008391
    28  H   -0.000155  -0.012032   0.008391  -0.052817
 Mulliken charges and spin densities:
               1          2
     1  C   -0.200237  -0.563688
     2  C   -0.127650   0.089164
     3  H    0.144936   0.023619
     4  H    0.136443  -0.009308
     5  C   -0.185800   0.614905
     6  C   -0.127633  -0.089167
     7  H    0.157482  -0.025446
     8  H    0.136386   0.009309
     9  C   -0.218327   0.011192
    10  H    0.119155  -0.001094
    11  H    0.134950  -0.001280
    12  C   -0.167336  -0.224924
    13  H    0.142481   0.009118
    14  C   -0.200280   0.563687
    15  H    0.144938  -0.023619
    16  C   -0.180335  -0.035243
    17  H    0.116882   0.031424
    18  H    0.127439   0.013391
    19  C   -0.185764  -0.614908
    20  H    0.157479   0.025446
    21  C   -0.167367   0.224925
    22  H    0.142489  -0.009118
    23  C   -0.218333  -0.011192
    24  H    0.134896   0.001282
    25  H    0.119176   0.001094
    26  C   -0.180399   0.035243
    27  H    0.127434  -0.013390
    28  H    0.116894  -0.031422
 Sum of Mulliken charges =  -0.00000  -0.00000
 Mulliken charges and spin densities with hydrogens summed into heavy atoms:
               1          2
     1  C   -0.055301  -0.540069
     2  C    0.008793   0.079856
     5  C   -0.028318   0.589459
     6  C    0.008753  -0.079858
     9  C    0.035777   0.008817
    12  C   -0.024855  -0.215806
    14  C   -0.055342   0.540068
    16  C    0.063986   0.009572
    19  C   -0.028285  -0.589461
    21  C   -0.024877   0.215807
    23  C    0.035739  -0.008816
    26  C    0.063930  -0.009570
 Electronic spatial extent (au):  <R**2>=           2182.1463
 Charge=             -0.0000 electrons
 Dipole moment (field-independent basis, Debye):
    X=              0.0002    Y=             -0.0004    Z=              0.0002  Tot=              0.0005
 Quadrupole moment (field-independent basis, Debye-Ang):
   XX=            -72.1737   YY=            -71.1782   ZZ=            -76.3188
   XY=             -2.6307   XZ=             -2.9963   YZ=             -0.3489
 Traceless Quadrupole moment (field-independent basis, Debye-Ang):
   XX=              1.0499   YY=              2.0454   ZZ=             -3.0953
   XY=             -2.6307   XZ=             -2.9963   YZ=             -0.3489
 Octapole moment (field-independent basis, Debye-Ang**2):
  XXX=              0.0022  YYY=             -0.0020  ZZZ=             -0.0002  XYY=              0.0009
  XXY=             -0.0019  XXZ=              0.0022  XZZ=              0.0004  YZZ=             -0.0006
  YYZ=              0.0008  XYZ=             -0.0010
 Hexadecapole moment (field-independent basis, Debye-Ang**3):
 XXXX=          -2016.3917 YYYY=           -640.8368 ZZZZ=           -301.1293 XXXY=            -90.2185
 XXXZ=           -112.3329 YYYX=            -60.5219 YYYZ=              0.6660 ZZZX=            -62.5025
 ZZZY=             -6.7295 XXYY=           -442.2339 XXZZ=           -414.7361 YYZZ=           -171.8115
 XXYZ=            -20.0936 YYXZ=            -24.8036 ZZXY=            -40.7695
 N-N= 6.933893954951D+02 E-N=-2.468267330388D+03  KE= 4.639338052618D+02
                          Isotropic Fermi Contact Couplings
        Atom                 a.u.       MegaHertz       Gauss      10(-4) cm-1
     1  C(13)             -0.04299     -24.16463      -8.62254      -8.06045
     2  C(13)              0.06552      36.82995      13.14184      12.28515
     3  H(1)               0.00847      18.92809       6.75401       6.31373
     4  H(1)              -0.00491     -10.96951      -3.91419      -3.65904
     5  C(13)              0.04781      26.87464       9.58954       8.96442
     6  C(13)             -0.06552     -36.82998     -13.14185     -12.28516
     7  H(1)              -0.00929     -20.77166      -7.41185      -6.92868
     8  H(1)               0.00491      10.96956       3.91421       3.65905
     9  C(13)              0.00492       2.76430       0.98637       0.92207
    10  H(1)              -0.00076      -1.68747      -0.60213      -0.56288
    11  H(1)              -0.00037      -0.81579      -0.29109      -0.27212
    12  C(13)             -0.04248     -23.87858      -8.52047      -7.96504
    13  H(1)               0.00296       6.60619       2.35725       2.20359
    14  C(13)              0.04299      24.16451       8.62250       8.06041
    15  H(1)              -0.00847     -18.92804      -6.75400      -6.31371
    16  C(13)             -0.01786     -10.03931      -3.58228      -3.34875
    17  H(1)               0.01527      34.13117      12.17885      11.38493
    18  H(1)               0.00638      14.26984       5.09183       4.75991
    19  C(13)             -0.04781     -26.87512      -9.58971      -8.96457
    20  H(1)               0.00929      20.77190       7.41193       6.92876
    21  C(13)              0.04248      23.87887       8.52058       7.96513
    22  H(1)              -0.00296      -6.60632      -2.35730      -2.20363
    23  C(13)             -0.00492      -2.76452      -0.98645      -0.92215
    24  H(1)               0.00037       0.81580       0.29110       0.27212
    25  H(1)               0.00076       1.68738       0.60210       0.56285
    26  C(13)              0.01786      10.03944       3.58232       3.34880
    27  H(1)              -0.00638     -14.26916      -5.09159      -4.75968
    28  H(1)              -0.01527     -34.13021     -12.17851     -11.38461
 --------------------------------------------------------
       Center         ----  Spin Dipole Couplings  ----
                      3XX-RR        3YY-RR        3ZZ-RR
 --------------------------------------------------------
     1   Atom        0.126636      0.333231     -0.459867
     2   Atom       -0.010543     -0.043776      0.054319
     3   Atom       -0.032637      0.042324     -0.009687
     4   Atom       -0.001557     -0.006614      0.008171
     5   Atom       -0.231823     -0.357572      0.589395
     6   Atom        0.010543      0.043775     -0.054318
     7   Atom       -0.017740      0.016345      0.001395
     8   Atom        0.001557      0.006614     -0.008171
     9   Atom       -0.000884      0.007603     -0.006718
    10   Atom       -0.004135      0.003532      0.000603
    11   Atom       -0.005640      0.006762     -0.001122
    12   Atom        0.069981      0.099720     -0.169700
    13   Atom        0.007104     -0.002184     -0.004919
    14   Atom       -0.126636     -0.333230      0.459866
    15   Atom        0.032637     -0.042324      0.009687
    16   Atom       -0.005011      0.002647      0.002364
    17   Atom       -0.008033      0.008716     -0.000683
    18   Atom       -0.006091      0.010175     -0.004083
    19   Atom        0.231823      0.357575     -0.589398
    20   Atom        0.017740     -0.016345     -0.001395
    21   Atom       -0.069982     -0.099721      0.169703
    22   Atom       -0.007104      0.002185      0.004919
    23   Atom        0.000884     -0.007602      0.006718
    24   Atom        0.005640     -0.006762      0.001122
    25   Atom        0.004135     -0.003532     -0.000603
    26   Atom        0.005011     -0.002648     -0.002363
    27   Atom        0.006092     -0.010175      0.004083
    28   Atom        0.008033     -0.008716      0.000683
 --------------------------------------------------------
                        XY            XZ            YZ
 --------------------------------------------------------
     1   Atom        0.002339     -0.389924      0.008381
     2   Atom        0.011137      0.059670      0.027089
     3   Atom       -0.007932      0.017077      0.004715
     4   Atom       -0.004866      0.003480      0.008659
     5   Atom       -0.037194      0.352489     -0.066692
     6   Atom       -0.011137     -0.059669     -0.027089
     7   Atom       -0.043154      0.004739      0.014284
     8   Atom        0.004866     -0.003480     -0.008659
     9   Atom       -0.012830     -0.011998      0.003213
    10   Atom       -0.000951     -0.003530     -0.005306
    11   Atom        0.004547     -0.007995     -0.000075
    12   Atom       -0.009226     -0.127992      0.020845
    13   Atom       -0.007367     -0.007718      0.003106
    14   Atom       -0.002339      0.389923     -0.008381
    15   Atom        0.007932     -0.017077     -0.004715
    16   Atom        0.001894      0.006648     -0.000461
    17   Atom        0.004324      0.001773      0.005080
    18   Atom       -0.002400     -0.000754     -0.002538
    19   Atom        0.037195     -0.352495      0.066695
    20   Atom        0.043154     -0.004738     -0.014285
    21   Atom        0.009226      0.127993     -0.020844
    22   Atom        0.007367      0.007718     -0.003106
    23   Atom        0.012830      0.011998     -0.003213
    24   Atom       -0.004547      0.007995      0.000075
    25   Atom        0.000951      0.003530      0.005306
    26   Atom       -0.001895     -0.006648      0.000460
    27   Atom        0.002400      0.000754      0.002538
    28   Atom       -0.004324     -0.001773     -0.005080
 --------------------------------------------------------


 ---------------------------------------------------------------------------------
              Anisotropic Spin Dipole Couplings in Principal Axis System
 ---------------------------------------------------------------------------------

       Atom             a.u.   MegaHertz   Gauss  10(-4) cm-1        Axes

              Baa    -0.6546   -87.838   -31.343   -29.300  0.4466 -0.0086  0.8947
     1 C(13)  Bbb     0.3211    43.082    15.373    14.371  0.8872  0.1335 -0.4416
              Bcc     0.3335    44.756    15.970    14.929 -0.1156  0.9910  0.0673
 
              Baa    -0.0525    -7.045    -2.514    -2.350  0.3813  0.8227 -0.4216
     2 C(13)  Bbb    -0.0433    -5.814    -2.074    -1.939  0.7807 -0.5308 -0.3298
              Bcc     0.0958    12.858     4.588     4.289  0.4951  0.2034  0.8447
 
              Baa    -0.0427   -22.802    -8.136    -7.606  0.8769  0.1077 -0.4685
     3 H(1)   Bbb    -0.0006    -0.316    -0.113    -0.105  0.4721 -0.0096  0.8815
              Bcc     0.0433    23.117     8.249     7.711 -0.0905  0.9941  0.0593
 
              Baa    -0.0135    -7.207    -2.572    -2.404  0.4426  0.8060 -0.3930
     4 H(1)   Bbb     0.0012     0.663     0.236     0.221  0.8921 -0.4402  0.1020
              Bcc     0.0123     6.545     2.335     2.183  0.0908  0.3957  0.9139
 
              Baa    -0.3743   -50.226   -17.922   -16.754  0.6736  0.7124 -0.1971
     5 C(13)  Bbb    -0.3509   -47.089   -16.802   -15.707 -0.6525  0.6984  0.2941
              Bcc     0.7252    97.315    34.724    32.461  0.3472 -0.0695  0.9352
 
              Baa    -0.0958   -12.858    -4.588    -4.289  0.4951  0.2034  0.8447
     6 C(13)  Bbb     0.0433     5.814     2.074     1.939  0.7807 -0.5308 -0.3298
              Bcc     0.0525     7.045     2.514     2.350  0.3813  0.8227 -0.4216
 
              Baa    -0.0499   -26.638    -9.505    -8.886  0.7920  0.5654 -0.2305
     7 H(1)   Bbb     0.0024     1.256     0.448     0.419  0.3033 -0.0367  0.9522
              Bcc     0.0476    25.382     9.057     8.467 -0.5299  0.8240  0.2005
 
              Baa    -0.0123    -6.545    -2.335    -2.183  0.0908  0.3957  0.9139
     8 H(1)   Bbb    -0.0012    -0.663    -0.236    -0.221  0.8921 -0.4402  0.1020
              Bcc     0.0135     7.207     2.572     2.404  0.4426  0.8060 -0.3930
 
              Baa    -0.0176    -2.366    -0.844    -0.789  0.6868  0.2629  0.6776
     9 C(13)  Bbb    -0.0029    -0.391    -0.139    -0.130  0.3818  0.6628 -0.6442
              Bcc     0.0205     2.757     0.984     0.920 -0.6185  0.7012  0.3548
 
              Baa    -0.0073    -3.874    -1.382    -1.292  0.7469  0.3452  0.5683
    10 H(1)   Bbb    -0.0005    -0.260    -0.093    -0.087  0.6528 -0.5429 -0.5283
              Bcc     0.0077     4.134     1.475     1.379  0.1262  0.7656 -0.6309
 
              Baa    -0.0124    -6.603    -2.356    -2.203  0.8012 -0.1881  0.5680
    11 H(1)   Bbb     0.0032     1.689     0.603     0.563 -0.4052  0.5279  0.7464
              Bcc     0.0092     4.914     1.754     1.639  0.4403  0.8282 -0.3467
 
              Baa    -0.2259   -30.318   -10.818   -10.113  0.3953 -0.0475  0.9173
    12 C(13)  Bbb     0.0921    12.355     4.408     4.121  0.4282  0.8930 -0.1383
              Bcc     0.1339    17.963     6.410     5.992  0.8126 -0.4475 -0.3734
 
              Baa    -0.0087    -4.668    -1.666    -1.557  0.4829  0.1323  0.8656
    13 H(1)   Bbb    -0.0059    -3.153    -1.125    -1.052  0.3193  0.8939 -0.3147
              Bcc     0.0147     7.822     2.791     2.609  0.8154 -0.4284 -0.3894
 
              Baa    -0.3335   -44.756   -15.970   -14.929 -0.1156  0.9910  0.0673
    14 C(13)  Bbb    -0.3211   -43.082   -15.373   -14.371  0.8872  0.1335 -0.4416
              Bcc     0.6546    87.838    31.343    29.300  0.4466 -0.0086  0.8947
 
              Baa    -0.0433   -23.117    -8.249    -7.711 -0.0905  0.9941  0.0593
    15 H(1)   Bbb     0.0006     0.316     0.113     0.105  0.4721 -0.0096  0.8815
              Bcc     0.0427    22.802     8.136     7.606  0.8769  0.1077 -0.4685
 
              Baa    -0.0092    -1.237    -0.441    -0.413  0.8541 -0.1556 -0.4964
    16 C(13)  Bbb     0.0029     0.382     0.136     0.128  0.0518  0.9749 -0.2165
              Bcc     0.0064     0.855     0.305     0.285  0.5176  0.1592  0.8407
 
              Baa    -0.0091    -4.868    -1.737    -1.624  0.9738 -0.2146 -0.0754
    17 H(1)   Bbb    -0.0029    -1.548    -0.553    -0.517 -0.0161 -0.3955  0.9183
              Bcc     0.0120     6.416     2.289     2.140  0.2269  0.8930  0.3886
 
              Baa    -0.0069    -3.696    -1.319    -1.233  0.8961  0.1856  0.4032
    18 H(1)   Bbb    -0.0040    -2.124    -0.758    -0.709 -0.4241  0.0897  0.9012
              Bcc     0.0109     5.821     2.077     1.942 -0.1311  0.9785 -0.1591
 
              Baa    -0.7252   -97.316   -34.725   -32.461  0.3472 -0.0695  0.9352
    19 C(13)  Bbb     0.3509    47.089    16.803    15.707 -0.6525  0.6984  0.2941
              Bcc     0.3743    50.227    17.922    16.754  0.6736  0.7124 -0.1971
 
              Baa    -0.0476   -25.383    -9.057    -8.467 -0.5299  0.8240  0.2005
    20 H(1)   Bbb    -0.0024    -1.256    -0.448    -0.419  0.3033 -0.0367  0.9522
              Bcc     0.0499    26.639     9.505     8.886  0.7920  0.5654 -0.2305
 
              Baa    -0.1339   -17.964    -6.410    -5.992  0.8126 -0.4475 -0.3734
    21 C(13)  Bbb    -0.0921   -12.355    -4.409    -4.121  0.4282  0.8930 -0.1383
              Bcc     0.2259    30.319    10.818    10.113  0.3953 -0.0475  0.9173
 
              Baa    -0.0147    -7.822    -2.791    -2.609  0.8154 -0.4284 -0.3894
    22 H(1)   Bbb     0.0059     3.153     1.125     1.052  0.3193  0.8939 -0.3147
              Bcc     0.0087     4.669     1.666     1.557  0.4829  0.1322  0.8657
 
              Baa    -0.0205    -2.757    -0.984    -0.920 -0.6185  0.7012  0.3548
    23 C(13)  Bbb     0.0029     0.391     0.139     0.130  0.3818  0.6628 -0.6442
              Bcc     0.0176     2.366     0.844     0.789  0.6868  0.2629  0.6776
 
              Baa    -0.0092    -4.914    -1.754    -1.639  0.4403  0.8282 -0.3467
    24 H(1)   Bbb    -0.0032    -1.689    -0.603    -0.563 -0.4052  0.5279  0.7464
              Bcc     0.0124     6.603     2.356     2.203  0.8012 -0.1881  0.5680
 
              Baa    -0.0077    -4.134    -1.475    -1.379  0.1262  0.7656 -0.6309
    25 H(1)   Bbb     0.0005     0.260     0.093     0.087  0.6528 -0.5429 -0.5283
              Bcc     0.0073     3.874     1.382     1.292  0.7469  0.3452  0.5683
 
              Baa    -0.0064    -0.855    -0.305    -0.285  0.5176  0.1595  0.8406
    26 C(13)  Bbb    -0.0029    -0.383    -0.136    -0.128  0.0516  0.9749 -0.2168
              Bcc     0.0092     1.237     0.441     0.413  0.8541 -0.1556 -0.4964
 
              Baa    -0.0109    -5.821    -2.077    -1.942 -0.1311  0.9785 -0.1591
    27 H(1)   Bbb     0.0040     2.124     0.758     0.709 -0.4240  0.0897  0.9012
              Bcc     0.0069     3.697     1.319     1.233  0.8961  0.1856  0.4032
 
              Baa    -0.0120    -6.416    -2.289    -2.140  0.2269  0.8930  0.3886
    28 H(1)   Bbb     0.0029     1.548     0.553     0.516 -0.0161 -0.3955  0.9183
              Bcc     0.0091     4.868     1.737     1.624  0.9738 -0.2146 -0.0754
 

 ---------------------------------------------------------------------------------

 No NMR shielding tensors so no spin-rotation constants.
 Leave Link  601 at Mon Aug  3 16:49:23 2020, MaxMem=  6442450944 cpu:               8.2 elap:               0.4
 (Enter /scratch/scicomp/CentOS/7.3.1611/Haswell/software/Gaussian/g16/l9999.exe)
 1\1\GINC-ATLAS-205\SP\UwB97XD\def2TZVP\C12H16\BOCHEN\03-Aug-2020\0\\#p
  uwb97xd guess=mix def2tzvp # scrf=(iefpcm,solvent=Cyclohexane,read) n
 osym 6d 10f\\endo-2 xp-pcm for eta=3\\0,1\C,0,-3.119691,-0.425826,0.24
 8428\C,0,-0.438059,-0.127566,-0.740444\H,0,-4.086791,-0.546863,0.72094
 8\H,0,0.329828,-0.109733,-1.515278\C,0,1.116208,1.432588,0.668787\C,0,
 0.438059,0.127566,0.740444\H,0,0.567375,2.333262,0.913532\H,0,-0.32982
 8,0.109733,1.515278\C,0,1.453963,-0.997822,0.978822\H,0,1.872621,-0.88
 7919,1.983401\H,0,0.950096,-1.965338,0.950002\C,0,2.395835,1.529761,0.
 125114\H,0,2.827943,2.513325,-0.022973\C,0,3.119691,0.425826,-0.248428
 \H,0,4.086791,0.546863,-0.720948\C,0,2.592903,-0.959744,-0.042391\H,0,
 2.246941,-1.360164,-1.00466\H,0,3.401404,-1.625003,0.272285\C,0,-1.116
 208,-1.432588,-0.668787\H,0,-0.567375,-2.333262,-0.913532\C,0,-2.39583
 5,-1.529761,-0.125114\H,0,-2.827943,-2.513325,0.022973\C,0,-1.453963,0
 .997822,-0.978822\H,0,-0.950096,1.965338,-0.950002\H,0,-1.872621,0.887
 919,-1.983401\C,0,-2.592903,0.959744,0.042391\H,0,-3.401404,1.625003,-
 0.272284\H,0,-2.246941,1.360164,1.00466\\Version=ES64L-G16RevB.01\HF=-
 466.82956\S2=1.024408\S2-1=0.\S2A=0.508785\RMSD=7.566e-09\Dipole=0.000
 0885,-0.0001549,0.000063\Quadrupole=0.7805669,1.5206963,-2.3012632,-1.
 9558686,-2.2276472,-0.2593753\PG=CI [X(C12H16)]\\@


 THE ONLY EXISTING THINGS ARE ATOMS AND EMPTY SPACE;
 ALL ELSE IS MERE OPINION. -- DEMOCRITUS OF ABDERA D. 370 B.C.
 EXPERIMENTS ARE THE ONLY MEANS OF KNOWLEDGE AT OUR DISPOSAL
 THE REST IS POETRY, IMAGINATION. -- MAX PLANCK
 Job cpu time:       0 days  1 hours 42 minutes 12.4 seconds.
 Elapsed time:       0 days  0 hours  4 minutes 18.5 seconds.
 File lengths (MBytes):  RWF=    627 Int=      0 D2E=      0 Chk=     23 Scr=      1
 Normal termination of Gaussian 16 at Mon Aug  3 16:49:23 2020.
