 Entering Gaussian System, Link 0=g16
 Input=meso-TS_64_2_pcm.com
 Output=meso-TS_64_2_pcm.log
 Initial command:
 /scratch/scicomp/CentOS/7.3.1611/Haswell/software/Gaussian/g16/l1.exe "/scratch/bochen/cyclohexadiene-dimerization/wb97xd-def2tzvp/xp-pcm/meso/Gau-19630.inp" -scrdir="/scratch/bochen/cyclohexadiene-dimerization/wb97xd-def2tzvp/xp-pcm/meso/"
 Entering Link 1 = /scratch/scicomp/CentOS/7.3.1611/Haswell/software/Gaussian/g16/l1.exe PID=     19631.
  
 Copyright (c) 1988-2017, Gaussian, Inc.  All Rights Reserved.
  
 This is part of the Gaussian(R) 16 program.  It is based on
 the Gaussian(R) 09 system (copyright 2009, Gaussian, Inc.),
 the Gaussian(R) 03 system (copyright 2003, Gaussian, Inc.),
 the Gaussian(R) 98 system (copyright 1998, Gaussian, Inc.),
 the Gaussian(R) 94 system (copyright 1995, Gaussian, Inc.),
 the Gaussian 92(TM) system (copyright 1992, Gaussian, Inc.),
 the Gaussian 90(TM) system (copyright 1990, Gaussian, Inc.),
 the Gaussian 88(TM) system (copyright 1988, Gaussian, Inc.),
 the Gaussian 86(TM) system (copyright 1986, Carnegie Mellon
 University), and the Gaussian 82(TM) system (copyright 1983,
 Carnegie Mellon University). Gaussian is a federally registered
 trademark of Gaussian, Inc.
  
 This software contains proprietary and confidential information,
 including trade secrets, belonging to Gaussian, Inc.
  
 This software is provided under written license and may be
 used, copied, transmitted, or stored only in accord with that
 written license.
  
 The following legend is applicable only to US Government
 contracts under FAR:
  
                    RESTRICTED RIGHTS LEGEND
  
 Use, reproduction and disclosure by the US Government is
 subject to restrictions as set forth in subparagraphs (a)
 and (c) of the Commercial Computer Software - Restricted
 Rights clause in FAR 52.227-19.
  
 Gaussian, Inc.
 340 Quinnipiac St., Bldg. 40, Wallingford CT 06492
  
  
 ---------------------------------------------------------------
 Warning -- This program may not be used in any manner that
 competes with the business of Gaussian, Inc. or will provide
 assistance to any competitor of Gaussian, Inc.  The licensee
 of this program is prohibited from giving any competitor of
 Gaussian, Inc. access to this program.  By using this program,
 the user acknowledges that Gaussian, Inc. is engaged in the
 business of creating and licensing software in the field of
 computational chemistry and represents and warrants to the
 licensee that it is not a competitor of Gaussian, Inc. and that
 it will not use this program in any manner prohibited above.
 ---------------------------------------------------------------
  

 Cite this work as:
 Gaussian 16, Revision B.01,
 M. J. Frisch, G. W. Trucks, H. B. Schlegel, G. E. Scuseria, 
 M. A. Robb, J. R. Cheeseman, G. Scalmani, V. Barone, 
 G. A. Petersson, H. Nakatsuji, X. Li, M. Caricato, A. V. Marenich, 
 J. Bloino, B. G. Janesko, R. Gomperts, B. Mennucci, H. P. Hratchian, 
 J. V. Ortiz, A. F. Izmaylov, J. L. Sonnenberg, D. Williams-Young, 
 F. Ding, F. Lipparini, F. Egidi, J. Goings, B. Peng, A. Petrone, 
 T. Henderson, D. Ranasinghe, V. G. Zakrzewski, J. Gao, N. Rega, 
 G. Zheng, W. Liang, M. Hada, M. Ehara, K. Toyota, R. Fukuda, 
 J. Hasegawa, M. Ishida, T. Nakajima, Y. Honda, O. Kitao, H. Nakai, 
 T. Vreven, K. Throssell, J. A. Montgomery, Jr., J. E. Peralta, 
 F. Ogliaro, M. J. Bearpark, J. J. Heyd, E. N. Brothers, K. N. Kudin, 
 V. N. Staroverov, T. A. Keith, R. Kobayashi, J. Normand, 
 K. Raghavachari, A. P. Rendell, J. C. Burant, S. S. Iyengar, 
 J. Tomasi, M. Cossi, J. M. Millam, M. Klene, C. Adamo, R. Cammi, 
 J. W. Ochterski, R. L. Martin, K. Morokuma, O. Farkas, 
 J. B. Foresman, and D. J. Fox, Gaussian, Inc., Wallingford CT, 2016.
 
 ******************************************
 Gaussian 16:  ES64L-G16RevB.01 20-Dec-2017
                 3-Aug-2020 
 ******************************************
 %nproc=24
 Will use up to   24 processors via shared memory.
 %mem=48GB
 ----------------------------------------------------------------------
 #p uwb97xd guess=mix def2tzvp # scrf=(iefpcm,solvent=Cyclohexane,read)
  nosym 6d 10f
 ----------------------------------------------------------------------
 1/38=1,40=2,172=1/1;
 2/12=2,15=1,17=6,18=5,40=1/2;
 3/5=44,7=101,8=22,11=2,25=1,30=1,70=2203,72=17,74=-58,116=2/1,2,3;
 4/13=-1/1;
 5/5=2,38=5,53=17/2;
 6/7=2,8=2,9=2,10=2,28=1/1;
 99/5=1,9=1/99;
 Leave Link    1 at Mon Aug  3 14:17:50 2020, MaxMem=  6442450944 cpu:               3.0 elap:               0.1
 (Enter /scratch/scicomp/CentOS/7.3.1611/Haswell/software/Gaussian/g16/l101.exe)
 -----------------------
 endo-2 xp-pcm for eta=3
 -----------------------
 Symbolic Z-matrix:
 Charge =  0 Multiplicity = 1
 6                    -3.12468  -0.44069   0.27304 
 6                    -0.77579  -0.26199  -1.30218 
 1                    -4.05407  -0.52582   0.82419 
 1                     0.1616   -0.18453  -1.83944 
 6                     1.19854   1.43292   0.83418 
 6                     0.77579   0.26199   1.30218 
 1                     0.6082    2.33018   0.97771 
 1                    -0.1616    0.18453   1.83944 
 6                     1.60523  -0.98179   1.16163 
 1                     2.17694  -1.10827   2.09015 
 1                     0.9563   -1.85528   1.08385 
 6                     2.47187   1.53314   0.11941 
 1                     2.87141   2.51693  -0.09608 
 6                     3.12468   0.44069  -0.27304 
 1                     4.05407   0.52582  -0.82419 
 6                     2.56349  -0.93427  -0.03247 
 1                     2.04332  -1.25613  -0.943 
 1                     3.37242  -1.65219   0.11536 
 6                    -1.19854  -1.43292  -0.83418 
 1                    -0.6082   -2.33018  -0.97771 
 6                    -2.47187  -1.53314  -0.11941 
 1                    -2.87141  -2.51693   0.09608 
 6                    -1.60523   0.98179  -1.16163 
 1                    -0.9563    1.85528  -1.08385 
 1                    -2.17694   1.10827  -2.09015 
 6                    -2.56349   0.93427   0.03247 
 1                    -3.37242   1.65219  -0.11536 
 1                    -2.04332   1.25613   0.943 
 
 ITRead=  0  0  0  0  0  0  0  0  0  0  0  0  0  0  0  0  0  0  0  0
 ITRead=  0  0  0  0  0  0  0  0
 MicOpt= -1 -1 -1 -1 -1 -1 -1 -1 -1 -1 -1 -1 -1 -1 -1 -1 -1 -1 -1 -1
 MicOpt= -1 -1 -1 -1 -1 -1 -1 -1
 NAtoms=     28 NQM=       28 NQMF=       0 NMMI=      0 NMMIF=      0
                NMic=       0 NMicF=      0.
                    Isotopes and Nuclear Properties:
 (Nuclear quadrupole moments (NQMom) in fm**2, nuclear magnetic moments (NMagM)
  in nuclear magnetons)

  Atom         1           2           3           4           5           6           7           8           9          10
 IAtWgt=          12          12           1           1          12          12           1           1          12           1
 AtmWgt=  12.0000000  12.0000000   1.0078250   1.0078250  12.0000000  12.0000000   1.0078250   1.0078250  12.0000000   1.0078250
 NucSpn=           0           0           1           1           0           0           1           1           0           1
 AtZEff=  -0.0000000  -0.0000000  -0.0000000  -0.0000000  -0.0000000  -0.0000000  -0.0000000  -0.0000000  -0.0000000  -0.0000000
 NQMom=    0.0000000   0.0000000   0.0000000   0.0000000   0.0000000   0.0000000   0.0000000   0.0000000   0.0000000   0.0000000
 NMagM=    0.0000000   0.0000000   2.7928460   2.7928460   0.0000000   0.0000000   2.7928460   2.7928460   0.0000000   2.7928460
 AtZNuc=   6.0000000   6.0000000   1.0000000   1.0000000   6.0000000   6.0000000   1.0000000   1.0000000   6.0000000   1.0000000

  Atom        11          12          13          14          15          16          17          18          19          20
 IAtWgt=           1          12           1          12           1          12           1           1          12           1
 AtmWgt=   1.0078250  12.0000000   1.0078250  12.0000000   1.0078250  12.0000000   1.0078250   1.0078250  12.0000000   1.0078250
 NucSpn=           1           0           1           0           1           0           1           1           0           1
 AtZEff=  -0.0000000  -0.0000000  -0.0000000  -0.0000000  -0.0000000  -0.0000000  -0.0000000  -0.0000000  -0.0000000  -0.0000000
 NQMom=    0.0000000   0.0000000   0.0000000   0.0000000   0.0000000   0.0000000   0.0000000   0.0000000   0.0000000   0.0000000
 NMagM=    2.7928460   0.0000000   2.7928460   0.0000000   2.7928460   0.0000000   2.7928460   2.7928460   0.0000000   2.7928460
 AtZNuc=   1.0000000   6.0000000   1.0000000   6.0000000   1.0000000   6.0000000   1.0000000   1.0000000   6.0000000   1.0000000

  Atom        21          22          23          24          25          26          27          28
 IAtWgt=          12           1          12           1           1          12           1           1
 AtmWgt=  12.0000000   1.0078250  12.0000000   1.0078250   1.0078250  12.0000000   1.0078250   1.0078250
 NucSpn=           0           1           0           1           1           0           1           1
 AtZEff=  -0.0000000  -0.0000000  -0.0000000  -0.0000000  -0.0000000  -0.0000000  -0.0000000  -0.0000000
 NQMom=    0.0000000   0.0000000   0.0000000   0.0000000   0.0000000   0.0000000   0.0000000   0.0000000
 NMagM=    0.0000000   2.7928460   0.0000000   2.7928460   2.7928460   0.0000000   2.7928460   2.7928460
 AtZNuc=   6.0000000   1.0000000   6.0000000   1.0000000   1.0000000   6.0000000   1.0000000   1.0000000
 Leave Link  101 at Mon Aug  3 14:17:50 2020, MaxMem=  6442450944 cpu:               2.9 elap:               0.2
 (Enter /scratch/scicomp/CentOS/7.3.1611/Haswell/software/Gaussian/g16/l202.exe)
                          Input orientation:                          
 ---------------------------------------------------------------------
 Center     Atomic      Atomic             Coordinates (Angstroms)
 Number     Number       Type             X           Y           Z
 ---------------------------------------------------------------------
      1          6           0       -3.124680   -0.440685    0.273036
      2          6           0       -0.775792   -0.261985   -1.302176
      3          1           0       -4.054066   -0.525819    0.824190
      4          1           0        0.161604   -0.184531   -1.839436
      5          6           0        1.198536    1.432924    0.834184
      6          6           0        0.775792    0.261985    1.302176
      7          1           0        0.608196    2.330179    0.977711
      8          1           0       -0.161604    0.184531    1.839436
      9          6           0        1.605227   -0.981794    1.161635
     10          1           0        2.176937   -1.108268    2.090145
     11          1           0        0.956297   -1.855279    1.083849
     12          6           0        2.471867    1.533139    0.119408
     13          1           0        2.871405    2.516926   -0.096077
     14          6           0        3.124680    0.440685   -0.273036
     15          1           0        4.054066    0.525819   -0.824190
     16          6           0        2.563488   -0.934271   -0.032474
     17          1           0        2.043317   -1.256129   -0.942998
     18          1           0        3.372415   -1.652191    0.115362
     19          6           0       -1.198536   -1.432924   -0.834184
     20          1           0       -0.608196   -2.330179   -0.977711
     21          6           0       -2.471867   -1.533139   -0.119408
     22          1           0       -2.871405   -2.516926    0.096077
     23          6           0       -1.605227    0.981794   -1.161635
     24          1           0       -0.956297    1.855279   -1.083849
     25          1           0       -2.176937    1.108268   -2.090145
     26          6           0       -2.563488    0.934271    0.032474
     27          1           0       -3.372415    1.652191   -0.115362
     28          1           0       -2.043317    1.256129    0.942998
 ---------------------------------------------------------------------
                    Distance matrix (angstroms):
                    1          2          3          4          5
     1  C    0.000000
     2  C    2.833814   0.000000
     3  H    1.083871   3.916391   0.000000
     4  H    3.915075   1.083217   4.998325   0.000000
     5  C    4.745049   3.366708   5.605943   3.292360   0.000000
     6  C    4.094699   3.076460   4.916974   3.232078   1.329973
     7  H    4.701980   3.719223   5.469642   3.802569   1.083590
     8  H    3.409446   3.232078   4.084921   3.711438   2.102141
     9  C    4.842977   3.501106   5.687652   3.424340   2.470523
    10  H    5.643996   4.576313   6.384927   4.511814   2.998727
    11  H    4.394641   3.351393   5.190243   3.459556   3.306553
    12  C    5.936406   3.973746   6.879232   3.482065   1.463666
    13  H    6.696024   4.741209   7.620193   4.204782   2.199758
    14  C    6.334786   4.094699   7.326147   3.409446   2.433209
    15  H    7.326147   4.916974   8.340558   4.084921   3.424485
    16  C    5.717711   3.635231   6.685262   3.097784   2.866671
    17  H    5.371395   3.010765   6.390179   2.343665   3.332122
    18  H    6.610964   4.598881   7.544784   4.035414   3.841925
    19  C    2.433209   1.329973   3.424485   2.102141   4.091759
    20  H    3.386332   2.100189   4.286792   2.437000   4.550625
    21  C    1.331778   2.427229   2.099625   3.422340   4.814429
    22  H    2.099104   3.381045   2.427621   4.287822   5.719313
    23  C    2.527937   1.501566   3.494740   2.222930   3.471008
    24  H    3.437219   2.136131   4.348151   2.445698   2.915568
    25  H    2.980285   2.112273   3.832389   2.683833   4.477825
    26  C    1.504430   2.531438   2.231703   3.490257   3.878688
    27  H    2.142978   3.437302   2.468022   4.339962   4.673683
    28  H    2.120701   2.992005   2.689343   3.831334   3.248493
                    6          7          8          9         10
     6  C    0.000000
     7  H    2.100189   0.000000
     8  H    1.083217   2.437000   0.000000
     9  C    1.501566   3.463678   2.222930   0.000000
    10  H    2.112273   3.939718   2.683833   1.097715   0.000000
    11  H    2.136131   4.201250   2.445698   1.090934   1.749463
    12  C    2.427229   2.201187   3.422340   2.856955   3.308749
    13  H    3.381045   2.511973   4.287822   3.927606   4.289975
    14  C    2.833814   3.386332   3.915075   2.527937   2.980285
    15  H    3.916391   4.286792   4.998325   3.494740   3.832389
    16  C    2.531438   3.937039   3.490257   1.531802   2.164534
    17  H    2.992005   4.313966   3.831334   2.167178   3.039683
    18  H    3.437302   4.923802   4.339962   2.160341   2.371664
    19  C    3.366708   4.550625   3.292360   3.471008   4.477825
    20  H    3.719223   5.198290   3.802569   3.360682   4.319927
    21  C    3.973746   5.061194   3.482065   4.309031   5.164690
    22  H    4.741209   6.031528   4.204782   4.851008   5.607707
    23  C    3.501106   3.360682   3.424340   4.422700   5.408068
    24  H    3.351393   2.631197   3.459556   4.433124   5.354811
    25  H    4.576313   4.319927   4.511814   5.408068   6.429936
    26  C    3.635231   3.591881   3.097784   4.724880   5.556762
    27  H    4.598881   4.183269   4.035414   5.774558   6.578731
    28  H    3.010765   2.860998   2.343665   4.285788   4.971606
                   11         12         13         14         15
    11  H    0.000000
    12  C    3.835163   0.000000
    13  H    4.916914   1.083467   0.000000
    14  C    3.437219   1.331778   2.099104   0.000000
    15  H    4.348151   2.099625   2.427621   1.083871   0.000000
    16  C    2.162752   2.473777   3.465490   1.504430   2.231703
    17  H    2.376700   3.015357   3.954611   2.120701   2.689343
    18  H    2.610908   3.310186   4.204433   2.142978   2.468022
    19  C    2.915568   4.814429   5.719313   4.745049   5.605943
    20  H    2.631197   5.061194   6.031528   4.701980   5.469642
    21  C    3.647453   5.822336   6.704784   5.936406   6.879232
    22  H    4.008088   6.704784   7.639140   6.696024   7.620193
    23  C    4.433124   4.309031   4.851008   4.842977   5.687652
    24  H    4.703740   3.647453   4.008088   4.394641   5.190243
    25  H    5.354811   5.164690   5.607707   5.643996   6.384927
    26  C    4.612577   5.071588   5.662101   5.717711   6.685262
    27  H    5.698965   5.850207   6.303446   6.610964   7.544784
    28  H    4.324163   4.598035   5.179168   5.371395   6.390179
                   16         17         18         19         20
    16  C    0.000000
    17  H    1.096916   0.000000
    18  H    1.091617   1.744561   0.000000
    19  C    3.878688   3.248493   4.673683   0.000000
    20  H    3.591881   2.860998   4.183269   1.083590   0.000000
    21  C    5.071588   4.598035   5.850207   1.463666   2.201187
    22  H    5.662101   5.179168   6.303446   2.199758   2.511973
    23  C    4.724880   4.285788   5.774558   2.470523   3.463678
    24  H    4.612577   4.324163   5.698965   3.306553   4.201250
    25  H    5.556762   4.971606   6.578731   2.998727   3.939718
    26  C    5.457248   5.193462   6.475461   2.866671   3.937039
    27  H    6.475461   6.202698   7.514313   3.841925   4.923802
    28  H    5.193462   5.154512   6.202698   3.332122   4.313966
                   21         22         23         24         25
    21  C    0.000000
    22  H    1.083467   0.000000
    23  C    2.856955   3.927606   0.000000
    24  H    3.835163   4.916914   1.090934   0.000000
    25  H    3.308749   4.289975   1.097715   1.749463   0.000000
    26  C    2.473777   3.465490   1.531802   2.162752   2.164534
    27  H    3.310186   4.204433   2.160341   2.610908   2.371664
    28  H    3.015357   3.954611   2.167178   2.376700   3.039683
                   26         27         28
    26  C    0.000000
    27  H    1.091617   0.000000
    28  H    1.096916   1.744561   0.000000
 Symmetry turned off by external request.
 Stoichiometry    C12H16
 Framework group  CI[X(C12H16)]
 Deg. of freedom    39
 Full point group                 CI      NOp   2
 Rotational constants (GHZ):           1.7158847           0.5828782           0.5313882
 Leave Link  202 at Mon Aug  3 14:17:50 2020, MaxMem=  6442450944 cpu:               0.3 elap:               0.1
 (Enter /scratch/scicomp/CentOS/7.3.1611/Haswell/software/Gaussian/g16/l301.exe)
 Standard basis: def2TZVP (6D, 10F)
 Ernie: Thresh=  0.10000D-02 Tol=  0.10000D-05 Strict=F.
   528 basis functions,   740 primitive gaussians,   528 cartesian basis functions
    44 alpha electrons       44 beta electrons
       nuclear repulsion energy       672.5181360396 Hartrees.
 IExCor= 4639 DFT=T Ex+Corr=wB97XD ExCW=0 ScaHFX=  1.000000
 ScaDFX=  1.000000  1.000000  1.000000  1.000000 ScalE2=  1.000000  1.000000
 IRadAn=      5 IRanWt=     -1 IRanGd=            0 ICorTp=0 IEmpDi=121
 HFx  wShort=  0.000000 wLong=  0.200000 cFull=  0.222036 cShort=  0.000000 cLong=  0.777964
 DFx  wShort=  0.000000 wLong=  0.200000 cFull=  0.000000 cShort=  0.000000 cLong=  1.000000
 NAtoms=   28 NActive=   28 NUniq=   28 SFac= 1.00D+00 NAtFMM=   60 NAOKFM=F Big=F
 Integral buffers will be    131072 words long.
 Raffenetti 2 integral format.
 Two-electron integral symmetry is turned off.
 R6Disp:  Grimme-D2 Dispersion energy=       -0.0216072657 Hartrees.
 Nuclear repulsion after empirical dispersion term =      672.4965287740 Hartrees.
 Using the following non-standard input for PCM:
 norep pcmdoc geomview  nodis nocav g03defaults tsare=0.075
 Warning! Using old PCM defaults because the g03defaults keyword was found.
 These settings can be overridden by following keywords.
 nsfe=28
 NVESolv=36  SolvMW=84.1595   Rsolv=2.815
 eps=2.0165 RhoS=0.7781
 --- end of non-standard input.
 Reading user-defined spheres from input:
 ISph  on   Nord    Re0     Alpha      Xe            Ye            Ze
 --- end of user-defined spheres data.
 ------------------------------------------------------------------------------
 Polarizable Continuum Model (PCM)
 =================================
 Model                : PCM.
 Atomic radii         : UA0 (Simple United Atom Topological Model).
 Polarization charges : Total charges.
 Charge compensation  : None.
 Solution method      : On-the-fly selection.
 Cavity type          : SES (Solvent Excluding Surface) (Alpha=1.000).
 Cavity algorithm     : GePol (RMin=0.200 OFac=0.890).
                        User-defined sphere list used, NSphG=   28.
                        Tesserae with average area of 0.075 Ang**2.
                        Smoothing algorithm: None.
                        Polarization charges: point-like.
                        Self-potential: constant (ISelfS= 1).
                        Self-field    : global E.n sum rule (ISelfD= 3).
 Solvent              : CycloHexane, Eps=   2.016500 Eps(inf)=   2.035188
                        RSolv=   2.815000 Ang.
 ------------------------------------------------------------------------------
 GePol: Number of generator spheres                  =      28
 GePol: Total number of spheres                      =     181
 GePol: Number of exposed spheres                    =     123 ( 67.96%)
 GePol: Number of tesserae                           =    4644
 GePol: Average area of tesserae                     =       0.05 Ang**2
 GePol: Minimum area of tessera                      =   0.10D-02 Ang**2
 GePol: Maximum area of tessera                      =    0.12659 Ang**2
 GePol: Number of small tesserae                     =       0
 GePol: Fraction of small tesserae (<1% of avg)      =       0.00%
 GePol: Total count of vertices                      =   16410
 GePol: Maximum number of vertices in a tessera      =       6
 GePol: Cavity surface area                          =    223.663 Ang**2
 GePol: Cavity volume                                =    255.380 Ang**3
 Leave Link  301 at Mon Aug  3 14:17:50 2020, MaxMem=  6442450944 cpu:               7.8 elap:               0.4
 (Enter /scratch/scicomp/CentOS/7.3.1611/Haswell/software/Gaussian/g16/l302.exe)
 NPDir=0 NMtPBC=     1 NCelOv=     1 NCel=       1 NClECP=     1 NCelD=      1
         NCelK=      1 NCelE2=     1 NClLst=     1 CellRange=     0.0.
 One-electron integrals computed using PRISM.
   1 Symmetry operations used in ECPInt.
 ECPInt:  NShTT=   19306 NPrTT=   56928 LenC2=   18453 LenP2D=   41793.
 LDataN:  DoStor=T MaxTD1= 6 Len=  172
 NBasis=   528 RedAO= T EigKep=  1.93D-05  NBF=   528
 NBsUse=   528 1.00D-06 EigRej= -1.00D+00 NBFU=   528
 Precomputing XC quadrature grid using
 IXCGrd= 4 IRadAn=           5 IRanWt=          -1 IRanGd=           0 AccXCQ= 0.00D+00.
 Generated NRdTot=       0 NPtTot=           0 NUsed=           0 NTot=          32
 NSgBfM=   526   525   525   526   526 MxSgAt=    28 MxSgA2=    28.
 Leave Link  302 at Mon Aug  3 14:17:51 2020, MaxMem=  6442450944 cpu:              12.8 elap:               0.6
 (Enter /scratch/scicomp/CentOS/7.3.1611/Haswell/software/Gaussian/g16/l303.exe)
 DipDrv:  MaxL=1.
 Leave Link  303 at Mon Aug  3 14:17:51 2020, MaxMem=  6442450944 cpu:               1.5 elap:               0.1
 (Enter /scratch/scicomp/CentOS/7.3.1611/Haswell/software/Gaussian/g16/l401.exe)
 ExpMin= 9.52D-02 ExpMax= 1.36D+04 ExpMxC= 4.63D+02 IAcc=3 IRadAn=         5 AccDes= 0.00D+00
 Harris functional with IExCor= 4639 and IRadAn=       5 diagonalized for initial guess.
 HarFok:  IExCor= 4639 AccDes= 0.00D+00 IRadAn=         5 IDoV= 1 UseB2=F ITyADJ=14
 ICtDFT=  3500011 ScaDFX=  1.000000  1.000000  1.000000  1.000000
 FoFCou: FMM=F IPFlag=           0 FMFlag=      100000 FMFlg1=           0
         NFxFlg=           0 DoJE=T BraDBF=F KetDBF=T FulRan=T
         wScrn=  0.000000 ICntrl=       500 IOpCl=  0 I1Cent=   200000004 NGrid=           0
         NMat0=    1 NMatS0=      1 NMatT0=    0 NMatD0=    1 NMtDS0=    0 NMtDT0=    0
 Symmetry not used in FoFCou.
 Harris En= -444.659454422303    
 JPrj=0 DoOrth=F DoCkMO=T.
 Mixing orbitals, IMix= 1 IMixAn=  0 NRI=1 NE=   44 Coef=  7.07106781D-01  7.07106781D-01
 Mixing orbitals, IMix= 1 IMixAn=  0 NRI=1 NE=   44 Coef= -7.07106781D-01  7.07106781D-01
 Initial guess <Sx>= 0.0000 <Sy>= 0.0000 <Sz>= 0.0000 <S**2>= 1.0000 S= 0.6180
 Leave Link  401 at Mon Aug  3 14:17:53 2020, MaxMem=  6442450944 cpu:              48.2 elap:               2.1
 (Enter /scratch/scicomp/CentOS/7.3.1611/Haswell/software/Gaussian/g16/l502.exe)
 Two-electron integral symmetry not used.
 UHF open shell SCF:
 Using DIIS extrapolation, IDIIS=  1040.
 NGot=  6442450944 LenX=  6441877030 LenY=  6441597718
 Requested convergence on RMS density matrix=1.00D-08 within 128 cycles.
 Requested convergence on MAX density matrix=1.00D-06.
 Requested convergence on             energy=1.00D-06.
 No special actions if energy rises.
 Fock matrices will be formed incrementally for  20 cycles.

 Cycle   1  Pass 1  IDiag  1:
 FoFJK:  IHMeth= 1 ICntrl=       0 DoSepK=T KAlg= 0 I1Cent=           0 FoldK=F
 IRaf=         1 NMat=       1 IRICut=       1 DoRegI=T DoRafI=F ISym2E= 0 IDoP0=0 IntGTp=1.
 FoFCou: FMM=F IPFlag=           0 FMFlag=      100000 FMFlg1=           0
         NFxFlg=           0 DoJE=T BraDBF=F KetDBF=F FulRan=T
         wScrn=  0.000000 ICntrl=       500 IOpCl=  0 I1Cent=           0 NGrid=           0
         NMat0=    1 NMatS0=      1 NMatT0=    0 NMatD0=    1 NMtDS0=    0 NMtDT0=    0
 Symmetry not used in FoFCou.
 Inv3:  Mode=1 IEnd=    64700208.
 Iteration    1 A*A^-1 deviation from unit magnitude is 3.55D-15 for   3445.
 Iteration    1 A*A^-1 deviation from orthogonality  is 1.52D-15 for   4212   2881.
 Iteration    1 A^-1*A deviation from unit magnitude is 3.77D-15 for   4314.
 Iteration    1 A^-1*A deviation from orthogonality  is 2.00D-15 for   4520   1954.
 E= -466.575996068587    
 DIIS: error= 5.13D-02 at cycle   1 NSaved=   1.
 NSaved= 1 IEnMin= 1 EnMin= -466.575996068587     IErMin= 1 ErrMin= 5.13D-02
 ErrMax= 5.13D-02  0.00D+00 EMaxC= 1.00D-01 BMatC= 4.12D+00 BMatP= 4.12D+00
 IDIUse=3 WtCom= 4.87D-01 WtEn= 5.13D-01
 Coeff-Com:  0.100D+01
 Coeff-En:   0.100D+01
 Coeff:      0.100D+01
 Gap=     0.180 Goal=   None    Shift=    0.000
 Gap=     0.180 Goal=   None    Shift=    0.000
 GapD=    0.180 DampG=1.000 DampE=0.500 DampFc=0.5000 IDamp=-1.
 Damping current iteration by 5.00D-01
 RMSDP=1.64D-03 MaxDP=9.29D-02              OVMax= 3.58D-01

 Cycle   2  Pass 1  IDiag  1:
 RMSU=  7.85D-04    CP:  9.62D-01
 E= -466.689865092088     Delta-E=       -0.113869023501 Rises=F Damp=T
 DIIS: error= 2.45D-02 at cycle   2 NSaved=   2.
 NSaved= 2 IEnMin= 2 EnMin= -466.689865092088     IErMin= 2 ErrMin= 2.45D-02
 ErrMax= 2.45D-02  0.00D+00 EMaxC= 1.00D-01 BMatC= 9.37D-01 BMatP= 4.12D+00
 IDIUse=3 WtCom= 7.55D-01 WtEn= 2.45D-01
 Coeff-Com: -0.868D+00 0.187D+01
 Coeff-En:   0.000D+00 0.100D+01
 Coeff:     -0.656D+00 0.166D+01
 Gap=     0.281 Goal=   None    Shift=    0.000
 Gap=     0.281 Goal=   None    Shift=    0.000
 RMSDP=1.17D-03 MaxDP=5.12D-02 DE=-1.14D-01 OVMax= 1.40D-01

 Cycle   3  Pass 1  IDiag  1:
 RMSU=  6.13D-04    CP:  9.06D-01  2.19D+00
 E= -466.838937551124     Delta-E=       -0.149072459036 Rises=F Damp=F
 DIIS: error= 7.84D-03 at cycle   3 NSaved=   3.
 NSaved= 3 IEnMin= 3 EnMin= -466.838937551124     IErMin= 3 ErrMin= 7.84D-03
 ErrMax= 7.84D-03  0.00D+00 EMaxC= 1.00D-01 BMatC= 2.44D-02 BMatP= 9.37D-01
 IDIUse=3 WtCom= 9.22D-01 WtEn= 7.84D-02
 Coeff-Com: -0.315D+00 0.675D+00 0.640D+00
 Coeff-En:   0.000D+00 0.000D+00 0.100D+01
 Coeff:     -0.290D+00 0.622D+00 0.668D+00
 Gap=     0.303 Goal=   None    Shift=    0.000
 Gap=     0.303 Goal=   None    Shift=    0.000
 RMSDP=2.13D-04 MaxDP=1.09D-02 DE=-1.49D-01 OVMax= 6.41D-02

 Cycle   4  Pass 1  IDiag  1:
 RMSU=  1.94D-04    CP:  8.99D-01  2.29D+00  9.96D-01
 E= -466.849767516713     Delta-E=       -0.010829965589 Rises=F Damp=F
 DIIS: error= 5.13D-03 at cycle   4 NSaved=   4.
 NSaved= 4 IEnMin= 4 EnMin= -466.849767516713     IErMin= 4 ErrMin= 5.13D-03
 ErrMax= 5.13D-03  0.00D+00 EMaxC= 1.00D-01 BMatC= 2.06D-03 BMatP= 2.44D-02
 IDIUse=3 WtCom= 9.49D-01 WtEn= 5.13D-02
 Coeff-Com:  0.148D+00-0.317D+00-0.769D-01 0.125D+01
 Coeff-En:   0.000D+00 0.000D+00 0.000D+00 0.100D+01
 Coeff:      0.140D+00-0.300D+00-0.729D-01 0.123D+01
 Gap=     0.315 Goal=   None    Shift=    0.000
 Gap=     0.315 Goal=   None    Shift=    0.000
 RMSDP=2.13D-04 MaxDP=1.28D-02 DE=-1.08D-02 OVMax= 7.71D-02

 Cycle   5  Pass 1  IDiag  1:
 RMSU=  8.47D-05    CP:  8.92D-01  2.34D+00  1.22D+00  1.64D+00
 E= -466.854412781565     Delta-E=       -0.004645264852 Rises=F Damp=F
 DIIS: error= 2.27D-03 at cycle   5 NSaved=   5.
 NSaved= 5 IEnMin= 5 EnMin= -466.854412781565     IErMin= 5 ErrMin= 2.27D-03
 ErrMax= 2.27D-03  0.00D+00 EMaxC= 1.00D-01 BMatC= 8.14D-04 BMatP= 2.06D-03
 IDIUse=3 WtCom= 9.77D-01 WtEn= 2.27D-02
 Coeff-Com:  0.603D-01-0.129D+00-0.656D-01 0.338D+00 0.797D+00
 Coeff-En:   0.000D+00 0.000D+00 0.000D+00 0.000D+00 0.100D+01
 Coeff:      0.589D-01-0.127D+00-0.641D-01 0.330D+00 0.801D+00
 Gap=     0.317 Goal=   None    Shift=    0.000
 Gap=     0.317 Goal=   None    Shift=    0.000
 RMSDP=7.27D-05 MaxDP=3.01D-03 DE=-4.65D-03 OVMax= 2.71D-02

 Cycle   6  Pass 1  IDiag  1:
 RMSU=  3.14D-05    CP:  8.91D-01  2.35D+00  1.25D+00  1.90D+00  1.39D+00
 E= -466.855738123621     Delta-E=       -0.001325342056 Rises=F Damp=F
 DIIS: error= 1.64D-03 at cycle   6 NSaved=   6.
 NSaved= 6 IEnMin= 6 EnMin= -466.855738123621     IErMin= 6 ErrMin= 1.64D-03
 ErrMax= 1.64D-03  0.00D+00 EMaxC= 1.00D-01 BMatC= 5.19D-04 BMatP= 8.14D-04
 IDIUse=3 WtCom= 9.84D-01 WtEn= 1.64D-02
 Coeff-Com: -0.822D-01 0.176D+00 0.567D-01-0.613D+00 0.808D-01 0.138D+01
 Coeff-En:   0.000D+00 0.000D+00 0.000D+00 0.000D+00 0.000D+00 0.100D+01
 Coeff:     -0.808D-01 0.173D+00 0.557D-01-0.603D+00 0.794D-01 0.138D+01
 Gap=     0.313 Goal=   None    Shift=    0.000
 Gap=     0.313 Goal=   None    Shift=    0.000
 RMSDP=9.87D-05 MaxDP=4.02D-03 DE=-1.33D-03 OVMax= 3.73D-02

 Cycle   7  Pass 1  IDiag  1:
 RMSU=  3.09D-05    CP:  8.89D-01  2.35D+00  1.29D+00  2.18D+00  2.10D+00
                    CP:  2.27D+00
 E= -466.857345258519     Delta-E=       -0.001607134897 Rises=F Damp=F
 DIIS: error= 1.04D-03 at cycle   7 NSaved=   7.
 NSaved= 7 IEnMin= 7 EnMin= -466.857345258519     IErMin= 7 ErrMin= 1.04D-03
 ErrMax= 1.04D-03  0.00D+00 EMaxC= 1.00D-01 BMatC= 2.62D-04 BMatP= 5.19D-04
 IDIUse=3 WtCom= 9.90D-01 WtEn= 1.04D-02
 Coeff-Com: -0.257D-01 0.557D-01 0.426D-01-0.811D-02-0.741D+00-0.441D+00
 Coeff-Com:  0.212D+01
 Coeff-En:   0.000D+00 0.000D+00 0.000D+00 0.000D+00 0.000D+00 0.000D+00
 Coeff-En:   0.100D+01
 Coeff:     -0.254D-01 0.551D-01 0.421D-01-0.802D-02-0.733D+00-0.437D+00
 Coeff:      0.211D+01
 Gap=     0.313 Goal=   None    Shift=    0.000
 Gap=     0.313 Goal=   None    Shift=    0.000
 RMSDP=1.36D-04 MaxDP=6.47D-03 DE=-1.61D-03 OVMax= 5.09D-02

 Cycle   8  Pass 1  IDiag  1:
 RMSU=  5.60D-05    CP:  8.87D-01  2.35D+00  1.33D+00  2.49D+00  2.97D+00
                    CP:  3.00D+00  2.69D+00
 E= -466.858723810083     Delta-E=       -0.001378551564 Rises=F Damp=F
 DIIS: error= 3.56D-04 at cycle   8 NSaved=   8.
 NSaved= 8 IEnMin= 8 EnMin= -466.858723810083     IErMin= 8 ErrMin= 3.56D-04
 ErrMax= 3.56D-04  0.00D+00 EMaxC= 1.00D-01 BMatC= 6.07D-05 BMatP= 2.62D-04
 IDIUse=3 WtCom= 9.96D-01 WtEn= 3.56D-03
 Coeff-Com:  0.244D-01-0.523D-01-0.680D-02 0.260D+00-0.240D+00-0.687D+00
 Coeff-Com:  0.595D+00 0.111D+01
 Coeff-En:   0.000D+00 0.000D+00 0.000D+00 0.000D+00 0.000D+00 0.000D+00
 Coeff-En:   0.000D+00 0.100D+01
 Coeff:      0.243D-01-0.522D-01-0.678D-02 0.259D+00-0.239D+00-0.684D+00
 Coeff:      0.593D+00 0.111D+01
 Gap=     0.315 Goal=   None    Shift=    0.000
 Gap=     0.315 Goal=   None    Shift=    0.000
 RMSDP=6.15D-05 MaxDP=3.01D-03 DE=-1.38D-03 OVMax= 2.25D-02

 Cycle   9  Pass 1  IDiag  1:
 RMSU=  3.47D-05    CP:  8.86D-01  2.35D+00  1.34D+00  2.59D+00  3.00D+00
                    CP:  3.00D+00  3.00D+00  1.69D+00
 E= -466.858953743017     Delta-E=       -0.000229932934 Rises=F Damp=F
 DIIS: error= 1.18D-04 at cycle   9 NSaved=   9.
 NSaved= 9 IEnMin= 9 EnMin= -466.858953743017     IErMin= 9 ErrMin= 1.18D-04
 ErrMax= 1.18D-04  0.00D+00 EMaxC= 1.00D-01 BMatC= 9.49D-06 BMatP= 6.07D-05
 IDIUse=3 WtCom= 9.99D-01 WtEn= 1.18D-03
 Coeff-Com:  0.129D-01-0.277D-01-0.882D-02 0.913D-01 0.346D-01-0.164D+00
 Coeff-Com: -0.130D+00 0.318D+00 0.873D+00
 Coeff-En:   0.000D+00 0.000D+00 0.000D+00 0.000D+00 0.000D+00 0.000D+00
 Coeff-En:   0.000D+00 0.000D+00 0.100D+01
 Coeff:      0.129D-01-0.277D-01-0.880D-02 0.912D-01 0.345D-01-0.163D+00
 Coeff:     -0.130D+00 0.318D+00 0.873D+00
 Gap=     0.315 Goal=   None    Shift=    0.000
 Gap=     0.315 Goal=   None    Shift=    0.000
 RMSDP=1.49D-05 MaxDP=7.47D-04 DE=-2.30D-04 OVMax= 5.55D-03

 Cycle  10  Pass 1  IDiag  1:
 RMSU=  4.76D-06    CP:  8.85D-01  2.35D+00  1.34D+00  2.60D+00  3.00D+00
                    CP:  3.00D+00  3.00D+00  1.86D+00  1.28D+00
 E= -466.858970863237     Delta-E=       -0.000017120220 Rises=F Damp=F
 DIIS: error= 5.08D-05 at cycle  10 NSaved=  10.
 NSaved=10 IEnMin=10 EnMin= -466.858970863237     IErMin=10 ErrMin= 5.08D-05
 ErrMax= 5.08D-05  0.00D+00 EMaxC= 1.00D-01 BMatC= 1.51D-06 BMatP= 9.49D-06
 IDIUse=1 WtCom= 1.00D+00 WtEn= 0.00D+00
 Coeff-Com: -0.151D-02 0.326D-02-0.574D-03-0.282D-01 0.440D-01 0.862D-01
 Coeff-Com: -0.115D+00-0.172D+00 0.173D+00 0.101D+01
 Coeff:     -0.151D-02 0.326D-02-0.574D-03-0.282D-01 0.440D-01 0.862D-01
 Coeff:     -0.115D+00-0.172D+00 0.173D+00 0.101D+01
 Gap=     0.314 Goal=   None    Shift=    0.000
 Gap=     0.314 Goal=   None    Shift=    0.000
 RMSDP=6.43D-06 MaxDP=3.12D-04 DE=-1.71D-05 OVMax= 2.43D-03

 Cycle  11  Pass 1  IDiag  1:
 RMSU=  2.41D-06    CP:  8.85D-01  2.35D+00  1.35D+00  2.61D+00  3.00D+00
                    CP:  3.00D+00  3.00D+00  1.91D+00  1.40D+00  1.43D+00
 E= -466.858973135370     Delta-E=       -0.000002272134 Rises=F Damp=F
 DIIS: error= 2.04D-05 at cycle  11 NSaved=  11.
 NSaved=11 IEnMin=11 EnMin= -466.858973135370     IErMin=11 ErrMin= 2.04D-05
 ErrMax= 2.04D-05  0.00D+00 EMaxC= 1.00D-01 BMatC= 3.45D-07 BMatP= 1.51D-06
 IDIUse=1 WtCom= 1.00D+00 WtEn= 0.00D+00
 Coeff-Com: -0.148D-02 0.319D-02 0.373D-03-0.173D-01 0.136D-01 0.433D-01
 Coeff-Com: -0.292D-01-0.927D-01-0.103D-01 0.398D+00 0.692D+00
 Coeff:     -0.148D-02 0.319D-02 0.373D-03-0.173D-01 0.136D-01 0.433D-01
 Coeff:     -0.292D-01-0.927D-01-0.103D-01 0.398D+00 0.692D+00
 Gap=     0.314 Goal=   None    Shift=    0.000
 Gap=     0.314 Goal=   None    Shift=    0.000
 RMSDP=1.05D-06 MaxDP=5.85D-05 DE=-2.27D-06 OVMax= 2.76D-04

 Cycle  12  Pass 1  IDiag  1:
 RMSU=  6.70D-07    CP:  8.85D-01  2.35D+00  1.35D+00  2.61D+00  3.00D+00
                    CP:  3.00D+00  3.00D+00  1.91D+00  1.41D+00  1.50D+00
                    CP:  1.19D+00
 E= -466.858973323978     Delta-E=       -0.000000188608 Rises=F Damp=F
 DIIS: error= 1.30D-05 at cycle  12 NSaved=  12.
 NSaved=12 IEnMin=12 EnMin= -466.858973323978     IErMin=12 ErrMin= 1.30D-05
 ErrMax= 1.30D-05  0.00D+00 EMaxC= 1.00D-01 BMatC= 6.63D-08 BMatP= 3.45D-07
 IDIUse=1 WtCom= 1.00D+00 WtEn= 0.00D+00
 Coeff-Com:  0.434D-03-0.943D-03-0.107D-04 0.690D-02-0.826D-02-0.203D-01
 Coeff-Com:  0.248D-01 0.392D-01-0.389D-01-0.241D+00 0.758D-01 0.116D+01
 Coeff:      0.434D-03-0.943D-03-0.107D-04 0.690D-02-0.826D-02-0.203D-01
 Coeff:      0.248D-01 0.392D-01-0.389D-01-0.241D+00 0.758D-01 0.116D+01
 Gap=     0.314 Goal=   None    Shift=    0.000
 Gap=     0.314 Goal=   None    Shift=    0.000
 RMSDP=7.73D-07 MaxDP=3.29D-05 DE=-1.89D-07 OVMax= 1.49D-04

 Cycle  13  Pass 1  IDiag  1:
 RMSU=  4.50D-07    CP:  8.85D-01  2.35D+00  1.35D+00  2.61D+00  3.00D+00
                    CP:  3.00D+00  3.00D+00  1.91D+00  1.41D+00  1.53D+00
                    CP:  1.37D+00  1.58D+00
 E= -466.858973416313     Delta-E=       -0.000000092335 Rises=F Damp=F
 DIIS: error= 6.98D-06 at cycle  13 NSaved=  13.
 NSaved=13 IEnMin=13 EnMin= -466.858973416313     IErMin=13 ErrMin= 6.98D-06
 ErrMax= 6.98D-06  0.00D+00 EMaxC= 1.00D-01 BMatC= 1.51D-08 BMatP= 6.63D-08
 IDIUse=1 WtCom= 1.00D+00 WtEn= 0.00D+00
 Coeff-Com: -0.629D-04 0.139D-03 0.686D-04-0.558D-03 0.407D-03 0.128D-02
 Coeff-Com: -0.245D-02 0.185D-03 0.644D-02 0.522D-02-0.130D+00-0.294D+00
 Coeff-Com:  0.141D+01
 Coeff:     -0.629D-04 0.139D-03 0.686D-04-0.558D-03 0.407D-03 0.128D-02
 Coeff:     -0.245D-02 0.185D-03 0.644D-02 0.522D-02-0.130D+00-0.294D+00
 Coeff:      0.141D+01
 Gap=     0.314 Goal=   None    Shift=    0.000
 Gap=     0.314 Goal=   None    Shift=    0.000
 RMSDP=4.12D-07 MaxDP=2.27D-05 DE=-9.23D-08 OVMax= 9.94D-05

 Cycle  14  Pass 1  IDiag  1:
 RMSU=  2.59D-07    CP:  8.85D-01  2.35D+00  1.35D+00  2.61D+00  3.00D+00
                    CP:  3.00D+00  3.00D+00  1.91D+00  1.41D+00  1.54D+00
                    CP:  1.41D+00  1.83D+00  1.54D+00
 E= -466.858973449512     Delta-E=       -0.000000033199 Rises=F Damp=F
 DIIS: error= 3.66D-06 at cycle  14 NSaved=  14.
 NSaved=14 IEnMin=14 EnMin= -466.858973449512     IErMin=14 ErrMin= 3.66D-06
 ErrMax= 3.66D-06  0.00D+00 EMaxC= 1.00D-01 BMatC= 4.47D-09 BMatP= 1.51D-08
 IDIUse=1 WtCom= 1.00D+00 WtEn= 0.00D+00
 Coeff-Com: -0.175D-03 0.378D-03 0.666D-04-0.222D-02 0.214D-02 0.612D-02
 Coeff-Com: -0.728D-02-0.110D-01 0.127D-01 0.730D-01-0.480D-01-0.407D+00
 Coeff-Com:  0.176D+00 0.120D+01
 Coeff:     -0.175D-03 0.378D-03 0.666D-04-0.222D-02 0.214D-02 0.612D-02
 Coeff:     -0.728D-02-0.110D-01 0.127D-01 0.730D-01-0.480D-01-0.407D+00
 Coeff:      0.176D+00 0.120D+01
 Gap=     0.314 Goal=   None    Shift=    0.000
 Gap=     0.314 Goal=   None    Shift=    0.000
 RMSDP=2.84D-07 MaxDP=1.30D-05 DE=-3.32D-08 OVMax= 6.78D-05

 Cycle  15  Pass 1  IDiag  1:
 RMSU=  1.01D-07    CP:  8.85D-01  2.35D+00  1.35D+00  2.61D+00  3.00D+00
                    CP:  3.00D+00  3.00D+00  1.91D+00  1.41D+00  1.55D+00
                    CP:  1.42D+00  1.93D+00  1.86D+00  1.79D+00
 E= -466.858973459276     Delta-E=       -0.000000009763 Rises=F Damp=F
 DIIS: error= 1.24D-06 at cycle  15 NSaved=  15.
 NSaved=15 IEnMin=15 EnMin= -466.858973459276     IErMin=15 ErrMin= 1.24D-06
 ErrMax= 1.24D-06  0.00D+00 EMaxC= 1.00D-01 BMatC= 6.59D-10 BMatP= 4.47D-09
 IDIUse=1 WtCom= 1.00D+00 WtEn= 0.00D+00
 Coeff-Com:  0.157D-04-0.342D-04-0.271D-04 0.325D-04 0.171D-03 0.162D-03
 Coeff-Com: -0.611D-03-0.629D-03 0.174D-02 0.770D-02 0.186D-01 0.672D-03
 Coeff-Com: -0.287D+00 0.187D+00 0.107D+01
 Coeff:      0.157D-04-0.342D-04-0.271D-04 0.325D-04 0.171D-03 0.162D-03
 Coeff:     -0.611D-03-0.629D-03 0.174D-02 0.770D-02 0.186D-01 0.672D-03
 Coeff:     -0.287D+00 0.187D+00 0.107D+01
 Gap=     0.314 Goal=   None    Shift=    0.000
 Gap=     0.314 Goal=   None    Shift=    0.000
 RMSDP=1.24D-07 MaxDP=5.23D-06 DE=-9.76D-09 OVMax= 2.65D-05

 Cycle  16  Pass 1  IDiag  1:
 RMSU=  4.24D-08    CP:  8.85D-01  2.35D+00  1.35D+00  2.61D+00  3.00D+00
                    CP:  3.00D+00  3.00D+00  1.91D+00  1.41D+00  1.55D+00
                    CP:  1.42D+00  1.94D+00  1.96D+00  2.14D+00  1.46D+00
 E= -466.858973460370     Delta-E=       -0.000000001095 Rises=F Damp=F
 DIIS: error= 2.32D-07 at cycle  16 NSaved=  16.
 NSaved=16 IEnMin=16 EnMin= -466.858973460370     IErMin=16 ErrMin= 2.32D-07
 ErrMax= 2.32D-07  0.00D+00 EMaxC= 1.00D-01 BMatC= 6.36D-11 BMatP= 6.59D-10
 IDIUse=1 WtCom= 1.00D+00 WtEn= 0.00D+00
 Coeff-Com:  0.104D-04-0.226D-04-0.853D-05 0.129D-03-0.103D-03-0.308D-03
 Coeff-Com:  0.336D-03 0.589D-03-0.767D-03-0.415D-02 0.936D-02 0.353D-01
 Coeff-Com: -0.820D-01-0.701D-01 0.251D+00 0.861D+00
 Coeff:      0.104D-04-0.226D-04-0.853D-05 0.129D-03-0.103D-03-0.308D-03
 Coeff:      0.336D-03 0.589D-03-0.767D-03-0.415D-02 0.936D-02 0.353D-01
 Coeff:     -0.820D-01-0.701D-01 0.251D+00 0.861D+00
 Gap=     0.314 Goal=   None    Shift=    0.000
 Gap=     0.314 Goal=   None    Shift=    0.000
 RMSDP=2.74D-08 MaxDP=1.31D-06 DE=-1.09D-09 OVMax= 4.26D-06

 Cycle  17  Pass 1  IDiag  1:
 RMSU=  1.27D-08    CP:  8.85D-01  2.35D+00  1.35D+00  2.61D+00  3.00D+00
                    CP:  3.00D+00  3.00D+00  1.91D+00  1.41D+00  1.55D+00
                    CP:  1.42D+00  1.93D+00  1.96D+00  2.19D+00  1.56D+00
                    CP:  1.32D+00
 E= -466.858973460417     Delta-E=       -0.000000000047 Rises=F Damp=F
 DIIS: error= 7.84D-08 at cycle  17 NSaved=  17.
 NSaved=17 IEnMin=17 EnMin= -466.858973460417     IErMin=17 ErrMin= 7.84D-08
 ErrMax= 7.84D-08  0.00D+00 EMaxC= 1.00D-01 BMatC= 7.26D-12 BMatP= 6.36D-11
 IDIUse=1 WtCom= 1.00D+00 WtEn= 0.00D+00
 Coeff-Com: -0.313D-06 0.719D-06 0.993D-06 0.638D-05-0.276D-04-0.167D-04
 Coeff-Com:  0.685D-04 0.109D-03-0.334D-03-0.131D-02-0.546D-03 0.450D-02
 Coeff-Com:  0.225D-01-0.325D-01-0.956D-01 0.138D+00 0.965D+00
 Coeff:     -0.313D-06 0.719D-06 0.993D-06 0.638D-05-0.276D-04-0.167D-04
 Coeff:      0.685D-04 0.109D-03-0.334D-03-0.131D-02-0.546D-03 0.450D-02
 Coeff:      0.225D-01-0.325D-01-0.956D-01 0.138D+00 0.965D+00
 Gap=     0.314 Goal=   None    Shift=    0.000
 Gap=     0.314 Goal=   None    Shift=    0.000
 RMSDP=9.58D-09 MaxDP=3.00D-07 DE=-4.67D-11 OVMax= 1.38D-06

 Error on total polarization charges =  0.01182
 SCF Done:  E(UwB97XD) =  -466.858973460     A.U. after   17 cycles
            NFock= 17  Conv=0.96D-08     -V/T= 2.0058
 <Sx>= 0.0000 <Sy>= 0.0000 <Sz>= 0.0000 <S**2>= 0.0000 S= 0.0000
 <L.S>=  0.00000000000    
 KE= 4.641551161508D+02 PE=-2.426737409785D+03 EE= 8.232267913997D+02
 --------------------------------------------------------------------
 Variational PCM results
 =======================
 <psi(f)|   H    |psi(f)>                     (a.u.) =    -466.857460
 <psi(f)|H+V(f)/2|psi(f)>                     (a.u.) =    -466.858973
 (Polarized solute)-Solvent               (kcal/mol) =      -0.95
 --------------------------------------------------------------------
 Partition over spheres:
 Sphere  on Atom  Surface  Charge   GEl     GCav    GDR
    1      C1       7.03   0.010   -0.05    0.00    0.00
    2      C2       5.02   0.007   -0.04    0.00    0.00
    3      H3       7.52  -0.010   -0.04    0.00    0.00
    4      H4       3.46  -0.004   -0.01    0.00    0.00
    5      C5       4.55   0.009   -0.06    0.00    0.00
    6      C6       4.82   0.007   -0.04    0.00    0.00
    7      H7       4.75  -0.007   -0.03    0.00    0.00
    8      H8       4.12  -0.005   -0.01    0.00    0.00
    9      C9       3.58   0.002    0.00    0.00    0.00
   10      H10      7.19  -0.007   -0.01    0.00    0.00
   11      H11      3.09  -0.003   -0.01    0.00    0.00
   12      C12      6.31   0.010   -0.06    0.00    0.00
   13      H13      7.52  -0.010   -0.03    0.00    0.00
   14      C14      7.03   0.010   -0.05    0.00    0.00
   15      H15      7.52  -0.010   -0.04    0.00    0.00
   16      C16      3.52   0.002    0.00    0.00    0.00
   17      H17      2.84  -0.002   -0.01    0.00    0.00
   18      H18      7.41  -0.008   -0.03    0.00    0.00
   19      C19      5.09   0.009   -0.06    0.00    0.00
   20      H20      4.97  -0.007   -0.03    0.00    0.00
   21      C21      6.54   0.010   -0.06    0.00    0.00
   22      H22      7.51  -0.010   -0.03    0.00    0.00
   23      C23      3.58   0.002    0.00    0.00    0.00
   24      H24      2.85  -0.002   -0.01    0.00    0.00
   25      H25      7.19  -0.007   -0.01    0.00    0.00
   26      C26      3.46   0.002    0.00    0.00    0.00
   27      H27      7.41  -0.008   -0.03    0.00    0.00
   28      H28      3.00  -0.003   -0.01    0.00    0.00
 Added spheres:    74.80   0.013   -0.21    0.00    0.00
 --------------------------------------------------------------------
 After PCM corrections, the energy is  -466.858973460     a.u.
 --------------------------------------------------------------------
 Annihilation of the first spin contaminant:
 S**2 before annihilation     0.0000,   after    -0.0000
 Leave Link  502 at Mon Aug  3 14:22:48 2020, MaxMem=  6442450944 cpu:            7009.8 elap:             294.7
 (Enter /scratch/scicomp/CentOS/7.3.1611/Haswell/software/Gaussian/g16/l601.exe)
 Copying SCF densities to generalized density rwf, IOpCl= 1 IROHF=0.

 **********************************************************************

            Population analysis using the SCF Density.

 **********************************************************************

 Alpha  occ. eigenvalues --  -10.28503 -10.28502 -10.28327 -10.28325 -10.28312
 Alpha  occ. eigenvalues --  -10.28310 -10.28223 -10.28222 -10.28022 -10.28020
 Alpha  occ. eigenvalues --  -10.27671 -10.27670  -0.94186  -0.93709  -0.84240
 Alpha  occ. eigenvalues --   -0.84167  -0.83922  -0.83756  -0.71405  -0.71269
 Alpha  occ. eigenvalues --   -0.68003  -0.67976  -0.59794  -0.59651  -0.57441
 Alpha  occ. eigenvalues --   -0.56825  -0.53577  -0.52793  -0.51000  -0.50944
 Alpha  occ. eigenvalues --   -0.49976  -0.49521  -0.47374  -0.46995  -0.45156
 Alpha  occ. eigenvalues --   -0.45142  -0.41303  -0.41079  -0.39740  -0.39330
 Alpha  occ. eigenvalues --   -0.39289  -0.39081  -0.29830  -0.27774
 Alpha virt. eigenvalues --    0.03642   0.04740   0.10513   0.12236   0.13324
 Alpha virt. eigenvalues --    0.14377   0.14748   0.15561   0.15658   0.15851
 Alpha virt. eigenvalues --    0.16827   0.16886   0.17135   0.18204   0.19927
 Alpha virt. eigenvalues --    0.20979   0.21385   0.22782   0.23381   0.23593
 Alpha virt. eigenvalues --    0.24737   0.25555   0.25773   0.26850   0.27959
 Alpha virt. eigenvalues --    0.28172   0.28843   0.29227   0.29871   0.30494
 Alpha virt. eigenvalues --    0.31299   0.31682   0.32117   0.32234   0.33039
 Alpha virt. eigenvalues --    0.33494   0.34103   0.35331   0.35656   0.37238
 Alpha virt. eigenvalues --    0.37524   0.38772   0.39292   0.41118   0.41238
 Alpha virt. eigenvalues --    0.41449   0.43326   0.43906   0.45086   0.45778
 Alpha virt. eigenvalues --    0.46246   0.46296   0.47560   0.47823   0.48319
 Alpha virt. eigenvalues --    0.48359   0.48871   0.49145   0.49563   0.49809
 Alpha virt. eigenvalues --    0.50322   0.50411   0.51457   0.51842   0.52477
 Alpha virt. eigenvalues --    0.52871   0.53625   0.54201   0.54487   0.54976
 Alpha virt. eigenvalues --    0.56864   0.57422   0.57718   0.58749   0.59367
 Alpha virt. eigenvalues --    0.59766   0.60666   0.62643   0.62812   0.64166
 Alpha virt. eigenvalues --    0.65166   0.66671   0.67756   0.68250   0.68740
 Alpha virt. eigenvalues --    0.71117   0.71950   0.72533   0.73229   0.74658
 Alpha virt. eigenvalues --    0.76655   0.78095   0.78214   0.80440   0.80967
 Alpha virt. eigenvalues --    0.81721   0.82094   0.82606   0.87427   0.87551
 Alpha virt. eigenvalues --    0.88119   0.89024   0.90363   0.91440   0.92050
 Alpha virt. eigenvalues --    0.92440   0.94953   0.96090   0.98585   0.98675
 Alpha virt. eigenvalues --    1.00507   1.03531   1.04107   1.04377   1.04536
 Alpha virt. eigenvalues --    1.06547   1.07059   1.07764   1.09059   1.11457
 Alpha virt. eigenvalues --    1.13013   1.13415   1.14155   1.14740   1.15538
 Alpha virt. eigenvalues --    1.15685   1.16605   1.16746   1.18686   1.20567
 Alpha virt. eigenvalues --    1.20875   1.21815   1.23869   1.24000   1.24779
 Alpha virt. eigenvalues --    1.25330   1.25522   1.26564   1.27271   1.28474
 Alpha virt. eigenvalues --    1.28519   1.30433   1.31707   1.32469   1.32540
 Alpha virt. eigenvalues --    1.33925   1.34620   1.36367   1.36965   1.37848
 Alpha virt. eigenvalues --    1.38662   1.40081   1.40118   1.41096   1.41228
 Alpha virt. eigenvalues --    1.42629   1.42800   1.43798   1.44115   1.45163
 Alpha virt. eigenvalues --    1.45769   1.46582   1.46859   1.47368   1.48206
 Alpha virt. eigenvalues --    1.49690   1.50398   1.50537   1.53708   1.55543
 Alpha virt. eigenvalues --    1.56419   1.57776   1.58311   1.58626   1.60944
 Alpha virt. eigenvalues --    1.61303   1.62758   1.63470   1.65420   1.67735
 Alpha virt. eigenvalues --    1.68474   1.70129   1.70912   1.73963   1.76375
 Alpha virt. eigenvalues --    1.76609   1.79971   1.80102   1.83200   1.84015
 Alpha virt. eigenvalues --    1.86025   1.87783   1.89830   1.90374   1.91421
 Alpha virt. eigenvalues --    1.92751   1.96085   1.99321   2.00574   2.01278
 Alpha virt. eigenvalues --    2.03922   2.05786   2.05913   2.07879   2.08464
 Alpha virt. eigenvalues --    2.09068   2.11678   2.12713   2.13024   2.15390
 Alpha virt. eigenvalues --    2.18080   2.19655   2.20136   2.20866   2.22356
 Alpha virt. eigenvalues --    2.23046   2.23950   2.24545   2.26371   2.26400
 Alpha virt. eigenvalues --    2.29323   2.33808   2.37134   2.37960   2.40726
 Alpha virt. eigenvalues --    2.43030   2.45604   2.45764   2.48845   2.49885
 Alpha virt. eigenvalues --    2.50081   2.50225   2.53640   2.53914   2.55125
 Alpha virt. eigenvalues --    2.55170   2.57492   2.57573   2.60614   2.61374
 Alpha virt. eigenvalues --    2.62240   2.64384   2.64587   2.65079   2.66116
 Alpha virt. eigenvalues --    2.67388   2.67817   2.70516   2.72230   2.72423
 Alpha virt. eigenvalues --    2.73169   2.73229   2.74681   2.75827   2.77056
 Alpha virt. eigenvalues --    2.77560   2.77773   2.79096   2.80730   2.81133
 Alpha virt. eigenvalues --    2.81287   2.82244   2.82553   2.83692   2.84811
 Alpha virt. eigenvalues --    2.85008   2.86332   2.87288   2.88114   2.89320
 Alpha virt. eigenvalues --    2.90209   2.90356   2.92501   2.92631   2.93399
 Alpha virt. eigenvalues --    2.94687   2.95029   2.95218   2.96091   2.99586
 Alpha virt. eigenvalues --    3.01555   3.02041   3.02880   3.04319   3.06128
 Alpha virt. eigenvalues --    3.06796   3.08677   3.09437   3.09462   3.10653
 Alpha virt. eigenvalues --    3.11959   3.12844   3.13112   3.14282   3.14943
 Alpha virt. eigenvalues --    3.14961   3.16860   3.17056   3.18689   3.18828
 Alpha virt. eigenvalues --    3.19735   3.19838   3.20253   3.20865   3.21320
 Alpha virt. eigenvalues --    3.22026   3.22972   3.23182   3.23559   3.23945
 Alpha virt. eigenvalues --    3.25764   3.26031   3.26760   3.26932   3.28056
 Alpha virt. eigenvalues --    3.28541   3.29321   3.30685   3.31180   3.31296
 Alpha virt. eigenvalues --    3.32189   3.32919   3.32996   3.33457   3.34169
 Alpha virt. eigenvalues --    3.35032   3.35960   3.35978   3.37662   3.38139
 Alpha virt. eigenvalues --    3.38873   3.40482   3.42351   3.43508   3.43624
 Alpha virt. eigenvalues --    3.44879   3.45464   3.46326   3.46488   3.46828
 Alpha virt. eigenvalues --    3.48469   3.49235   3.49250   3.49956   3.50853
 Alpha virt. eigenvalues --    3.51289   3.52797   3.53257   3.54823   3.55080
 Alpha virt. eigenvalues --    3.55723   3.56837   3.57922   3.59061   3.63257
 Alpha virt. eigenvalues --    3.64440   3.65026   3.65163   3.65463   3.66416
 Alpha virt. eigenvalues --    3.68355   3.68388   3.70962   3.71799   3.72693
 Alpha virt. eigenvalues --    3.75052   3.76102   3.77425   3.79464   3.80418
 Alpha virt. eigenvalues --    3.84761   3.85235   3.85665   3.86078   3.86280
 Alpha virt. eigenvalues --    3.88185   3.90911   3.91031   3.93539   3.93727
 Alpha virt. eigenvalues --    3.95596   3.95812   4.00282   4.00572   4.02710
 Alpha virt. eigenvalues --    4.04799   4.08245   4.08544   4.08869   4.10426
 Alpha virt. eigenvalues --    4.11732   4.12864   4.13616   4.15574   4.18008
 Alpha virt. eigenvalues --    4.18528   4.19676   4.20889   4.22883   4.24001
 Alpha virt. eigenvalues --    4.25058   4.27435   4.30662   4.30936   4.33657
 Alpha virt. eigenvalues --    4.34924   4.37803   4.38217   4.39009   4.41361
 Alpha virt. eigenvalues --    4.43081   4.43698   4.46464   4.48095   4.49931
 Alpha virt. eigenvalues --    4.51234   4.58793   4.60841   4.62498   4.66134
 Alpha virt. eigenvalues --    4.68173   4.68994   4.72095   4.73746   4.75689
 Alpha virt. eigenvalues --    4.75816   4.78723   4.78789   4.81478   4.84191
 Alpha virt. eigenvalues --    4.84627   4.84890   4.89499   4.90844   4.93690
 Alpha virt. eigenvalues --    4.93996   4.96548   4.98729   5.06102   5.07941
 Alpha virt. eigenvalues --    5.12597   5.13001   5.18262   5.19196   5.22737
 Alpha virt. eigenvalues --    5.23268   5.30693   5.32260   5.40585   5.40772
 Alpha virt. eigenvalues --    5.43096   5.44457   5.49345   5.49398   5.67420
 Alpha virt. eigenvalues --    5.70589   5.75415   5.77856   5.93036   6.00173
 Alpha virt. eigenvalues --    7.93877   7.95452   8.01502   8.04340   8.06193
 Alpha virt. eigenvalues --    8.06277   8.10239   8.11338   8.17711   8.18117
 Alpha virt. eigenvalues --    8.34229   8.35969  34.76076  34.77637  34.80810
 Alpha virt. eigenvalues --   34.81822  34.86462  34.86878  34.96860  34.97927
 Alpha virt. eigenvalues --   35.00555  35.01708  35.15524  35.18781
  Beta  occ. eigenvalues --  -10.28503 -10.28502 -10.28327 -10.28325 -10.28312
  Beta  occ. eigenvalues --  -10.28310 -10.28223 -10.28222 -10.28022 -10.28020
  Beta  occ. eigenvalues --  -10.27671 -10.27670  -0.94186  -0.93709  -0.84240
  Beta  occ. eigenvalues --   -0.84167  -0.83922  -0.83756  -0.71405  -0.71269
  Beta  occ. eigenvalues --   -0.68003  -0.67976  -0.59794  -0.59651  -0.57441
  Beta  occ. eigenvalues --   -0.56825  -0.53577  -0.52793  -0.51000  -0.50944
  Beta  occ. eigenvalues --   -0.49976  -0.49521  -0.47374  -0.46995  -0.45156
  Beta  occ. eigenvalues --   -0.45142  -0.41303  -0.41079  -0.39740  -0.39330
  Beta  occ. eigenvalues --   -0.39289  -0.39081  -0.29830  -0.27774
  Beta virt. eigenvalues --    0.03642   0.04740   0.10513   0.12236   0.13324
  Beta virt. eigenvalues --    0.14377   0.14748   0.15561   0.15658   0.15851
  Beta virt. eigenvalues --    0.16827   0.16886   0.17135   0.18204   0.19927
  Beta virt. eigenvalues --    0.20979   0.21385   0.22782   0.23381   0.23593
  Beta virt. eigenvalues --    0.24737   0.25555   0.25773   0.26850   0.27959
  Beta virt. eigenvalues --    0.28172   0.28843   0.29227   0.29871   0.30494
  Beta virt. eigenvalues --    0.31299   0.31682   0.32117   0.32234   0.33039
  Beta virt. eigenvalues --    0.33494   0.34103   0.35331   0.35656   0.37238
  Beta virt. eigenvalues --    0.37524   0.38772   0.39292   0.41118   0.41238
  Beta virt. eigenvalues --    0.41449   0.43326   0.43906   0.45086   0.45778
  Beta virt. eigenvalues --    0.46246   0.46296   0.47560   0.47823   0.48319
  Beta virt. eigenvalues --    0.48359   0.48871   0.49145   0.49563   0.49809
  Beta virt. eigenvalues --    0.50322   0.50411   0.51457   0.51842   0.52477
  Beta virt. eigenvalues --    0.52871   0.53625   0.54201   0.54487   0.54976
  Beta virt. eigenvalues --    0.56864   0.57422   0.57718   0.58749   0.59367
  Beta virt. eigenvalues --    0.59766   0.60666   0.62643   0.62812   0.64166
  Beta virt. eigenvalues --    0.65166   0.66671   0.67756   0.68250   0.68740
  Beta virt. eigenvalues --    0.71117   0.71950   0.72533   0.73229   0.74658
  Beta virt. eigenvalues --    0.76655   0.78095   0.78214   0.80440   0.80967
  Beta virt. eigenvalues --    0.81721   0.82094   0.82606   0.87427   0.87551
  Beta virt. eigenvalues --    0.88119   0.89024   0.90363   0.91440   0.92050
  Beta virt. eigenvalues --    0.92440   0.94953   0.96090   0.98585   0.98675
  Beta virt. eigenvalues --    1.00507   1.03531   1.04107   1.04377   1.04536
  Beta virt. eigenvalues --    1.06547   1.07059   1.07764   1.09059   1.11457
  Beta virt. eigenvalues --    1.13013   1.13415   1.14155   1.14740   1.15538
  Beta virt. eigenvalues --    1.15685   1.16605   1.16746   1.18686   1.20567
  Beta virt. eigenvalues --    1.20875   1.21815   1.23869   1.24000   1.24779
  Beta virt. eigenvalues --    1.25330   1.25522   1.26564   1.27271   1.28474
  Beta virt. eigenvalues --    1.28519   1.30433   1.31707   1.32469   1.32540
  Beta virt. eigenvalues --    1.33925   1.34620   1.36367   1.36965   1.37848
  Beta virt. eigenvalues --    1.38662   1.40081   1.40118   1.41096   1.41228
  Beta virt. eigenvalues --    1.42629   1.42800   1.43798   1.44115   1.45163
  Beta virt. eigenvalues --    1.45769   1.46582   1.46859   1.47368   1.48206
  Beta virt. eigenvalues --    1.49690   1.50398   1.50537   1.53708   1.55543
  Beta virt. eigenvalues --    1.56419   1.57776   1.58311   1.58626   1.60944
  Beta virt. eigenvalues --    1.61303   1.62758   1.63470   1.65420   1.67735
  Beta virt. eigenvalues --    1.68474   1.70129   1.70912   1.73963   1.76375
  Beta virt. eigenvalues --    1.76609   1.79971   1.80102   1.83200   1.84015
  Beta virt. eigenvalues --    1.86025   1.87783   1.89830   1.90374   1.91421
  Beta virt. eigenvalues --    1.92751   1.96085   1.99321   2.00574   2.01278
  Beta virt. eigenvalues --    2.03922   2.05786   2.05913   2.07879   2.08464
  Beta virt. eigenvalues --    2.09068   2.11678   2.12713   2.13024   2.15390
  Beta virt. eigenvalues --    2.18080   2.19655   2.20136   2.20866   2.22356
  Beta virt. eigenvalues --    2.23046   2.23950   2.24545   2.26371   2.26400
  Beta virt. eigenvalues --    2.29323   2.33808   2.37134   2.37960   2.40726
  Beta virt. eigenvalues --    2.43030   2.45604   2.45764   2.48845   2.49885
  Beta virt. eigenvalues --    2.50081   2.50225   2.53640   2.53914   2.55125
  Beta virt. eigenvalues --    2.55170   2.57492   2.57573   2.60614   2.61374
  Beta virt. eigenvalues --    2.62240   2.64384   2.64587   2.65079   2.66116
  Beta virt. eigenvalues --    2.67388   2.67817   2.70516   2.72230   2.72423
  Beta virt. eigenvalues --    2.73169   2.73229   2.74681   2.75827   2.77056
  Beta virt. eigenvalues --    2.77560   2.77773   2.79096   2.80730   2.81133
  Beta virt. eigenvalues --    2.81287   2.82244   2.82553   2.83692   2.84811
  Beta virt. eigenvalues --    2.85008   2.86332   2.87288   2.88114   2.89320
  Beta virt. eigenvalues --    2.90209   2.90356   2.92501   2.92631   2.93399
  Beta virt. eigenvalues --    2.94687   2.95029   2.95218   2.96091   2.99586
  Beta virt. eigenvalues --    3.01555   3.02041   3.02880   3.04319   3.06128
  Beta virt. eigenvalues --    3.06796   3.08677   3.09437   3.09462   3.10653
  Beta virt. eigenvalues --    3.11959   3.12844   3.13112   3.14282   3.14943
  Beta virt. eigenvalues --    3.14961   3.16860   3.17056   3.18689   3.18828
  Beta virt. eigenvalues --    3.19735   3.19838   3.20253   3.20865   3.21320
  Beta virt. eigenvalues --    3.22026   3.22972   3.23182   3.23559   3.23945
  Beta virt. eigenvalues --    3.25764   3.26031   3.26760   3.26932   3.28056
  Beta virt. eigenvalues --    3.28541   3.29321   3.30685   3.31180   3.31296
  Beta virt. eigenvalues --    3.32189   3.32919   3.32996   3.33457   3.34169
  Beta virt. eigenvalues --    3.35032   3.35960   3.35978   3.37662   3.38139
  Beta virt. eigenvalues --    3.38873   3.40482   3.42351   3.43508   3.43624
  Beta virt. eigenvalues --    3.44879   3.45464   3.46326   3.46488   3.46828
  Beta virt. eigenvalues --    3.48469   3.49235   3.49250   3.49956   3.50853
  Beta virt. eigenvalues --    3.51289   3.52797   3.53257   3.54823   3.55080
  Beta virt. eigenvalues --    3.55723   3.56837   3.57922   3.59061   3.63257
  Beta virt. eigenvalues --    3.64440   3.65026   3.65163   3.65463   3.66416
  Beta virt. eigenvalues --    3.68355   3.68388   3.70962   3.71799   3.72693
  Beta virt. eigenvalues --    3.75052   3.76102   3.77425   3.79464   3.80418
  Beta virt. eigenvalues --    3.84761   3.85235   3.85665   3.86078   3.86280
  Beta virt. eigenvalues --    3.88185   3.90911   3.91031   3.93539   3.93727
  Beta virt. eigenvalues --    3.95596   3.95812   4.00282   4.00572   4.02710
  Beta virt. eigenvalues --    4.04799   4.08245   4.08544   4.08869   4.10426
  Beta virt. eigenvalues --    4.11732   4.12864   4.13616   4.15574   4.18008
  Beta virt. eigenvalues --    4.18528   4.19676   4.20889   4.22883   4.24001
  Beta virt. eigenvalues --    4.25058   4.27435   4.30662   4.30936   4.33657
  Beta virt. eigenvalues --    4.34924   4.37803   4.38217   4.39009   4.41361
  Beta virt. eigenvalues --    4.43081   4.43698   4.46464   4.48095   4.49931
  Beta virt. eigenvalues --    4.51234   4.58793   4.60841   4.62498   4.66134
  Beta virt. eigenvalues --    4.68173   4.68994   4.72095   4.73746   4.75689
  Beta virt. eigenvalues --    4.75816   4.78723   4.78789   4.81478   4.84191
  Beta virt. eigenvalues --    4.84627   4.84890   4.89499   4.90844   4.93690
  Beta virt. eigenvalues --    4.93996   4.96548   4.98729   5.06102   5.07941
  Beta virt. eigenvalues --    5.12597   5.13001   5.18262   5.19196   5.22737
  Beta virt. eigenvalues --    5.23268   5.30693   5.32260   5.40585   5.40772
  Beta virt. eigenvalues --    5.43096   5.44457   5.49345   5.49398   5.67420
  Beta virt. eigenvalues --    5.70589   5.75415   5.77856   5.93036   6.00173
  Beta virt. eigenvalues --    7.93877   7.95452   8.01502   8.04340   8.06193
  Beta virt. eigenvalues --    8.06277   8.10239   8.11338   8.17711   8.18117
  Beta virt. eigenvalues --    8.34229   8.35969  34.76076  34.77637  34.80810
  Beta virt. eigenvalues --   34.81822  34.86462  34.86878  34.96860  34.97927
  Beta virt. eigenvalues --   35.00555  35.01708  35.15524  35.18781
          Condensed to atoms (all electrons):
               1          2          3          4          5          6
     1  C    5.120782   0.008508   0.423809  -0.001779   0.000453  -0.003667
     2  C    0.008508   5.264614  -0.002149   0.424406  -0.023874  -0.050942
     3  H    0.423809  -0.002149   0.497809   0.000036  -0.000045  -0.000016
     4  H   -0.001779   0.424406   0.000036   0.478330  -0.002438   0.002810
     5  C    0.000453  -0.023874  -0.000045  -0.002438   5.116474   0.541873
     6  C   -0.003667  -0.050942  -0.000016   0.002810   0.541873   5.264771
     7  H    0.000262  -0.001109   0.000000  -0.000088   0.424356  -0.028600
     8  H   -0.000936   0.002812  -0.000008   0.000011  -0.042384   0.424387
     9  C    0.001393  -0.000034  -0.000004  -0.000971  -0.068954   0.257313
    10  H   -0.000027  -0.000123  -0.000001  -0.000072  -0.003991  -0.034111
    11  H    0.000088  -0.002378   0.000000   0.000052   0.007020  -0.052434
    12  C   -0.000114   0.007232   0.000002   0.001467   0.306393  -0.077080
    13  H   -0.000001   0.000006   0.000000   0.000007  -0.038853   0.005264
    14  C    0.000124  -0.003668  -0.000000  -0.000935  -0.062298   0.008509
    15  H   -0.000000  -0.000016  -0.000000  -0.000008   0.007518  -0.002149
    16  C   -0.000564   0.009236  -0.000000   0.000379   0.001810  -0.071944
    17  H   -0.000062  -0.001025  -0.000001  -0.001007   0.010649  -0.001067
    18  H    0.000002   0.000561   0.000000   0.000131  -0.002412   0.011042
    19  C   -0.062302   0.541870   0.007519  -0.042434  -0.002910  -0.023883
    20  H    0.003928  -0.028548  -0.000116  -0.005554   0.000246  -0.001110
    21  C    0.600301  -0.077072  -0.033487   0.005731   0.000590   0.007236
    22  H   -0.028193   0.005270  -0.006489  -0.000079   0.000016   0.000006
    23  C   -0.088172   0.257334   0.005599  -0.015862   0.003624  -0.000027
    24  H    0.012562  -0.052443  -0.000135  -0.004107   0.001842  -0.002375
    25  H    0.005331  -0.034117  -0.000021  -0.000013   0.000378  -0.000123
    26  C    0.289326  -0.071920  -0.031400   0.004077  -0.002857   0.009232
    27  H   -0.036211   0.011042  -0.004554  -0.000136   0.000329   0.000561
    28  H   -0.034497  -0.001070   0.001480  -0.000149  -0.003377  -0.001029
               7          8          9         10         11         12
     1  C    0.000262  -0.000936   0.001393  -0.000027   0.000088  -0.000114
     2  C   -0.001109   0.002812  -0.000034  -0.000123  -0.002378   0.007232
     3  H    0.000000  -0.000008  -0.000004  -0.000001   0.000000   0.000002
     4  H   -0.000088   0.000011  -0.000971  -0.000072   0.000052   0.001467
     5  C    0.424356  -0.042384  -0.068954  -0.003991   0.007020   0.306393
     6  C   -0.028600   0.424387   0.257313  -0.034111  -0.052434  -0.077080
     7  H    0.485719  -0.005549   0.003688  -0.000306  -0.000063  -0.032012
     8  H   -0.005549   0.478127  -0.015863  -0.000013  -0.004103   0.005729
     9  C    0.003688  -0.015863   4.935717   0.380693   0.448587   0.035153
    10  H   -0.000306  -0.000013   0.380693   0.580590  -0.022178   0.001839
    11  H   -0.000063  -0.004103   0.448587  -0.022178   0.542492  -0.003573
    12  C   -0.032012   0.005729   0.035153   0.001839  -0.003573   4.990883
    13  H   -0.003515  -0.000079  -0.000558  -0.000050   0.000037   0.426662
    14  C    0.003924  -0.001777  -0.088179   0.005330   0.012563   0.600297
    15  H   -0.000116   0.000036   0.005599  -0.000021  -0.000135  -0.033494
    16  C   -0.000807   0.004074   0.370976  -0.024957  -0.050749  -0.063712
    17  H    0.000020  -0.000149  -0.034661   0.007629  -0.008993  -0.015756
    18  H    0.000039  -0.000135  -0.042333  -0.008929  -0.001064   0.005612
    19  C    0.000246  -0.002444   0.003626   0.000377   0.001844   0.000592
    20  H    0.000008  -0.000088   0.001907   0.000140  -0.000599  -0.000139
    21  C   -0.000139   0.001471  -0.000541   0.000013  -0.000200  -0.000202
    22  H   -0.000001   0.000008  -0.000050  -0.000001   0.000008   0.000000
    23  C    0.001903  -0.000969   0.000481  -0.000018   0.000085  -0.000542
    24  H   -0.000598   0.000052   0.000085   0.000001  -0.000017  -0.000200
    25  H    0.000140  -0.000073  -0.000018   0.000002   0.000001   0.000013
    26  C   -0.001442   0.000374  -0.000777   0.000065  -0.000085   0.000604
    27  H   -0.000022   0.000131  -0.000027   0.000001  -0.000002  -0.000048
    28  H    0.001626  -0.001015   0.000376  -0.000013   0.000020   0.000538
              13         14         15         16         17         18
     1  C   -0.000001   0.000124  -0.000000  -0.000564  -0.000062   0.000002
     2  C    0.000006  -0.003668  -0.000016   0.009236  -0.001025   0.000561
     3  H    0.000000  -0.000000  -0.000000  -0.000000  -0.000001   0.000000
     4  H    0.000007  -0.000935  -0.000008   0.000379  -0.001007   0.000131
     5  C   -0.038853  -0.062298   0.007518   0.001810   0.010649  -0.002412
     6  C    0.005264   0.008509  -0.002149  -0.071944  -0.001067   0.011042
     7  H   -0.003515   0.003924  -0.000116  -0.000807   0.000020   0.000039
     8  H   -0.000079  -0.001777   0.000036   0.004074  -0.000149  -0.000135
     9  C   -0.000558  -0.088179   0.005599   0.370976  -0.034661  -0.042333
    10  H   -0.000050   0.005330  -0.000021  -0.024957   0.007629  -0.008929
    11  H    0.000037   0.012563  -0.000135  -0.050749  -0.008993  -0.001064
    12  C    0.426662   0.600297  -0.033494  -0.063712  -0.015756   0.005612
    13  H    0.495572  -0.028217  -0.006489   0.005116  -0.000410  -0.000137
    14  C   -0.028217   5.120742   0.423807   0.289313  -0.034509  -0.036208
    15  H   -0.006489   0.423807   0.497814  -0.031389   0.001480  -0.004554
    16  C    0.005116   0.289313  -0.031389   4.915401   0.397396   0.428950
    17  H   -0.000410  -0.034509   0.001480   0.397396   0.593931  -0.022639
    18  H   -0.000137  -0.036208  -0.004554   0.428950  -0.022639   0.546597
    19  C    0.000016   0.000453  -0.000045  -0.002859  -0.003384   0.000329
    20  H   -0.000001   0.000262   0.000000  -0.001444   0.001625  -0.000022
    21  C    0.000000  -0.000114   0.000002   0.000603   0.000537  -0.000048
    22  H    0.000000  -0.000001   0.000000   0.000012  -0.000003  -0.000001
    23  C   -0.000050   0.001393  -0.000004  -0.000776   0.000377  -0.000027
    24  H    0.000008   0.000089   0.000000  -0.000085   0.000020  -0.000002
    25  H   -0.000001  -0.000027  -0.000001   0.000065  -0.000013   0.000001
    26  C    0.000012  -0.000563  -0.000000   0.000905   0.000117  -0.000003
    27  H   -0.000001   0.000002   0.000000  -0.000003   0.000002  -0.000000
    28  H   -0.000003  -0.000062  -0.000001   0.000117  -0.000027   0.000002
              19         20         21         22         23         24
     1  C   -0.062302   0.003928   0.600301  -0.028193  -0.088172   0.012562
     2  C    0.541870  -0.028548  -0.077072   0.005270   0.257334  -0.052443
     3  H    0.007519  -0.000116  -0.033487  -0.006489   0.005599  -0.000135
     4  H   -0.042434  -0.005554   0.005731  -0.000079  -0.015862  -0.004107
     5  C   -0.002910   0.000246   0.000590   0.000016   0.003624   0.001842
     6  C   -0.023883  -0.001110   0.007236   0.000006  -0.000027  -0.002375
     7  H    0.000246   0.000008  -0.000139  -0.000001   0.001903  -0.000598
     8  H   -0.002444  -0.000088   0.001471   0.000008  -0.000969   0.000052
     9  C    0.003626   0.001907  -0.000541  -0.000050   0.000481   0.000085
    10  H    0.000377   0.000140   0.000013  -0.000001  -0.000018   0.000001
    11  H    0.001844  -0.000599  -0.000200   0.000008   0.000085  -0.000017
    12  C    0.000592  -0.000139  -0.000202   0.000000  -0.000542  -0.000200
    13  H    0.000016  -0.000001   0.000000   0.000000  -0.000050   0.000008
    14  C    0.000453   0.000262  -0.000114  -0.000001   0.001393   0.000089
    15  H   -0.000045   0.000000   0.000002   0.000000  -0.000004   0.000000
    16  C   -0.002859  -0.001444   0.000603   0.000012  -0.000776  -0.000085
    17  H   -0.003384   0.001625   0.000537  -0.000003   0.000377   0.000020
    18  H    0.000329  -0.000022  -0.000048  -0.000001  -0.000027  -0.000002
    19  C    5.116487   0.424327   0.306370  -0.038880  -0.068946   0.007024
    20  H    0.424327   0.485716  -0.032034  -0.003514   0.003688  -0.000063
    21  C    0.306370  -0.032034   4.990869   0.426656   0.035140  -0.003572
    22  H   -0.038880  -0.003514   0.426656   0.495584  -0.000559   0.000037
    23  C   -0.068946   0.003688   0.035140  -0.000559   4.935626   0.448581
    24  H    0.007024  -0.000063  -0.003572   0.000037   0.448581   0.542614
    25  H   -0.003991  -0.000306   0.001840  -0.000050   0.380701  -0.022182
    26  C    0.001794  -0.000807  -0.063719   0.005118   0.370986  -0.050760
    27  H   -0.002411   0.000039   0.005612  -0.000137  -0.042329  -0.001063
    28  H    0.010645   0.000020  -0.015743  -0.000410  -0.034656  -0.008995
              25         26         27         28
     1  C    0.005331   0.289326  -0.036211  -0.034497
     2  C   -0.034117  -0.071920   0.011042  -0.001070
     3  H   -0.000021  -0.031400  -0.004554   0.001480
     4  H   -0.000013   0.004077  -0.000136  -0.000149
     5  C    0.000378  -0.002857   0.000329  -0.003377
     6  C   -0.000123   0.009232   0.000561  -0.001029
     7  H    0.000140  -0.001442  -0.000022   0.001626
     8  H   -0.000073   0.000374   0.000131  -0.001015
     9  C   -0.000018  -0.000777  -0.000027   0.000376
    10  H    0.000002   0.000065   0.000001  -0.000013
    11  H    0.000001  -0.000085  -0.000002   0.000020
    12  C    0.000013   0.000604  -0.000048   0.000538
    13  H   -0.000001   0.000012  -0.000001  -0.000003
    14  C   -0.000027  -0.000563   0.000002  -0.000062
    15  H   -0.000001  -0.000000   0.000000  -0.000001
    16  C    0.000065   0.000905  -0.000003   0.000117
    17  H   -0.000013   0.000117   0.000002  -0.000027
    18  H    0.000001  -0.000003  -0.000000   0.000002
    19  C   -0.003991   0.001794  -0.002411   0.010645
    20  H   -0.000306  -0.000807   0.000039   0.000020
    21  C    0.001840  -0.063719   0.005612  -0.015743
    22  H   -0.000050   0.005118  -0.000137  -0.000410
    23  C    0.380701   0.370986  -0.042329  -0.034656
    24  H   -0.022182  -0.050760  -0.001063  -0.008995
    25  H    0.580578  -0.024954  -0.008931   0.007629
    26  C   -0.024954   4.915378   0.428944   0.397407
    27  H   -0.008931   0.428944   0.546604  -0.022647
    28  H    0.007629   0.397407  -0.022647   0.593868
          Atomic-Atomic Spin Densities.
               1          2          3          4          5          6
     1  C   -0.000001  -0.000000   0.000000   0.000000  -0.000000  -0.000000
     2  C   -0.000000   0.000000   0.000000   0.000000  -0.000000  -0.000000
     3  H    0.000000   0.000000   0.000000  -0.000000  -0.000000   0.000000
     4  H    0.000000   0.000000  -0.000000   0.000000   0.000000  -0.000000
     5  C   -0.000000  -0.000000  -0.000000   0.000000  -0.000001   0.000000
     6  C   -0.000000  -0.000000   0.000000  -0.000000   0.000000  -0.000000
     7  H   -0.000000   0.000000   0.000000  -0.000000  -0.000000  -0.000000
     8  H    0.000000   0.000000  -0.000000  -0.000000  -0.000000  -0.000000
     9  C   -0.000000   0.000000  -0.000000  -0.000000  -0.000000   0.000000
    10  H   -0.000000  -0.000000  -0.000000   0.000000  -0.000000   0.000000
    11  H    0.000000  -0.000000   0.000000   0.000000   0.000000  -0.000000
    12  C    0.000000   0.000000   0.000000  -0.000000  -0.000000   0.000000
    13  H    0.000000   0.000000   0.000000  -0.000000   0.000000  -0.000000
    14  C    0.000000   0.000000  -0.000000  -0.000000   0.000000   0.000000
    15  H    0.000000  -0.000000  -0.000000   0.000000  -0.000000  -0.000000
    16  C   -0.000000   0.000000   0.000000   0.000000  -0.000000  -0.000000
    17  H   -0.000000  -0.000000  -0.000000   0.000000   0.000000  -0.000000
    18  H   -0.000000   0.000000  -0.000000   0.000000   0.000000  -0.000000
    19  C    0.000000  -0.000000   0.000000   0.000000  -0.000000   0.000000
    20  H   -0.000000   0.000000   0.000000   0.000000  -0.000000  -0.000000
    21  C    0.000000  -0.000000  -0.000000  -0.000000   0.000000  -0.000000
    22  H   -0.000000   0.000000  -0.000000  -0.000000   0.000000  -0.000000
    23  C   -0.000000  -0.000000   0.000000  -0.000000  -0.000000  -0.000000
    24  H   -0.000000   0.000000  -0.000000   0.000000   0.000000   0.000000
    25  H   -0.000000  -0.000000   0.000000   0.000000   0.000000   0.000000
    26  C    0.000000   0.000000  -0.000000  -0.000000   0.000000  -0.000000
    27  H    0.000000   0.000000  -0.000000   0.000000   0.000000  -0.000000
    28  H    0.000000   0.000000  -0.000000   0.000000  -0.000000   0.000000
               7          8          9         10         11         12
     1  C   -0.000000   0.000000  -0.000000  -0.000000   0.000000   0.000000
     2  C    0.000000   0.000000   0.000000  -0.000000  -0.000000   0.000000
     3  H    0.000000  -0.000000  -0.000000  -0.000000   0.000000   0.000000
     4  H   -0.000000  -0.000000  -0.000000   0.000000   0.000000  -0.000000
     5  C   -0.000000  -0.000000  -0.000000  -0.000000   0.000000  -0.000000
     6  C   -0.000000  -0.000000   0.000000   0.000000  -0.000000   0.000000
     7  H    0.000001  -0.000000   0.000000  -0.000000  -0.000000  -0.000000
     8  H   -0.000000  -0.000000   0.000000  -0.000000   0.000000   0.000000
     9  C    0.000000   0.000000  -0.000001  -0.000000   0.000000  -0.000000
    10  H   -0.000000  -0.000000  -0.000000   0.000000  -0.000000   0.000000
    11  H   -0.000000   0.000000   0.000000  -0.000000   0.000000  -0.000000
    12  C   -0.000000   0.000000  -0.000000   0.000000  -0.000000   0.000000
    13  H    0.000000   0.000000   0.000000  -0.000000  -0.000000  -0.000000
    14  C    0.000000  -0.000000   0.000000   0.000000   0.000000  -0.000000
    15  H   -0.000000   0.000000  -0.000000  -0.000000   0.000000   0.000000
    16  C   -0.000000   0.000000   0.000000  -0.000000  -0.000000   0.000000
    17  H   -0.000000  -0.000000   0.000000   0.000000  -0.000000   0.000000
    18  H    0.000000  -0.000000   0.000000   0.000000  -0.000000  -0.000000
    19  C    0.000000  -0.000000   0.000000  -0.000000  -0.000000  -0.000000
    20  H    0.000000   0.000000   0.000000  -0.000000   0.000000   0.000000
    21  C   -0.000000   0.000000  -0.000000   0.000000   0.000000  -0.000000
    22  H   -0.000000   0.000000  -0.000000   0.000000   0.000000   0.000000
    23  C   -0.000000   0.000000  -0.000000  -0.000000   0.000000   0.000000
    24  H   -0.000000  -0.000000  -0.000000   0.000000  -0.000000  -0.000000
    25  H    0.000000  -0.000000   0.000000  -0.000000  -0.000000  -0.000000
    26  C   -0.000000  -0.000000   0.000000   0.000000  -0.000000  -0.000000
    27  H   -0.000000  -0.000000  -0.000000   0.000000  -0.000000  -0.000000
    28  H    0.000000  -0.000000   0.000000   0.000000  -0.000000  -0.000000
              13         14         15         16         17         18
     1  C    0.000000   0.000000   0.000000  -0.000000  -0.000000  -0.000000
     2  C    0.000000   0.000000  -0.000000   0.000000  -0.000000   0.000000
     3  H    0.000000  -0.000000  -0.000000   0.000000  -0.000000  -0.000000
     4  H   -0.000000  -0.000000   0.000000   0.000000   0.000000   0.000000
     5  C    0.000000   0.000000  -0.000000  -0.000000   0.000000   0.000000
     6  C   -0.000000   0.000000  -0.000000  -0.000000  -0.000000  -0.000000
     7  H    0.000000   0.000000  -0.000000  -0.000000  -0.000000   0.000000
     8  H    0.000000  -0.000000   0.000000   0.000000  -0.000000  -0.000000
     9  C    0.000000   0.000000  -0.000000   0.000000   0.000000   0.000000
    10  H   -0.000000   0.000000  -0.000000  -0.000000   0.000000   0.000000
    11  H   -0.000000   0.000000   0.000000  -0.000000  -0.000000  -0.000000
    12  C   -0.000000  -0.000000   0.000000   0.000000   0.000000  -0.000000
    13  H   -0.000000   0.000000   0.000000  -0.000000  -0.000000   0.000000
    14  C    0.000000   0.000001  -0.000000  -0.000000  -0.000000  -0.000000
    15  H    0.000000  -0.000000  -0.000000   0.000000   0.000000   0.000000
    16  C   -0.000000  -0.000000   0.000000   0.000001  -0.000000  -0.000000
    17  H   -0.000000  -0.000000   0.000000  -0.000000   0.000000   0.000000
    18  H    0.000000  -0.000000   0.000000  -0.000000   0.000000  -0.000000
    19  C   -0.000000   0.000000   0.000000  -0.000000   0.000000  -0.000000
    20  H    0.000000   0.000000  -0.000000   0.000000  -0.000000   0.000000
    21  C   -0.000000  -0.000000  -0.000000   0.000000   0.000000   0.000000
    22  H   -0.000000  -0.000000  -0.000000   0.000000  -0.000000   0.000000
    23  C    0.000000   0.000000   0.000000  -0.000000  -0.000000   0.000000
    24  H   -0.000000  -0.000000  -0.000000   0.000000   0.000000   0.000000
    25  H   -0.000000   0.000000   0.000000  -0.000000  -0.000000  -0.000000
    26  C   -0.000000   0.000000  -0.000000  -0.000000   0.000000   0.000000
    27  H   -0.000000   0.000000   0.000000  -0.000000   0.000000   0.000000
    28  H    0.000000   0.000000   0.000000  -0.000000   0.000000  -0.000000
              19         20         21         22         23         24
     1  C    0.000000  -0.000000   0.000000  -0.000000  -0.000000  -0.000000
     2  C   -0.000000   0.000000  -0.000000   0.000000  -0.000000   0.000000
     3  H    0.000000   0.000000  -0.000000  -0.000000   0.000000  -0.000000
     4  H    0.000000   0.000000  -0.000000  -0.000000  -0.000000   0.000000
     5  C   -0.000000  -0.000000   0.000000   0.000000  -0.000000   0.000000
     6  C    0.000000  -0.000000  -0.000000  -0.000000  -0.000000   0.000000
     7  H    0.000000   0.000000  -0.000000  -0.000000  -0.000000  -0.000000
     8  H   -0.000000   0.000000   0.000000   0.000000   0.000000  -0.000000
     9  C    0.000000   0.000000  -0.000000  -0.000000  -0.000000  -0.000000
    10  H   -0.000000  -0.000000   0.000000   0.000000  -0.000000   0.000000
    11  H   -0.000000   0.000000   0.000000   0.000000   0.000000  -0.000000
    12  C   -0.000000   0.000000  -0.000000   0.000000   0.000000  -0.000000
    13  H   -0.000000   0.000000  -0.000000  -0.000000   0.000000  -0.000000
    14  C    0.000000   0.000000  -0.000000  -0.000000   0.000000  -0.000000
    15  H    0.000000  -0.000000  -0.000000  -0.000000   0.000000  -0.000000
    16  C   -0.000000   0.000000   0.000000   0.000000  -0.000000   0.000000
    17  H    0.000000  -0.000000   0.000000  -0.000000  -0.000000   0.000000
    18  H   -0.000000   0.000000   0.000000   0.000000   0.000000   0.000000
    19  C    0.000000   0.000000   0.000000  -0.000000   0.000000  -0.000000
[...]
     4  H    0.000000  -0.000000   0.000000   0.000000
     5  C    0.000000   0.000000   0.000000  -0.000000
     6  C    0.000000  -0.000000  -0.000000   0.000000
     7  H    0.000000  -0.000000  -0.000000   0.000000
     8  H   -0.000000  -0.000000  -0.000000  -0.000000
     9  C    0.000000   0.000000  -0.000000   0.000000
    10  H   -0.000000   0.000000   0.000000   0.000000
    11  H   -0.000000  -0.000000  -0.000000  -0.000000
    12  C   -0.000000  -0.000000  -0.000000  -0.000000
    13  H   -0.000000  -0.000000  -0.000000   0.000000
    14  C    0.000000   0.000000   0.000000   0.000000
    15  H    0.000000  -0.000000   0.000000   0.000000
    16  C   -0.000000  -0.000000  -0.000000  -0.000000
    17  H   -0.000000   0.000000   0.000000   0.000000
    18  H   -0.000000   0.000000   0.000000  -0.000000
    19  C    0.000000   0.000000  -0.000000  -0.000000
    20  H    0.000000   0.000000  -0.000000   0.000000
    21  C   -0.000000  -0.000000   0.000000  -0.000000
    22  H    0.000000   0.000000  -0.000000   0.000000
    23  C    0.000000  -0.000000  -0.000000  -0.000000
    24  H    0.000000   0.000000   0.000000   0.000000
    25  H   -0.000000   0.000000  -0.000000  -0.000000
    26  C    0.000000  -0.000001   0.000000   0.000000
    27  H   -0.000000   0.000000   0.000000  -0.000000
    28  H   -0.000000   0.000000  -0.000000  -0.000000
 Mulliken charges and spin densities:
               1          2
     1  C   -0.210345  -0.000001
     2  C   -0.182403   0.000000
     3  H    0.142171   0.000000
     4  H    0.158194   0.000000
     5  C   -0.169176  -0.000001
     6  C   -0.182449   0.000000
     7  H    0.152435   0.000000
     8  H    0.158372  -0.000000
     9  C   -0.192623  -0.000001
    10  H    0.118133   0.000000
    11  H    0.133774   0.000000
    12  C   -0.156142   0.000000
    13  H    0.145664  -0.000000
    14  C   -0.210249   0.000001
    15  H    0.142165  -0.000000
    16  C   -0.175067   0.000000
    17  H    0.109923   0.000000
    18  H    0.125247  -0.000000
    19  C   -0.169028   0.000000
    20  H    0.152438  -0.000000
    21  C   -0.156098   0.000000
    22  H    0.145652   0.000000
    23  C   -0.192582   0.000001
    24  H    0.133682  -0.000000
    25  H    0.118143  -0.000000
    26  C   -0.175051  -0.000000
    27  H    0.125254   0.000000
    28  H    0.109964  -0.000000
 Sum of Mulliken charges =  -0.00000  -0.00000
 Mulliken charges and spin densities with hydrogens summed into heavy atoms:
               1          2
     1  C   -0.068174  -0.000001
     2  C   -0.024208   0.000000
     5  C   -0.016741  -0.000000
     6  C   -0.024077  -0.000000
     9  C    0.059284  -0.000000
    12  C   -0.010478  -0.000000
    14  C   -0.068084   0.000001
    16  C    0.060104   0.000000
    19  C   -0.016590  -0.000000
    21  C   -0.010446   0.000001
    23  C    0.059243   0.000000
    26  C    0.060167  -0.000000
 Electronic spatial extent (au):  <R**2>=           2328.1594
 Charge=             -0.0000 electrons
 Dipole moment (field-independent basis, Debye):
    X=             -0.0002    Y=              0.0003    Z=              0.0002  Tot=              0.0004
 Quadrupole moment (field-independent basis, Debye-Ang):
   XX=            -72.5806   YY=            -69.7834   ZZ=            -76.6919
   XY=             -3.2646   XZ=             -3.9059   YZ=             -1.7264
 Traceless Quadrupole moment (field-independent basis, Debye-Ang):
   XX=              0.4380   YY=              3.2352   ZZ=             -3.6733
   XY=             -3.2646   XZ=             -3.9059   YZ=             -1.7264
 Octapole moment (field-independent basis, Debye-Ang**2):
  XXX=             -0.0032  YYY=              0.0021  ZZZ=              0.0003  XYY=              0.0018
  XXY=              0.0014  XXZ=             -0.0002  XZZ=             -0.0016  YZZ=              0.0002
  YYZ=              0.0006  XYZ=             -0.0001
 Hexadecapole moment (field-independent basis, Debye-Ang**3):
 XXXX=          -2120.0123 YYYY=           -629.3327 ZZZZ=           -440.7544 XXXY=           -118.9315
 XXXZ=           -166.3782 YYYX=            -69.2057 YYYZ=             -8.5232 ZZZX=           -110.4105
 ZZZY=            -21.2723 XXYY=           -453.7688 XXZZ=           -446.1566 YYZZ=           -193.5437
 XXYZ=            -25.8851 YYXZ=            -39.6542 ZZXY=            -47.4915
 N-N= 6.724965287740D+02 E-N=-2.426737404082D+03  KE= 4.641551161508D+02
                          Isotropic Fermi Contact Couplings
        Atom                 a.u.       MegaHertz       Gauss      10(-4) cm-1
     1  C(13)             -0.00000      -0.00005      -0.00002      -0.00002
     2  C(13)             -0.00000      -0.00006      -0.00002      -0.00002
     3  H(1)               0.00000       0.00002       0.00001       0.00001
     4  H(1)               0.00000       0.00008       0.00003       0.00003
     5  C(13)             -0.00000      -0.00020      -0.00007      -0.00007
     6  C(13)              0.00000       0.00008       0.00003       0.00003
     7  H(1)               0.00000       0.00028       0.00010       0.00009
     8  H(1)              -0.00000      -0.00009      -0.00003      -0.00003
     9  C(13)             -0.00000      -0.00029      -0.00010      -0.00010
    10  H(1)               0.00000       0.00015       0.00005       0.00005
    11  H(1)               0.00000       0.00015       0.00005       0.00005
    12  C(13)              0.00000       0.00014       0.00005       0.00005
    13  H(1)              -0.00000      -0.00023      -0.00008      -0.00008
    14  C(13)              0.00000       0.00002       0.00001       0.00001
    15  H(1)              -0.00000      -0.00000      -0.00000      -0.00000
    16  C(13)              0.00000       0.00013       0.00005       0.00004
    17  H(1)              -0.00000      -0.00003      -0.00001      -0.00001
    18  H(1)              -0.00000      -0.00003      -0.00001      -0.00001
    19  C(13)              0.00000       0.00018       0.00006       0.00006
    20  H(1)              -0.00000      -0.00027      -0.00010      -0.00009
    21  C(13)             -0.00000      -0.00011      -0.00004      -0.00004
    22  H(1)               0.00000       0.00022       0.00008       0.00007
    23  C(13)              0.00000       0.00028       0.00010       0.00009
    24  H(1)              -0.00000      -0.00014      -0.00005      -0.00005
    25  H(1)              -0.00000      -0.00013      -0.00004      -0.00004
    26  C(13)             -0.00000      -0.00012      -0.00004      -0.00004
    27  H(1)               0.00000       0.00002       0.00001       0.00001
    28  H(1)               0.00000       0.00001       0.00000       0.00000
 --------------------------------------------------------
       Center         ----  Spin Dipole Couplings  ----
                      3XX-RR        3YY-RR        3ZZ-RR
 --------------------------------------------------------
     1   Atom       -0.000000      0.000001     -0.000000
     2   Atom        0.000000     -0.000000      0.000000
     3   Atom        0.000000      0.000000     -0.000000
     4   Atom       -0.000000     -0.000000      0.000000
     5   Atom       -0.000000     -0.000000      0.000001
     6   Atom       -0.000000      0.000000      0.000000
     7   Atom        0.000000     -0.000000      0.000000
     8   Atom        0.000000     -0.000000     -0.000000
     9   Atom       -0.000000      0.000000     -0.000000
    10   Atom        0.000000      0.000000     -0.000000
    11   Atom        0.000000     -0.000000      0.000000
    12   Atom        0.000000      0.000001     -0.000001
    13   Atom       -0.000000      0.000000     -0.000000
    14   Atom        0.000000     -0.000000     -0.000000
    15   Atom       -0.000000     -0.000000      0.000000
    16   Atom        0.000000     -0.000000      0.000000
    17   Atom        0.000000     -0.000000     -0.000000
    18   Atom        0.000000      0.000000     -0.000000
    19   Atom        0.000000      0.000000     -0.000001
    20   Atom       -0.000000      0.000000     -0.000000
    21   Atom       -0.000000     -0.000001      0.000001
    22   Atom        0.000000     -0.000000      0.000000
    23   Atom        0.000000     -0.000000      0.000000
    24   Atom       -0.000000      0.000000     -0.000000
    25   Atom       -0.000000     -0.000000      0.000000
    26   Atom       -0.000000      0.000000     -0.000000
    27   Atom        0.000000     -0.000000      0.000000
    28   Atom       -0.000000     -0.000000      0.000000
 --------------------------------------------------------
                        XY            XZ            YZ
 --------------------------------------------------------
     1   Atom        0.000000     -0.000001      0.000000
     2   Atom        0.000000      0.000001      0.000000
     3   Atom       -0.000000      0.000000      0.000000
     4   Atom       -0.000000     -0.000000      0.000000
     5   Atom        0.000000     -0.000000     -0.000000
     6   Atom       -0.000000     -0.000000      0.000000
     7   Atom        0.000000      0.000000     -0.000000
     8   Atom        0.000000      0.000000     -0.000000
     9   Atom       -0.000000      0.000000     -0.000000
    10   Atom        0.000000     -0.000000      0.000000
    11   Atom       -0.000000     -0.000000     -0.000000
    12   Atom        0.000000     -0.000000     -0.000000
    13   Atom        0.000000     -0.000000     -0.000000
    14   Atom       -0.000000      0.000001     -0.000000
    15   Atom        0.000000     -0.000000     -0.000000
    16   Atom       -0.000000     -0.000000     -0.000000
    17   Atom        0.000000      0.000000      0.000000
    18   Atom       -0.000000      0.000000     -0.000000
    19   Atom       -0.000000     -0.000000      0.000000
    20   Atom       -0.000000     -0.000000      0.000000
    21   Atom       -0.000000      0.000000      0.000000
    22   Atom       -0.000000      0.000000      0.000000
    23   Atom        0.000000     -0.000000      0.000000
    24   Atom        0.000000      0.000000      0.000000
    25   Atom       -0.000000      0.000000     -0.000000
    26   Atom        0.000000      0.000000      0.000000
    27   Atom        0.000000     -0.000000      0.000000
    28   Atom       -0.000000     -0.000000     -0.000000
 --------------------------------------------------------


 ---------------------------------------------------------------------------------
              Anisotropic Spin Dipole Couplings in Principal Axis System
 ---------------------------------------------------------------------------------

       Atom             a.u.   MegaHertz   Gauss  10(-4) cm-1        Axes

              Baa    -0.0000    -0.000    -0.000    -0.000  0.7322 -0.1291  0.6687
     1 C(13)  Bbb     0.0000     0.000     0.000     0.000  0.2065  0.9777 -0.0374
              Bcc     0.0000     0.000     0.000     0.000 -0.6490  0.1655  0.7426
 
              Baa    -0.0000    -0.000    -0.000    -0.000 -0.6562  0.3702  0.6576
     2 C(13)  Bbb    -0.0000    -0.000    -0.000    -0.000  0.0748  0.8990 -0.4314
              Bcc     0.0000     0.000     0.000     0.000  0.7509  0.2339  0.6176
 
              Baa    -0.0000    -0.000    -0.000    -0.000 -0.4260 -0.1779  0.8870
     3 H(1)   Bbb     0.0000     0.000     0.000     0.000  0.9011  0.0035  0.4335
              Bcc     0.0000     0.000     0.000     0.000 -0.0802  0.9840  0.1588
 
              Baa    -0.0000    -0.000    -0.000    -0.000  0.9262  0.3370  0.1694
     4 H(1)   Bbb    -0.0000    -0.000    -0.000    -0.000 -0.2785  0.9139 -0.2953
              Bcc     0.0000     0.000     0.000     0.000 -0.2543  0.2263  0.9403
 
              Baa    -0.0000    -0.000    -0.000    -0.000  0.7939 -0.6078  0.0177
     5 C(13)  Bbb    -0.0000    -0.000    -0.000    -0.000  0.5890  0.7761  0.2253
              Bcc     0.0000     0.000     0.000     0.000 -0.1507 -0.1685  0.9741
 
              Baa    -0.0000    -0.000    -0.000    -0.000  0.8590  0.2826  0.4269
     6 C(13)  Bbb     0.0000     0.000     0.000     0.000 -0.0996  0.9102 -0.4021
              Bcc     0.0000     0.000     0.000     0.000 -0.5022  0.3029  0.8100
 
              Baa    -0.0000    -0.000    -0.000    -0.000 -0.4960  0.8346  0.2396
     7 H(1)   Bbb     0.0000     0.000     0.000     0.000  0.8272  0.5381 -0.1618
              Bcc     0.0000     0.000     0.000     0.000  0.2639 -0.1180  0.9573
 
              Baa    -0.0000    -0.000    -0.000    -0.000 -0.1545  0.3146  0.9366
     8 H(1)   Bbb     0.0000     0.000     0.000     0.000 -0.1668  0.9261 -0.3385
              Bcc     0.0000     0.000     0.000     0.000  0.9738  0.2085  0.0906
 
              Baa    -0.0000    -0.000    -0.000    -0.000  0.9202  0.3120 -0.2364
     9 C(13)  Bbb    -0.0000    -0.000    -0.000    -0.000  0.1160  0.3593  0.9260
              Bcc     0.0000     0.000     0.000     0.000 -0.3738  0.8795 -0.2944
 
              Baa    -0.0000    -0.000    -0.000    -0.000  0.4633 -0.1835  0.8670
    10 H(1)   Bbb     0.0000     0.000     0.000     0.000 -0.5901  0.6660  0.4563
              Bcc     0.0000     0.000     0.000     0.000  0.6612  0.7230 -0.2002
 
              Baa    -0.0000    -0.000    -0.000    -0.000  0.5826  0.8060  0.1043
    11 H(1)   Bbb     0.0000     0.000     0.000     0.000 -0.4756  0.2340  0.8480
              Bcc     0.0000     0.000     0.000     0.000  0.6591 -0.5437  0.5196
 
              Baa    -0.0000    -0.000    -0.000    -0.000  0.1209  0.1001  0.9876
    12 C(13)  Bbb     0.0000     0.000     0.000     0.000  0.9114 -0.4055 -0.0704
              Bcc     0.0000     0.000     0.000     0.000  0.3934  0.9086 -0.1403
 
              Baa    -0.0000    -0.000    -0.000    -0.000  0.2309  0.1863  0.9550
    13 H(1)   Bbb    -0.0000    -0.000    -0.000    -0.000  0.9425 -0.2866 -0.1719
              Bcc     0.0000     0.000     0.000     0.000  0.2417  0.9397 -0.2418
 
              Baa    -0.0000    -0.000    -0.000    -0.000 -0.5583  0.1596  0.8142
    14 C(13)  Bbb    -0.0000    -0.000    -0.000    -0.000  0.2261  0.9734 -0.0358
              Bcc     0.0000     0.000     0.000     0.000  0.7982 -0.1641  0.5795
 
              Baa    -0.0000    -0.000    -0.000    -0.000 -0.0091  0.9798  0.1997
    15 H(1)   Bbb    -0.0000    -0.000    -0.000    -0.000  0.9419 -0.0587  0.3306
              Bcc     0.0000     0.000     0.000     0.000 -0.3357 -0.1911  0.9224
 
              Baa    -0.0000    -0.000    -0.000    -0.000  0.3072  0.8949  0.3237
    16 C(13)  Bbb    -0.0000    -0.000    -0.000    -0.000  0.6470 -0.4458  0.6186
              Bcc     0.0000     0.000     0.000     0.000 -0.6979 -0.0194  0.7159
 
              Baa    -0.0000    -0.000    -0.000    -0.000 -0.2585  0.7719 -0.5808
    17 H(1)   Bbb    -0.0000    -0.000    -0.000    -0.000  0.7704 -0.1980 -0.6060
              Bcc     0.0000     0.000     0.000     0.000  0.5827  0.6042  0.5435
 
              Baa    -0.0000    -0.000    -0.000    -0.000  0.5831  0.6336  0.5084
    18 H(1)   Bbb    -0.0000    -0.000    -0.000    -0.000 -0.5671 -0.1305  0.8132
              Bcc     0.0000     0.000     0.000     0.000 -0.5816  0.7625 -0.2833
 
              Baa    -0.0000    -0.000    -0.000    -0.000  0.0181 -0.0681  0.9975
    19 C(13)  Bbb     0.0000     0.000     0.000     0.000  0.8232  0.5673  0.0238
              Bcc     0.0000     0.000     0.000     0.000 -0.5675  0.8207  0.0664
 
              Baa    -0.0000    -0.000    -0.000    -0.000  0.4362 -0.0100  0.8998
    20 H(1)   Bbb    -0.0000    -0.000    -0.000    -0.000  0.7624  0.5352 -0.3636
              Bcc     0.0000     0.000     0.000     0.000 -0.4780  0.8447  0.2411
 
              Baa    -0.0000    -0.000    -0.000    -0.000  0.3317  0.9332 -0.1384
    21 C(13)  Bbb    -0.0000    -0.000    -0.000    -0.000  0.9194 -0.3526 -0.1744
              Bcc     0.0000     0.000     0.000     0.000  0.2116  0.0693  0.9749
 
              Baa    -0.0000    -0.000    -0.000    -0.000  0.1645  0.9618 -0.2189
    22 H(1)   Bbb     0.0000     0.000     0.000     0.000  0.9262 -0.2270 -0.3012
              Bcc     0.0000     0.000     0.000     0.000  0.3393  0.1532  0.9281
 
              Baa    -0.0000    -0.000    -0.000    -0.000 -0.3657  0.8848 -0.2887
    23 C(13)  Bbb     0.0000     0.000     0.000     0.000  0.0681  0.3348  0.9398
              Bcc     0.0000     0.000     0.000     0.000  0.9282  0.3240 -0.1827
 
              Baa    -0.0000    -0.000    -0.000    -0.000  0.6303 -0.5097  0.5856
    24 H(1)   Bbb    -0.0000    -0.000    -0.000    -0.000 -0.5333  0.2640  0.8037
              Bcc     0.0000     0.000     0.000     0.000  0.5642  0.8189  0.1054
 
              Baa    -0.0000    -0.000    -0.000    -0.000  0.7211  0.6434 -0.2568
    25 H(1)   Bbb    -0.0000    -0.000    -0.000    -0.000 -0.4998  0.7399  0.4504
              Bcc     0.0000     0.000     0.000     0.000  0.4798 -0.1964  0.8551
 
              Baa    -0.0000    -0.000    -0.000    -0.000 -0.6978 -0.0229  0.7160
    26 C(13)  Bbb     0.0000     0.000     0.000     0.000  0.6532 -0.4306  0.6228
              Bcc     0.0000     0.000     0.000     0.000  0.2941  0.9022  0.3155
 
              Baa    -0.0000    -0.000    -0.000    -0.000 -0.5384  0.7905 -0.2921
    27 H(1)   Bbb     0.0000     0.000     0.000     0.000 -0.6509 -0.1698  0.7400
              Bcc     0.0000     0.000     0.000     0.000  0.5353  0.5885  0.6059
 
              Baa    -0.0000    -0.000    -0.000    -0.000  0.5977  0.6522  0.4662
    28 H(1)   Bbb     0.0000     0.000     0.000     0.000 -0.6327  0.0266  0.7740
              Bcc     0.0000     0.000     0.000     0.000 -0.4924  0.7576 -0.4285
 

 ---------------------------------------------------------------------------------

 No NMR shielding tensors so no spin-rotation constants.
 Leave Link  601 at Mon Aug  3 14:22:49 2020, MaxMem=  6442450944 cpu:               7.9 elap:               0.4
 (Enter /scratch/scicomp/CentOS/7.3.1611/Haswell/software/Gaussian/g16/l9999.exe)
 1\1\GINC-ATLAS-205\SP\UwB97XD\def2TZVP\C12H16\BOCHEN\03-Aug-2020\0\\#p
  uwb97xd guess=mix def2tzvp # scrf=(iefpcm,solvent=Cyclohexane,read) n
 osym 6d 10f\\endo-2 xp-pcm for eta=3\\0,1\C,0,-3.12468,-0.440685,0.273
 036\C,0,-0.775792,-0.261985,-1.302176\H,0,-4.054066,-0.525819,0.82419\
 H,0,0.161604,-0.184531,-1.839436\C,0,1.198536,1.432924,0.834184\C,0,0.
 775792,0.261985,1.302176\H,0,0.608196,2.330179,0.977711\H,0,-0.161604,
 0.184531,1.839436\C,0,1.605227,-0.981794,1.161635\H,0,2.176937,-1.1082
 68,2.090145\H,0,0.956297,-1.855279,1.083849\C,0,2.471867,1.533139,0.11
 9408\H,0,2.871405,2.516926,-0.096077\C,0,3.12468,0.440685,-0.273036\H,
 0,4.054066,0.525819,-0.82419\C,0,2.563488,-0.934271,-0.032474\H,0,2.04
 3317,-1.256129,-0.942998\H,0,3.372415,-1.652191,0.115362\C,0,-1.198536
 ,-1.432924,-0.834184\H,0,-0.608196,-2.330179,-0.977711\C,0,-2.471867,-
 1.533139,-0.119408\H,0,-2.871405,-2.516926,0.096077\C,0,-1.605227,0.98
 1794,-1.161635\H,0,-0.956297,1.855279,-1.083849\H,0,-2.176937,1.108268
 ,-2.090145\C,0,-2.563488,0.934271,0.032474\H,0,-3.372415,1.652191,-0.1
 15362\H,0,-2.043317,1.256129,0.942998\\Version=ES64L-G16RevB.01\HF=-46
 6.8589735\S2=0.\S2-1=0.\S2A=0.\RMSD=9.578e-09\Dipole=-0.0000981,0.0001
 136,0.0000879\Quadrupole=0.3256597,2.4053133,-2.730973,-2.4271221,-2.9
 039476,-1.283554\PG=CI [X(C12H16)]\\@


 I WANT TO KNOW HOW GOD CREATED THE WORLD.  I AM NOT INTERESTED IN
 THIS OR THAT PHENOMENON, IN THE SPECTRUM OF THIS OR THAT ELEMENT.
 I WANT TO KNOW HIS THOUGHTS, THE REST ARE DETAILS.
     -- ALBERT EINSTEIN
 Job cpu time:       0 days  1 hours 58 minutes 16.3 seconds.
 Elapsed time:       0 days  0 hours  4 minutes 58.8 seconds.
 File lengths (MBytes):  RWF=    632 Int=      0 D2E=      0 Chk=     23 Scr=      1
 Normal termination of Gaussian 16 at Mon Aug  3 14:22:49 2020.
