 Entering Gaussian System, Link 0=g16
 Input=meso-TS_28_2_xp-Ger.com
 Output=meso-TS_28_2_xp-Ger.log
 Initial command:
 /scratch/scicomp/CentOS/7.3.1611/Haswell/software/Gaussian/g16/l1.exe "/scratch/bochen/cyclohexadiene-dimerization/wb97xd-def2tzvp/xp-pcm/meso/Gau-323819.inp" -scrdir="/scratch/bochen/cyclohexadiene-dimerization/wb97xd-def2tzvp/xp-pcm/meso/"
 Entering Link 1 = /scratch/scicomp/CentOS/7.3.1611/Haswell/software/Gaussian/g16/l1.exe PID=    323821.
  
 Copyright (c) 1988-2017, Gaussian, Inc.  All Rights Reserved.
  
 This is part of the Gaussian(R) 16 program.  It is based on
 the Gaussian(R) 09 system (copyright 2009, Gaussian, Inc.),
 the Gaussian(R) 03 system (copyright 2003, Gaussian, Inc.),
 the Gaussian(R) 98 system (copyright 1998, Gaussian, Inc.),
 the Gaussian(R) 94 system (copyright 1995, Gaussian, Inc.),
 the Gaussian 92(TM) system (copyright 1992, Gaussian, Inc.),
 the Gaussian 90(TM) system (copyright 1990, Gaussian, Inc.),
 the Gaussian 88(TM) system (copyright 1988, Gaussian, Inc.),
 the Gaussian 86(TM) system (copyright 1986, Carnegie Mellon
 University), and the Gaussian 82(TM) system (copyright 1983,
 Carnegie Mellon University). Gaussian is a federally registered
 trademark of Gaussian, Inc.
  
 This software contains proprietary and confidential information,
 including trade secrets, belonging to Gaussian, Inc.
  
 This software is provided under written license and may be
 used, copied, transmitted, or stored only in accord with that
 written license.
  
 The following legend is applicable only to US Government
 contracts under FAR:
  
                    RESTRICTED RIGHTS LEGEND
  
 Use, reproduction and disclosure by the US Government is
 subject to restrictions as set forth in subparagraphs (a)
 and (c) of the Commercial Computer Software - Restricted
 Rights clause in FAR 52.227-19.
  
 Gaussian, Inc.
 340 Quinnipiac St., Bldg. 40, Wallingford CT 06492
  
  
 ---------------------------------------------------------------
 Warning -- This program may not be used in any manner that
 competes with the business of Gaussian, Inc. or will provide
 assistance to any competitor of Gaussian, Inc.  The licensee
 of this program is prohibited from giving any competitor of
 Gaussian, Inc. access to this program.  By using this program,
 the user acknowledges that Gaussian, Inc. is engaged in the
 business of creating and licensing software in the field of
 computational chemistry and represents and warrants to the
 licensee that it is not a competitor of Gaussian, Inc. and that
 it will not use this program in any manner prohibited above.
 ---------------------------------------------------------------
  

 Cite this work as:
 Gaussian 16, Revision B.01,
 M. J. Frisch, G. W. Trucks, H. B. Schlegel, G. E. Scuseria, 
 M. A. Robb, J. R. Cheeseman, G. Scalmani, V. Barone, 
 G. A. Petersson, H. Nakatsuji, X. Li, M. Caricato, A. V. Marenich, 
 J. Bloino, B. G. Janesko, R. Gomperts, B. Mennucci, H. P. Hratchian, 
 J. V. Ortiz, A. F. Izmaylov, J. L. Sonnenberg, D. Williams-Young, 
 F. Ding, F. Lipparini, F. Egidi, J. Goings, B. Peng, A. Petrone, 
 T. Henderson, D. Ranasinghe, V. G. Zakrzewski, J. Gao, N. Rega, 
 G. Zheng, W. Liang, M. Hada, M. Ehara, K. Toyota, R. Fukuda, 
 J. Hasegawa, M. Ishida, T. Nakajima, Y. Honda, O. Kitao, H. Nakai, 
 T. Vreven, K. Throssell, J. A. Montgomery, Jr., J. E. Peralta, 
 F. Ogliaro, M. J. Bearpark, J. J. Heyd, E. N. Brothers, K. N. Kudin, 
 V. N. Staroverov, T. A. Keith, R. Kobayashi, J. Normand, 
 K. Raghavachari, A. P. Rendell, J. C. Burant, S. S. Iyengar, 
 J. Tomasi, M. Cossi, J. M. Millam, M. Klene, C. Adamo, R. Cammi, 
 J. W. Ochterski, R. L. Martin, K. Morokuma, O. Farkas, 
 J. B. Foresman, and D. J. Fox, Gaussian, Inc., Wallingford CT, 2016.
 
 ******************************************
 Gaussian 16:  ES64L-G16RevB.01 20-Dec-2017
                 4-Aug-2020 
 ******************************************
 %chk=meso-TS_28_2_xp-12.chk
 %nproc=24
 Will use up to   24 processors via shared memory.
 %mem=48GB
 ----------------------------------------------------------------------
 #p uwb97xd guess=mix def2tzvp # scrf=(iefpcm,solvent=Cyclohexane,read)
  nosym 6d 10f
 ----------------------------------------------------------------------
 1/38=1,40=2,172=1/1;
 2/12=2,15=1,17=6,18=5,40=1/2;
 3/5=44,7=101,8=22,11=2,25=1,30=1,70=2203,72=17,74=-58,116=2/1,2,3;
 4/13=-1/1;
 5/5=2,38=5,53=17/2;
 6/7=2,8=2,9=2,10=2,28=1/1;
 99/5=1,9=1/99;
 Leave Link    1 at Tue Aug  4 07:18:02 2020, MaxMem=  6442450944 cpu:               3.8 elap:               0.2
 (Enter /scratch/scicomp/CentOS/7.3.1611/Haswell/software/Gaussian/g16/l101.exe)
 -----------------------
 endo-2 xp-pcm for eta=3
 -----------------------
 Symbolic Z-matrix:
 Charge =  0 Multiplicity = 1
 6                    -3.12353  -0.43891   0.24991 
 6                    -0.63462  -0.22677  -1.08382 
 1                    -4.08532  -0.54607   0.73806 
 1                     0.33681  -0.13301  -1.54998 
 6                     1.10979   1.41431   0.71848 
 6                     0.63462   0.22677   1.08382 
 1                     0.51978   2.31293   0.84805 
 1                    -0.33681   0.13301   1.54998 
 6                     1.49593  -1.00113   1.02887 
 1                     1.97316  -1.08186   2.01369 
 1                     0.88732  -1.89688   0.91688 
 6                     2.431     1.52048   0.10688 
 1                     2.83816   2.50784  -0.07587 
 6                     3.12353   0.43891  -0.24991 
 1                     4.08532   0.54607  -0.73806 
 6                     2.58842  -0.952    -0.04451 
 1                     2.21616  -1.33308  -1.00351 
 1                     3.40067  -1.62475   0.23842 
 6                    -1.10979  -1.41431  -0.71848 
 1                    -0.51978  -2.31293  -0.84805 
 6                    -2.431    -1.52048  -0.10688 
 1                    -2.83816  -2.50784   0.07587 
 6                    -1.49593   1.00113  -1.02887 
 1                    -0.88732   1.89688  -0.91688 
 1                    -1.97316   1.08186  -2.01369 
 6                    -2.58842   0.952     0.04451 
 1                    -3.40067   1.62475  -0.23842 
 1                    -2.21616   1.33308   1.00351 
 
 ITRead=  0  0  0  0  0  0  0  0  0  0  0  0  0  0  0  0  0  0  0  0
 ITRead=  0  0  0  0  0  0  0  0
 MicOpt= -1 -1 -1 -1 -1 -1 -1 -1 -1 -1 -1 -1 -1 -1 -1 -1 -1 -1 -1 -1
 MicOpt= -1 -1 -1 -1 -1 -1 -1 -1
 NAtoms=     28 NQM=       28 NQMF=       0 NMMI=      0 NMMIF=      0
                NMic=       0 NMicF=      0.
                    Isotopes and Nuclear Properties:
 (Nuclear quadrupole moments (NQMom) in fm**2, nuclear magnetic moments (NMagM)
  in nuclear magnetons)

  Atom         1           2           3           4           5           6           7           8           9          10
 IAtWgt=          12          12           1           1          12          12           1           1          12           1
 AtmWgt=  12.0000000  12.0000000   1.0078250   1.0078250  12.0000000  12.0000000   1.0078250   1.0078250  12.0000000   1.0078250
 NucSpn=           0           0           1           1           0           0           1           1           0           1
 AtZEff=  -0.0000000  -0.0000000  -0.0000000  -0.0000000  -0.0000000  -0.0000000  -0.0000000  -0.0000000  -0.0000000  -0.0000000
 NQMom=    0.0000000   0.0000000   0.0000000   0.0000000   0.0000000   0.0000000   0.0000000   0.0000000   0.0000000   0.0000000
 NMagM=    0.0000000   0.0000000   2.7928460   2.7928460   0.0000000   0.0000000   2.7928460   2.7928460   0.0000000   2.7928460
 AtZNuc=   6.0000000   6.0000000   1.0000000   1.0000000   6.0000000   6.0000000   1.0000000   1.0000000   6.0000000   1.0000000

  Atom        11          12          13          14          15          16          17          18          19          20
 IAtWgt=           1          12           1          12           1          12           1           1          12           1
 AtmWgt=   1.0078250  12.0000000   1.0078250  12.0000000   1.0078250  12.0000000   1.0078250   1.0078250  12.0000000   1.0078250
 NucSpn=           1           0           1           0           1           0           1           1           0           1
 AtZEff=  -0.0000000  -0.0000000  -0.0000000  -0.0000000  -0.0000000  -0.0000000  -0.0000000  -0.0000000  -0.0000000  -0.0000000
 NQMom=    0.0000000   0.0000000   0.0000000   0.0000000   0.0000000   0.0000000   0.0000000   0.0000000   0.0000000   0.0000000
 NMagM=    2.7928460   0.0000000   2.7928460   0.0000000   2.7928460   0.0000000   2.7928460   2.7928460   0.0000000   2.7928460
 AtZNuc=   1.0000000   6.0000000   1.0000000   6.0000000   1.0000000   6.0000000   1.0000000   1.0000000   6.0000000   1.0000000

  Atom        21          22          23          24          25          26          27          28
 IAtWgt=          12           1          12           1           1          12           1           1
 AtmWgt=  12.0000000   1.0078250  12.0000000   1.0078250   1.0078250  12.0000000   1.0078250   1.0078250
 NucSpn=           0           1           0           1           1           0           1           1
 AtZEff=  -0.0000000  -0.0000000  -0.0000000  -0.0000000  -0.0000000  -0.0000000  -0.0000000  -0.0000000
 NQMom=    0.0000000   0.0000000   0.0000000   0.0000000   0.0000000   0.0000000   0.0000000   0.0000000
 NMagM=    0.0000000   2.7928460   0.0000000   2.7928460   2.7928460   0.0000000   2.7928460   2.7928460
 AtZNuc=   6.0000000   1.0000000   6.0000000   1.0000000   1.0000000   6.0000000   1.0000000   1.0000000
 Leave Link  101 at Tue Aug  4 07:18:02 2020, MaxMem=  6442450944 cpu:               2.4 elap:               0.1
 (Enter /scratch/scicomp/CentOS/7.3.1611/Haswell/software/Gaussian/g16/l202.exe)
                          Input orientation:                          
 ---------------------------------------------------------------------
 Center     Atomic      Atomic             Coordinates (Angstroms)
 Number     Number       Type             X           Y           Z
 ---------------------------------------------------------------------
      1          6           0       -3.123533   -0.438909    0.249907
      2          6           0       -0.634623   -0.226767   -1.083823
      3          1           0       -4.085324   -0.546070    0.738063
      4          1           0        0.336814   -0.133008   -1.549979
      5          6           0        1.109786    1.414310    0.718484
      6          6           0        0.634623    0.226767    1.083823
      7          1           0        0.519777    2.312927    0.848046
      8          1           0       -0.336814    0.133008    1.549979
      9          6           0        1.495934   -1.001134    1.028869
     10          1           0        1.973156   -1.081856    2.013692
     11          1           0        0.887322   -1.896884    0.916876
     12          6           0        2.431004    1.520477    0.106878
     13          1           0        2.838163    2.507840   -0.075868
     14          6           0        3.123533    0.438909   -0.249907
     15          1           0        4.085324    0.546070   -0.738063
     16          6           0        2.588421   -0.951995   -0.044511
     17          1           0        2.216156   -1.333084   -1.003507
     18          1           0        3.400666   -1.624754    0.238421
     19          6           0       -1.109786   -1.414310   -0.718484
     20          1           0       -0.519777   -2.312927   -0.848046
     21          6           0       -2.431004   -1.520477   -0.106878
     22          1           0       -2.838163   -2.507840    0.075868
     23          6           0       -1.495934    1.001134   -1.028869
     24          1           0       -0.887321    1.896884   -0.916876
     25          1           0       -1.973156    1.081856   -2.013692
     26          6           0       -2.588421    0.951995    0.044511
     27          1           0       -3.400666    1.624754   -0.238421
     28          1           0       -2.216156    1.333084    1.003507
 ---------------------------------------------------------------------
                    Distance matrix (angstroms):
                    1          2          3          4          5
     1  C    0.000000
     2  C    2.831698   0.000000
     3  H    1.083892   3.915171   0.000000
     4  H    3.912437   1.081565   4.996105   0.000000
     5  C    4.644887   2.997400   5.552715   2.852648   0.000000
     6  C    3.906696   2.552522   4.795282   2.674891   1.330230
     7  H    4.604789   3.393347   5.421523   3.430247   1.082779
     8  H    3.127791   2.674891   3.895084   3.183438   2.103751
     9  C    4.718300   3.098772   5.607325   2.957644   2.465729
    10  H    5.431442   4.138392   6.214457   4.034561   2.941737
    11  H    4.319432   3.018013   5.155956   3.082157   3.324583
    12  C    5.891734   3.724070   6.865242   3.140831   1.459777
    13  H    6.658174   4.533684   7.610750   3.924771   2.194103
    14  C    6.328208   3.906696   7.342608   3.127791   2.438107
    15  H    7.342608   4.795282   8.374438   3.895084   3.424791
    16  C    5.742504   3.463255   6.731721   2.829648   2.892736
    17  H    5.557236   3.058975   6.584915   2.295809   3.426001
    18  H    6.631103   4.470599   7.579792   3.848489   3.835949
    19  C    2.438107   1.330230   3.424791   2.103751   3.872011
    20  H    3.390721   2.102580   4.283766   2.445098   4.359104
    21  C    1.332922   2.419730   2.097658   3.415908   4.672407
    22  H    2.095758   3.376946   2.417117   4.285287   5.602010
    23  C    2.521521   1.500872   3.495830   2.217386   3.164448
    24  H    3.437725   2.145139   4.351330   2.453526   2.625970
    25  H    2.959725   2.090173   3.831912   2.650827   4.132777
    26  C    1.504376   2.545573   2.228437   3.503802   3.787441
    27  H    2.138685   3.434214   2.476844   4.333436   4.615640
    28  H    2.128663   3.048168   2.663732   3.897098   3.339121
                    6          7          8          9         10
     6  C    0.000000
     7  H    2.102580   0.000000
     8  H    1.081565   2.445098   0.000000
     9  C    1.500872   3.459564   2.217386   0.000000
    10  H    2.090173   3.872414   2.650827   1.097330   0.000000
    11  H    2.145139   4.226386   2.453526   1.088724   1.745369
    12  C    2.419730   2.197748   3.415908   2.843052   3.258481
    13  H    3.376946   2.503302   4.285287   3.915983   4.242690
    14  C    2.831698   3.390721   3.912437   2.521521   2.959725
    15  H    3.915171   4.283766   4.996105   3.495830   3.831912
    16  C    2.545573   3.966820   3.503802   1.532347   2.152119
    17  H    3.048168   4.427115   3.897098   2.181619   3.037376
    18  H    3.434214   4.916960   4.333436   2.154464   2.341818
    19  C    2.997400   4.359104   2.852648   3.164448   4.132777
    20  H    3.393347   5.035467   3.430247   3.050689   3.989962
    21  C    3.724070   4.930920   3.140831   4.120738   4.907732
    22  H    4.533684   5.925522   3.924771   4.686445   5.379348
    23  C    3.098772   3.050689   2.957644   4.146642   5.062668
    24  H    3.018013   2.295205   3.082157   4.226622   5.063936
    25  H    4.138392   3.989962   4.034561   5.062668   6.039441
    26  C    3.463255   3.486933   2.829648   4.633101   5.368632
    27  H    4.470599   4.125999   3.848489   5.698948   6.424618
    28  H    3.058975   2.910256   2.295809   4.385069   4.939913
                   11         12         13         14         15
    11  H    0.000000
    12  C    3.836327   0.000000
    13  H    4.918629   1.083541   0.000000
    14  C    3.437725   1.332922   2.095758   0.000000
    15  H    4.351329   2.097658   2.417117   1.083892   0.000000
    16  C    2.170442   2.482099   3.468979   1.504376   2.228437
    17  H    2.402403   3.069515   4.000013   2.128663   2.663732
    18  H    2.617490   3.293938   4.182526   2.138685   2.476844
    19  C    2.625970   4.672407   5.602010   4.644887   5.552715
    20  H    2.295206   4.930920   5.925522   4.604789   5.421523
    21  C    3.492999   5.738660   6.632678   5.891734   6.865242
    22  H    3.867790   6.632678   7.576328   6.658174   7.610750
    23  C    4.226623   4.120738   4.686445   4.718300   5.607325
    24  H    4.572164   3.492998   3.867789   4.319432   5.155955
    25  H    5.063937   4.907732   5.379348   5.431442   6.214457
    26  C    4.577982   5.051900   5.646500   5.742504   6.731721
    27  H    5.667759   5.842814   6.303114   6.631103   7.579792
    28  H    4.480153   4.736576   5.300117   5.557236   6.584915
                   16         17         18         19         20
    16  C    0.000000
    17  H    1.097034   0.000000
    18  H    1.091969   1.740839   0.000000
    19  C    3.787441   3.339121   4.615640   0.000000
    20  H    3.486933   2.910256   4.125999   1.082779   0.000000
    21  C    5.051900   4.736576   5.842814   1.459777   2.197748
    22  H    5.646500   5.300117   6.303114   2.194103   2.503302
    23  C    4.633101   4.385069   5.698948   2.465729   3.459564
    24  H    4.577982   4.480153   5.667758   3.324584   4.226386
    25  H    5.368632   4.939913   6.424618   2.941737   3.872414
    26  C    5.516593   5.422535   6.522760   2.892736   3.966820
    27  H    6.522760   6.393970   7.552801   3.835949   4.916960
    28  H    5.422535   5.548148   6.393970   3.426001   4.427115
                   21         22         23         24         25
    21  C    0.000000
    22  H    1.083541   0.000000
    23  C    2.843052   3.915983   0.000000
    24  H    3.836328   4.918630   1.088724   0.000000
    25  H    3.258481   4.242690   1.097330   1.745369   0.000000
    26  C    2.482099   3.468979   1.532347   2.170443   2.152119
    27  H    3.293938   4.182526   2.154464   2.617491   2.341818
    28  H    3.069515   4.000013   2.181619   2.402404   3.037376
                   26         27         28
    26  C    0.000000
    27  H    1.091969   0.000000
    28  H    1.097034   1.740839   0.000000
 Symmetry turned off by external request.
 Stoichiometry    C12H16
 Framework group  CI[X(C12H16)]
 Deg. of freedom    39
 Full point group                 CI      NOp   2
 Rotational constants (GHZ):           1.8568539           0.6178971           0.5458048
 Leave Link  202 at Tue Aug  4 07:18:02 2020, MaxMem=  6442450944 cpu:               0.3 elap:               0.0
 (Enter /scratch/scicomp/CentOS/7.3.1611/Haswell/software/Gaussian/g16/l301.exe)
 Standard basis: def2TZVP (6D, 10F)
 Ernie: Thresh=  0.10000D-02 Tol=  0.10000D-05 Strict=F.
   528 basis functions,   740 primitive gaussians,   528 cartesian basis functions
    44 alpha electrons       44 beta electrons
       nuclear repulsion energy       684.7740105640 Hartrees.
 IExCor= 4639 DFT=T Ex+Corr=wB97XD ExCW=0 ScaHFX=  1.000000
 ScaDFX=  1.000000  1.000000  1.000000  1.000000 ScalE2=  1.000000  1.000000
 IRadAn=      5 IRanWt=     -1 IRanGd=            0 ICorTp=0 IEmpDi=121
 HFx  wShort=  0.000000 wLong=  0.200000 cFull=  0.222036 cShort=  0.000000 cLong=  0.777964
 DFx  wShort=  0.000000 wLong=  0.200000 cFull=  0.000000 cShort=  0.000000 cLong=  1.000000
 NAtoms=   28 NActive=   28 NUniq=   28 SFac= 1.00D+00 NAtFMM=   60 NAOKFM=F Big=F
 Integral buffers will be    131072 words long.
 Raffenetti 2 integral format.
 Two-electron integral symmetry is turned off.
 R6Disp:  Grimme-D2 Dispersion energy=       -0.0228986096 Hartrees.
 Nuclear repulsion after empirical dispersion term =      684.7511119544 Hartrees.
 Using the following non-standard input for PCM:
 qrep pcmdoc geomview  nodis nocav g03defaults tsare=0.075
 Warning! Using old PCM defaults because the g03defaults keyword was found.
 These settings can be overridden by following keywords.
 nsfe=28
 NVESolv=36  SolvMW=84.1595   Rsolv=2.815
 eps=2.0165 RhoS=0.778099999999998
 --- end of non-standard input.
 Reading user-defined spheres from input:
 ISph  on   Nord    Re0     Alpha      Xe            Ye            Ze
 --- end of user-defined spheres data.
 ------------------------------------------------------------------------------
 Polarizable Continuum Model (PCM)
 =================================
 Model                : PCM.
 Atomic radii         : UA0 (Simple United Atom Topological Model).
 Polarization charges : Total charges.
 Charge compensation  : None.
 Solution method      : On-the-fly selection.
 Cavity type          : SES (Solvent Excluding Surface) (Alpha=1.000).
 Cavity algorithm     : GePol (RMin=0.200 OFac=0.890).
                        User-defined sphere list used, NSphG=   28.
                        Tesserae with average area of 0.075 Ang**2.
                        Smoothing algorithm: None.
                        Polarization charges: point-like.
                        Self-potential: constant (ISelfS= 1).
                        Self-field    : global E.n sum rule (ISelfD= 3).
 Solvent              : CycloHexane, Eps=   2.016500 Eps(inf)=   2.035188
                        RSolv=   2.815000 Ang.
 ------------------------------------------------------------------------------
 GePol: Number of generator spheres                  =      28
 GePol: Total number of spheres                      =     175
 GePol: Number of exposed spheres                    =     124 ( 70.86%)
 GePol: Number of tesserae                           =    4605
 GePol: Average area of tesserae                     =       0.05 Ang**2
 GePol: Minimum area of tessera                      =   0.10D-02 Ang**2
 GePol: Maximum area of tessera                      =    0.12433 Ang**2
 GePol: Number of small tesserae                     =       0
 GePol: Fraction of small tesserae (<1% of avg)      =       0.00%
 GePol: Total count of vertices                      =   16287
 GePol: Maximum number of vertices in a tessera      =       7
 GePol: Cavity surface area                          =    219.490 Ang**2
 GePol: Cavity volume                                =    247.883 Ang**3
 Leave Link  301 at Tue Aug  4 07:18:03 2020, MaxMem=  6442450944 cpu:               7.2 elap:               0.3
 (Enter /scratch/scicomp/CentOS/7.3.1611/Haswell/software/Gaussian/g16/l302.exe)
 NPDir=0 NMtPBC=     1 NCelOv=     1 NCel=       1 NClECP=     1 NCelD=      1
         NCelK=      1 NCelE2=     1 NClLst=     1 CellRange=     0.0.
 One-electron integrals computed using PRISM.
   1 Symmetry operations used in ECPInt.
 ECPInt:  NShTT=   19306 NPrTT=   56928 LenC2=   18504 LenP2D=   42112.
 LDataN:  DoStor=T MaxTD1= 6 Len=  172
 NBasis=   528 RedAO= T EigKep=  1.79D-05  NBF=   528
 NBsUse=   528 1.00D-06 EigRej= -1.00D+00 NBFU=   528
 Precomputing XC quadrature grid using
 IXCGrd= 4 IRadAn=           5 IRanWt=          -1 IRanGd=           0 AccXCQ= 0.00D+00.
 Generated NRdTot=       0 NPtTot=           0 NUsed=           0 NTot=          32
 NSgBfM=   526   526   526   526   526 MxSgAt=    28 MxSgA2=    28.
 Leave Link  302 at Tue Aug  4 07:18:03 2020, MaxMem=  6442450944 cpu:              12.7 elap:               0.6
 (Enter /scratch/scicomp/CentOS/7.3.1611/Haswell/software/Gaussian/g16/l303.exe)
 DipDrv:  MaxL=1.
 Leave Link  303 at Tue Aug  4 07:18:04 2020, MaxMem=  6442450944 cpu:               1.5 elap:               0.1
 (Enter /scratch/scicomp/CentOS/7.3.1611/Haswell/software/Gaussian/g16/l401.exe)
 ExpMin= 9.52D-02 ExpMax= 1.36D+04 ExpMxC= 4.63D+02 IAcc=3 IRadAn=         5 AccDes= 0.00D+00
 Harris functional with IExCor= 4639 and IRadAn=       5 diagonalized for initial guess.
 HarFok:  IExCor= 4639 AccDes= 0.00D+00 IRadAn=         5 IDoV= 1 UseB2=F ITyADJ=14
 ICtDFT=  3500011 ScaDFX=  1.000000  1.000000  1.000000  1.000000
 FoFCou: FMM=F IPFlag=           0 FMFlag=      100000 FMFlg1=           0
         NFxFlg=           0 DoJE=T BraDBF=F KetDBF=T FulRan=T
         wScrn=  0.000000 ICntrl=       500 IOpCl=  0 I1Cent=   200000004 NGrid=           0
         NMat0=    1 NMatS0=      1 NMatT0=    0 NMatD0=    1 NMtDS0=    0 NMtDT0=    0
 Symmetry not used in FoFCou.
 Harris En= -444.643306020820    
 JPrj=0 DoOrth=F DoCkMO=T.
 Mixing orbitals, IMix= 1 IMixAn=  0 NRI=1 NE=   44 Coef=  7.07106781D-01  7.07106781D-01
 Mixing orbitals, IMix= 1 IMixAn=  0 NRI=1 NE=   44 Coef= -7.07106781D-01  7.07106781D-01
 Initial guess <Sx>= 0.0000 <Sy>= 0.0000 <Sz>= 0.0000 <S**2>= 1.0000 S= 0.6180
 Leave Link  401 at Tue Aug  4 07:18:06 2020, MaxMem=  6442450944 cpu:              48.4 elap:               2.1
 (Enter /scratch/scicomp/CentOS/7.3.1611/Haswell/software/Gaussian/g16/l502.exe)
 Two-electron integral symmetry not used.
 UHF open shell SCF:
 Using DIIS extrapolation, IDIIS=  1040.
 NGot=  6442450944 LenX=  6441877030 LenY=  6441597718
 Requested convergence on RMS density matrix=1.00D-08 within 128 cycles.
 Requested convergence on MAX density matrix=1.00D-06.
 Requested convergence on             energy=1.00D-06.
 No special actions if energy rises.
 Fock matrices will be formed incrementally for  20 cycles.

 Cycle   1  Pass 1  IDiag  1:
 FoFJK:  IHMeth= 1 ICntrl=       0 DoSepK=T KAlg= 0 I1Cent=           0 FoldK=F
 IRaf=         1 NMat=       1 IRICut=       1 DoRegI=T DoRafI=F ISym2E= 0 IDoP0=0 IntGTp=1.
 FoFCou: FMM=F IPFlag=           0 FMFlag=      100000 FMFlg1=           0
         NFxFlg=           0 DoJE=T BraDBF=F KetDBF=F FulRan=T
         wScrn=  0.000000 ICntrl=       500 IOpCl=  0 I1Cent=           0 NGrid=           0
         NMat0=    1 NMatS0=      1 NMatT0=    0 NMatD0=    1 NMtDS0=    0 NMtDT0=    0
 Symmetry not used in FoFCou.
 Inv3:  Mode=1 IEnd=    63618075.
 Iteration    1 A*A^-1 deviation from unit magnitude is 1.09D-14 for    272.
 Iteration    1 A*A^-1 deviation from orthogonality  is 4.03D-15 for    272     92.
 Iteration    1 A^-1*A deviation from unit magnitude is 5.55D-15 for    272.
 Iteration    1 A^-1*A deviation from orthogonality  is 2.66D-15 for    272     93.
 E= -466.577946191753    
 DIIS: error= 5.73D-02 at cycle   1 NSaved=   1.
 NSaved= 1 IEnMin= 1 EnMin= -466.577946191753     IErMin= 1 ErrMin= 5.73D-02
 ErrMax= 5.73D-02  0.00D+00 EMaxC= 1.00D-01 BMatC= 4.11D+00 BMatP= 4.11D+00
 IDIUse=3 WtCom= 4.27D-01 WtEn= 5.73D-01
 Coeff-Com:  0.100D+01
 Coeff-En:   0.100D+01
 Coeff:      0.100D+01
 Gap=     0.187 Goal=   None    Shift=    0.000
 Gap=     0.187 Goal=   None    Shift=    0.000
 GapD=    0.187 DampG=1.000 DampE=0.500 DampFc=0.5000 IDamp=-1.
 Damping current iteration by 5.00D-01
 RMSDP=1.69D-03 MaxDP=9.23D-02              OVMax= 3.15D-01

 Cycle   2  Pass 1  IDiag  1:
 RMSU=  8.18D-04    CP:  9.68D-01
 E= -466.681653161324     Delta-E=       -0.103706969570 Rises=F Damp=T
 DIIS: error= 2.72D-02 at cycle   2 NSaved=   2.
 NSaved= 2 IEnMin= 2 EnMin= -466.681653161324     IErMin= 2 ErrMin= 2.72D-02
 ErrMax= 2.72D-02  0.00D+00 EMaxC= 1.00D-01 BMatC= 9.33D-01 BMatP= 4.11D+00
 IDIUse=3 WtCom= 7.28D-01 WtEn= 2.72D-01
 Coeff-Com: -0.868D+00 0.187D+01
 Coeff-En:   0.000D+00 0.100D+01
 Coeff:     -0.632D+00 0.163D+01
 Gap=     0.264 Goal=   None    Shift=    0.000
 Gap=     0.264 Goal=   None    Shift=    0.000
 RMSDP=1.20D-03 MaxDP=4.92D-02 DE=-1.04D-01 OVMax= 1.34D-01

 Cycle   3  Pass 1  IDiag  1:
 RMSU=  6.16D-04    CP:  9.21D-01  2.20D+00
 E= -466.814946704979     Delta-E=       -0.133293543655 Rises=F Damp=F
 DIIS: error= 7.61D-03 at cycle   3 NSaved=   3.
 NSaved= 3 IEnMin= 3 EnMin= -466.814946704979     IErMin= 3 ErrMin= 7.61D-03
 ErrMax= 7.61D-03  0.00D+00 EMaxC= 1.00D-01 BMatC= 2.29D-02 BMatP= 9.33D-01
 IDIUse=3 WtCom= 9.24D-01 WtEn= 7.61D-02
 Coeff-Com: -0.312D+00 0.670D+00 0.642D+00
 Coeff-En:   0.000D+00 0.000D+00 0.100D+01
 Coeff:     -0.288D+00 0.619D+00 0.669D+00
 Gap=     0.284 Goal=   None    Shift=    0.000
 Gap=     0.284 Goal=   None    Shift=    0.000
 RMSDP=2.42D-04 MaxDP=1.25D-02 DE=-1.33D-01 OVMax= 6.77D-02

 Cycle   4  Pass 1  IDiag  1:
 RMSU=  2.24D-04    CP:  9.12D-01  2.29D+00  1.00D+00
 E= -466.825821075067     Delta-E=       -0.010874370087 Rises=F Damp=F
 DIIS: error= 5.18D-03 at cycle   4 NSaved=   4.
 NSaved= 4 IEnMin= 4 EnMin= -466.825821075067     IErMin= 4 ErrMin= 5.18D-03
 ErrMax= 5.18D-03  0.00D+00 EMaxC= 1.00D-01 BMatC= 2.18D-03 BMatP= 2.29D-02
 IDIUse=3 WtCom= 9.48D-01 WtEn= 5.18D-02
 Coeff-Com:  0.124D+00-0.265D+00-0.533D-01 0.119D+01
 Coeff-En:   0.000D+00 0.000D+00 0.000D+00 0.100D+01
 Coeff:      0.117D+00-0.251D+00-0.506D-01 0.118D+01
 Gap=     0.295 Goal=   None    Shift=    0.000
 Gap=     0.295 Goal=   None    Shift=    0.000
 RMSDP=2.36D-04 MaxDP=1.07D-02 DE=-1.09D-02 OVMax= 8.07D-02

 Cycle   5  Pass 1  IDiag  1:
 RMSU=  9.62D-05    CP:  9.05D-01  2.35D+00  1.24D+00  1.65D+00
 E= -466.830870553146     Delta-E=       -0.005049478080 Rises=F Damp=F
 DIIS: error= 2.68D-03 at cycle   5 NSaved=   5.
 NSaved= 5 IEnMin= 5 EnMin= -466.830870553146     IErMin= 5 ErrMin= 2.68D-03
 ErrMax= 2.68D-03  0.00D+00 EMaxC= 1.00D-01 BMatC= 1.06D-03 BMatP= 2.18D-03
 IDIUse=3 WtCom= 9.73D-01 WtEn= 2.68D-02
 Coeff-Com:  0.836D-01-0.180D+00-0.997D-01 0.469D+00 0.726D+00
 Coeff-En:   0.000D+00 0.000D+00 0.000D+00 0.000D+00 0.100D+01
 Coeff:      0.814D-01-0.175D+00-0.970D-01 0.457D+00 0.734D+00
 Gap=     0.298 Goal=   None    Shift=    0.000
 Gap=     0.298 Goal=   None    Shift=    0.000
 RMSDP=9.77D-05 MaxDP=4.60D-03 DE=-5.05D-03 OVMax= 3.41D-02

 Cycle   6  Pass 1  IDiag  1:
 RMSU=  3.55D-05    CP:  9.03D-01  2.35D+00  1.29D+00  1.98D+00  1.40D+00
 E= -466.832503941224     Delta-E=       -0.001633388077 Rises=F Damp=F
 DIIS: error= 1.89D-03 at cycle   6 NSaved=   6.
 NSaved= 6 IEnMin= 6 EnMin= -466.832503941224     IErMin= 6 ErrMin= 1.89D-03
 ErrMax= 1.89D-03  0.00D+00 EMaxC= 1.00D-01 BMatC= 5.60D-04 BMatP= 1.06D-03
 IDIUse=3 WtCom= 9.81D-01 WtEn= 1.89D-02
 Coeff-Com: -0.684D-01 0.147D+00 0.578D-01-0.496D+00-0.704D-02 0.137D+01
 Coeff-En:   0.000D+00 0.000D+00 0.000D+00 0.000D+00 0.000D+00 0.100D+01
 Coeff:     -0.671D-01 0.144D+00 0.567D-01-0.486D+00-0.691D-02 0.136D+01
 Gap=     0.295 Goal=   None    Shift=    0.000
 Gap=     0.295 Goal=   None    Shift=    0.000
 RMSDP=1.14D-04 MaxDP=4.51D-03 DE=-1.63D-03 OVMax= 4.11D-02

 Cycle   7  Pass 1  IDiag  1:
 RMSU=  3.27D-05    CP:  9.00D-01  2.35D+00  1.34D+00  2.29D+00  2.09D+00
                    CP:  2.07D+00
 E= -466.834217799361     Delta-E=       -0.001713858138 Rises=F Damp=F
 DIIS: error= 1.28D-03 at cycle   7 NSaved=   7.
 NSaved= 7 IEnMin= 7 EnMin= -466.834217799361     IErMin= 7 ErrMin= 1.28D-03
 ErrMax= 1.28D-03  0.00D+00 EMaxC= 1.00D-01 BMatC= 3.14D-04 BMatP= 5.60D-04
 IDIUse=3 WtCom= 9.87D-01 WtEn= 1.28D-02
 Coeff-Com: -0.218D-01 0.473D-01 0.459D-01 0.484D-01-0.548D+00-0.883D+00
 Coeff-Com:  0.231D+01
 Coeff-En:   0.000D+00 0.000D+00 0.000D+00 0.000D+00 0.000D+00 0.000D+00
 Coeff-En:   0.100D+01
 Coeff:     -0.215D-01 0.467D-01 0.453D-01 0.478D-01-0.541D+00-0.872D+00
 Coeff:      0.229D+01
 Gap=     0.294 Goal=   None    Shift=    0.000
 Gap=     0.294 Goal=   None    Shift=    0.000
 RMSDP=1.58D-04 MaxDP=7.23D-03 DE=-1.71D-03 OVMax= 5.93D-02

 Cycle   8  Pass 1  IDiag  1:
 RMSU=  4.65D-05    CP:  8.97D-01  2.34D+00  1.39D+00  2.66D+00  3.00D+00
                    CP:  3.00D+00  2.84D+00
 E= -466.835938978449     Delta-E=       -0.001721179088 Rises=F Damp=F
 DIIS: error= 5.70D-04 at cycle   8 NSaved=   8.
 NSaved= 8 IEnMin= 8 EnMin= -466.835938978449     IErMin= 8 ErrMin= 5.70D-04
 ErrMax= 5.70D-04  0.00D+00 EMaxC= 1.00D-01 BMatC= 1.06D-04 BMatP= 3.14D-04
 IDIUse=3 WtCom= 9.94D-01 WtEn= 5.70D-03
 Coeff-Com:  0.322D-01-0.692D-01-0.142D-01 0.335D+00-0.169D+00-0.111D+01
 Coeff-Com:  0.775D+00 0.122D+01
 Coeff-En:   0.000D+00 0.000D+00 0.000D+00 0.000D+00 0.000D+00 0.000D+00
 Coeff-En:   0.000D+00 0.100D+01
 Coeff:      0.320D-01-0.688D-01-0.142D-01 0.334D+00-0.168D+00-0.110D+01
 Coeff:      0.771D+00 0.122D+01
 Gap=     0.296 Goal=   None    Shift=    0.000
 Gap=     0.296 Goal=   None    Shift=    0.000
 RMSDP=1.00D-04 MaxDP=4.79D-03 DE=-1.72D-03 OVMax= 3.83D-02

 Cycle   9  Pass 1  IDiag  1:
 RMSU=  6.60D-05    CP:  8.95D-01  2.34D+00  1.41D+00  2.84D+00  3.00D+00
                    CP:  3.00D+00  3.00D+00  2.18D+00
 E= -466.836456443756     Delta-E=       -0.000517465307 Rises=F Damp=F
 DIIS: error= 2.12D-04 at cycle   9 NSaved=   9.
 NSaved= 9 IEnMin= 9 EnMin= -466.836456443756     IErMin= 9 ErrMin= 2.12D-04
 ErrMax= 2.12D-04  0.00D+00 EMaxC= 1.00D-01 BMatC= 2.41D-05 BMatP= 1.06D-04
 IDIUse=3 WtCom= 9.98D-01 WtEn= 2.12D-03
 Coeff-Com:  0.212D-01-0.457D-01-0.170D-01 0.155D+00 0.408D-01-0.328D+00
 Coeff-Com: -0.139D+00 0.498D+00 0.815D+00
 Coeff-En:   0.000D+00 0.000D+00 0.000D+00 0.000D+00 0.000D+00 0.000D+00
 Coeff-En:   0.000D+00 0.000D+00 0.100D+01
 Coeff:      0.212D-01-0.456D-01-0.170D-01 0.154D+00 0.407D-01-0.328D+00
 Coeff:     -0.138D+00 0.497D+00 0.815D+00
 Gap=     0.296 Goal=   None    Shift=    0.000
 Gap=     0.296 Goal=   None    Shift=    0.000
 RMSDP=3.07D-05 MaxDP=1.52D-03 DE=-5.17D-04 OVMax= 1.18D-02

 Cycle  10  Pass 1  IDiag  1:
 RMSU=  7.17D-06    CP:  8.95D-01  2.34D+00  1.42D+00  2.89D+00  3.00D+00
                    CP:  3.00D+00  3.00D+00  2.56D+00  1.31D+00
 E= -466.836516473619     Delta-E=       -0.000060029863 Rises=F Damp=F
 DIIS: error= 1.03D-04 at cycle  10 NSaved=  10.
 NSaved=10 IEnMin=10 EnMin= -466.836516473619     IErMin=10 ErrMin= 1.03D-04
 ErrMax= 1.03D-04  0.00D+00 EMaxC= 1.00D-01 BMatC= 3.59D-06 BMatP= 2.41D-05
 IDIUse=3 WtCom= 9.99D-01 WtEn= 1.03D-03
 Coeff-Com: -0.164D-02 0.358D-02-0.855D-03-0.368D-01 0.377D-01 0.155D+00
 Coeff-Com: -0.159D+00-0.218D+00 0.901D-01 0.113D+01
 Coeff-En:   0.000D+00 0.000D+00 0.000D+00 0.000D+00 0.000D+00 0.000D+00
 Coeff-En:   0.000D+00 0.000D+00 0.000D+00 0.100D+01
 Coeff:     -0.164D-02 0.358D-02-0.855D-03-0.368D-01 0.376D-01 0.155D+00
 Coeff:     -0.159D+00-0.218D+00 0.900D-01 0.113D+01
 Gap=     0.295 Goal=   None    Shift=    0.000
 Gap=     0.295 Goal=   None    Shift=    0.000
 RMSDP=1.71D-05 MaxDP=7.21D-04 DE=-6.00D-05 OVMax= 6.53D-03

 Cycle  11  Pass 1  IDiag  1:
 RMSU=  4.03D-06    CP:  8.94D-01  2.34D+00  1.43D+00  2.92D+00  3.00D+00
                    CP:  3.00D+00  3.00D+00  2.76D+00  1.48D+00  1.60D+00
 E= -466.836527696502     Delta-E=       -0.000011222883 Rises=F Damp=F
 DIIS: error= 3.06D-05 at cycle  11 NSaved=  11.
 NSaved=11 IEnMin=11 EnMin= -466.836527696502     IErMin=11 ErrMin= 3.06D-05
 ErrMax= 3.06D-05  0.00D+00 EMaxC= 1.00D-01 BMatC= 7.89D-07 BMatP= 3.59D-06
 IDIUse=1 WtCom= 1.00D+00 WtEn= 0.00D+00
 Coeff-Com: -0.264D-02 0.570D-02 0.144D-02-0.282D-01 0.773D-02 0.822D-01
 Coeff-Com: -0.304D-01-0.136D+00-0.721D-01 0.430D+00 0.742D+00
 Coeff:     -0.264D-02 0.570D-02 0.144D-02-0.282D-01 0.773D-02 0.822D-01
 Coeff:     -0.304D-01-0.136D+00-0.721D-01 0.430D+00 0.742D+00
 Gap=     0.295 Goal=   None    Shift=    0.000
 Gap=     0.295 Goal=   None    Shift=    0.000
 RMSDP=3.46D-06 MaxDP=1.48D-04 DE=-1.12D-05 OVMax= 1.23D-03

 Cycle  12  Pass 1  IDiag  1:
 RMSU=  1.15D-06    CP:  8.94D-01  2.34D+00  1.43D+00  2.92D+00  3.00D+00
                    CP:  3.00D+00  3.00D+00  2.79D+00  1.51D+00  1.76D+00
                    CP:  1.22D+00
 E= -466.836528386470     Delta-E=       -0.000000689968 Rises=F Damp=F
 DIIS: error= 1.64D-05 at cycle  12 NSaved=  12.
 NSaved=12 IEnMin=12 EnMin= -466.836528386470     IErMin=12 ErrMin= 1.64D-05
 ErrMax= 1.64D-05  0.00D+00 EMaxC= 1.00D-01 BMatC= 1.03D-07 BMatP= 7.89D-07
 IDIUse=1 WtCom= 1.00D+00 WtEn= 0.00D+00
 Coeff-Com:  0.770D-03-0.167D-02-0.269D-03 0.988D-02-0.455D-02-0.355D-01
 Coeff-Com:  0.265D-01 0.473D-01-0.149D-02-0.211D+00-0.314D-02 0.117D+01
 Coeff:      0.770D-03-0.167D-02-0.269D-03 0.988D-02-0.455D-02-0.355D-01
 Coeff:      0.265D-01 0.473D-01-0.149D-02-0.211D+00-0.314D-02 0.117D+01
 Gap=     0.295 Goal=   None    Shift=    0.000
 Gap=     0.295 Goal=   None    Shift=    0.000
 RMSDP=1.08D-06 MaxDP=4.37D-05 DE=-6.90D-07 OVMax= 2.10D-04

 Cycle  13  Pass 1  IDiag  1:
 RMSU=  6.26D-07    CP:  8.94D-01  2.34D+00  1.43D+00  2.92D+00  3.00D+00
                    CP:  3.00D+00  3.00D+00  2.79D+00  1.51D+00  1.81D+00
                    CP:  1.34D+00  1.47D+00
 E= -466.836528534840     Delta-E=       -0.000000148370 Rises=F Damp=F
 DIIS: error= 8.80D-06 at cycle  13 NSaved=  13.
 NSaved=13 IEnMin=13 EnMin= -466.836528534840     IErMin=13 ErrMin= 8.80D-06
 ErrMax= 8.80D-06  0.00D+00 EMaxC= 1.00D-01 BMatC= 2.66D-08 BMatP= 1.03D-07
 IDIUse=1 WtCom= 1.00D+00 WtEn= 0.00D+00
 Coeff-Com:  0.105D-05 0.209D-05 0.612D-04 0.685D-03-0.811D-03-0.267D-02
 Coeff-Com:  0.166D-02 0.719D-02 0.211D-02-0.324D-01-0.884D-01-0.107D+00
 Coeff-Com:  0.122D+01
 Coeff:      0.105D-05 0.209D-05 0.612D-04 0.685D-03-0.811D-03-0.267D-02
 Coeff:      0.166D-02 0.719D-02 0.211D-02-0.324D-01-0.884D-01-0.107D+00
 Coeff:      0.122D+01
 Gap=     0.295 Goal=   None    Shift=    0.000
 Gap=     0.295 Goal=   None    Shift=    0.000
 RMSDP=5.29D-07 MaxDP=3.13D-05 DE=-1.48D-07 OVMax= 1.40D-04

 Cycle  14  Pass 1  IDiag  1:
 RMSU=  3.07D-07    CP:  8.94D-01  2.34D+00  1.43D+00  2.92D+00  3.00D+00
                    CP:  3.00D+00  3.00D+00  2.79D+00  1.51D+00  1.83D+00
                    CP:  1.38D+00  1.60D+00  1.49D+00
 E= -466.836528586388     Delta-E=       -0.000000051549 Rises=F Damp=F
 DIIS: error= 5.17D-06 at cycle  14 NSaved=  14.
 NSaved=14 IEnMin=14 EnMin= -466.836528586388     IErMin=14 ErrMin= 5.17D-06
 ErrMax= 5.17D-06  0.00D+00 EMaxC= 1.00D-01 BMatC= 9.17D-09 BMatP= 2.66D-08
 IDIUse=1 WtCom= 1.00D+00 WtEn= 0.00D+00
 Coeff-Com: -0.344D-03 0.745D-03 0.201D-03-0.368D-02 0.122D-02 0.125D-01
 Coeff-Com: -0.893D-02-0.158D-01 0.353D-03 0.732D-01-0.517D-02-0.429D+00
 Coeff-Com:  0.780D-03 0.137D+01
 Coeff:     -0.344D-03 0.745D-03 0.201D-03-0.368D-02 0.122D-02 0.125D-01
 Coeff:     -0.893D-02-0.158D-01 0.353D-03 0.732D-01-0.517D-02-0.429D+00
 Coeff:      0.780D-03 0.137D+01
 Gap=     0.295 Goal=   None    Shift=    0.000
 Gap=     0.295 Goal=   None    Shift=    0.000
 RMSDP=4.40D-07 MaxDP=2.19D-05 DE=-5.15D-08 OVMax= 1.07D-04

 Cycle  15  Pass 1  IDiag  1:
 RMSU=  1.66D-07    CP:  8.94D-01  2.34D+00  1.43D+00  2.92D+00  3.00D+00
                    CP:  3.00D+00  3.00D+00  2.79D+00  1.51D+00  1.84D+00
                    CP:  1.38D+00  1.67D+00  1.91D+00  1.93D+00
 E= -466.836528608201     Delta-E=       -0.000000021813 Rises=F Damp=F
 DIIS: error= 1.96D-06 at cycle  15 NSaved=  15.
 NSaved=15 IEnMin=15 EnMin= -466.836528608201     IErMin=15 ErrMin= 1.96D-06
 ErrMax= 1.96D-06  0.00D+00 EMaxC= 1.00D-01 BMatC= 1.54D-09 BMatP= 9.17D-09
 IDIUse=1 WtCom= 1.00D+00 WtEn= 0.00D+00
 Coeff-Com: -0.116D-04 0.239D-04-0.272D-04-0.395D-03 0.510D-03 0.183D-02
 Coeff-Com: -0.236D-02-0.253D-02 0.213D-02 0.180D-01 0.141D-01-0.473D-01
 Coeff-Com: -0.268D+00 0.195D+00 0.109D+01
 Coeff:     -0.116D-04 0.239D-04-0.272D-04-0.395D-03 0.510D-03 0.183D-02
 Coeff:     -0.236D-02-0.253D-02 0.213D-02 0.180D-01 0.141D-01-0.473D-01
 Coeff:     -0.268D+00 0.195D+00 0.109D+01
 Gap=     0.295 Goal=   None    Shift=    0.000
 Gap=     0.295 Goal=   None    Shift=    0.000
 RMSDP=2.18D-07 MaxDP=9.19D-06 DE=-2.18D-08 OVMax= 5.05D-05

 Cycle  16  Pass 1  IDiag  1:
 RMSU=  6.35D-08    CP:  8.94D-01  2.34D+00  1.43D+00  2.92D+00  3.00D+00
                    CP:  3.00D+00  3.00D+00  2.79D+00  1.51D+00  1.83D+00
                    CP:  1.37D+00  1.67D+00  2.05D+00  2.34D+00  1.50D+00
 E= -466.836528611143     Delta-E=       -0.000000002942 Rises=F Damp=F
 DIIS: error= 5.45D-07 at cycle  16 NSaved=  16.
 NSaved=16 IEnMin=16 EnMin= -466.836528611143     IErMin=16 ErrMin= 5.45D-07
 ErrMax= 5.45D-07  0.00D+00 EMaxC= 1.00D-01 BMatC= 1.79D-10 BMatP= 1.54D-09
 IDIUse=1 WtCom= 1.00D+00 WtEn= 0.00D+00
 Coeff-Com:  0.873D-05-0.191D-04-0.110D-04 0.116D-03 0.301D-04-0.345D-03
 Coeff-Com:  0.100D-03 0.584D-03 0.268D-03-0.303D-02 0.461D-02 0.367D-01
 Coeff-Com: -0.614D-01-0.132D+00 0.265D+00 0.889D+00
 Coeff:      0.873D-05-0.191D-04-0.110D-04 0.116D-03 0.301D-04-0.345D-03
 Coeff:      0.100D-03 0.584D-03 0.268D-03-0.303D-02 0.461D-02 0.367D-01
 Coeff:     -0.614D-01-0.132D+00 0.265D+00 0.889D+00
 Gap=     0.295 Goal=   None    Shift=    0.000
 Gap=     0.295 Goal=   None    Shift=    0.000
 RMSDP=5.56D-08 MaxDP=2.67D-06 DE=-2.94D-09 OVMax= 1.17D-05

 Cycle  17  Pass 1  IDiag  1:
 RMSU=  2.01D-08    CP:  8.94D-01  2.34D+00  1.43D+00  2.92D+00  3.00D+00
                    CP:  3.00D+00  3.00D+00  2.79D+00  1.51D+00  1.83D+00
                    CP:  1.37D+00  1.67D+00  2.07D+00  2.43D+00  1.67D+00
                    CP:  1.35D+00
 E= -466.836528611315     Delta-E=       -0.000000000173 Rises=F Damp=F
 DIIS: error= 1.38D-07 at cycle  17 NSaved=  17.
 NSaved=17 IEnMin=17 EnMin= -466.836528611315     IErMin=17 ErrMin= 1.38D-07
 ErrMax= 1.38D-07  0.00D+00 EMaxC= 1.00D-01 BMatC= 1.72D-11 BMatP= 1.79D-10
 IDIUse=1 WtCom= 1.00D+00 WtEn= 0.00D+00
 Coeff-Com: -0.240D-05 0.528D-05 0.210D-05-0.119D-05-0.192D-04-0.122D-04
 Coeff-Com:  0.631D-04 0.141D-03-0.176D-03-0.159D-02-0.133D-03 0.950D-02
 Coeff-Com:  0.132D-01-0.423D-01-0.538D-01 0.192D+00 0.883D+00
 Coeff:     -0.240D-05 0.528D-05 0.210D-05-0.119D-05-0.192D-04-0.122D-04
 Coeff:      0.631D-04 0.141D-03-0.176D-03-0.159D-02-0.133D-03 0.950D-02
 Coeff:      0.132D-01-0.423D-01-0.538D-01 0.192D+00 0.883D+00
 Gap=     0.295 Goal=   None    Shift=    0.000
 Gap=     0.295 Goal=   None    Shift=    0.000
 RMSDP=1.32D-08 MaxDP=5.86D-07 DE=-1.73D-10 OVMax= 2.07D-06

 Cycle  18  Pass 1  IDiag  1:
 RMSU=  6.89D-09    CP:  8.94D-01  2.34D+00  1.43D+00  2.92D+00  3.00D+00
                    CP:  3.00D+00  3.00D+00  2.79D+00  1.51D+00  1.83D+00
                    CP:  1.37D+00  1.67D+00  2.07D+00  2.44D+00  1.71D+00
                    CP:  1.46D+00  1.17D+00
 E= -466.836528611327     Delta-E=       -0.000000000012 Rises=F Damp=F
 DIIS: error= 4.68D-08 at cycle  18 NSaved=  18.
 NSaved=18 IEnMin=18 EnMin= -466.836528611327     IErMin=18 ErrMin= 4.68D-08
 ErrMax= 4.68D-08  0.00D+00 EMaxC= 1.00D-01 BMatC= 2.19D-12 BMatP= 1.72D-11
 IDIUse=1 WtCom= 1.00D+00 WtEn= 0.00D+00
 Coeff-Com: -0.286D-06 0.631D-06 0.943D-06-0.312D-05-0.125D-04 0.123D-04
 Coeff-Com:  0.211D-05 0.215D-04-0.377D-04-0.145D-03-0.585D-03-0.135D-02
 Coeff-Com:  0.100D-01 0.337D-02-0.422D-01-0.517D-01 0.204D+00 0.878D+00
 Coeff:     -0.286D-06 0.631D-06 0.943D-06-0.312D-05-0.125D-04 0.123D-04
 Coeff:      0.211D-05 0.215D-04-0.377D-04-0.145D-03-0.585D-03-0.135D-02
 Coeff:      0.100D-01 0.337D-02-0.422D-01-0.517D-01 0.204D+00 0.878D+00
 Gap=     0.295 Goal=   None    Shift=    0.000
 Gap=     0.295 Goal=   None    Shift=    0.000
 RMSDP=4.53D-09 MaxDP=1.69D-07 DE=-1.17D-11 OVMax= 5.98D-07

 Error on total polarization charges =  0.01123
 SCF Done:  E(UwB97XD) =  -466.836528611     A.U. after   18 cycles
            NFock= 18  Conv=0.45D-08     -V/T= 2.0055
 <Sx>= 0.0000 <Sy>= 0.0000 <Sz>= 0.0000 <S**2>= 0.0000 S= 0.0000
 <L.S>=  0.00000000000    
 KE= 4.642874291528D+02 PE=-2.451484833972D+03 EE= 8.356097642536D+02
 --------------------------------------------------------------------
 Variational PCM results
 =======================
 <psi(f)|   H    |psi(f)>                     (a.u.) =    -466.844969
 <psi(f)|H+V(f)/2|psi(f)>                     (a.u.) =    -466.846513
 Total free energy in solution:
 - with all non electrostatic terms           (a.u.) =    -466.836529
 --------------------------------------------------------------------
 (Polarized solute)-Solvent               (kcal/mol) =      -0.97
 --------------------------------------------------------------------
 Quantum repulsion energy                 (kcal/mol) =       6.27
 Total non electrostatic                  (kcal/mol) =       6.27
 --------------------------------------------------------------------
 Partition over spheres:
 Sphere  on Atom  Surface  Charge   GEl     GCav    GDR
    1               7.05   0.010   -0.05    0.00    0.00
    2               4.11   0.006   -0.03    0.00    0.00
    3               7.52  -0.010   -0.04    0.00    0.00
    4               2.40  -0.003   -0.01    0.00    0.00
    5               4.77   0.009   -0.06    0.00    0.00
    6               3.57   0.005   -0.03    0.00    0.00
    7               4.71  -0.007   -0.03    0.00    0.00
    8               2.42  -0.003   -0.01    0.00    0.00
    9               3.34   0.002    0.00    0.00    0.00
   10               6.66  -0.007   -0.01    0.00    0.00
   11               3.68  -0.003   -0.01    0.00    0.00
   12               6.68   0.011   -0.06    0.00    0.00
   13               7.51  -0.010   -0.03    0.00    0.00
   14               6.55   0.010   -0.05    0.00    0.00
   15               7.52  -0.010   -0.04    0.00    0.00
   16               3.58   0.001    0.00    0.00    0.00
   17               4.59  -0.005   -0.02    0.00    0.00
   18               7.04  -0.008   -0.03    0.00    0.00
   19               5.44   0.010   -0.07    0.00    0.00
   20               5.33  -0.007   -0.03    0.00    0.00
   21               6.96   0.011   -0.06    0.00    0.00
   22               7.52  -0.010   -0.03    0.00    0.00
   23               3.50   0.002    0.00    0.00    0.00
   24               3.99  -0.003   -0.01    0.00    0.00
   25               6.70  -0.007   -0.01    0.00    0.00
   26               3.32   0.001    0.00    0.00    0.00
   27               6.95  -0.008   -0.03    0.00    0.00
   28               4.54  -0.005   -0.02    0.00    0.00
 Added spheres:    71.55   0.016   -0.21    0.00    0.00
 --------------------------------------------------------------------
 After PCM corrections, the energy is  -466.836528611     a.u.
 --------------------------------------------------------------------
 Annihilation of the first spin contaminant:
 S**2 before annihilation     0.0000,   after     0.0000
 Leave Link  502 at Tue Aug  4 07:23:42 2020, MaxMem=  6442450944 cpu:            8014.4 elap:             336.7
 (Enter /scratch/scicomp/CentOS/7.3.1611/Haswell/software/Gaussian/g16/l601.exe)
 Copying SCF densities to generalized density rwf, IOpCl= 1 IROHF=0.

 **********************************************************************

            Population analysis using the SCF Density.

 **********************************************************************

 Alpha  occ. eigenvalues --  -10.28422 -10.28422 -10.28070 -10.28069 -10.28050
 Alpha  occ. eigenvalues --  -10.28050 -10.28031 -10.28029 -10.27797 -10.27795
 Alpha  occ. eigenvalues --  -10.27125 -10.27123  -0.94376  -0.93355  -0.84514
 Alpha  occ. eigenvalues --   -0.84212  -0.83534  -0.83428  -0.71550  -0.70923
 Alpha  occ. eigenvalues --   -0.68148  -0.67739  -0.59748  -0.59668  -0.57467
 Alpha  occ. eigenvalues --   -0.56354  -0.53592  -0.52824  -0.50896  -0.50807
 Alpha  occ. eigenvalues --   -0.49732  -0.48995  -0.47462  -0.46761  -0.45592
 Alpha  occ. eigenvalues --   -0.44773  -0.41330  -0.40843  -0.39766  -0.39076
 Alpha  occ. eigenvalues --   -0.39065  -0.38573  -0.30003  -0.26611
 Alpha virt. eigenvalues --    0.02875   0.06162   0.11402   0.13227   0.14460
 Alpha virt. eigenvalues --    0.15483   0.15614   0.16663   0.16665   0.16823
 Alpha virt. eigenvalues --    0.17459   0.17699   0.18320   0.19251   0.20919
 Alpha virt. eigenvalues --    0.22153   0.22319   0.23679   0.24247   0.24899
 Alpha virt. eigenvalues --    0.25423   0.26111   0.26718   0.27300   0.28403
 Alpha virt. eigenvalues --    0.29329   0.29814   0.30116   0.31114   0.31219
 Alpha virt. eigenvalues --    0.31618   0.32456   0.33024   0.33495   0.34708
 Alpha virt. eigenvalues --    0.34775   0.35371   0.36491   0.36819   0.37975
 Alpha virt. eigenvalues --    0.39173   0.39184   0.42009   0.42415   0.42803
 Alpha virt. eigenvalues --    0.43097   0.44800   0.44805   0.45733   0.46326
 Alpha virt. eigenvalues --    0.47395   0.48199   0.48894   0.48903   0.49379
 Alpha virt. eigenvalues --    0.49611   0.49713   0.49793   0.50619   0.50807
 Alpha virt. eigenvalues --    0.51302   0.51342   0.52887   0.52945   0.53577
 Alpha virt. eigenvalues --    0.53933   0.54978   0.55075   0.56074   0.56102
 Alpha virt. eigenvalues --    0.57715   0.57781   0.58290   0.59996   0.60969
 Alpha virt. eigenvalues --    0.61526   0.61684   0.62762   0.63627   0.65350
 Alpha virt. eigenvalues --    0.66248   0.66486   0.68338   0.68910   0.69251
 Alpha virt. eigenvalues --    0.69401   0.72597   0.74099   0.75178   0.76054
 Alpha virt. eigenvalues --    0.78514   0.78518   0.78944   0.80564   0.81097
 Alpha virt. eigenvalues --    0.82299   0.83517   0.84519   0.85585   0.87977
 Alpha virt. eigenvalues --    0.89898   0.91284   0.91685   0.93657   0.93819
 Alpha virt. eigenvalues --    0.95038   0.97330   0.97372   0.99193   0.99653
 Alpha virt. eigenvalues --    1.01715   1.03605   1.04814   1.05404   1.05620
 Alpha virt. eigenvalues --    1.07506   1.08107   1.08322   1.10693   1.11918
 Alpha virt. eigenvalues --    1.12775   1.12926   1.14753   1.15867   1.16936
 Alpha virt. eigenvalues --    1.17258   1.18626   1.19194   1.19491   1.20265
 Alpha virt. eigenvalues --    1.20368   1.20877   1.23617   1.25453   1.25754
 Alpha virt. eigenvalues --    1.26357   1.27058   1.28428   1.29269   1.29490
 Alpha virt. eigenvalues --    1.30661   1.31608   1.32031   1.32265   1.33419
 Alpha virt. eigenvalues --    1.34487   1.34922   1.37323   1.37882   1.38517
 Alpha virt. eigenvalues --    1.38965   1.40035   1.41098   1.41112   1.42410
 Alpha virt. eigenvalues --    1.42916   1.43071   1.43800   1.44636   1.45115
 Alpha virt. eigenvalues --    1.45453   1.46398   1.47823   1.49121   1.49311
 Alpha virt. eigenvalues --    1.50660   1.51979   1.53330   1.55236   1.56812
 Alpha virt. eigenvalues --    1.58437   1.58900   1.59992   1.61355   1.61900
 Alpha virt. eigenvalues --    1.63518   1.63998   1.64617   1.66231   1.67055
 Alpha virt. eigenvalues --    1.68309   1.71571   1.75286   1.75812   1.78077
 Alpha virt. eigenvalues --    1.80405   1.82122   1.82940   1.84335   1.84803
 Alpha virt. eigenvalues --    1.88527   1.89289   1.90773   1.92037   1.93206
 Alpha virt. eigenvalues --    1.94275   1.96444   1.98178   2.00094   2.01412
 Alpha virt. eigenvalues --    2.04047   2.04235   2.09430   2.11230   2.11872
 Alpha virt. eigenvalues --    2.12268   2.13073   2.15404   2.15973   2.17324
 Alpha virt. eigenvalues --    2.17820   2.20031   2.20458   2.22918   2.23499
 Alpha virt. eigenvalues --    2.24588   2.24960   2.25641   2.28924   2.31350
 Alpha virt. eigenvalues --    2.35798   2.36724   2.38801   2.41201   2.42275
 Alpha virt. eigenvalues --    2.44659   2.45834   2.46256   2.48939   2.49496
 Alpha virt. eigenvalues --    2.50113   2.51196   2.51620   2.54516   2.56307
 Alpha virt. eigenvalues --    2.58284   2.59142   2.60342   2.62888   2.63448
 Alpha virt. eigenvalues --    2.63490   2.64600   2.65530   2.66179   2.66396
 Alpha virt. eigenvalues --    2.68410   2.68962   2.70081   2.72995   2.73302
 Alpha virt. eigenvalues --    2.73964   2.74704   2.75659   2.75858   2.77256
 Alpha virt. eigenvalues --    2.79049   2.79910   2.80818   2.81072   2.81596
 Alpha virt. eigenvalues --    2.81992   2.83474   2.83690   2.84377   2.86189
 Alpha virt. eigenvalues --    2.86367   2.87922   2.87991   2.89919   2.90022
 Alpha virt. eigenvalues --    2.92064   2.92804   2.93512   2.94758   2.96215
 Alpha virt. eigenvalues --    2.96843   2.97923   2.98193   2.99354   3.01089
 Alpha virt. eigenvalues --    3.01542   3.02591   3.04018   3.05394   3.06354
 Alpha virt. eigenvalues --    3.06848   3.09193   3.10115   3.11188   3.11442
 Alpha virt. eigenvalues --    3.11747   3.13579   3.13764   3.14801   3.15463
 Alpha virt. eigenvalues --    3.16229   3.16957   3.17242   3.18581   3.19466
 Alpha virt. eigenvalues --    3.20422   3.20983   3.21130   3.21591   3.21919
 Alpha virt. eigenvalues --    3.22908   3.23050   3.23247   3.24474   3.25806
 Alpha virt. eigenvalues --    3.25819   3.27082   3.28033   3.28248   3.29276
 Alpha virt. eigenvalues --    3.29280   3.30522   3.30872   3.31340   3.32905
 Alpha virt. eigenvalues --    3.33087   3.33560   3.34637   3.36108   3.36662
 Alpha virt. eigenvalues --    3.37197   3.37301   3.38765   3.39559   3.41876
 Alpha virt. eigenvalues --    3.42991   3.43894   3.44334   3.45677   3.45782
 Alpha virt. eigenvalues --    3.46500   3.46926   3.47300   3.47854   3.47943
 Alpha virt. eigenvalues --    3.49016   3.50738   3.50921   3.52058   3.54387
 Alpha virt. eigenvalues --    3.54497   3.54498   3.55897   3.56931   3.58369
 Alpha virt. eigenvalues --    3.59887   3.60850   3.61571   3.62527   3.64447
 Alpha virt. eigenvalues --    3.65616   3.67366   3.69579   3.69602   3.70160
 Alpha virt. eigenvalues --    3.71026   3.71721   3.74286   3.76678   3.78047
 Alpha virt. eigenvalues --    3.79567   3.80480   3.80587   3.82267   3.83897
 Alpha virt. eigenvalues --    3.84750   3.85938   3.86699   3.88962   3.89977
 Alpha virt. eigenvalues --    3.91407   3.92492   3.95540   3.96258   3.99261
 Alpha virt. eigenvalues --    4.00163   4.02862   4.03694   4.04774   4.07666
 Alpha virt. eigenvalues --    4.08438   4.09273   4.09506   4.10477   4.12308
 Alpha virt. eigenvalues --    4.13890   4.14044   4.16699   4.17402   4.18791
 Alpha virt. eigenvalues --    4.20206   4.22728   4.23020   4.25028   4.27326
 Alpha virt. eigenvalues --    4.27685   4.29950   4.32040   4.32230   4.36665
 Alpha virt. eigenvalues --    4.37791   4.38243   4.40016   4.42109   4.45438
 Alpha virt. eigenvalues --    4.47415   4.49838   4.50267   4.50338   4.54150
 Alpha virt. eigenvalues --    4.55947   4.60623   4.62379   4.67576   4.67872
 Alpha virt. eigenvalues --    4.70968   4.71084   4.72917   4.75690   4.77732
 Alpha virt. eigenvalues --    4.78860   4.81582   4.83393   4.85309   4.85937
 Alpha virt. eigenvalues --    4.86787   4.89388   4.93640   4.95403   4.96693
 Alpha virt. eigenvalues --    4.98935   5.05254   5.05675   5.09708   5.10070
 Alpha virt. eigenvalues --    5.14396   5.18625   5.19205   5.22753   5.24487
 Alpha virt. eigenvalues --    5.25800   5.35062   5.36096   5.41422   5.42902
 Alpha virt. eigenvalues --    5.45771   5.46820   5.51343   5.55769   5.71793
 Alpha virt. eigenvalues --    5.72102   5.78284   5.78962   5.97281   6.02322
 Alpha virt. eigenvalues --    7.95358   7.95529   8.02493   8.04074   8.05440
 Alpha virt. eigenvalues --    8.09710   8.11135   8.14168   8.17607   8.20196
 Alpha virt. eigenvalues --    8.36428   8.36669  34.77216  34.78028  34.81620
 Alpha virt. eigenvalues --   34.81774  34.85032  34.91506  34.96245  35.00607
 Alpha virt. eigenvalues --   35.01506  35.03185  35.18258  35.18487
  Beta  occ. eigenvalues --  -10.28422 -10.28422 -10.28070 -10.28069 -10.28050
  Beta  occ. eigenvalues --  -10.28050 -10.28031 -10.28029 -10.27797 -10.27795
  Beta  occ. eigenvalues --  -10.27125 -10.27123  -0.94376  -0.93355  -0.84514
  Beta  occ. eigenvalues --   -0.84212  -0.83534  -0.83428  -0.71550  -0.70923
  Beta  occ. eigenvalues --   -0.68148  -0.67739  -0.59748  -0.59668  -0.57467
  Beta  occ. eigenvalues --   -0.56354  -0.53592  -0.52824  -0.50896  -0.50807
  Beta  occ. eigenvalues --   -0.49732  -0.48995  -0.47462  -0.46761  -0.45592
  Beta  occ. eigenvalues --   -0.44773  -0.41330  -0.40843  -0.39766  -0.39076
  Beta  occ. eigenvalues --   -0.39065  -0.38573  -0.30003  -0.26611
  Beta virt. eigenvalues --    0.02875   0.06162   0.11402   0.13227   0.14460
  Beta virt. eigenvalues --    0.15483   0.15614   0.16663   0.16665   0.16823
  Beta virt. eigenvalues --    0.17459   0.17699   0.18320   0.19251   0.20919
  Beta virt. eigenvalues --    0.22153   0.22319   0.23679   0.24247   0.24899
  Beta virt. eigenvalues --    0.25423   0.26111   0.26718   0.27300   0.28403
  Beta virt. eigenvalues --    0.29329   0.29814   0.30116   0.31114   0.31219
  Beta virt. eigenvalues --    0.31618   0.32456   0.33024   0.33495   0.34708
  Beta virt. eigenvalues --    0.34775   0.35371   0.36491   0.36819   0.37975
  Beta virt. eigenvalues --    0.39173   0.39184   0.42009   0.42415   0.42803
  Beta virt. eigenvalues --    0.43097   0.44800   0.44805   0.45733   0.46326
  Beta virt. eigenvalues --    0.47395   0.48199   0.48894   0.48903   0.49379
  Beta virt. eigenvalues --    0.49611   0.49713   0.49793   0.50619   0.50807
  Beta virt. eigenvalues --    0.51302   0.51342   0.52887   0.52945   0.53577
  Beta virt. eigenvalues --    0.53933   0.54978   0.55075   0.56074   0.56102
  Beta virt. eigenvalues --    0.57715   0.57781   0.58290   0.59996   0.60969
  Beta virt. eigenvalues --    0.61526   0.61684   0.62762   0.63627   0.65350
  Beta virt. eigenvalues --    0.66248   0.66486   0.68338   0.68910   0.69251
  Beta virt. eigenvalues --    0.69401   0.72597   0.74099   0.75178   0.76054
  Beta virt. eigenvalues --    0.78514   0.78518   0.78944   0.80564   0.81097
  Beta virt. eigenvalues --    0.82299   0.83517   0.84519   0.85585   0.87977
  Beta virt. eigenvalues --    0.89898   0.91284   0.91685   0.93657   0.93819
  Beta virt. eigenvalues --    0.95038   0.97330   0.97372   0.99193   0.99653
  Beta virt. eigenvalues --    1.01715   1.03605   1.04814   1.05404   1.05620
  Beta virt. eigenvalues --    1.07506   1.08107   1.08322   1.10693   1.11918
  Beta virt. eigenvalues --    1.12775   1.12926   1.14753   1.15867   1.16936
  Beta virt. eigenvalues --    1.17258   1.18626   1.19194   1.19491   1.20265
  Beta virt. eigenvalues --    1.20368   1.20877   1.23617   1.25453   1.25754
  Beta virt. eigenvalues --    1.26357   1.27058   1.28428   1.29269   1.29490
  Beta virt. eigenvalues --    1.30661   1.31608   1.32031   1.32265   1.33419
  Beta virt. eigenvalues --    1.34487   1.34922   1.37323   1.37882   1.38517
  Beta virt. eigenvalues --    1.38965   1.40035   1.41098   1.41112   1.42410
  Beta virt. eigenvalues --    1.42916   1.43071   1.43800   1.44636   1.45115
  Beta virt. eigenvalues --    1.45453   1.46398   1.47823   1.49121   1.49311
  Beta virt. eigenvalues --    1.50660   1.51979   1.53330   1.55236   1.56812
  Beta virt. eigenvalues --    1.58437   1.58900   1.59992   1.61355   1.61900
  Beta virt. eigenvalues --    1.63518   1.63998   1.64617   1.66231   1.67055
  Beta virt. eigenvalues --    1.68309   1.71571   1.75286   1.75812   1.78077
  Beta virt. eigenvalues --    1.80405   1.82122   1.82940   1.84335   1.84803
  Beta virt. eigenvalues --    1.88527   1.89289   1.90773   1.92037   1.93206
  Beta virt. eigenvalues --    1.94275   1.96444   1.98178   2.00094   2.01412
  Beta virt. eigenvalues --    2.04047   2.04235   2.09430   2.11230   2.11872
  Beta virt. eigenvalues --    2.12268   2.13073   2.15404   2.15973   2.17324
  Beta virt. eigenvalues --    2.17820   2.20031   2.20458   2.22918   2.23499
  Beta virt. eigenvalues --    2.24588   2.24960   2.25641   2.28924   2.31350
  Beta virt. eigenvalues --    2.35798   2.36724   2.38801   2.41201   2.42275
  Beta virt. eigenvalues --    2.44659   2.45834   2.46256   2.48939   2.49496
  Beta virt. eigenvalues --    2.50113   2.51196   2.51620   2.54516   2.56307
  Beta virt. eigenvalues --    2.58284   2.59142   2.60342   2.62888   2.63448
  Beta virt. eigenvalues --    2.63490   2.64600   2.65530   2.66179   2.66396
  Beta virt. eigenvalues --    2.68410   2.68962   2.70081   2.72995   2.73302
  Beta virt. eigenvalues --    2.73964   2.74704   2.75659   2.75858   2.77256
  Beta virt. eigenvalues --    2.79049   2.79910   2.80818   2.81072   2.81596
  Beta virt. eigenvalues --    2.81992   2.83474   2.83690   2.84377   2.86189
  Beta virt. eigenvalues --    2.86367   2.87922   2.87991   2.89919   2.90022
  Beta virt. eigenvalues --    2.92064   2.92804   2.93512   2.94758   2.96215
  Beta virt. eigenvalues --    2.96843   2.97923   2.98193   2.99354   3.01089
  Beta virt. eigenvalues --    3.01542   3.02591   3.04018   3.05394   3.06354
  Beta virt. eigenvalues --    3.06848   3.09193   3.10115   3.11188   3.11442
  Beta virt. eigenvalues --    3.11747   3.13579   3.13764   3.14801   3.15463
  Beta virt. eigenvalues --    3.16229   3.16957   3.17242   3.18581   3.19466
  Beta virt. eigenvalues --    3.20422   3.20983   3.21130   3.21591   3.21919
  Beta virt. eigenvalues --    3.22908   3.23050   3.23247   3.24474   3.25806
  Beta virt. eigenvalues --    3.25819   3.27082   3.28033   3.28248   3.29276
  Beta virt. eigenvalues --    3.29280   3.30522   3.30872   3.31340   3.32905
  Beta virt. eigenvalues --    3.33087   3.33560   3.34637   3.36108   3.36662
  Beta virt. eigenvalues --    3.37197   3.37301   3.38765   3.39559   3.41876
  Beta virt. eigenvalues --    3.42991   3.43894   3.44334   3.45677   3.45782
  Beta virt. eigenvalues --    3.46500   3.46926   3.47300   3.47854   3.47943
  Beta virt. eigenvalues --    3.49016   3.50738   3.50921   3.52058   3.54387
  Beta virt. eigenvalues --    3.54497   3.54498   3.55897   3.56931   3.58369
  Beta virt. eigenvalues --    3.59887   3.60850   3.61571   3.62527   3.64447
  Beta virt. eigenvalues --    3.65616   3.67366   3.69579   3.69602   3.70160
  Beta virt. eigenvalues --    3.71026   3.71721   3.74286   3.76678   3.78047
  Beta virt. eigenvalues --    3.79567   3.80480   3.80587   3.82267   3.83897
  Beta virt. eigenvalues --    3.84750   3.85938   3.86699   3.88962   3.89977
  Beta virt. eigenvalues --    3.91407   3.92492   3.95540   3.96258   3.99261
  Beta virt. eigenvalues --    4.00163   4.02862   4.03694   4.04774   4.07666
  Beta virt. eigenvalues --    4.08438   4.09273   4.09506   4.10477   4.12308
  Beta virt. eigenvalues --    4.13890   4.14044   4.16699   4.17402   4.18791
  Beta virt. eigenvalues --    4.20206   4.22728   4.23020   4.25028   4.27326
  Beta virt. eigenvalues --    4.27685   4.29950   4.32040   4.32230   4.36665
  Beta virt. eigenvalues --    4.37791   4.38243   4.40016   4.42109   4.45438
  Beta virt. eigenvalues --    4.47415   4.49838   4.50267   4.50338   4.54150
  Beta virt. eigenvalues --    4.55947   4.60623   4.62379   4.67576   4.67872
  Beta virt. eigenvalues --    4.70968   4.71084   4.72917   4.75690   4.77732
  Beta virt. eigenvalues --    4.78860   4.81582   4.83393   4.85309   4.85937
  Beta virt. eigenvalues --    4.86787   4.89388   4.93640   4.95403   4.96693
  Beta virt. eigenvalues --    4.98935   5.05254   5.05675   5.09708   5.10070
  Beta virt. eigenvalues --    5.14396   5.18625   5.19205   5.22753   5.24487
  Beta virt. eigenvalues --    5.25800   5.35062   5.36096   5.41422   5.42902
  Beta virt. eigenvalues --    5.45771   5.46820   5.51343   5.55769   5.71793
  Beta virt. eigenvalues --    5.72102   5.78284   5.78962   5.97281   6.02322
  Beta virt. eigenvalues --    7.95358   7.95529   8.02493   8.04074   8.05440
  Beta virt. eigenvalues --    8.09710   8.11135   8.14168   8.17607   8.20196
  Beta virt. eigenvalues --    8.36428   8.36669  34.77216  34.78028  34.81620
  Beta virt. eigenvalues --   34.81774  34.85032  34.91506  34.96245  35.00607
  Beta virt. eigenvalues --   35.01506  35.03185  35.18258  35.18487
          Condensed to atoms (all electrons):
               1          2          3          4          5          6
     1  C    5.152309  -0.005278   0.424402  -0.001800   0.001857  -0.008920
     2  C   -0.005278   5.415840  -0.002284   0.424180  -0.058449  -0.010575
     3  H    0.424402  -0.002284   0.491554   0.000026  -0.000047   0.000022
     4  H   -0.001800   0.424180   0.000026   0.458643  -0.010986   0.001907
     5  C    0.001857  -0.058449  -0.000047  -0.010986   5.224193   0.474942
     6  C   -0.008920  -0.010575   0.000022   0.001907   0.474942   5.414900
     7  H    0.000304  -0.003242   0.000001  -0.000044   0.428391  -0.026774
     8  H   -0.002294   0.001916  -0.000065   0.000159  -0.033661   0.424164
     9  C    0.002757  -0.016930  -0.000009  -0.002854  -0.056094   0.195852
    10  H   -0.000045   0.001715  -0.000001  -0.000305  -0.006300  -0.040588
    11  H    0.000130  -0.008516   0.000003   0.000494   0.010350  -0.062481
    12  C   -0.000209   0.016225   0.000002   0.003818   0.278109  -0.063942
    13  H   -0.000001   0.000119   0.000000   0.000039  -0.036828   0.005275
    14  C    0.000178  -0.008925  -0.000000  -0.002294  -0.042037  -0.004962
    15  H   -0.000000   0.000023  -0.000000  -0.000066   0.007038  -0.002310
    16  C   -0.000630   0.017159   0.000000   0.000818  -0.004896  -0.054394
    17  H   -0.000017   0.000803  -0.000000  -0.003156   0.009533  -0.003258
    18  H    0.000003   0.000282   0.000000   0.000382  -0.003260   0.011896
    19  C   -0.042163   0.474356   0.006986  -0.033635  -0.026934  -0.058416
    20  H    0.003820  -0.027227  -0.000085  -0.003941   0.000315  -0.003217
    21  C    0.571915  -0.063632  -0.031628   0.004348   0.003237   0.016206
    22  H   -0.025822   0.005182  -0.005739  -0.000047   0.000038   0.000121
    23  C   -0.082676   0.195425   0.005243  -0.010784   0.013555  -0.016870
    24  H    0.013644  -0.062417  -0.000071  -0.003864   0.000528  -0.008518
    25  H    0.004263  -0.040595  -0.000034  -0.001023   0.000786   0.001716
    26  C    0.271097  -0.054546  -0.029039   0.003782  -0.010242   0.017164
    27  H   -0.038059   0.011953  -0.004296  -0.000068   0.000305   0.000280
    28  H   -0.033426  -0.003285   0.000926  -0.000156  -0.003797   0.000801
               7          8          9         10         11         12
     1  C    0.000304  -0.002294   0.002757  -0.000045   0.000130  -0.000209
     2  C   -0.003242   0.001916  -0.016930   0.001715  -0.008516   0.016225
     3  H    0.000001  -0.000065  -0.000009  -0.000001   0.000003   0.000002
     4  H   -0.000044   0.000159  -0.002854  -0.000305   0.000494   0.003818
     5  C    0.428391  -0.033661  -0.056094  -0.006300   0.010350   0.278109
     6  C   -0.026774   0.424164   0.195852  -0.040588  -0.062481  -0.063942
     7  H    0.474350  -0.003950   0.002775  -0.000219  -0.000004  -0.030499
     8  H   -0.003950   0.458734  -0.010781  -0.001029  -0.003874   0.004368
     9  C    0.002775  -0.010781   5.014680   0.391138   0.469863   0.037357
    10  H   -0.000219  -0.001029   0.391138   0.569132  -0.020361   0.001118
    11  H   -0.000004  -0.003874   0.469863  -0.020361   0.526478  -0.005036
    12  C   -0.030499   0.004368   0.037357   0.001118  -0.005036   5.020472
    13  H   -0.003250  -0.000047  -0.000160  -0.000064   0.000024   0.425407
    14  C    0.003842  -0.001811  -0.082933   0.004225   0.013658   0.571380
    15  H   -0.000085   0.000026   0.005258  -0.000036  -0.000071  -0.032008
    16  C   -0.001038   0.003800   0.334335  -0.021771  -0.058458  -0.051442
    17  H    0.000013  -0.000156  -0.028726   0.006349  -0.007489  -0.013858
    18  H    0.000028  -0.000069  -0.044887  -0.009540  -0.000620   0.005868
    19  C    0.000320  -0.010997   0.013575   0.000786   0.000544   0.003222
    20  H    0.000008  -0.000045   0.003435   0.000333  -0.002319  -0.000150
    21  C   -0.000151   0.003835  -0.003918  -0.000096  -0.000029  -0.000400
    22  H   -0.000001   0.000039  -0.000089  -0.000001  -0.000013  -0.000001
    23  C    0.003460  -0.002883   0.002424  -0.000065   0.000408  -0.003900
    24  H   -0.002340   0.000495   0.000406  -0.000022  -0.000020  -0.000018
    25  H    0.000333  -0.000304  -0.000065   0.000009  -0.000022  -0.000097
    26  C   -0.002106   0.000821  -0.001258   0.000060  -0.000132   0.001257
    27  H   -0.000016   0.000384  -0.000009   0.000000  -0.000000  -0.000041
    28  H    0.001677  -0.003145   0.000475   0.000007  -0.000001   0.000374
              13         14         15         16         17         18
     1  C   -0.000001   0.000178  -0.000000  -0.000630  -0.000017   0.000003
     2  C    0.000119  -0.008925   0.000023   0.017159   0.000803   0.000282
     3  H    0.000000  -0.000000  -0.000000   0.000000  -0.000000   0.000000
     4  H    0.000039  -0.002294  -0.000066   0.000818  -0.003156   0.000382
     5  C   -0.036828  -0.042037   0.007038  -0.004896   0.009533  -0.003260
     6  C    0.005275  -0.004962  -0.002310  -0.054394  -0.003258   0.011896
     7  H   -0.003250   0.003842  -0.000085  -0.001038   0.000013   0.000028
     8  H   -0.000047  -0.001811   0.000026   0.003800  -0.000156  -0.000069
     9  C   -0.000160  -0.082933   0.005258   0.334335  -0.028726  -0.044887
    10  H   -0.000064   0.004225  -0.000036  -0.021771   0.006349  -0.009540
    11  H    0.000024   0.013658  -0.000071  -0.058458  -0.007489  -0.000620
    12  C    0.425407   0.571380  -0.032008  -0.051442  -0.013858   0.005868
    13  H    0.489475  -0.025656  -0.005755   0.004257  -0.000381  -0.000091
    14  C   -0.025656   5.152778   0.424762   0.271097  -0.033511  -0.037917
    15  H   -0.005755   0.424762   0.491654  -0.029040   0.000921  -0.004276
    16  C    0.004257   0.271097  -0.029040   4.955778   0.398806   0.436576
    17  H   -0.000381  -0.033511   0.000921   0.398806   0.578970  -0.022063
    18  H   -0.000091  -0.037917  -0.004276   0.436576  -0.022063   0.537310
    19  C    0.000038   0.001870  -0.000047  -0.010269  -0.003789   0.000306
    20  H   -0.000001   0.000303   0.000001  -0.002096   0.001672  -0.000016
    21  C   -0.000001  -0.000210   0.000002   0.001258   0.000375  -0.000041
    22  H    0.000000  -0.000001   0.000000   0.000016   0.000000  -0.000001
    23  C   -0.000087   0.002751  -0.000009  -0.001250   0.000473  -0.000009
    24  H   -0.000014   0.000127   0.000003  -0.000131  -0.000001  -0.000000
    25  H   -0.000001  -0.000045  -0.000001   0.000059   0.000007   0.000000
    26  C    0.000015  -0.000630   0.000000   0.000790   0.000022  -0.000004
    27  H   -0.000001   0.000003   0.000000  -0.000004   0.000001  -0.000000
    28  H    0.000000  -0.000017  -0.000000   0.000022  -0.000012   0.000001
              19         20         21         22         23         24
     1  C   -0.042163   0.003820   0.571915  -0.025822  -0.082676   0.013644
     2  C    0.474356  -0.027227  -0.063632   0.005182   0.195425  -0.062417
     3  H    0.006986  -0.000085  -0.031628  -0.005739   0.005243  -0.000071
     4  H   -0.033635  -0.003941   0.004348  -0.000047  -0.010784  -0.003864
     5  C   -0.026934   0.000315   0.003237   0.000038   0.013555   0.000528
     6  C   -0.058416  -0.003217   0.016206   0.000121  -0.016870  -0.008518
     7  H    0.000320   0.000008  -0.000151  -0.000001   0.003460  -0.002340
     8  H   -0.010997  -0.000045   0.003835   0.000039  -0.002883   0.000495
     9  C    0.013575   0.003435  -0.003918  -0.000089   0.002424   0.000406
    10  H    0.000786   0.000333  -0.000096  -0.000001  -0.000065  -0.000022
    11  H    0.000544  -0.002319  -0.000029  -0.000013   0.000408  -0.000020
    12  C    0.003222  -0.000150  -0.000400  -0.000001  -0.003900  -0.000018
    13  H    0.000038  -0.000001  -0.000001   0.000000  -0.000087  -0.000014
    14  C    0.001870   0.000303  -0.000210  -0.000001   0.002751   0.000127
    15  H   -0.000047   0.000001   0.000002   0.000000  -0.000009   0.000003
    16  C   -0.010269  -0.002096   0.001258   0.000016  -0.001250  -0.000131
    17  H   -0.003789   0.001672   0.000375   0.000000   0.000473  -0.000001
    18  H    0.000306  -0.000016  -0.000041  -0.000001  -0.000009  -0.000000
    19  C    5.224295   0.428830   0.278373  -0.036662  -0.055795   0.010312
    20  H    0.428830   0.474276  -0.030462  -0.003251   0.002781  -0.000004
    21  C    0.278373  -0.030462   5.019878   0.425522   0.037160  -0.005027
    22  H   -0.036662  -0.003251   0.425522   0.489433  -0.000160   0.000024
    23  C   -0.055795   0.002781   0.037160  -0.000160   5.014830   0.469792
    24  H    0.010312  -0.000004  -0.005027   0.000024   0.469792   0.526328
    25  H   -0.006291  -0.000219   0.001082  -0.000064   0.391163  -0.020354
    26  C   -0.004666  -0.001033  -0.051559   0.004249   0.334252  -0.058379
    27  H   -0.003306   0.000028   0.005990  -0.000089  -0.044922  -0.000629
    28  H    0.009555   0.000014  -0.013930  -0.000381  -0.028753  -0.007491
              25         26         27         28
     1  C    0.004263   0.271097  -0.038059  -0.033426
     2  C   -0.040595  -0.054546   0.011953  -0.003285
     3  H   -0.000034  -0.029039  -0.004296   0.000926
     4  H   -0.001023   0.003782  -0.000068  -0.000156
     5  C    0.000786  -0.010242   0.000305  -0.003797
     6  C    0.001716   0.017164   0.000280   0.000801
     7  H    0.000333  -0.002106  -0.000016   0.001677
     8  H   -0.000304   0.000821   0.000384  -0.003145
     9  C   -0.000065  -0.001258  -0.000009   0.000475
    10  H    0.000009   0.000060   0.000000   0.000007
    11  H   -0.000022  -0.000132  -0.000000  -0.000001
    12  C   -0.000097   0.001257  -0.000041   0.000374
    13  H   -0.000001   0.000015  -0.000001   0.000000
    14  C   -0.000045  -0.000630   0.000003  -0.000017
    15  H   -0.000001   0.000000   0.000000  -0.000000
    16  C    0.000059   0.000790  -0.000004   0.000022
    17  H    0.000007   0.000022   0.000001  -0.000012
    18  H    0.000000  -0.000004  -0.000000   0.000001
    19  C   -0.006291  -0.004666  -0.003306   0.009555
    20  H   -0.000219  -0.001033   0.000028   0.000014
    21  C    0.001082  -0.051559   0.005990  -0.013930
    22  H   -0.000064   0.004249  -0.000089  -0.000381
    23  C    0.391163   0.334252  -0.044922  -0.028753
    24  H   -0.020354  -0.058379  -0.000629  -0.007491
    25  H    0.569162  -0.021825  -0.009533   0.006352
    26  C   -0.021825   4.956120   0.436669   0.398783
    27  H   -0.009533   0.436669   0.537196  -0.022085
    28  H    0.006352   0.398783  -0.022085   0.579024
          Atomic-Atomic Spin Densities.
               1          2          3          4          5          6
     1  C   -0.000000  -0.000000   0.000000   0.000000   0.000000   0.000000
     2  C   -0.000000  -0.000000  -0.000000   0.000000   0.000000   0.000000
     3  H    0.000000  -0.000000   0.000000   0.000000  -0.000000   0.000000
     4  H    0.000000   0.000000   0.000000  -0.000000  -0.000000   0.000000
     5  C    0.000000   0.000000  -0.000000  -0.000000   0.000000  -0.000000
     6  C    0.000000   0.000000   0.000000   0.000000  -0.000000  -0.000000
     7  H   -0.000000   0.000000   0.000000   0.000000  -0.000000   0.000000
     8  H    0.000000  -0.000000  -0.000000  -0.000000  -0.000000  -0.000000
     9  C   -0.000000   0.000000  -0.000000  -0.000000  -0.000000   0.000000
    10  H   -0.000000   0.000000  -0.000000   0.000000  -0.000000  -0.000000
    11  H    0.000000  -0.000000   0.000000  -0.000000   0.000000  -0.000000
    12  C   -0.000000  -0.000000   0.000000   0.000000  -0.000000   0.000000
    13  H    0.000000   0.000000   0.000000   0.000000  -0.000000  -0.000000
    14  C    0.000000  -0.000000  -0.000000  -0.000000  -0.000000   0.000000
    15  H    0.000000  -0.000000   0.000000   0.000000  -0.000000   0.000000
    16  C   -0.000000   0.000000   0.000000   0.000000   0.000000  -0.000000
    17  H    0.000000   0.000000  -0.000000  -0.000000   0.000000  -0.000000
    18  H   -0.000000  -0.000000   0.000000  -0.000000  -0.000000  -0.000000
    19  C    0.000000   0.000000   0.000000   0.000000  -0.000000   0.000000
    20  H    0.000000  -0.000000  -0.000000   0.000000  -0.000000  -0.000000
    21  C    0.000000  -0.000000  -0.000000  -0.000000   0.000000  -0.000000
    22  H    0.000000   0.000000  -0.000000  -0.000000  -0.000000  -0.000000
    23  C   -0.000000  -0.000000   0.000000  -0.000000  -0.000000  -0.000000
    24  H   -0.000000   0.000000  -0.000000  -0.000000   0.000000   0.000000
    25  H   -0.000000   0.000000   0.000000   0.000000   0.000000  -0.000000
    26  C    0.000000   0.000000  -0.000000  -0.000000   0.000000  -0.000000
    27  H   -0.000000   0.000000  -0.000000  -0.000000   0.000000   0.000000
    28  H   -0.000000   0.000000   0.000000   0.000000  -0.000000   0.000000
               7          8          9         10         11         12
     1  C   -0.000000   0.000000  -0.000000  -0.000000   0.000000  -0.000000
     2  C    0.000000  -0.000000   0.000000   0.000000  -0.000000  -0.000000
     3  H    0.000000  -0.000000  -0.000000  -0.000000   0.000000   0.000000
     4  H    0.000000  -0.000000  -0.000000   0.000000  -0.000000   0.000000
     5  C   -0.000000  -0.000000  -0.000000  -0.000000   0.000000  -0.000000
     6  C    0.000000  -0.000000   0.000000  -0.000000  -0.000000   0.000000
     7  H    0.000000  -0.000000   0.000000  -0.000000   0.000000   0.000000
     8  H   -0.000000   0.000000   0.000000  -0.000000  -0.000000   0.000000
     9  C    0.000000   0.000000  -0.000001  -0.000000   0.000000   0.000000
    10  H   -0.000000  -0.000000  -0.000000   0.000000  -0.000000   0.000000
    11  H    0.000000  -0.000000   0.000000  -0.000000   0.000000  -0.000000
    12  C    0.000000   0.000000   0.000000   0.000000  -0.000000  -0.000000
    13  H    0.000000   0.000000   0.000000  -0.000000   0.000000   0.000000
    14  C   -0.000000  -0.000000   0.000000   0.000000   0.000000  -0.000000
    15  H    0.000000  -0.000000  -0.000000  -0.000000   0.000000   0.000000
    16  C   -0.000000   0.000000   0.000000  -0.000000  -0.000000   0.000000
    17  H   -0.000000  -0.000000   0.000000   0.000000  -0.000000   0.000000
    18  H    0.000000  -0.000000   0.000000  -0.000000  -0.000000  -0.000000
    19  C    0.000000   0.000000   0.000000  -0.000000  -0.000000  -0.000000
    20  H   -0.000000  -0.000000   0.000000   0.000000   0.000000   0.000000
    21  C   -0.000000  -0.000000  -0.000000   0.000000   0.000000   0.000000
    22  H   -0.000000  -0.000000  -0.000000   0.000000  -0.000000   0.000000
    23  C   -0.000000   0.000000   0.000000  -0.000000   0.000000   0.000000
    24  H    0.000000   0.000000  -0.000000   0.000000  -0.000000  -0.000000
    25  H   -0.000000   0.000000   0.000000  -0.000000  -0.000000  -0.000000
    26  C    0.000000  -0.000000   0.000000   0.000000   0.000000  -0.000000
    27  H   -0.000000   0.000000  -0.000000   0.000000   0.000000  -0.000000
    28  H    0.000000   0.000000   0.000000  -0.000000  -0.000000  -0.000000
              13         14         15         16         17         18
     1  C    0.000000   0.000000   0.000000  -0.000000   0.000000  -0.000000
     2  C    0.000000  -0.000000  -0.000000   0.000000   0.000000  -0.000000
     3  H    0.000000  -0.000000   0.000000   0.000000  -0.000000   0.000000
     4  H    0.000000  -0.000000   0.000000   0.000000  -0.000000  -0.000000
     5  C   -0.000000  -0.000000  -0.000000   0.000000   0.000000  -0.000000
     6  C   -0.000000   0.000000   0.000000  -0.000000  -0.000000  -0.000000
     7  H    0.000000  -0.000000   0.000000  -0.000000  -0.000000   0.000000
     8  H    0.000000  -0.000000  -0.000000   0.000000  -0.000000  -0.000000
     9  C    0.000000   0.000000  -0.000000   0.000000   0.000000   0.000000
    10  H   -0.000000   0.000000  -0.000000  -0.000000   0.000000  -0.000000
    11  H    0.000000   0.000000   0.000000  -0.000000  -0.000000  -0.000000
    12  C    0.000000  -0.000000   0.000000   0.000000   0.000000  -0.000000
    13  H    0.000000  -0.000000   0.000000  -0.000000  -0.000000   0.000000
    14  C   -0.000000   0.000001  -0.000000  -0.000000  -0.000000  -0.000000
    15  H    0.000000  -0.000000  -0.000000   0.000000  -0.000000   0.000000
    16  C   -0.000000  -0.000000   0.000000   0.000001  -0.000000  -0.000000
    17  H   -0.000000  -0.000000  -0.000000  -0.000000  -0.000000   0.000000
    18  H    0.000000  -0.000000   0.000000  -0.000000   0.000000  -0.000000
    19  C    0.000000  -0.000000   0.000000  -0.000000   0.000000  -0.000000
    20  H    0.000000   0.000000  -0.000000  -0.000000  -0.000000   0.000000
    21  C   -0.000000   0.000000  -0.000000   0.000000  -0.000000   0.000000
    22  H    0.000000  -0.000000  -0.000000   0.000000  -0.000000   0.000000
    23  C    0.000000   0.000000   0.000000  -0.000000  -0.000000   0.000000
    24  H    0.000000  -0.000000  -0.000000   0.000000   0.000000  -0.000000
    25  H   -0.000000   0.000000   0.000000  -0.000000   0.000000  -0.000000
    26  C   -0.000000   0.000000  -0.000000   0.000000   0.000000   0.000000
[...]
     2  C    0.000000   0.000000   0.000000   0.000000
     3  H    0.000000  -0.000000  -0.000000   0.000000
     4  H    0.000000  -0.000000  -0.000000   0.000000
     5  C    0.000000   0.000000   0.000000  -0.000000
     6  C   -0.000000  -0.000000   0.000000  -0.000000
     7  H   -0.000000   0.000000  -0.000000   0.000000
     8  H   -0.000000  -0.000000   0.000000  -0.000000
     9  C    0.000000   0.000000  -0.000000   0.000000
    10  H    0.000000   0.000000   0.000000  -0.000000
    11  H   -0.000000  -0.000000   0.000000  -0.000000
    12  C   -0.000000  -0.000000  -0.000000   0.000000
    13  H   -0.000000  -0.000000  -0.000000   0.000000
    14  C    0.000000   0.000000   0.000000  -0.000000
    15  H    0.000000  -0.000000  -0.000000   0.000000
    16  C   -0.000000  -0.000000  -0.000000  -0.000000
    17  H    0.000000   0.000000   0.000000  -0.000000
    18  H   -0.000000   0.000000   0.000000  -0.000000
    19  C    0.000000  -0.000000   0.000000  -0.000000
    20  H    0.000000  -0.000000  -0.000000   0.000000
    21  C   -0.000000  -0.000000   0.000000  -0.000000
    22  H    0.000000  -0.000000  -0.000000   0.000000
    23  C    0.000000  -0.000000  -0.000000  -0.000000
    24  H    0.000000   0.000000   0.000000   0.000000
    25  H   -0.000000   0.000000   0.000000  -0.000000
    26  C    0.000000  -0.000001   0.000000   0.000000
    27  H    0.000000   0.000000   0.000000  -0.000000
    28  H   -0.000000   0.000000  -0.000000   0.000000
 Mulliken charges and spin densities:
               1          2
     1  C   -0.202991  -0.000000
     2  C   -0.206840   0.000000
     3  H    0.147815   0.000000
     4  H    0.181083  -0.000000
     5  C   -0.175918  -0.000000
     6  C   -0.209467  -0.000000
     7  H    0.165021   0.000000
     8  H    0.183134   0.000000
     9  C   -0.237853  -0.000001
    10  H    0.133523   0.000000
    11  H    0.153399   0.000000
    12  C   -0.167909  -0.000000
    13  H    0.150897   0.000000
    14  C   -0.203942   0.000000
    15  H    0.147790  -0.000000
    16  C   -0.196656   0.000000
    17  H    0.123598  -0.000000
    18  H    0.134430  -0.000000
    19  C   -0.174617  -0.000000
    20  H    0.164700  -0.000000
    21  C   -0.169055   0.000000
    22  H    0.150609  -0.000000
    23  C   -0.237444   0.000001
    24  H    0.152403  -0.000000
    25  H    0.133125  -0.000000
    26  C   -0.196916  -0.000000
    27  H    0.134466   0.000000
    28  H    0.123612   0.000000
 Sum of Mulliken charges =  -0.00000  -0.00000
 Mulliken charges and spin densities with hydrogens summed into heavy atoms:
               1          2
     1  C   -0.055176  -0.000000
     2  C   -0.025757   0.000000
     5  C   -0.010896   0.000000
     6  C   -0.026333   0.000000
     9  C    0.049069  -0.000000
    12  C   -0.017011  -0.000000
    14  C   -0.056152   0.000000
    16  C    0.061372   0.000000
    19  C   -0.009917  -0.000000
    21  C   -0.018446   0.000000
    23  C    0.048085   0.000000
    26  C    0.061162  -0.000000
 Electronic spatial extent (au):  <R**2>=           2232.0102
 Charge=             -0.0000 electrons
 Dipole moment (field-independent basis, Debye):
    X=             -0.0027    Y=             -0.0012    Z=              0.0005  Tot=              0.0030
 Quadrupole moment (field-independent basis, Debye-Ang):
   XX=            -70.1691   YY=            -68.2031   ZZ=            -75.7124
   XY=             -3.4027   XZ=             -3.4055   YZ=             -1.6087
 Traceless Quadrupole moment (field-independent basis, Debye-Ang):
   XX=              1.1924   YY=              3.1584   ZZ=             -4.3509
   XY=             -3.4027   XZ=             -3.4055   YZ=             -1.6087
 Octapole moment (field-independent basis, Debye-Ang**2):
  XXX=             -0.0046  YYY=             -0.0192  ZZZ=             -0.0088  XYY=              0.0060
  XXY=              0.0075  XXZ=             -0.0020  XZZ=             -0.0192  YZZ=              0.0036
  YYZ=              0.0125  XYZ=              0.0035
 Hexadecapole moment (field-independent basis, Debye-Ang**3):
 XXXX=          -1995.9121 YYYY=           -608.8628 ZZZZ=           -347.9312 XXXY=           -103.0528
 XXXZ=           -129.0702 YYYX=            -57.6670 YYYZ=             -3.1513 ZZZX=            -75.8706
 ZZZY=            -14.0877 XXYY=           -431.6432 XXZZ=           -416.3664 YYZZ=           -174.7150
 XXYZ=            -22.2060 YYXZ=            -27.9840 ZZXY=            -43.5639
 N-N= 6.847511119544D+02 E-N=-2.452167893490D+03  KE= 4.644011020939D+02
                          Isotropic Fermi Contact Couplings
        Atom                 a.u.       MegaHertz       Gauss      10(-4) cm-1
     1  C(13)             -0.00000      -0.00003      -0.00001      -0.00001
     2  C(13)              0.00000       0.00002       0.00001       0.00001
     3  H(1)               0.00000       0.00004       0.00001       0.00001
     4  H(1)              -0.00000      -0.00004      -0.00001      -0.00001
     5  C(13)              0.00000       0.00001       0.00001       0.00000
     6  C(13)             -0.00000      -0.00000      -0.00000      -0.00000
     7  H(1)               0.00000       0.00002       0.00001       0.00001
     8  H(1)               0.00000       0.00003       0.00001       0.00001
     9  C(13)             -0.00000      -0.00023      -0.00008      -0.00008
    10  H(1)               0.00000       0.00016       0.00006       0.00005
    11  H(1)               0.00000       0.00018       0.00006       0.00006
    12  C(13)             -0.00000      -0.00002      -0.00001      -0.00001
    13  H(1)               0.00000       0.00001       0.00000       0.00000
    14  C(13)              0.00000       0.00001       0.00001       0.00000
    15  H(1)              -0.00000      -0.00003      -0.00001      -0.00001
    16  C(13)              0.00000       0.00014       0.00005       0.00005
    17  H(1)              -0.00000      -0.00007      -0.00003      -0.00002
    18  H(1)              -0.00000      -0.00003      -0.00001      -0.00001
    19  C(13)             -0.00000      -0.00003      -0.00001      -0.00001
    20  H(1)              -0.00000      -0.00002      -0.00001      -0.00001
    21  C(13)              0.00000       0.00004       0.00001       0.00001
    22  H(1)              -0.00000      -0.00002      -0.00001      -0.00001
    23  C(13)              0.00000       0.00023       0.00008       0.00008
    24  H(1)              -0.00000      -0.00017      -0.00006      -0.00006
    25  H(1)              -0.00000      -0.00015      -0.00006      -0.00005
    26  C(13)             -0.00000      -0.00013      -0.00005      -0.00004
    27  H(1)               0.00000       0.00003       0.00001       0.00001
    28  H(1)               0.00000       0.00006       0.00002       0.00002
 --------------------------------------------------------
       Center         ----  Spin Dipole Couplings  ----
                      3XX-RR        3YY-RR        3ZZ-RR
 --------------------------------------------------------
     1   Atom       -0.000000      0.000000     -0.000000
     2   Atom        0.000000     -0.000000      0.000000
     3   Atom       -0.000000      0.000000     -0.000000
     4   Atom        0.000000     -0.000000     -0.000000
     5   Atom       -0.000000     -0.000000      0.000000
     6   Atom       -0.000000      0.000000      0.000000
     7   Atom        0.000000     -0.000000      0.000000
     8   Atom       -0.000000      0.000000      0.000000
     9   Atom       -0.000000      0.000000     -0.000000
    10   Atom        0.000000      0.000000     -0.000000
    11   Atom        0.000000     -0.000000      0.000000
    12   Atom        0.000000      0.000000     -0.000000
    13   Atom        0.000000     -0.000000      0.000000
    14   Atom        0.000000     -0.000000     -0.000000
    15   Atom       -0.000000     -0.000000      0.000000
    16   Atom        0.000000     -0.000000      0.000000
    17   Atom       -0.000000     -0.000000      0.000000
    18   Atom        0.000000      0.000000     -0.000000
    19   Atom        0.000000      0.000000     -0.000000
    20   Atom       -0.000000      0.000000     -0.000000
    21   Atom       -0.000000     -0.000000      0.000000
    22   Atom       -0.000000      0.000000     -0.000000
    23   Atom        0.000000     -0.000000      0.000000
    24   Atom       -0.000000      0.000000     -0.000000
    25   Atom       -0.000000     -0.000000      0.000000
    26   Atom       -0.000000      0.000000     -0.000000
    27   Atom       -0.000000     -0.000000      0.000000
    28   Atom        0.000000      0.000000     -0.000000
 --------------------------------------------------------
                        XY            XZ            YZ
 --------------------------------------------------------
     1   Atom        0.000000     -0.000000      0.000000
     2   Atom        0.000000      0.000000     -0.000000
     3   Atom       -0.000000      0.000000      0.000000
     4   Atom        0.000000     -0.000000      0.000000
     5   Atom       -0.000000     -0.000000     -0.000000
     6   Atom       -0.000000      0.000000      0.000000
     7   Atom        0.000000      0.000000     -0.000000
     8   Atom       -0.000000      0.000000     -0.000000
     9   Atom       -0.000000     -0.000000     -0.000000
    10   Atom        0.000000     -0.000000      0.000000
    11   Atom       -0.000000     -0.000000     -0.000000
    12   Atom       -0.000000      0.000000     -0.000000
    13   Atom       -0.000000      0.000000     -0.000000
    14   Atom       -0.000000      0.000000     -0.000000
    15   Atom        0.000000     -0.000000     -0.000000
    16   Atom       -0.000000     -0.000000      0.000000
    17   Atom        0.000000      0.000000      0.000000
    18   Atom       -0.000000      0.000000     -0.000000
    19   Atom        0.000000      0.000000      0.000000
    20   Atom       -0.000000     -0.000000      0.000000
    21   Atom        0.000000     -0.000000      0.000000
    22   Atom        0.000000     -0.000000     -0.000000
    23   Atom        0.000000      0.000000      0.000000
    24   Atom        0.000000      0.000000      0.000000
    25   Atom       -0.000000      0.000000     -0.000000
    26   Atom        0.000000      0.000000     -0.000000
    27   Atom        0.000000     -0.000000      0.000000
    28   Atom       -0.000000     -0.000000     -0.000000
 --------------------------------------------------------


 ---------------------------------------------------------------------------------
              Anisotropic Spin Dipole Couplings in Principal Axis System
 ---------------------------------------------------------------------------------

       Atom             a.u.   MegaHertz   Gauss  10(-4) cm-1        Axes

              Baa    -0.0000    -0.000    -0.000    -0.000  0.7511 -0.1817  0.6347
     1 C(13)  Bbb     0.0000     0.000     0.000     0.000  0.6055  0.5729 -0.5524
              Bcc     0.0000     0.000     0.000     0.000 -0.2632  0.7992  0.5403
 
              Baa    -0.0000    -0.000    -0.000    -0.000 -0.2899  0.9321  0.2170
     2 C(13)  Bbb    -0.0000    -0.000    -0.000    -0.000  0.7911  0.3610 -0.4938
              Bcc     0.0000     0.000     0.000     0.000  0.5387 -0.0285  0.8420
 
              Baa    -0.0000    -0.000    -0.000    -0.000 -0.5564 -0.1709  0.8132
     3 H(1)   Bbb     0.0000     0.000     0.000     0.000  0.8154 -0.3006  0.4947
              Bcc     0.0000     0.000     0.000     0.000  0.1599  0.9383  0.3066
 
              Baa    -0.0000    -0.000    -0.000    -0.000 -0.0916  0.9841 -0.1523
     4 H(1)   Bbb    -0.0000    -0.000    -0.000    -0.000  0.3219  0.1740  0.9306
              Bcc     0.0000     0.000     0.000     0.000  0.9423  0.0363 -0.3327
 
              Baa    -0.0000    -0.000    -0.000    -0.000  0.6469  0.4553  0.6117
     5 C(13)  Bbb    -0.0000    -0.000    -0.000    -0.000 -0.4886  0.8634 -0.1259
              Bcc     0.0000     0.000     0.000     0.000 -0.5855 -0.2174  0.7810
 
              Baa    -0.0000    -0.000    -0.000    -0.000  0.9095  0.2982 -0.2897
     6 C(13)  Bbb    -0.0000    -0.000    -0.000    -0.000  0.4094 -0.5201  0.7496
              Bcc     0.0000     0.000     0.000     0.000 -0.0729  0.8004  0.5951
 
              Baa    -0.0000    -0.000    -0.000    -0.000 -0.5351  0.7887  0.3027
     7 H(1)   Bbb     0.0000     0.000     0.000     0.000  0.4539 -0.0338  0.8904
              Bcc     0.0000     0.000     0.000     0.000  0.7124  0.6139 -0.3399
 
              Baa    -0.0000    -0.000    -0.000    -0.000  0.9704  0.0219 -0.2405
     8 H(1)   Bbb     0.0000     0.000     0.000     0.000  0.0763  0.9171  0.3914
              Bcc     0.0000     0.000     0.000     0.000  0.2291 -0.3981  0.8883
 
              Baa    -0.0000    -0.000    -0.000    -0.000  0.7044  0.4462  0.5520
     9 C(13)  Bbb    -0.0000    -0.000    -0.000    -0.000 -0.4744 -0.2824  0.8337
              Bcc     0.0000     0.000     0.000     0.000 -0.5279  0.8492 -0.0127
 
              Baa    -0.0000    -0.000    -0.000    -0.000  0.4032 -0.0876  0.9109
    10 H(1)   Bbb     0.0000     0.000     0.000     0.000  0.5458  0.8220 -0.1625
              Bcc     0.0000     0.000     0.000     0.000  0.7345 -0.5627 -0.3793
 
              Baa    -0.0000    -0.000    -0.000    -0.000  0.5447  0.8312  0.1117
    11 H(1)   Bbb     0.0000     0.000     0.000     0.000 -0.1811 -0.0134  0.9834
              Bcc     0.0000     0.000     0.000     0.000  0.8188 -0.5558  0.1432
 
              Baa    -0.0000    -0.000    -0.000    -0.000 -0.4215  0.1082  0.9004
    12 C(13)  Bbb    -0.0000    -0.000    -0.000    -0.000  0.3671  0.9282  0.0603
              Bcc     0.0000     0.000     0.000     0.000  0.8292 -0.3559  0.4309
 
              Baa    -0.0000    -0.000    -0.000    -0.000  0.4919  0.8699  0.0367
    13 H(1)   Bbb     0.0000     0.000     0.000     0.000 -0.5151  0.2568  0.8178
              Bcc     0.0000     0.000     0.000     0.000  0.7019 -0.4212  0.5744
 
              Baa    -0.0000    -0.000    -0.000    -0.000 -0.2357  0.4991  0.8339
    14 C(13)  Bbb    -0.0000    -0.000    -0.000    -0.000  0.4030  0.8310 -0.3834
              Bcc     0.0000     0.000     0.000     0.000  0.8843 -0.2457  0.3970
 
              Baa    -0.0000    -0.000    -0.000    -0.000  0.7951  0.3483  0.4966
    15 H(1)   Bbb    -0.0000    -0.000    -0.000    -0.000 -0.3950  0.9186 -0.0118
              Bcc     0.0000     0.000     0.000     0.000 -0.4603 -0.1867  0.8679
 
              Baa    -0.0000    -0.000    -0.000    -0.000  0.0255  0.9986 -0.0473
    16 C(13)  Bbb    -0.0000    -0.000    -0.000    -0.000  0.6989  0.0160  0.7150
              Bcc     0.0000     0.000     0.000     0.000  0.7148 -0.0513 -0.6975
 
              Baa    -0.0000    -0.000    -0.000    -0.000 -0.1529  0.9344 -0.3217
    17 H(1)   Bbb    -0.0000    -0.000    -0.000    -0.000  0.9296  0.0255 -0.3676
              Bcc     0.0000     0.000     0.000     0.000  0.3352  0.3552  0.8726
 
              Baa    -0.0000    -0.000    -0.000    -0.000  0.5446  0.7620  0.3504
    18 H(1)   Bbb    -0.0000    -0.000    -0.000    -0.000 -0.4807 -0.0587  0.8749
              Bcc     0.0000     0.000     0.000     0.000  0.6872 -0.6449  0.3343
 
              Baa    -0.0000    -0.000    -0.000    -0.000 -0.2357 -0.1257  0.9637
    19 C(13)  Bbb     0.0000     0.000     0.000     0.000  0.9291 -0.3199  0.1855
              Bcc     0.0000     0.000     0.000     0.000  0.2849  0.9391  0.1922
 
              Baa    -0.0000    -0.000    -0.000    -0.000  0.6259 -0.0449  0.7786
    20 H(1)   Bbb    -0.0000    -0.000    -0.000    -0.000  0.6458  0.5897 -0.4850
              Bcc     0.0000     0.000     0.000     0.000 -0.4374  0.8064  0.3981
 
              Baa    -0.0000    -0.000    -0.000    -0.000  0.7891 -0.6008  0.1279
    21 C(13)  Bbb    -0.0000    -0.000    -0.000    -0.000  0.6081  0.7935 -0.0244
              Bcc     0.0000     0.000     0.000     0.000 -0.0868  0.0970  0.9915
 
              Baa    -0.0000    -0.000    -0.000    -0.000  0.8624 -0.4932  0.1139
    22 H(1)   Bbb    -0.0000    -0.000    -0.000    -0.000 -0.0784  0.0921  0.9927
              Bcc     0.0000     0.000     0.000     0.000  0.5001  0.8650 -0.0407
 
              Baa    -0.0000    -0.000    -0.000    -0.000 -0.5260  0.8505 -0.0063
    23 C(13)  Bbb     0.0000     0.000     0.000     0.000 -0.5120 -0.3107  0.8009
              Bcc     0.0000     0.000     0.000     0.000  0.6792  0.4245  0.5988
 
              Baa    -0.0000    -0.000    -0.000    -0.000  0.8334 -0.5397  0.1192
    24 H(1)   Bbb    -0.0000    -0.000    -0.000    -0.000 -0.1599 -0.0289  0.9867
              Bcc     0.0000     0.000     0.000     0.000  0.5291  0.8414  0.1104
 
              Baa    -0.0000    -0.000    -0.000    -0.000  0.9052  0.1502 -0.3976
    25 H(1)   Bbb    -0.0000    -0.000    -0.000    -0.000 -0.0984  0.9841  0.1478
              Bcc     0.0000     0.000     0.000     0.000  0.4135 -0.0947  0.9056
 
              Baa    -0.0000    -0.000    -0.000    -0.000  0.7128 -0.0478 -0.6997
    26 C(13)  Bbb     0.0000     0.000     0.000     0.000  0.7010  0.0165  0.7130
              Bcc     0.0000     0.000     0.000     0.000  0.0226  0.9987 -0.0453
 
              Baa    -0.0000    -0.000    -0.000    -0.000 -0.6615  0.6680 -0.3410
    27 H(1)   Bbb     0.0000     0.000     0.000     0.000 -0.5472 -0.1190  0.8285
              Bcc     0.0000     0.000     0.000     0.000  0.5128  0.7346  0.4443
 
              Baa    -0.0000    -0.000    -0.000    -0.000  0.3497  0.3739  0.8590
    28 H(1)   Bbb     0.0000     0.000     0.000     0.000  0.8287  0.3041 -0.4698
              Bcc     0.0000     0.000     0.000     0.000 -0.4369  0.8762 -0.2035
 

 ---------------------------------------------------------------------------------

 No NMR shielding tensors so no spin-rotation constants.
 Leave Link  601 at Tue Aug  4 07:58:02 2020, MaxMem=  6442450944 cpu:               7.9 elap:               0.4
 (Enter /scratch/scicomp/CentOS/7.3.1611/Haswell/software/Gaussian/g16/l9999.exe)
 1\1\GINC-ATLAS-205\SP\UwB97XD\def2TZVP\C12H16\BOCHEN\04-Aug-2020\0\\#p
  uwb97xd guess=mix def2tzvp # scrf=(iefpcm,solvent=Cyclohexane,read) n
 osym 6d 10f\\endo-2 xp-pcm for eta=3\\0,1\C,0,-3.123533,-0.438909,0.24
 9907\C,0,-0.634623,-0.226767,-1.083823\H,0,-4.085324,-0.54607,0.738063
 \H,0,0.336814,-0.133008,-1.549979\C,0,1.109786,1.41431,0.718484\C,0,0.
 634623,0.226767,1.083823\H,0,0.519777,2.312927,0.848046\H,0,-0.336814,
 0.133008,1.549979\C,0,1.495934,-1.001134,1.028869\H,0,1.973156,-1.0818
 56,2.013692\H,0,0.887322,-1.896884,0.916876\C,0,2.431004,1.520477,0.10
 6878\H,0,2.838163,2.50784,-0.075868\C,0,3.123533,0.438909,-0.249907\H,
 0,4.085324,0.54607,-0.738063\C,0,2.588421,-0.951995,-0.044511\H,0,2.21
 6156,-1.333084,-1.003507\H,0,3.400666,-1.624754,0.238421\C,0,-1.109786
 ,-1.41431,-0.718484\H,0,-0.519777,-2.312927,-0.848046\C,0,-2.431004,-1
 .520477,-0.106878\H,0,-2.838163,-2.50784,0.075868\C,0,-1.495934,1.0011
 34,-1.028869\H,0,-0.887321,1.896884,-0.916876\H,0,-1.973156,1.081856,-
 2.013692\C,0,-2.588421,0.951995,0.044511\H,0,-3.400666,1.624754,-0.238
 421\H,0,-2.216156,1.333084,1.003507\\Version=ES64L-G16RevB.01\HF=-466.
 7971334\S2=0.\S2-1=0.\S2A=0.\RMSD=3.786e-09\Dipole=-0.001045,-0.000489
 9,0.0002072\Quadrupole=0.8865411,2.3482269,-3.234768,-2.529797,-2.5319
 195,-1.1960298\PG=CI [X(C12H16)]\\@


 A warm smile is the universal language of kindness.
                             -- William Arthur Ward
 Job cpu time:       0 days  2 hours 15 minutes  5.1 seconds.
 Elapsed time:       0 days  0 hours  5 minutes 40.8 seconds.
 File lengths (MBytes):  RWF=    601 Int=      0 D2E=      0 Chk=     24 Scr=      1
 Normal termination of Gaussian 16 at Tue Aug  4 07:58:02 2020.
