 Entering Gaussian System, Link 0=g16
 Input=meso-TS_55_2_xp-Ger.com
 Output=meso-TS_55_2_xp-Ger.log
 Initial command:
 /scratch/scicomp/CentOS/7.3.1611/Haswell/software/Gaussian/g16/l1.exe "/scratch/bochen/cyclohexadiene-dimerization/wb97xd-def2tzvp/xp-pcm/meso/Gau-243304.inp" -scrdir="/scratch/bochen/cyclohexadiene-dimerization/wb97xd-def2tzvp/xp-pcm/meso/"
 Entering Link 1 = /scratch/scicomp/CentOS/7.3.1611/Haswell/software/Gaussian/g16/l1.exe PID=    243306.
  
 Copyright (c) 1988-2017, Gaussian, Inc.  All Rights Reserved.
  
 This is part of the Gaussian(R) 16 program.  It is based on
 the Gaussian(R) 09 system (copyright 2009, Gaussian, Inc.),
 the Gaussian(R) 03 system (copyright 2003, Gaussian, Inc.),
 the Gaussian(R) 98 system (copyright 1998, Gaussian, Inc.),
 the Gaussian(R) 94 system (copyright 1995, Gaussian, Inc.),
 the Gaussian 92(TM) system (copyright 1992, Gaussian, Inc.),
 the Gaussian 90(TM) system (copyright 1990, Gaussian, Inc.),
 the Gaussian 88(TM) system (copyright 1988, Gaussian, Inc.),
 the Gaussian 86(TM) system (copyright 1986, Carnegie Mellon
 University), and the Gaussian 82(TM) system (copyright 1983,
 Carnegie Mellon University). Gaussian is a federally registered
 trademark of Gaussian, Inc.
  
 This software contains proprietary and confidential information,
 including trade secrets, belonging to Gaussian, Inc.
  
 This software is provided under written license and may be
 used, copied, transmitted, or stored only in accord with that
 written license.
  
 The following legend is applicable only to US Government
 contracts under FAR:
  
                    RESTRICTED RIGHTS LEGEND
  
 Use, reproduction and disclosure by the US Government is
 subject to restrictions as set forth in subparagraphs (a)
 and (c) of the Commercial Computer Software - Restricted
 Rights clause in FAR 52.227-19.
  
 Gaussian, Inc.
 340 Quinnipiac St., Bldg. 40, Wallingford CT 06492
  
  
 ---------------------------------------------------------------
 Warning -- This program may not be used in any manner that
 competes with the business of Gaussian, Inc. or will provide
 assistance to any competitor of Gaussian, Inc.  The licensee
 of this program is prohibited from giving any competitor of
 Gaussian, Inc. access to this program.  By using this program,
 the user acknowledges that Gaussian, Inc. is engaged in the
 business of creating and licensing software in the field of
 computational chemistry and represents and warrants to the
 licensee that it is not a competitor of Gaussian, Inc. and that
 it will not use this program in any manner prohibited above.
 ---------------------------------------------------------------
  

 Cite this work as:
 Gaussian 16, Revision B.01,
 M. J. Frisch, G. W. Trucks, H. B. Schlegel, G. E. Scuseria, 
 M. A. Robb, J. R. Cheeseman, G. Scalmani, V. Barone, 
 G. A. Petersson, H. Nakatsuji, X. Li, M. Caricato, A. V. Marenich, 
 J. Bloino, B. G. Janesko, R. Gomperts, B. Mennucci, H. P. Hratchian, 
 J. V. Ortiz, A. F. Izmaylov, J. L. Sonnenberg, D. Williams-Young, 
 F. Ding, F. Lipparini, F. Egidi, J. Goings, B. Peng, A. Petrone, 
 T. Henderson, D. Ranasinghe, V. G. Zakrzewski, J. Gao, N. Rega, 
 G. Zheng, W. Liang, M. Hada, M. Ehara, K. Toyota, R. Fukuda, 
 J. Hasegawa, M. Ishida, T. Nakajima, Y. Honda, O. Kitao, H. Nakai, 
 T. Vreven, K. Throssell, J. A. Montgomery, Jr., J. E. Peralta, 
 F. Ogliaro, M. J. Bearpark, J. J. Heyd, E. N. Brothers, K. N. Kudin, 
 V. N. Staroverov, T. A. Keith, R. Kobayashi, J. Normand, 
 K. Raghavachari, A. P. Rendell, J. C. Burant, S. S. Iyengar, 
 J. Tomasi, M. Cossi, J. M. Millam, M. Klene, C. Adamo, R. Cammi, 
 J. W. Ochterski, R. L. Martin, K. Morokuma, O. Farkas, 
 J. B. Foresman, and D. J. Fox, Gaussian, Inc., Wallingford CT, 2016.
 
 ******************************************
 Gaussian 16:  ES64L-G16RevB.01 20-Dec-2017
                 4-Aug-2020 
 ******************************************
 %chk=meso-TS_55_2_xp-12.chk
 %nproc=24
 Will use up to   24 processors via shared memory.
 %mem=48GB
 ----------------------------------------------------------------------
 #p uwb97xd guess=mix def2tzvp # scrf=(iefpcm,solvent=Cyclohexane,read)
  nosym 6d 10f
 ----------------------------------------------------------------------
 1/38=1,40=2,172=1/1;
 2/12=2,15=1,17=6,18=5,40=1/2;
 3/5=44,7=101,8=22,11=2,25=1,30=1,70=2203,72=17,74=-58,116=2/1,2,3;
 4/13=-1/1;
 5/5=2,38=5,53=17/2;
 6/7=2,8=2,9=2,10=2,28=1/1;
 99/5=1,9=1/99;
 Leave Link    1 at Tue Aug  4 01:21:02 2020, MaxMem=  6442450944 cpu:               6.6 elap:               0.3
 (Enter /scratch/scicomp/CentOS/7.3.1611/Haswell/software/Gaussian/g16/l101.exe)
 -----------------------
 endo-2 xp-pcm for eta=3
 -----------------------
 Symbolic Z-matrix:
 Charge =  0 Multiplicity = 1
 6                    -3.12716  -0.44139   0.26581 
 6                    -0.74278  -0.25368  -1.25379 
 1                    -4.06659  -0.53163   0.79885 
 1                     0.20497  -0.1725   -1.77163 
 6                     1.17538   1.42747   0.80302 
 6                     0.74278   0.25368   1.25379 
 1                     0.58291   2.32407   0.941 
 1                    -0.20497   0.1725    1.77163 
 6                     1.57459  -0.98981   1.12726 
 1                     2.11611  -1.12215   2.07269 
 1                     0.92754  -1.86179   1.02529 
 6                     2.46088   1.53095   0.11177 
 1                     2.86025   2.51601  -0.0982 
 6                     3.12716   0.44139  -0.26581 
 1                     4.06659   0.53163  -0.79885 
 6                     2.57273  -0.93795  -0.03439 
 1                     2.09129  -1.274    -0.96099 
 1                     3.38476  -1.64457   0.14749 
 6                    -1.17538  -1.42747  -0.80302 
 1                    -0.58291  -2.32407  -0.941 
 6                    -2.46088  -1.53095  -0.11177 
 1                    -2.86025  -2.51601   0.0982 
 6                    -1.57459   0.98981  -1.12726 
 1                    -0.92754   1.86179  -1.02529 
 1                    -2.11611   1.12215  -2.07269 
 6                    -2.57273   0.93795   0.03439 
 1                    -3.38476   1.64457  -0.14749 
 1                    -2.09129   1.274     0.96099 
 
 ITRead=  0  0  0  0  0  0  0  0  0  0  0  0  0  0  0  0  0  0  0  0
 ITRead=  0  0  0  0  0  0  0  0
 MicOpt= -1 -1 -1 -1 -1 -1 -1 -1 -1 -1 -1 -1 -1 -1 -1 -1 -1 -1 -1 -1
 MicOpt= -1 -1 -1 -1 -1 -1 -1 -1
 NAtoms=     28 NQM=       28 NQMF=       0 NMMI=      0 NMMIF=      0
                NMic=       0 NMicF=      0.
                    Isotopes and Nuclear Properties:
 (Nuclear quadrupole moments (NQMom) in fm**2, nuclear magnetic moments (NMagM)
  in nuclear magnetons)

  Atom         1           2           3           4           5           6           7           8           9          10
 IAtWgt=          12          12           1           1          12          12           1           1          12           1
 AtmWgt=  12.0000000  12.0000000   1.0078250   1.0078250  12.0000000  12.0000000   1.0078250   1.0078250  12.0000000   1.0078250
 NucSpn=           0           0           1           1           0           0           1           1           0           1
 AtZEff=  -0.0000000  -0.0000000  -0.0000000  -0.0000000  -0.0000000  -0.0000000  -0.0000000  -0.0000000  -0.0000000  -0.0000000
 NQMom=    0.0000000   0.0000000   0.0000000   0.0000000   0.0000000   0.0000000   0.0000000   0.0000000   0.0000000   0.0000000
 NMagM=    0.0000000   0.0000000   2.7928460   2.7928460   0.0000000   0.0000000   2.7928460   2.7928460   0.0000000   2.7928460
 AtZNuc=   6.0000000   6.0000000   1.0000000   1.0000000   6.0000000   6.0000000   1.0000000   1.0000000   6.0000000   1.0000000

  Atom        11          12          13          14          15          16          17          18          19          20
 IAtWgt=           1          12           1          12           1          12           1           1          12           1
 AtmWgt=   1.0078250  12.0000000   1.0078250  12.0000000   1.0078250  12.0000000   1.0078250   1.0078250  12.0000000   1.0078250
 NucSpn=           1           0           1           0           1           0           1           1           0           1
 AtZEff=  -0.0000000  -0.0000000  -0.0000000  -0.0000000  -0.0000000  -0.0000000  -0.0000000  -0.0000000  -0.0000000  -0.0000000
 NQMom=    0.0000000   0.0000000   0.0000000   0.0000000   0.0000000   0.0000000   0.0000000   0.0000000   0.0000000   0.0000000
 NMagM=    2.7928460   0.0000000   2.7928460   0.0000000   2.7928460   0.0000000   2.7928460   2.7928460   0.0000000   2.7928460
 AtZNuc=   1.0000000   6.0000000   1.0000000   6.0000000   1.0000000   6.0000000   1.0000000   1.0000000   6.0000000   1.0000000

  Atom        21          22          23          24          25          26          27          28
 IAtWgt=          12           1          12           1           1          12           1           1
 AtmWgt=  12.0000000   1.0078250  12.0000000   1.0078250   1.0078250  12.0000000   1.0078250   1.0078250
 NucSpn=           0           1           0           1           1           0           1           1
 AtZEff=  -0.0000000  -0.0000000  -0.0000000  -0.0000000  -0.0000000  -0.0000000  -0.0000000  -0.0000000
 NQMom=    0.0000000   0.0000000   0.0000000   0.0000000   0.0000000   0.0000000   0.0000000   0.0000000
 NMagM=    0.0000000   2.7928460   0.0000000   2.7928460   2.7928460   0.0000000   2.7928460   2.7928460
 AtZNuc=   6.0000000   1.0000000   6.0000000   1.0000000   1.0000000   6.0000000   1.0000000   1.0000000
 Leave Link  101 at Tue Aug  4 01:21:03 2020, MaxMem=  6442450944 cpu:               2.4 elap:               0.1
 (Enter /scratch/scicomp/CentOS/7.3.1611/Haswell/software/Gaussian/g16/l202.exe)
                          Input orientation:                          
 ---------------------------------------------------------------------
 Center     Atomic      Atomic             Coordinates (Angstroms)
 Number     Number       Type             X           Y           Z
 ---------------------------------------------------------------------
      1          6           0       -3.127160   -0.441387    0.265808
      2          6           0       -0.742781   -0.253682   -1.253790
      3          1           0       -4.066590   -0.531634    0.798854
      4          1           0        0.204971   -0.172502   -1.771631
      5          6           0        1.175378    1.427467    0.803019
      6          6           0        0.742781    0.253682    1.253790
      7          1           0        0.582914    2.324068    0.940997
      8          1           0       -0.204971    0.172502    1.771631
      9          6           0        1.574588   -0.989808    1.127258
     10          1           0        2.116105   -1.122154    2.072691
     11          1           0        0.927535   -1.861790    1.025285
     12          6           0        2.460878    1.530950    0.111768
     13          1           0        2.860246    2.516008   -0.098202
     14          6           0        3.127160    0.441387   -0.265808
     15          1           0        4.066590    0.531634   -0.798854
     16          6           0        2.572730   -0.937949   -0.034385
     17          1           0        2.091291   -1.273998   -0.960989
     18          1           0        3.384763   -1.644565    0.147485
     19          6           0       -1.175378   -1.427467   -0.803019
     20          1           0       -0.582914   -2.324068   -0.940997
     21          6           0       -2.460878   -1.530950   -0.111768
     22          1           0       -2.860246   -2.516008    0.098202
     23          6           0       -1.574588    0.989808   -1.127258
     24          1           0       -0.927535    1.861790   -1.025285
     25          1           0       -2.116105    1.122154   -2.072691
     26          6           0       -2.572730    0.937949    0.034385
     27          1           0       -3.384763    1.644565   -0.147485
     28          1           0       -2.091291    1.273998    0.960989
 ---------------------------------------------------------------------
                    Distance matrix (angstroms):
                    1          2          3          4          5
     1  C    0.000000
     2  C    2.833668   0.000000
     3  H    1.083887   3.916416   0.000000
     4  H    3.914914   1.083044   4.998260   0.000000
     5  C    4.721551   3.276593   5.596099   3.182831   0.000000
     6  C    4.054093   2.958424   4.894256   3.102264   1.329701
     7  H    4.676352   3.635843   5.458308   3.705948   1.083487
     8  H    3.344182   3.102264   4.044033   3.583544   2.102025
     9  C    4.811372   3.403156   5.669273   3.308685   2.471380
    10  H    5.587495   4.471348   6.340118   4.396940   2.999600
    11  H    4.362901   3.251177   5.173188   3.346421   3.306061
    12  C    5.927901   3.913194   6.879984   3.396772   1.463232
    13  H    6.687879   4.689176   7.620623   4.132667   2.199068
    14  C    6.338645   4.054093   7.336914   3.344182   2.433968
    15  H    7.336914   4.894256   8.356544   4.044033   3.424561
    16  C    5.729349   3.598303   6.703727   3.034834   2.872113
    17  H    5.424989   3.026341   6.447298   2.329944   3.353883
    18  H    6.623200   4.575450   7.562113   3.995129   3.840376
    19  C    2.433968   1.329701   3.424561   2.102025   4.031880
    20  H    3.387337   2.099975   4.286712   2.437202   4.495242
    21  C    1.331782   2.426414   2.099089   3.421590   4.776131
    22  H    2.098425   3.380778   2.425679   4.287639   5.686301
    23  C    2.529710   1.501393   3.497823   2.221038   3.388189
    24  H    3.436553   2.135783   4.348520   2.444984   2.820208
    25  H    2.989226   2.109394   3.845150   2.674727   4.381414
    26  C    1.504499   2.535368   2.230629   3.494341   3.857297
    27  H    2.142047   3.436178   2.469066   4.338868   4.663204
    28  H    2.121049   3.009573   2.681119   3.851285   3.274085
                    6          7          8          9         10
     6  C    0.000000
     7  H    2.099975   0.000000
     8  H    1.083044   2.437202   0.000000
     9  C    1.501393   3.464085   2.221038   0.000000
    10  H    2.109394   3.938001   2.674727   1.097543   0.000000
    11  H    2.135783   4.200866   2.444984   1.090609   1.748376
    12  C    2.426414   2.200774   3.421590   2.858488   3.317084
    13  H    3.380778   2.510581   4.287639   3.930065   4.301482
    14  C    2.833668   3.387337   3.914914   2.529710   2.989226
    15  H    3.916416   4.286712   4.998260   3.497823   3.845150
    16  C    2.535368   3.943538   3.494341   1.532446   2.163841
    17  H    3.009573   4.340372   3.851285   2.169913   3.037579
    18  H    3.436178   4.922405   4.338868   2.159953   2.364069
    19  C    3.276593   4.495242   3.182831   3.388189   4.381414
    20  H    3.635843   5.148420   3.705948   3.273033   4.220381
    21  C    3.913194   5.023360   3.396772   4.255938   5.088000
    22  H    4.689176   5.999332   4.132667   4.801666   5.532224
    23  C    3.403156   3.273033   3.308685   4.349601   5.321773
    24  H    3.251177   2.522186   3.346421   4.361843   5.269262
    25  H    4.471348   4.220381   4.396940   5.321773   6.335038
    26  C    3.598303   3.563897   3.034834   4.702219   5.512158
    27  H    4.575450   4.170009   3.995129   5.758477   6.545492
    28  H    3.026341   2.873050   2.329944   4.311743   4.967857
                   11         12         13         14         15
    11  H    0.000000
    12  C    3.833580   0.000000
    13  H    4.915558   1.083477   0.000000
    14  C    3.436553   1.331782   2.098425   0.000000
    15  H    4.348520   2.099089   2.425679   1.083887   0.000000
    16  C    2.164035   2.475749   3.466491   1.504499   2.230629
    17  H    2.375944   3.025745   3.962302   2.121049   2.681119
    18  H    2.618337   3.307376   4.200696   2.142047   2.469066
    19  C    2.820208   4.776131   5.686301   4.721551   5.596099
    20  H    2.522186   5.023360   5.999332   4.676352   5.458308
    21  C    3.589385   5.800766   6.685238   5.927901   6.879984
    22  H    3.954083   6.685238   7.621272   6.687879   7.620623
    23  C    4.361843   4.255938   4.801666   4.811372   5.669273
    24  H    4.638014   3.589385   3.954083   4.362901   5.173188
    25  H    5.269262   5.088000   5.532224   5.587495   6.340118
    26  C    4.590455   5.069009   5.659070   5.729349   6.703727
    27  H    5.680302   5.852490   6.305710   6.623200   7.562113
    28  H    4.353230   4.637827   5.213654   5.424989   6.447298
                   16         17         18         19         20
    16  C    0.000000
    17  H    1.096954   0.000000
    18  H    1.091687   1.743303   0.000000
    19  C    3.857297   3.274085   4.663204   0.000000
    20  H    3.563897   2.873050   4.170009   1.083487   0.000000
    21  C    5.069009   4.637827   5.852490   1.463232   2.200774
    22  H    5.659070   5.213654   6.305710   2.199068   2.510581
    23  C    4.702219   4.311743   5.758477   2.471380   3.464085
    24  H    4.590455   4.353230   5.680302   3.306061   4.200866
    25  H    5.512158   4.967857   6.545492   2.999600   3.938001
    26  C    5.477178   5.257050   6.494143   2.872113   3.943538
    27  H    6.494143   6.258352   7.532056   3.840376   4.922405
    28  H    5.257050   5.261205   6.258352   3.353883   4.340372
                   21         22         23         24         25
    21  C    0.000000
    22  H    1.083477   0.000000
    23  C    2.858488   3.930065   0.000000
    24  H    3.833580   4.915558   1.090609   0.000000
    25  H    3.317084   4.301482   1.097543   1.748376   0.000000
    26  C    2.475749   3.466491   1.532446   2.164035   2.163841
    27  H    3.307376   4.200696   2.159953   2.618337   2.364069
    28  H    3.025745   3.962302   2.169913   2.375944   3.037579
                   26         27         28
    26  C    0.000000
    27  H    1.091687   0.000000
    28  H    1.096954   1.743303   0.000000
 Symmetry turned off by external request.
 Stoichiometry    C12H16
 Framework group  CI[X(C12H16)]
 Deg. of freedom    39
 Full point group                 CI      NOp   2
 Rotational constants (GHZ):           1.7477464           0.5912905           0.5348176
 Leave Link  202 at Tue Aug  4 01:21:03 2020, MaxMem=  6442450944 cpu:               0.3 elap:               0.0
 (Enter /scratch/scicomp/CentOS/7.3.1611/Haswell/software/Gaussian/g16/l301.exe)
 Standard basis: def2TZVP (6D, 10F)
 Ernie: Thresh=  0.10000D-02 Tol=  0.10000D-05 Strict=F.
   528 basis functions,   740 primitive gaussians,   528 cartesian basis functions
    44 alpha electrons       44 beta electrons
       nuclear repulsion energy       675.2444009835 Hartrees.
 IExCor= 4639 DFT=T Ex+Corr=wB97XD ExCW=0 ScaHFX=  1.000000
 ScaDFX=  1.000000  1.000000  1.000000  1.000000 ScalE2=  1.000000  1.000000
 IRadAn=      5 IRanWt=     -1 IRanGd=            0 ICorTp=0 IEmpDi=121
 HFx  wShort=  0.000000 wLong=  0.200000 cFull=  0.222036 cShort=  0.000000 cLong=  0.777964
 DFx  wShort=  0.000000 wLong=  0.200000 cFull=  0.000000 cShort=  0.000000 cLong=  1.000000
 NAtoms=   28 NActive=   28 NUniq=   28 SFac= 1.00D+00 NAtFMM=   60 NAOKFM=F Big=F
 Integral buffers will be    131072 words long.
 Raffenetti 2 integral format.
 Two-electron integral symmetry is turned off.
 R6Disp:  Grimme-D2 Dispersion energy=       -0.0220448925 Hartrees.
 Nuclear repulsion after empirical dispersion term =      675.2223560911 Hartrees.
 Using the following non-standard input for PCM:
 qrep pcmdoc geomview  nodis nocav g03defaults tsare=0.075
 Warning! Using old PCM defaults because the g03defaults keyword was found.
 These settings can be overridden by following keywords.
 nsfe=28
 NVESolv=36  SolvMW=84.1595   Rsolv=2.815
 eps=2.0165 RhoS=0.778099999999998
 --- end of non-standard input.
 Reading user-defined spheres from input:
 ISph  on   Nord    Re0     Alpha      Xe            Ye            Ze
 --- end of user-defined spheres data.
 ------------------------------------------------------------------------------
 Polarizable Continuum Model (PCM)
 =================================
 Model                : PCM.
 Atomic radii         : UA0 (Simple United Atom Topological Model).
 Polarization charges : Total charges.
 Charge compensation  : None.
 Solution method      : On-the-fly selection.
 Cavity type          : SES (Solvent Excluding Surface) (Alpha=1.000).
 Cavity algorithm     : GePol (RMin=0.200 OFac=0.890).
                        User-defined sphere list used, NSphG=   28.
                        Tesserae with average area of 0.075 Ang**2.
                        Smoothing algorithm: None.
                        Polarization charges: point-like.
                        Self-potential: constant (ISelfS= 1).
                        Self-field    : global E.n sum rule (ISelfD= 3).
 Solvent              : CycloHexane, Eps=   2.016500 Eps(inf)=   2.035188
                        RSolv=   2.815000 Ang.
 ------------------------------------------------------------------------------
 GePol: Number of generator spheres                  =      28
 GePol: Total number of spheres                      =     185
 GePol: Number of exposed spheres                    =     129 ( 69.73%)
 GePol: Number of tesserae                           =    4650
 GePol: Average area of tesserae                     =       0.05 Ang**2
 GePol: Minimum area of tessera                      =   0.10D-02 Ang**2
 GePol: Maximum area of tessera                      =    0.12395 Ang**2
 GePol: Number of small tesserae                     =       0
 GePol: Fraction of small tesserae (<1% of avg)      =       0.00%
 GePol: Total count of vertices                      =   16490
 GePol: Maximum number of vertices in a tessera      =       8
 GePol: Cavity surface area                          =    222.647 Ang**2
 GePol: Cavity volume                                =    253.543 Ang**3
 Leave Link  301 at Tue Aug  4 01:21:03 2020, MaxMem=  6442450944 cpu:               8.0 elap:               0.4
 (Enter /scratch/scicomp/CentOS/7.3.1611/Haswell/software/Gaussian/g16/l302.exe)
 NPDir=0 NMtPBC=     1 NCelOv=     1 NCel=       1 NClECP=     1 NCelD=      1
         NCelK=      1 NCelE2=     1 NClLst=     1 CellRange=     0.0.
 One-electron integrals computed using PRISM.
   1 Symmetry operations used in ECPInt.
 ECPInt:  NShTT=   19306 NPrTT=   56928 LenC2=   18475 LenP2D=   41881.
 LDataN:  DoStor=T MaxTD1= 6 Len=  172
 NBasis=   528 RedAO= T EigKep=  1.87D-05  NBF=   528
 NBsUse=   528 1.00D-06 EigRej= -1.00D+00 NBFU=   528
 Precomputing XC quadrature grid using
 IXCGrd= 4 IRadAn=           5 IRanWt=          -1 IRanGd=           0 AccXCQ= 0.00D+00.
 Generated NRdTot=       0 NPtTot=           0 NUsed=           0 NTot=          32
 NSgBfM=   526   526   526   526   526 MxSgAt=    28 MxSgA2=    28.
 Leave Link  302 at Tue Aug  4 01:21:04 2020, MaxMem=  6442450944 cpu:              12.8 elap:               0.6
 (Enter /scratch/scicomp/CentOS/7.3.1611/Haswell/software/Gaussian/g16/l303.exe)
 DipDrv:  MaxL=1.
 Leave Link  303 at Tue Aug  4 01:21:04 2020, MaxMem=  6442450944 cpu:               1.6 elap:               0.1
 (Enter /scratch/scicomp/CentOS/7.3.1611/Haswell/software/Gaussian/g16/l401.exe)
 ExpMin= 9.52D-02 ExpMax= 1.36D+04 ExpMxC= 4.63D+02 IAcc=3 IRadAn=         5 AccDes= 0.00D+00
 Harris functional with IExCor= 4639 and IRadAn=       5 diagonalized for initial guess.
 HarFok:  IExCor= 4639 AccDes= 0.00D+00 IRadAn=         5 IDoV= 1 UseB2=F ITyADJ=14
 ICtDFT=  3500011 ScaDFX=  1.000000  1.000000  1.000000  1.000000
 FoFCou: FMM=F IPFlag=           0 FMFlag=      100000 FMFlg1=           0
         NFxFlg=           0 DoJE=T BraDBF=F KetDBF=T FulRan=T
         wScrn=  0.000000 ICntrl=       500 IOpCl=  0 I1Cent=   200000004 NGrid=           0
         NMat0=    1 NMatS0=      1 NMatT0=    0 NMatD0=    1 NMtDS0=    0 NMtDT0=    0
 Symmetry not used in FoFCou.
 Harris En= -444.657542760145    
 JPrj=0 DoOrth=F DoCkMO=T.
 Mixing orbitals, IMix= 1 IMixAn=  0 NRI=1 NE=   44 Coef=  7.07106781D-01  7.07106781D-01
 Mixing orbitals, IMix= 1 IMixAn=  0 NRI=1 NE=   44 Coef= -7.07106781D-01  7.07106781D-01
 Initial guess <Sx>= 0.0000 <Sy>= 0.0000 <Sz>= 0.0000 <S**2>= 1.0000 S= 0.6180
 Leave Link  401 at Tue Aug  4 01:21:06 2020, MaxMem=  6442450944 cpu:              48.7 elap:               2.1
 (Enter /scratch/scicomp/CentOS/7.3.1611/Haswell/software/Gaussian/g16/l502.exe)
 Two-electron integral symmetry not used.
 UHF open shell SCF:
 Using DIIS extrapolation, IDIIS=  1040.
 NGot=  6442450944 LenX=  6441877030 LenY=  6441597718
 Requested convergence on RMS density matrix=1.00D-08 within 128 cycles.
 Requested convergence on MAX density matrix=1.00D-06.
 Requested convergence on             energy=1.00D-06.
 No special actions if energy rises.
 Fock matrices will be formed incrementally for  20 cycles.

 Cycle   1  Pass 1  IDiag  1:
 FoFJK:  IHMeth= 1 ICntrl=       0 DoSepK=T KAlg= 0 I1Cent=           0 FoldK=F
 IRaf=         1 NMat=       1 IRICut=       1 DoRegI=T DoRafI=F ISym2E= 0 IDoP0=0 IntGTp=1.
 FoFCou: FMM=F IPFlag=           0 FMFlag=      100000 FMFlg1=           0
         NFxFlg=           0 DoJE=T BraDBF=F KetDBF=F FulRan=T
         wScrn=  0.000000 ICntrl=       500 IOpCl=  0 I1Cent=           0 NGrid=           0
         NMat0=    1 NMatS0=      1 NMatT0=    0 NMatD0=    1 NMtDS0=    0 NMtDT0=    0
 Symmetry not used in FoFCou.
 Inv3:  Mode=1 IEnd=    64867500.
 Iteration    1 A*A^-1 deviation from unit magnitude is 3.77D-15 for     65.
 Iteration    1 A*A^-1 deviation from orthogonality  is 1.76D-15 for    876    846.
 Iteration    1 A^-1*A deviation from unit magnitude is 3.55D-15 for     65.
 Iteration    1 A^-1*A deviation from orthogonality  is 1.78D-15 for   4351   2253.
 E= -466.568993495165    
 DIIS: error= 5.25D-02 at cycle   1 NSaved=   1.
 NSaved= 1 IEnMin= 1 EnMin= -466.568993495165     IErMin= 1 ErrMin= 5.25D-02
 ErrMax= 5.25D-02  0.00D+00 EMaxC= 1.00D-01 BMatC= 4.11D+00 BMatP= 4.11D+00
 IDIUse=3 WtCom= 4.75D-01 WtEn= 5.25D-01
 Coeff-Com:  0.100D+01
 Coeff-En:   0.100D+01
 Coeff:      0.100D+01
 Gap=     0.181 Goal=   None    Shift=    0.000
 Gap=     0.181 Goal=   None    Shift=    0.000
 GapD=    0.181 DampG=1.000 DampE=0.500 DampFc=0.5000 IDamp=-1.
 Damping current iteration by 5.00D-01
 RMSDP=1.70D-03 MaxDP=9.30D-02              OVMax= 3.51D-01

 Cycle   2  Pass 1  IDiag  1:
 RMSU=  8.19D-04    CP:  9.64D-01
 E= -466.681145690434     Delta-E=       -0.112152195268 Rises=F Damp=T
 DIIS: error= 2.50D-02 at cycle   2 NSaved=   2.
 NSaved= 2 IEnMin= 2 EnMin= -466.681145690434     IErMin= 2 ErrMin= 2.50D-02
 ErrMax= 2.50D-02  0.00D+00 EMaxC= 1.00D-01 BMatC= 9.36D-01 BMatP= 4.11D+00
 IDIUse=3 WtCom= 7.50D-01 WtEn= 2.50D-01
 Coeff-Com: -0.869D+00 0.187D+01
 Coeff-En:   0.000D+00 0.100D+01
 Coeff:     -0.652D+00 0.165D+01
 Gap=     0.279 Goal=   None    Shift=    0.000
 Gap=     0.279 Goal=   None    Shift=    0.000
 RMSDP=1.21D-03 MaxDP=5.00D-02 DE=-1.12D-01 OVMax= 1.39D-01

 Cycle   3  Pass 1  IDiag  1:
 RMSU=  5.93D-04    CP:  9.09D-01  2.22D+00
 E= -466.828096024209     Delta-E=       -0.146950333775 Rises=F Damp=F
 DIIS: error= 7.84D-03 at cycle   3 NSaved=   3.
 NSaved= 3 IEnMin= 3 EnMin= -466.828096024209     IErMin= 3 ErrMin= 7.84D-03
 ErrMax= 7.84D-03  0.00D+00 EMaxC= 1.00D-01 BMatC= 2.34D-02 BMatP= 9.36D-01
 IDIUse=3 WtCom= 9.22D-01 WtEn= 7.84D-02
 Coeff-Com: -0.313D+00 0.671D+00 0.642D+00
 Coeff-En:   0.000D+00 0.000D+00 0.100D+01
 Coeff:     -0.288D+00 0.618D+00 0.670D+00
 Gap=     0.301 Goal=   None    Shift=    0.000
 Gap=     0.301 Goal=   None    Shift=    0.000
 RMSDP=2.18D-04 MaxDP=1.11D-02 DE=-1.47D-01 OVMax= 6.50D-02

 Cycle   4  Pass 1  IDiag  1:
 RMSU=  2.01D-04    CP:  9.02D-01  2.31D+00  1.01D+00
 E= -466.838781753704     Delta-E=       -0.010685729494 Rises=F Damp=F
 DIIS: error= 5.15D-03 at cycle   4 NSaved=   4.
 NSaved= 4 IEnMin= 4 EnMin= -466.838781753704     IErMin= 4 ErrMin= 5.15D-03
 ErrMax= 5.15D-03  0.00D+00 EMaxC= 1.00D-01 BMatC= 2.08D-03 BMatP= 2.34D-02
 IDIUse=3 WtCom= 9.48D-01 WtEn= 5.15D-02
 Coeff-Com:  0.146D+00-0.312D+00-0.736D-01 0.124D+01
 Coeff-En:   0.000D+00 0.000D+00 0.000D+00 0.100D+01
 Coeff:      0.138D+00-0.296D+00-0.698D-01 0.123D+01
 Gap=     0.312 Goal=   None    Shift=    0.000
 Gap=     0.312 Goal=   None    Shift=    0.000
 RMSDP=2.20D-04 MaxDP=1.27D-02 DE=-1.07D-02 OVMax= 7.79D-02

 Cycle   5  Pass 1  IDiag  1:
 RMSU=  8.76D-05    CP:  8.95D-01  2.36D+00  1.25D+00  1.65D+00
 E= -466.843495857478     Delta-E=       -0.004714103774 Rises=F Damp=F
 DIIS: error= 2.33D-03 at cycle   5 NSaved=   5.
 NSaved= 5 IEnMin= 5 EnMin= -466.843495857478     IErMin= 5 ErrMin= 2.33D-03
 ErrMax= 2.33D-03  0.00D+00 EMaxC= 1.00D-01 BMatC= 8.51D-04 BMatP= 2.08D-03
 IDIUse=3 WtCom= 9.77D-01 WtEn= 2.33D-02
 Coeff-Com:  0.654D-01-0.140D+00-0.707D-01 0.373D+00 0.773D+00
 Coeff-En:   0.000D+00 0.000D+00 0.000D+00 0.000D+00 0.100D+01
 Coeff:      0.639D-01-0.137D+00-0.690D-01 0.364D+00 0.778D+00
 Gap=     0.314 Goal=   None    Shift=    0.000
 Gap=     0.314 Goal=   None    Shift=    0.000
 RMSDP=7.67D-05 MaxDP=3.33D-03 DE=-4.71D-03 OVMax= 2.76D-02

 Cycle   6  Pass 1  IDiag  1:
 RMSU=  3.21D-05    CP:  8.94D-01  2.37D+00  1.28D+00  1.93D+00  1.39D+00
 E= -466.844836467164     Delta-E=       -0.001340609686 Rises=F Damp=F
 DIIS: error= 1.70D-03 at cycle   6 NSaved=   6.
 NSaved= 6 IEnMin= 6 EnMin= -466.844836467164     IErMin= 6 ErrMin= 1.70D-03
 ErrMax= 1.70D-03  0.00D+00 EMaxC= 1.00D-01 BMatC= 5.25D-04 BMatP= 8.51D-04
 IDIUse=3 WtCom= 9.83D-01 WtEn= 1.70D-02
 Coeff-Com: -0.811D-01 0.174D+00 0.575D-01-0.600D+00 0.560D-01 0.139D+01
 Coeff-En:   0.000D+00 0.000D+00 0.000D+00 0.000D+00 0.000D+00 0.100D+01
 Coeff:     -0.797D-01 0.171D+00 0.565D-01-0.589D+00 0.551D-01 0.139D+01
 Gap=     0.311 Goal=   None    Shift=    0.000
 Gap=     0.311 Goal=   None    Shift=    0.000
 RMSDP=1.04D-04 MaxDP=4.10D-03 DE=-1.34D-03 OVMax= 3.80D-02

 Cycle   7  Pass 1  IDiag  1:
 RMSU=  3.20D-05    CP:  8.92D-01  2.37D+00  1.32D+00  2.22D+00  2.09D+00
                    CP:  2.27D+00
 E= -466.846462987050     Delta-E=       -0.001626519886 Rises=F Damp=F
 DIIS: error= 1.09D-03 at cycle   7 NSaved=   7.
 NSaved= 7 IEnMin= 7 EnMin= -466.846462987050     IErMin= 7 ErrMin= 1.09D-03
 ErrMax= 1.09D-03  0.00D+00 EMaxC= 1.00D-01 BMatC= 2.68D-04 BMatP= 5.25D-04
 IDIUse=3 WtCom= 9.89D-01 WtEn= 1.09D-02
 Coeff-Com: -0.238D-01 0.515D-01 0.414D-01 0.681D-02-0.698D+00-0.542D+00
 Coeff-Com:  0.216D+01
 Coeff-En:   0.000D+00 0.000D+00 0.000D+00 0.000D+00 0.000D+00 0.000D+00
 Coeff-En:   0.100D+01
 Coeff:     -0.235D-01 0.510D-01 0.410D-01 0.674D-02-0.690D+00-0.536D+00
 Coeff:      0.215D+01
 Gap=     0.311 Goal=   None    Shift=    0.000
 Gap=     0.311 Goal=   None    Shift=    0.000
 RMSDP=1.41D-04 MaxDP=6.67D-03 DE=-1.63D-03 OVMax= 5.22D-02

 Cycle   8  Pass 1  IDiag  1:
 RMSU=  5.60D-05    CP:  8.90D-01  2.36D+00  1.36D+00  2.55D+00  2.97D+00
                    CP:  3.00D+00  2.67D+00
 E= -466.847894164641     Delta-E=       -0.001431177590 Rises=F Damp=F
 DIIS: error= 3.90D-04 at cycle   8 NSaved=   8.
 NSaved= 8 IEnMin= 8 EnMin= -466.847894164641     IErMin= 8 ErrMin= 3.90D-04
 ErrMax= 3.90D-04  0.00D+00 EMaxC= 1.00D-01 BMatC= 6.69D-05 BMatP= 2.68D-04
 IDIUse=3 WtCom= 9.96D-01 WtEn= 3.90D-03
 Coeff-Com:  0.251D-01-0.540D-01-0.731D-02 0.268D+00-0.231D+00-0.753D+00
 Coeff-Com:  0.641D+00 0.111D+01
 Coeff-En:   0.000D+00 0.000D+00 0.000D+00 0.000D+00 0.000D+00 0.000D+00
 Coeff-En:   0.000D+00 0.100D+01
 Coeff:      0.250D-01-0.538D-01-0.728D-02 0.267D+00-0.230D+00-0.750D+00
 Coeff:      0.638D+00 0.111D+01
 Gap=     0.313 Goal=   None    Shift=    0.000
 Gap=     0.313 Goal=   None    Shift=    0.000
 RMSDP=6.57D-05 MaxDP=3.24D-03 DE=-1.43D-03 OVMax= 2.46D-02

 Cycle   9  Pass 1  IDiag  1:
 RMSU=  3.77D-05    CP:  8.88D-01  2.36D+00  1.38D+00  2.66D+00  3.00D+00
                    CP:  3.00D+00  3.00D+00  1.70D+00
 E= -466.848159727135     Delta-E=       -0.000265562494 Rises=F Damp=F
 DIIS: error= 1.29D-04 at cycle   9 NSaved=   9.
 NSaved= 9 IEnMin= 9 EnMin= -466.848159727135     IErMin= 9 ErrMin= 1.29D-04
 ErrMax= 1.29D-04  0.00D+00 EMaxC= 1.00D-01 BMatC= 1.08D-05 BMatP= 6.69D-05
 IDIUse=3 WtCom= 9.99D-01 WtEn= 1.29D-03
 Coeff-Com:  0.134D-01-0.288D-01-0.912D-02 0.962D-01 0.315D-01-0.179D+00
 Coeff-Com: -0.126D+00 0.329D+00 0.873D+00
 Coeff-En:   0.000D+00 0.000D+00 0.000D+00 0.000D+00 0.000D+00 0.000D+00
 Coeff-En:   0.000D+00 0.000D+00 0.100D+01
 Coeff:      0.134D-01-0.288D-01-0.910D-02 0.961D-01 0.315D-01-0.179D+00
 Coeff:     -0.126D+00 0.329D+00 0.874D+00
 Gap=     0.312 Goal=   None    Shift=    0.000
 Gap=     0.312 Goal=   None    Shift=    0.000
 RMSDP=1.76D-05 MaxDP=8.61D-04 DE=-2.66D-04 OVMax= 6.51D-03

 Cycle  10  Pass 1  IDiag  1:
 RMSU=  5.20D-06    CP:  8.88D-01  2.36D+00  1.39D+00  2.68D+00  3.00D+00
                    CP:  3.00D+00  3.00D+00  1.88D+00  1.32D+00
 E= -466.848181349049     Delta-E=       -0.000021621913 Rises=F Damp=F
 DIIS: error= 5.50D-05 at cycle  10 NSaved=  10.
 NSaved=10 IEnMin=10 EnMin= -466.848181349049     IErMin=10 ErrMin= 5.50D-05
 ErrMax= 5.50D-05  0.00D+00 EMaxC= 1.00D-01 BMatC= 1.79D-06 BMatP= 1.08D-05
 IDIUse=1 WtCom= 1.00D+00 WtEn= 0.00D+00
 Coeff-Com: -0.768D-03 0.167D-02-0.977D-03-0.223D-01 0.419D-01 0.804D-01
 Coeff-Com: -0.121D+00-0.154D+00 0.205D+00 0.971D+00
 Coeff:     -0.768D-03 0.167D-02-0.977D-03-0.223D-01 0.419D-01 0.804D-01
 Coeff:     -0.121D+00-0.154D+00 0.205D+00 0.971D+00
 Gap=     0.312 Goal=   None    Shift=    0.000
 Gap=     0.312 Goal=   None    Shift=    0.000
 RMSDP=7.48D-06 MaxDP=3.46D-04 DE=-2.16D-05 OVMax= 2.72D-03

 Cycle  11  Pass 1  IDiag  1:
 RMSU=  2.66D-06    CP:  8.88D-01  2.36D+00  1.39D+00  2.69D+00  3.00D+00
                    CP:  3.00D+00  3.00D+00  1.95D+00  1.44D+00  1.36D+00
 E= -466.848184089219     Delta-E=       -0.000002740171 Rises=F Damp=F
 DIIS: error= 2.29D-05 at cycle  11 NSaved=  11.
 NSaved=11 IEnMin=11 EnMin= -466.848184089219     IErMin=11 ErrMin= 2.29D-05
 ErrMax= 2.29D-05  0.00D+00 EMaxC= 1.00D-01 BMatC= 3.82D-07 BMatP= 1.79D-06
 IDIUse=1 WtCom= 1.00D+00 WtEn= 0.00D+00
 Coeff-Com: -0.112D-02 0.243D-02 0.195D-03-0.145D-01 0.124D-01 0.394D-01
 Coeff-Com: -0.287D-01-0.831D-01-0.518D-02 0.363D+00 0.715D+00
 Coeff:     -0.112D-02 0.243D-02 0.195D-03-0.145D-01 0.124D-01 0.394D-01
 Coeff:     -0.287D-01-0.831D-01-0.518D-02 0.363D+00 0.715D+00
 Gap=     0.312 Goal=   None    Shift=    0.000
 Gap=     0.312 Goal=   None    Shift=    0.000
 RMSDP=1.30D-06 MaxDP=6.58D-05 DE=-2.74D-06 OVMax= 3.49D-04

 Cycle  12  Pass 1  IDiag  1:
 RMSU=  7.80D-07    CP:  8.88D-01  2.36D+00  1.39D+00  2.69D+00  3.00D+00
                    CP:  3.00D+00  3.00D+00  1.95D+00  1.46D+00  1.43D+00
                    CP:  1.23D+00
 E= -466.848184311865     Delta-E=       -0.000000222646 Rises=F Damp=F
 DIIS: error= 1.31D-05 at cycle  12 NSaved=  12.
 NSaved=12 IEnMin=12 EnMin= -466.848184311865     IErMin=12 ErrMin= 1.31D-05
 ErrMax= 1.31D-05  0.00D+00 EMaxC= 1.00D-01 BMatC= 7.25D-08 BMatP= 3.82D-07
 IDIUse=1 WtCom= 1.00D+00 WtEn= 0.00D+00
 Coeff-Com:  0.379D-03-0.826D-03-0.311D-04 0.592D-02-0.656D-02-0.189D-01
 Coeff-Com:  0.232D-01 0.355D-01-0.429D-01-0.230D+00 0.795D-01 0.115D+01
 Coeff:      0.379D-03-0.826D-03-0.311D-04 0.592D-02-0.656D-02-0.189D-01
 Coeff:      0.232D-01 0.355D-01-0.429D-01-0.230D+00 0.795D-01 0.115D+01
 Gap=     0.312 Goal=   None    Shift=    0.000
 Gap=     0.312 Goal=   None    Shift=    0.000
 RMSDP=8.00D-07 MaxDP=3.09D-05 DE=-2.23D-07 OVMax= 1.51D-04

 Cycle  13  Pass 1  IDiag  1:
 RMSU=  4.94D-07    CP:  8.88D-01  2.36D+00  1.39D+00  2.69D+00  3.00D+00
                    CP:  3.00D+00  3.00D+00  1.95D+00  1.46D+00  1.45D+00
                    CP:  1.41D+00  1.49D+00
 E= -466.848184408699     Delta-E=       -0.000000096834 Rises=F Damp=F
 DIIS: error= 6.91D-06 at cycle  13 NSaved=  13.
 NSaved=13 IEnMin=13 EnMin= -466.848184408699     IErMin=13 ErrMin= 6.91D-06
 ErrMax= 6.91D-06  0.00D+00 EMaxC= 1.00D-01 BMatC= 1.53D-08 BMatP= 7.25D-08
 IDIUse=1 WtCom= 1.00D+00 WtEn= 0.00D+00
 Coeff-Com: -0.178D-03 0.387D-03 0.114D-03-0.167D-02 0.923D-03 0.429D-02
 Coeff-Com: -0.440D-02-0.534D-02 0.772D-02 0.290D-01-0.106D+00-0.316D+00
 Coeff-Com:  0.139D+01
 Coeff:     -0.178D-03 0.387D-03 0.114D-03-0.167D-02 0.923D-03 0.429D-02
 Coeff:     -0.440D-02-0.534D-02 0.772D-02 0.290D-01-0.106D+00-0.316D+00
 Coeff:      0.139D+01
 Gap=     0.312 Goal=   None    Shift=    0.000
 Gap=     0.312 Goal=   None    Shift=    0.000
 RMSDP=4.30D-07 MaxDP=2.26D-05 DE=-9.68D-08 OVMax= 9.63D-05

 Cycle  14  Pass 1  IDiag  1:
 RMSU=  2.73D-07    CP:  8.88D-01  2.36D+00  1.39D+00  2.69D+00  3.00D+00
                    CP:  3.00D+00  3.00D+00  1.95D+00  1.46D+00  1.46D+00
                    CP:  1.40D+00  1.61D+00  1.62D+00
 E= -466.848184440578     Delta-E=       -0.000000031879 Rises=F Damp=F
 DIIS: error= 3.86D-06 at cycle  14 NSaved=  14.
 NSaved=14 IEnMin=14 EnMin= -466.848184440578     IErMin=14 ErrMin= 3.86D-06
 ErrMax= 3.86D-06  0.00D+00 EMaxC= 1.00D-01 BMatC= 5.03D-09 BMatP= 1.53D-08
 IDIUse=1 WtCom= 1.00D+00 WtEn= 0.00D+00
 Coeff-Com: -0.199D-03 0.431D-03 0.877D-04-0.235D-02 0.197D-02 0.686D-02
 Coeff-Com: -0.791D-02-0.122D-01 0.159D-01 0.823D-01-0.489D-01-0.452D+00
 Coeff-Com:  0.183D+00 0.123D+01
 Coeff:     -0.199D-03 0.431D-03 0.877D-04-0.235D-02 0.197D-02 0.686D-02
 Coeff:     -0.791D-02-0.122D-01 0.159D-01 0.823D-01-0.489D-01-0.452D+00
 Coeff:      0.183D+00 0.123D+01
 Gap=     0.312 Goal=   None    Shift=    0.000
 Gap=     0.312 Goal=   None    Shift=    0.000
 RMSDP=3.10D-07 MaxDP=1.35D-05 DE=-3.19D-08 OVMax= 7.08D-05

 Cycle  15  Pass 1  IDiag  1:
 RMSU=  1.17D-07    CP:  8.88D-01  2.36D+00  1.39D+00  2.69D+00  3.00D+00
                    CP:  3.00D+00  3.00D+00  1.95D+00  1.46D+00  1.46D+00
                    CP:  1.38D+00  1.68D+00  2.03D+00  1.69D+00
 E= -466.848184451754     Delta-E=       -0.000000011176 Rises=F Damp=F
 DIIS: error= 1.40D-06 at cycle  15 NSaved=  15.
 NSaved=15 IEnMin=15 EnMin= -466.848184451754     IErMin=15 ErrMin= 1.40D-06
 ErrMax= 1.40D-06  0.00D+00 EMaxC= 1.00D-01 BMatC= 7.48D-10 BMatP= 5.03D-09
 IDIUse=1 WtCom= 1.00D+00 WtEn= 0.00D+00
 Coeff-Com:  0.451D-04-0.978D-04-0.390D-04 0.342D-03 0.149D-04-0.621D-03
 Coeff-Com: -0.148D-03 0.823D-03 0.195D-02 0.236D-02 0.122D-01 0.448D-02
 Coeff-Com: -0.278D+00 0.164D+00 0.109D+01
 Coeff:      0.451D-04-0.978D-04-0.390D-04 0.342D-03 0.149D-04-0.621D-03
 Coeff:     -0.148D-03 0.823D-03 0.195D-02 0.236D-02 0.122D-01 0.448D-02
 Coeff:     -0.278D+00 0.164D+00 0.109D+01
 Gap=     0.312 Goal=   None    Shift=    0.000
 Gap=     0.312 Goal=   None    Shift=    0.000
 RMSDP=1.30D-07 MaxDP=5.33D-06 DE=-1.12D-08 OVMax= 3.02D-05

 Cycle  16  Pass 1  IDiag  1:
 RMSU=  5.06D-08    CP:  8.88D-01  2.36D+00  1.39D+00  2.69D+00  3.00D+00
                    CP:  3.00D+00  3.00D+00  1.95D+00  1.46D+00  1.46D+00
                    CP:  1.38D+00  1.70D+00  2.13D+00  1.94D+00  1.61D+00
 E= -466.848184453080     Delta-E=       -0.000000001326 Rises=F Damp=F
 DIIS: error= 3.25D-07 at cycle  16 NSaved=  16.
 NSaved=16 IEnMin=16 EnMin= -466.848184453080     IErMin=16 ErrMin= 3.25D-07
 ErrMax= 3.25D-07  0.00D+00 EMaxC= 1.00D-01 BMatC= 8.07D-11 BMatP= 7.48D-10
 IDIUse=1 WtCom= 1.00D+00 WtEn= 0.00D+00
 Coeff-Com:  0.231D-04-0.499D-04-0.142D-04 0.257D-03-0.159D-03-0.663D-03
 Coeff-Com:  0.598D-03 0.130D-02-0.126D-02-0.798D-02 0.818D-02 0.479D-01
 Coeff-Com: -0.802D-01-0.102D+00 0.249D+00 0.885D+00
 Coeff:      0.231D-04-0.499D-04-0.142D-04 0.257D-03-0.159D-03-0.663D-03
 Coeff:      0.598D-03 0.130D-02-0.126D-02-0.798D-02 0.818D-02 0.479D-01
 Coeff:     -0.802D-01-0.102D+00 0.249D+00 0.885D+00
 Gap=     0.312 Goal=   None    Shift=    0.000
 Gap=     0.312 Goal=   None    Shift=    0.000
 RMSDP=3.37D-08 MaxDP=1.53D-06 DE=-1.33D-09 OVMax= 5.81D-06

 Cycle  17  Pass 1  IDiag  1:
 RMSU=  1.39D-08    CP:  8.88D-01  2.36D+00  1.39D+00  2.69D+00  3.00D+00
                    CP:  3.00D+00  3.00D+00  1.95D+00  1.46D+00  1.46D+00
                    CP:  1.38D+00  1.70D+00  2.13D+00  1.99D+00  1.77D+00
                    CP:  1.29D+00
 E= -466.848184453154     Delta-E=       -0.000000000074 Rises=F Damp=F
 DIIS: error= 7.98D-08 at cycle  17 NSaved=  17.
 NSaved=17 IEnMin=17 EnMin= -466.848184453154     IErMin=17 ErrMin= 7.98D-08
 ErrMax= 7.98D-08  0.00D+00 EMaxC= 1.00D-01 BMatC= 8.85D-12 BMatP= 8.07D-11
 IDIUse=1 WtCom= 1.00D+00 WtEn= 0.00D+00
 Coeff-Com: -0.359D-06 0.846D-06 0.250D-06-0.133D-05-0.150D-04 0.110D-04
 Coeff-Com:  0.367D-04 0.819D-04-0.428D-03-0.142D-02 0.536D-03 0.763D-02
 Coeff-Com:  0.146D-01-0.364D-01-0.749D-01 0.175D+00 0.915D+00
 Coeff:     -0.359D-06 0.846D-06 0.250D-06-0.133D-05-0.150D-04 0.110D-04
 Coeff:      0.367D-04 0.819D-04-0.428D-03-0.142D-02 0.536D-03 0.763D-02
 Coeff:      0.146D-01-0.364D-01-0.749D-01 0.175D+00 0.915D+00
 Gap=     0.312 Goal=   None    Shift=    0.000
 Gap=     0.312 Goal=   None    Shift=    0.000
 RMSDP=1.04D-08 MaxDP=3.66D-07 DE=-7.38D-11 OVMax= 1.93D-06

 Cycle  18  Pass 1  IDiag  1:
 RMSU=  5.66D-09    CP:  8.88D-01  2.36D+00  1.39D+00  2.69D+00  3.00D+00
                    CP:  3.00D+00  3.00D+00  1.95D+00  1.46D+00  1.47D+00
                    CP:  1.38D+00  1.70D+00  2.13D+00  1.99D+00  1.81D+00
                    CP:  1.36D+00  1.23D+00
 E= -466.848184453165     Delta-E=       -0.000000000011 Rises=F Damp=F
 DIIS: error= 3.26D-08 at cycle  18 NSaved=  18.
 NSaved=18 IEnMin=18 EnMin= -466.848184453165     IErMin=18 ErrMin= 3.26D-08
 ErrMax= 3.26D-08  0.00D+00 EMaxC= 1.00D-01 BMatC= 9.05D-13 BMatP= 8.85D-12
 IDIUse=1 WtCom= 1.00D+00 WtEn= 0.00D+00
 Coeff-Com: -0.946D-06 0.204D-05 0.816D-06-0.130D-04 0.700D-06 0.417D-04
 Coeff-Com: -0.327D-04-0.731D-04 0.609D-04 0.463D-03-0.601D-03-0.322D-02
 Coeff-Com:  0.869D-02 0.513D-02-0.308D-01-0.694D-01 0.108D+00 0.981D+00
 Coeff:     -0.946D-06 0.204D-05 0.816D-06-0.130D-04 0.700D-06 0.417D-04
 Coeff:     -0.327D-04-0.731D-04 0.609D-04 0.463D-03-0.601D-03-0.322D-02
 Coeff:      0.869D-02 0.513D-02-0.308D-01-0.694D-01 0.108D+00 0.981D+00
 Gap=     0.312 Goal=   None    Shift=    0.000
 Gap=     0.312 Goal=   None    Shift=    0.000
 RMSDP=3.27D-09 MaxDP=1.18D-07 DE=-1.08D-11 OVMax= 5.11D-07

 Error on total polarization charges =  0.01123
 SCF Done:  E(UwB97XD) =  -466.848184453     A.U. after   18 cycles
            NFock= 18  Conv=0.33D-08     -V/T= 2.0057
 <Sx>= 0.0000 <Sy>= 0.0000 <Sz>= 0.0000 <S**2>= 0.0000 S= 0.0000
 <L.S>=  0.00000000000    
 KE= 4.642006367835D+02 PE=-2.432383904233D+03 EE= 8.261127269050D+02
 --------------------------------------------------------------------
 Variational PCM results
 =======================
 <psi(f)|   H    |psi(f)>                     (a.u.) =    -466.855862
 <psi(f)|H+V(f)/2|psi(f)>                     (a.u.) =    -466.857390
 Total free energy in solution:
 - with all non electrostatic terms           (a.u.) =    -466.848184
 --------------------------------------------------------------------
 (Polarized solute)-Solvent               (kcal/mol) =      -0.96
 --------------------------------------------------------------------
 Quantum repulsion energy                 (kcal/mol) =       5.78
 Total non electrostatic                  (kcal/mol) =       5.78
 --------------------------------------------------------------------
 Partition over spheres:
 Sphere  on Atom  Surface  Charge   GEl     GCav    GDR
    1               7.08   0.010   -0.05    0.00    0.00
    2               4.96   0.007   -0.04    0.00    0.00
    3               7.52  -0.010   -0.04    0.00    0.00
    4               3.24  -0.004   -0.01    0.00    0.00
    5               4.55   0.009   -0.06    0.00    0.00
    6               4.79   0.007   -0.04    0.00    0.00
    7               4.59  -0.006   -0.03    0.00    0.00
    8               4.06  -0.005   -0.01    0.00    0.00
    9               3.11   0.002    0.00    0.00    0.00
   10               6.99  -0.007   -0.01    0.00    0.00
   11               2.68  -0.002   -0.01    0.00    0.00
   12               6.35   0.010   -0.06    0.00    0.00
   13               7.52  -0.010   -0.03    0.00    0.00
   14               7.27   0.010   -0.05    0.00    0.00
   15               7.52  -0.010   -0.04    0.00    0.00
   16               3.67   0.002    0.00    0.00    0.00
   17               3.11  -0.003   -0.01    0.00    0.00
   18               6.96  -0.008   -0.03    0.00    0.00
   19               5.10   0.009   -0.06    0.00    0.00
   20               5.36  -0.008   -0.03    0.00    0.00
   21               6.21   0.010   -0.06    0.00    0.00
   22               7.51  -0.010   -0.03    0.00    0.00
   23               3.80   0.002    0.00    0.00    0.00
   24               4.02  -0.003   -0.01    0.00    0.00
   25               6.90  -0.007   -0.01    0.00    0.00
   26               3.46   0.002    0.00    0.00    0.00
   27               7.06  -0.008   -0.03    0.00    0.00
   28               3.18  -0.003   -0.01    0.00    0.00
 Added spheres:    74.08   0.014   -0.21    0.00    0.00
 --------------------------------------------------------------------
 After PCM corrections, the energy is  -466.848184453     a.u.
 --------------------------------------------------------------------
 Annihilation of the first spin contaminant:
 S**2 before annihilation     0.0000,   after     0.0000
 Leave Link  502 at Tue Aug  4 01:26:39 2020, MaxMem=  6442450944 cpu:            7920.6 elap:             332.8
 (Enter /scratch/scicomp/CentOS/7.3.1611/Haswell/software/Gaussian/g16/l601.exe)
 Copying SCF densities to generalized density rwf, IOpCl= 1 IROHF=0.

 **********************************************************************

            Population analysis using the SCF Density.

 **********************************************************************

 Alpha  occ. eigenvalues --  -10.28338 -10.28337 -10.28113 -10.28113 -10.28086
 Alpha  occ. eigenvalues --  -10.28086 -10.28013 -10.28011 -10.27800 -10.27800
 Alpha  occ. eigenvalues --  -10.27408 -10.27408  -0.94045  -0.93475  -0.84137
 Alpha  occ. eigenvalues --   -0.84037  -0.83700  -0.83573  -0.71313  -0.71077
 Alpha  occ. eigenvalues --   -0.67873  -0.67802  -0.59636  -0.59491  -0.57271
 Alpha  occ. eigenvalues --   -0.56574  -0.53504  -0.52665  -0.50838  -0.50794
 Alpha  occ. eigenvalues --   -0.49770  -0.49284  -0.47239  -0.46781  -0.45091
 Alpha  occ. eigenvalues --   -0.44939  -0.41166  -0.40884  -0.39610  -0.39164
 Alpha  occ. eigenvalues --   -0.39105  -0.38853  -0.29675  -0.27450
 Alpha virt. eigenvalues --    0.03721   0.05146   0.11375   0.13034   0.14346
 Alpha virt. eigenvalues --    0.15406   0.15492   0.16326   0.16495   0.16924
 Alpha virt. eigenvalues --    0.17601   0.17680   0.18089   0.19186   0.20917
 Alpha virt. eigenvalues --    0.22039   0.22379   0.23648   0.24285   0.24293
 Alpha virt. eigenvalues --    0.25540   0.26330   0.26535   0.27492   0.28719
 Alpha virt. eigenvalues --    0.28920   0.29544   0.29878   0.30758   0.31143
 Alpha virt. eigenvalues --    0.32145   0.32246   0.32785   0.33043   0.33960
 Alpha virt. eigenvalues --    0.34334   0.34723   0.36252   0.36408   0.37838
 Alpha virt. eigenvalues --    0.38376   0.39862   0.39919   0.41822   0.42206
 Alpha virt. eigenvalues --    0.42209   0.44162   0.44732   0.45839   0.46567
 Alpha virt. eigenvalues --    0.47069   0.47278   0.48460   0.48584   0.49148
 Alpha virt. eigenvalues --    0.49247   0.49637   0.49819   0.50348   0.50713
 Alpha virt. eigenvalues --    0.51167   0.51302   0.52348   0.52695   0.53314
 Alpha virt. eigenvalues --    0.53820   0.54683   0.54962   0.55476   0.55868
 Alpha virt. eigenvalues --    0.57640   0.58160   0.58538   0.59304   0.60317
 Alpha virt. eigenvalues --    0.60628   0.61120   0.63028   0.63500   0.64934
 Alpha virt. eigenvalues --    0.66038   0.67276   0.68274   0.68752   0.69019
 Alpha virt. eigenvalues --    0.70858   0.72882   0.73018   0.73817   0.75014
 Alpha virt. eigenvalues --    0.77446   0.78641   0.78658   0.80866   0.80899
 Alpha virt. eigenvalues --    0.82005   0.82624   0.83332   0.87868   0.88386
 Alpha virt. eigenvalues --    0.88915   0.90223   0.90586   0.91858   0.92994
 Alpha virt. eigenvalues --    0.93063   0.95311   0.96699   0.98878   0.99086
 Alpha virt. eigenvalues --    1.01044   1.03976   1.04989   1.05130   1.05134
 Alpha virt. eigenvalues --    1.06839   1.07991   1.08122   1.09082   1.11843
 Alpha virt. eigenvalues --    1.13203   1.13898   1.14365   1.15187   1.16033
 Alpha virt. eigenvalues --    1.16247   1.17107   1.17656   1.19115   1.20824
 Alpha virt. eigenvalues --    1.20895   1.21842   1.24510   1.24552   1.24955
 Alpha virt. eigenvalues --    1.25597   1.26238   1.27337   1.28081   1.28852
 Alpha virt. eigenvalues --    1.29156   1.31107   1.31884   1.32823   1.32920
 Alpha virt. eigenvalues --    1.34281   1.35043   1.37382   1.37402   1.37899
 Alpha virt. eigenvalues --    1.38911   1.39537   1.40745   1.41419   1.41847
 Alpha virt. eigenvalues --    1.43126   1.43594   1.43861   1.44070   1.45294
 Alpha virt. eigenvalues --    1.46122   1.47046   1.47100   1.47895   1.48435
 Alpha virt. eigenvalues --    1.49589   1.50998   1.51600   1.54302   1.55924
 Alpha virt. eigenvalues --    1.57356   1.58207   1.58772   1.59567   1.61351
 Alpha virt. eigenvalues --    1.61898   1.63297   1.63752   1.65947   1.67912
 Alpha virt. eigenvalues --    1.68697   1.70575   1.72281   1.74463   1.77954
 Alpha virt. eigenvalues --    1.78161   1.80579   1.80620   1.84106   1.84130
 Alpha virt. eigenvalues --    1.86543   1.87820   1.90259   1.91192   1.91756
 Alpha virt. eigenvalues --    1.93142   1.96960   1.98791   2.00585   2.01291
 Alpha virt. eigenvalues --    2.03958   2.04430   2.06892   2.08571   2.08875
 Alpha virt. eigenvalues --    2.09797   2.11964   2.12999   2.13633   2.15632
 Alpha virt. eigenvalues --    2.17935   2.20132   2.20616   2.21327   2.22697
 Alpha virt. eigenvalues --    2.23394   2.24828   2.25221   2.27005   2.27039
 Alpha virt. eigenvalues --    2.30911   2.35142   2.37564   2.38660   2.41429
 Alpha virt. eigenvalues --    2.43486   2.45303   2.45807   2.49290   2.50122
 Alpha virt. eigenvalues --    2.50166   2.50768   2.53798   2.54517   2.55431
 Alpha virt. eigenvalues --    2.55947   2.57865   2.58473   2.61120   2.61885
 Alpha virt. eigenvalues --    2.62613   2.64799   2.64957   2.65451   2.66234
 Alpha virt. eigenvalues --    2.67038   2.67955   2.70941   2.72425   2.72852
 Alpha virt. eigenvalues --    2.73405   2.73724   2.74914   2.75991   2.77117
 Alpha virt. eigenvalues --    2.77629   2.78715   2.79692   2.80885   2.81290
 Alpha virt. eigenvalues --    2.81366   2.82802   2.83077   2.84112   2.85238
 Alpha virt. eigenvalues --    2.86046   2.86601   2.87406   2.87929   2.90104
 Alpha virt. eigenvalues --    2.90969   2.91162   2.92682   2.92766   2.94142
 Alpha virt. eigenvalues --    2.95083   2.95601   2.95799   2.96683   3.00659
 Alpha virt. eigenvalues --    3.01524   3.02373   3.03269   3.04809   3.06128
 Alpha virt. eigenvalues --    3.07579   3.09349   3.09782   3.10067   3.10539
 Alpha virt. eigenvalues --    3.12010   3.13197   3.13564   3.14718   3.15329
 Alpha virt. eigenvalues --    3.15502   3.16832   3.17317   3.18822   3.19410
 Alpha virt. eigenvalues --    3.20100   3.20337   3.20721   3.21043   3.21813
 Alpha virt. eigenvalues --    3.22102   3.22988   3.23535   3.24064   3.24370
 Alpha virt. eigenvalues --    3.26021   3.26333   3.26749   3.26953   3.28173
 Alpha virt. eigenvalues --    3.28233   3.30497   3.30870   3.31624   3.31700
 Alpha virt. eigenvalues --    3.32626   3.32993   3.33519   3.34072   3.34392
 Alpha virt. eigenvalues --    3.35802   3.36125   3.36684   3.37905   3.39105
 Alpha virt. eigenvalues --    3.39309   3.41705   3.42888   3.43454   3.44030
 Alpha virt. eigenvalues --    3.45341   3.45622   3.46702   3.46886   3.47171
 Alpha virt. eigenvalues --    3.48406   3.49539   3.49986   3.50696   3.51356
 Alpha virt. eigenvalues --    3.51982   3.53272   3.53497   3.55095   3.55143
 Alpha virt. eigenvalues --    3.57181   3.57583   3.57803   3.60166   3.64717
 Alpha virt. eigenvalues --    3.65279   3.65648   3.65815   3.67184   3.67970
 Alpha virt. eigenvalues --    3.68590   3.68999   3.71739   3.72070   3.73790
 Alpha virt. eigenvalues --    3.76457   3.76540   3.78462   3.80600   3.82040
 Alpha virt. eigenvalues --    3.85162   3.85759   3.85882   3.86615   3.86808
 Alpha virt. eigenvalues --    3.88841   3.91434   3.91960   3.94084   3.94809
 Alpha virt. eigenvalues --    3.96582   3.97641   4.01381   4.01479   4.03785
 Alpha virt. eigenvalues --    4.05642   4.08265   4.09011   4.09138   4.10634
 Alpha virt. eigenvalues --    4.12014   4.13118   4.14420   4.15180   4.18493
 Alpha virt. eigenvalues --    4.18640   4.20174   4.20813   4.23466   4.24942
 Alpha virt. eigenvalues --    4.25157   4.27544   4.30880   4.31127   4.34446
 Alpha virt. eigenvalues --    4.35153   4.38474   4.38745   4.39450   4.42235
 Alpha virt. eigenvalues --    4.43198   4.44190   4.47408   4.48905   4.51274
 Alpha virt. eigenvalues --    4.52966   4.59087   4.61241   4.63627   4.67194
 Alpha virt. eigenvalues --    4.67991   4.69074   4.73082   4.73680   4.76239
 Alpha virt. eigenvalues --    4.76929   4.79533   4.80163   4.83200   4.84713
 Alpha virt. eigenvalues --    4.85354   4.86078   4.90736   4.93763   4.94183
 Alpha virt. eigenvalues --    4.94788   4.97518   4.99635   5.06704   5.07914
 Alpha virt. eigenvalues --    5.13688   5.14609   5.19476   5.19679   5.22815
 Alpha virt. eigenvalues --    5.23393   5.32139   5.32838   5.41297   5.41951
 Alpha virt. eigenvalues --    5.43436   5.44614   5.50030   5.50795   5.68804
 Alpha virt. eigenvalues --    5.71125   5.76198   5.78825   5.94381   6.01890
 Alpha virt. eigenvalues --    7.94117   7.95580   8.01315   8.04857   8.05719
 Alpha virt. eigenvalues --    8.07649   8.10009   8.12052   8.17991   8.18447
 Alpha virt. eigenvalues --    8.35122   8.36028  34.76295  34.77830  34.81117
 Alpha virt. eigenvalues --   34.81944  34.85968  34.88424  34.96694  34.98658
 Alpha virt. eigenvalues --   35.01154  35.02019  35.16226  35.18897
  Beta  occ. eigenvalues --  -10.28338 -10.28337 -10.28113 -10.28113 -10.28086
  Beta  occ. eigenvalues --  -10.28086 -10.28013 -10.28011 -10.27800 -10.27800
  Beta  occ. eigenvalues --  -10.27408 -10.27408  -0.94045  -0.93475  -0.84137
  Beta  occ. eigenvalues --   -0.84037  -0.83700  -0.83573  -0.71313  -0.71077
  Beta  occ. eigenvalues --   -0.67873  -0.67802  -0.59636  -0.59491  -0.57271
  Beta  occ. eigenvalues --   -0.56574  -0.53504  -0.52665  -0.50838  -0.50794
  Beta  occ. eigenvalues --   -0.49770  -0.49284  -0.47239  -0.46781  -0.45091
  Beta  occ. eigenvalues --   -0.44939  -0.41166  -0.40884  -0.39610  -0.39164
  Beta  occ. eigenvalues --   -0.39105  -0.38853  -0.29675  -0.27450
  Beta virt. eigenvalues --    0.03721   0.05146   0.11375   0.13034   0.14346
  Beta virt. eigenvalues --    0.15406   0.15492   0.16326   0.16495   0.16924
  Beta virt. eigenvalues --    0.17601   0.17680   0.18089   0.19186   0.20917
  Beta virt. eigenvalues --    0.22039   0.22379   0.23648   0.24285   0.24293
  Beta virt. eigenvalues --    0.25540   0.26330   0.26535   0.27492   0.28719
  Beta virt. eigenvalues --    0.28920   0.29544   0.29878   0.30758   0.31143
  Beta virt. eigenvalues --    0.32145   0.32246   0.32785   0.33043   0.33960
  Beta virt. eigenvalues --    0.34334   0.34723   0.36252   0.36408   0.37838
  Beta virt. eigenvalues --    0.38376   0.39862   0.39919   0.41822   0.42206
  Beta virt. eigenvalues --    0.42209   0.44162   0.44732   0.45839   0.46567
  Beta virt. eigenvalues --    0.47069   0.47278   0.48460   0.48584   0.49148
  Beta virt. eigenvalues --    0.49247   0.49637   0.49819   0.50348   0.50713
  Beta virt. eigenvalues --    0.51167   0.51302   0.52348   0.52695   0.53314
  Beta virt. eigenvalues --    0.53820   0.54683   0.54962   0.55476   0.55868
  Beta virt. eigenvalues --    0.57640   0.58160   0.58538   0.59304   0.60317
  Beta virt. eigenvalues --    0.60628   0.61120   0.63028   0.63500   0.64934
  Beta virt. eigenvalues --    0.66038   0.67276   0.68274   0.68752   0.69019
  Beta virt. eigenvalues --    0.70858   0.72882   0.73018   0.73817   0.75014
  Beta virt. eigenvalues --    0.77446   0.78641   0.78658   0.80866   0.80899
  Beta virt. eigenvalues --    0.82005   0.82624   0.83332   0.87868   0.88386
  Beta virt. eigenvalues --    0.88915   0.90223   0.90586   0.91858   0.92994
  Beta virt. eigenvalues --    0.93063   0.95311   0.96699   0.98878   0.99086
  Beta virt. eigenvalues --    1.01044   1.03976   1.04989   1.05130   1.05134
  Beta virt. eigenvalues --    1.06839   1.07991   1.08122   1.09082   1.11843
  Beta virt. eigenvalues --    1.13203   1.13898   1.14365   1.15187   1.16033
  Beta virt. eigenvalues --    1.16247   1.17107   1.17656   1.19115   1.20824
  Beta virt. eigenvalues --    1.20895   1.21842   1.24510   1.24552   1.24955
  Beta virt. eigenvalues --    1.25597   1.26238   1.27337   1.28081   1.28852
  Beta virt. eigenvalues --    1.29156   1.31107   1.31884   1.32823   1.32920
  Beta virt. eigenvalues --    1.34281   1.35043   1.37382   1.37402   1.37899
  Beta virt. eigenvalues --    1.38911   1.39537   1.40745   1.41419   1.41847
  Beta virt. eigenvalues --    1.43126   1.43594   1.43861   1.44070   1.45294
  Beta virt. eigenvalues --    1.46122   1.47046   1.47100   1.47895   1.48435
  Beta virt. eigenvalues --    1.49589   1.50998   1.51600   1.54302   1.55924
  Beta virt. eigenvalues --    1.57356   1.58207   1.58772   1.59567   1.61351
  Beta virt. eigenvalues --    1.61898   1.63297   1.63752   1.65947   1.67912
  Beta virt. eigenvalues --    1.68697   1.70575   1.72281   1.74463   1.77954
  Beta virt. eigenvalues --    1.78161   1.80579   1.80620   1.84106   1.84130
  Beta virt. eigenvalues --    1.86543   1.87820   1.90259   1.91192   1.91756
  Beta virt. eigenvalues --    1.93142   1.96960   1.98791   2.00585   2.01291
  Beta virt. eigenvalues --    2.03958   2.04430   2.06892   2.08571   2.08875
  Beta virt. eigenvalues --    2.09797   2.11964   2.12999   2.13633   2.15632
  Beta virt. eigenvalues --    2.17935   2.20132   2.20616   2.21327   2.22697
  Beta virt. eigenvalues --    2.23394   2.24828   2.25221   2.27005   2.27039
  Beta virt. eigenvalues --    2.30911   2.35142   2.37564   2.38660   2.41429
  Beta virt. eigenvalues --    2.43486   2.45303   2.45807   2.49290   2.50122
  Beta virt. eigenvalues --    2.50166   2.50768   2.53798   2.54517   2.55431
  Beta virt. eigenvalues --    2.55947   2.57865   2.58473   2.61120   2.61885
  Beta virt. eigenvalues --    2.62613   2.64799   2.64957   2.65451   2.66234
  Beta virt. eigenvalues --    2.67038   2.67955   2.70941   2.72425   2.72852
  Beta virt. eigenvalues --    2.73405   2.73724   2.74914   2.75991   2.77117
  Beta virt. eigenvalues --    2.77629   2.78715   2.79692   2.80885   2.81290
  Beta virt. eigenvalues --    2.81366   2.82802   2.83077   2.84112   2.85238
  Beta virt. eigenvalues --    2.86046   2.86601   2.87406   2.87929   2.90104
  Beta virt. eigenvalues --    2.90969   2.91162   2.92682   2.92766   2.94142
  Beta virt. eigenvalues --    2.95083   2.95601   2.95799   2.96683   3.00659
  Beta virt. eigenvalues --    3.01524   3.02373   3.03269   3.04809   3.06128
  Beta virt. eigenvalues --    3.07579   3.09349   3.09782   3.10067   3.10539
  Beta virt. eigenvalues --    3.12010   3.13197   3.13564   3.14718   3.15329
  Beta virt. eigenvalues --    3.15502   3.16832   3.17317   3.18822   3.19410
  Beta virt. eigenvalues --    3.20100   3.20337   3.20721   3.21043   3.21813
  Beta virt. eigenvalues --    3.22102   3.22988   3.23535   3.24064   3.24370
  Beta virt. eigenvalues --    3.26021   3.26333   3.26749   3.26953   3.28173
  Beta virt. eigenvalues --    3.28233   3.30497   3.30870   3.31624   3.31700
  Beta virt. eigenvalues --    3.32626   3.32993   3.33519   3.34072   3.34392
  Beta virt. eigenvalues --    3.35802   3.36125   3.36684   3.37905   3.39105
  Beta virt. eigenvalues --    3.39309   3.41705   3.42888   3.43454   3.44030
  Beta virt. eigenvalues --    3.45341   3.45622   3.46702   3.46886   3.47171
  Beta virt. eigenvalues --    3.48406   3.49539   3.49986   3.50696   3.51356
  Beta virt. eigenvalues --    3.51982   3.53272   3.53497   3.55095   3.55143
  Beta virt. eigenvalues --    3.57181   3.57583   3.57803   3.60166   3.64717
  Beta virt. eigenvalues --    3.65279   3.65648   3.65815   3.67184   3.67970
  Beta virt. eigenvalues --    3.68590   3.68999   3.71739   3.72070   3.73790
  Beta virt. eigenvalues --    3.76457   3.76540   3.78462   3.80600   3.82040
  Beta virt. eigenvalues --    3.85162   3.85759   3.85882   3.86615   3.86808
  Beta virt. eigenvalues --    3.88841   3.91434   3.91960   3.94084   3.94809
  Beta virt. eigenvalues --    3.96582   3.97641   4.01381   4.01479   4.03785
  Beta virt. eigenvalues --    4.05642   4.08265   4.09011   4.09138   4.10634
  Beta virt. eigenvalues --    4.12014   4.13118   4.14420   4.15180   4.18493
  Beta virt. eigenvalues --    4.18640   4.20174   4.20813   4.23466   4.24942
  Beta virt. eigenvalues --    4.25157   4.27544   4.30880   4.31127   4.34446
  Beta virt. eigenvalues --    4.35153   4.38474   4.38745   4.39450   4.42235
  Beta virt. eigenvalues --    4.43198   4.44190   4.47408   4.48905   4.51274
  Beta virt. eigenvalues --    4.52966   4.59087   4.61241   4.63627   4.67194
  Beta virt. eigenvalues --    4.67991   4.69074   4.73082   4.73680   4.76239
  Beta virt. eigenvalues --    4.76929   4.79533   4.80163   4.83200   4.84713
  Beta virt. eigenvalues --    4.85354   4.86078   4.90736   4.93763   4.94183
  Beta virt. eigenvalues --    4.94788   4.97518   4.99635   5.06704   5.07914
  Beta virt. eigenvalues --    5.13688   5.14609   5.19476   5.19679   5.22815
  Beta virt. eigenvalues --    5.23393   5.32139   5.32838   5.41297   5.41951
  Beta virt. eigenvalues --    5.43436   5.44614   5.50030   5.50795   5.68804
  Beta virt. eigenvalues --    5.71125   5.76198   5.78825   5.94381   6.01890
  Beta virt. eigenvalues --    7.94117   7.95580   8.01315   8.04857   8.05719
  Beta virt. eigenvalues --    8.07649   8.10009   8.12052   8.17991   8.18447
  Beta virt. eigenvalues --    8.35122   8.36028  34.76295  34.77830  34.81117
  Beta virt. eigenvalues --   34.81944  34.85968  34.88424  34.96694  34.98658
  Beta virt. eigenvalues --   35.01154  35.02019  35.16226  35.18897
          Condensed to atoms (all electrons):
               1          2          3          4          5          6
     1  C    5.141699   0.002665   0.423406  -0.001796   0.000897  -0.004662
     2  C    0.002665   5.327359  -0.002077   0.425934  -0.029334  -0.041983
     3  H    0.423406  -0.002077   0.491407   0.000027  -0.000041  -0.000005
     4  H   -0.001796   0.425934   0.000027   0.468288  -0.003126   0.002925
     5  C    0.000897  -0.029334  -0.000041  -0.003126   5.160618   0.506506
     6  C   -0.004662  -0.041983  -0.000005   0.002925   0.506506   5.329129
     7  H    0.000274  -0.001564   0.000000  -0.000071   0.424170  -0.027134
     8  H   -0.001503   0.002938  -0.000018  -0.000019  -0.040942   0.425899
     9  C    0.001572  -0.003360  -0.000005  -0.001390  -0.061290   0.222867
    10  H   -0.000035   0.000159  -0.000001  -0.000090  -0.004182  -0.035033
    11  H    0.000018  -0.003913   0.000001   0.000159   0.008619  -0.057870
    12  C   -0.000126   0.008935   0.000002   0.001370   0.293792  -0.069174
    13  H   -0.000001   0.000025   0.000000   0.000009  -0.035413   0.004569
    14  C    0.000142  -0.004616  -0.000000  -0.001450  -0.054146   0.002431
    15  H   -0.000000  -0.000006  -0.000000  -0.000017   0.006900  -0.002057
    16  C   -0.000602   0.011492  -0.000000   0.000662   0.001355  -0.062118
    17  H   -0.000049  -0.000874  -0.000001  -0.000979   0.009435  -0.001655
    18  H    0.000003   0.000518   0.000000   0.000183  -0.003139   0.011581
    19  C   -0.053881   0.507234   0.006930  -0.041033  -0.008505  -0.029363
    20  H    0.003515  -0.026145  -0.000083  -0.004378   0.000271  -0.001571
    21  C    0.581147  -0.069431  -0.031476   0.005085   0.001087   0.009039
    22  H   -0.024677   0.004632  -0.005543  -0.000053   0.000017   0.000025
    23  C   -0.081327   0.223472   0.005028  -0.013733   0.007572  -0.003462
    24  H    0.013380  -0.057904  -0.000086  -0.003991   0.001228  -0.003930
    25  H    0.003736  -0.035250  -0.000049  -0.000428   0.000482   0.000158
    26  C    0.277623  -0.062005  -0.028477   0.003591  -0.004835   0.011520
    27  H   -0.039464   0.011534  -0.004432  -0.000090   0.000293   0.000519
    28  H   -0.035957  -0.001640   0.001008  -0.000125  -0.003177  -0.000933
               7          8          9         10         11         12
     1  C    0.000274  -0.001503   0.001572  -0.000035   0.000018  -0.000126
     2  C   -0.001564   0.002938  -0.003360   0.000159  -0.003913   0.008935
     3  H    0.000000  -0.000018  -0.000005  -0.000001   0.000001   0.000002
     4  H   -0.000071  -0.000019  -0.001390  -0.000090   0.000159   0.001370
     5  C    0.424170  -0.040942  -0.061290  -0.004182   0.008619   0.293792
     6  C   -0.027134   0.425899   0.222867  -0.035033  -0.057870  -0.069174
     7  H    0.475977  -0.004361   0.002893  -0.000264  -0.000020  -0.028972
     8  H   -0.004361   0.467155  -0.013544  -0.000430  -0.003971   0.005044
     9  C    0.002893  -0.013544   4.978410   0.385448   0.459684   0.036457
    10  H   -0.000264  -0.000430   0.385448   0.569046  -0.020689   0.001581
    11  H   -0.000020  -0.003971   0.459684  -0.020689   0.534186  -0.004477
    12  C   -0.028972   0.005044   0.036457   0.001581  -0.004477   5.006084
    13  H   -0.003125  -0.000053  -0.000290  -0.000050   0.000026   0.424440
    14  C    0.003522  -0.001782  -0.081255   0.003718   0.013377   0.581700
    15  H   -0.000084   0.000027   0.005022  -0.000049  -0.000086  -0.031103
    16  C   -0.000747   0.003561   0.348157  -0.021883  -0.055789  -0.059779
    17  H    0.000019  -0.000125  -0.033404   0.006658  -0.008264  -0.014398
    18  H    0.000027  -0.000088  -0.044946  -0.008434  -0.000866   0.006459
    19  C    0.000273  -0.003130   0.007481   0.000480   0.001254   0.001116
    20  H    0.000008  -0.000070   0.002188   0.000168  -0.001155  -0.000129
    21  C   -0.000132   0.001378  -0.001179  -0.000009  -0.000039  -0.000295
    22  H   -0.000001   0.000010  -0.000042  -0.000001   0.000012  -0.000000
    23  C    0.002169  -0.001380   0.000767  -0.000017   0.000164  -0.001179
    24  H   -0.001138   0.000161   0.000168  -0.000004  -0.000018  -0.000033
    25  H    0.000169  -0.000090  -0.000018   0.000002  -0.000004  -0.000008
    26  C   -0.001491   0.000646  -0.000772   0.000067  -0.000079   0.000759
    27  H   -0.000023   0.000182  -0.000023   0.000001  -0.000002  -0.000045
    28  H    0.001467  -0.001014   0.000456  -0.000007   0.000016   0.000547
              13         14         15         16         17         18
     1  C   -0.000001   0.000142  -0.000000  -0.000602  -0.000049   0.000003
     2  C    0.000025  -0.004616  -0.000006   0.011492  -0.000874   0.000518
     3  H    0.000000  -0.000000  -0.000000  -0.000000  -0.000001   0.000000
     4  H    0.000009  -0.001450  -0.000017   0.000662  -0.000979   0.000183
     5  C   -0.035413  -0.054146   0.006900   0.001355   0.009435  -0.003139
     6  C    0.004569   0.002431  -0.002057  -0.062118  -0.001655   0.011581
     7  H   -0.003125   0.003522  -0.000084  -0.000747   0.000019   0.000027
     8  H   -0.000053  -0.001782   0.000027   0.003561  -0.000125  -0.000088
     9  C   -0.000290  -0.081255   0.005022   0.348157  -0.033404  -0.044946
    10  H   -0.000050   0.003718  -0.000049  -0.021883   0.006658  -0.008434
    11  H    0.000026   0.013377  -0.000086  -0.055789  -0.008264  -0.000866
    12  C    0.424440   0.581700  -0.031103  -0.059779  -0.014398   0.006459
    13  H    0.488306  -0.024873  -0.005529   0.004084  -0.000367  -0.000089
    14  C   -0.024873   5.141504   0.423004   0.277755  -0.036009  -0.039613
    15  H   -0.005529   0.423004   0.491319  -0.028480   0.001011  -0.004446
    16  C    0.004084   0.277755  -0.028480   4.936606   0.401927   0.437852
    17  H   -0.000367  -0.036009   0.001011   0.401927   0.585347  -0.021985
    18  H   -0.000089  -0.039613  -0.004446   0.437852  -0.021985   0.537353
    19  C    0.000018   0.000884  -0.000042  -0.004818  -0.003242   0.000294
    20  H   -0.000001   0.000272   0.000000  -0.001514   0.001440  -0.000023
    21  C   -0.000000  -0.000126   0.000002   0.000756   0.000545  -0.000045
    22  H    0.000000  -0.000001   0.000000   0.000014  -0.000001  -0.000001
    23  C   -0.000044   0.001562  -0.000005  -0.000777   0.000459  -0.000023
    24  H    0.000013   0.000017   0.000001  -0.000077   0.000016  -0.000002
    25  H   -0.000001  -0.000036  -0.000001   0.000067  -0.000007   0.000001
    26  C    0.000014  -0.000602  -0.000000   0.000938   0.000081  -0.000003
    27  H   -0.000001   0.000003   0.000000  -0.000003   0.000002  -0.000000
    28  H   -0.000001  -0.000049  -0.000001   0.000081  -0.000021   0.000002
              19         20         21         22         23         24
     1  C   -0.053881   0.003515   0.581147  -0.024677  -0.081327   0.013380
     2  C    0.507234  -0.026145  -0.069431   0.004632   0.223472  -0.057904
     3  H    0.006930  -0.000083  -0.031476  -0.005543   0.005028  -0.000086
     4  H   -0.041033  -0.004378   0.005085  -0.000053  -0.013733  -0.003991
     5  C   -0.008505   0.000271   0.001087   0.000017   0.007572   0.001228
     6  C   -0.029363  -0.001571   0.009039   0.000025  -0.003462  -0.003930
     7  H    0.000273   0.000008  -0.000132  -0.000001   0.002169  -0.001138
     8  H   -0.003130  -0.000070   0.001378   0.000010  -0.001380   0.000161
     9  C    0.007481   0.002188  -0.001179  -0.000042   0.000767   0.000168
    10  H    0.000480   0.000168  -0.000009  -0.000001  -0.000017  -0.000004
    11  H    0.001254  -0.001155  -0.000039   0.000012   0.000164  -0.000018
    12  C    0.001116  -0.000129  -0.000295  -0.000000  -0.001179  -0.000033
    13  H    0.000018  -0.000001  -0.000000   0.000000  -0.000044   0.000013
    14  C    0.000884   0.000272  -0.000126  -0.000001   0.001562   0.000017
    15  H   -0.000042   0.000000   0.000002   0.000000  -0.000005   0.000001
    16  C   -0.004818  -0.001514   0.000756   0.000014  -0.000777  -0.000077
    17  H   -0.003242   0.001440   0.000545  -0.000001   0.000459   0.000016
    18  H    0.000294  -0.000023  -0.000045  -0.000001  -0.000023  -0.000002
    19  C    5.161247   0.423568   0.292993  -0.035586  -0.061691   0.008682
    20  H    0.423568   0.475287  -0.029242  -0.003106   0.002879  -0.000019
    21  C    0.292993  -0.029242   5.007459   0.424323   0.036641  -0.004481
    22  H   -0.035586  -0.003106   0.424323   0.488190  -0.000287   0.000025
    23  C   -0.061691   0.002879   0.036641  -0.000287   4.978497   0.459741
    24  H    0.008682  -0.000019  -0.004481   0.000025   0.459741   0.533819
    25  H   -0.004097  -0.000263   0.001560  -0.000050   0.385617  -0.020592
    26  C    0.001095  -0.000754  -0.059709   0.004092   0.348145  -0.055774
    27  H   -0.003104   0.000027   0.006346  -0.000090  -0.044890  -0.000867
    28  H    0.009429   0.000020  -0.014329  -0.000367  -0.033574  -0.008237
              25         26         27         28
     1  C    0.003736   0.277623  -0.039464  -0.035957
     2  C   -0.035250  -0.062005   0.011534  -0.001640
     3  H   -0.000049  -0.028477  -0.004432   0.001008
     4  H   -0.000428   0.003591  -0.000090  -0.000125
     5  C    0.000482  -0.004835   0.000293  -0.003177
     6  C    0.000158   0.011520   0.000519  -0.000933
     7  H    0.000169  -0.001491  -0.000023   0.001467
     8  H   -0.000090   0.000646   0.000182  -0.001014
     9  C   -0.000018  -0.000772  -0.000023   0.000456
    10  H    0.000002   0.000067   0.000001  -0.000007
    11  H   -0.000004  -0.000079  -0.000002   0.000016
    12  C   -0.000008   0.000759  -0.000045   0.000547
    13  H   -0.000001   0.000014  -0.000001  -0.000001
    14  C   -0.000036  -0.000602   0.000003  -0.000049
    15  H   -0.000001  -0.000000   0.000000  -0.000001
    16  C    0.000067   0.000938  -0.000003   0.000081
    17  H   -0.000007   0.000081   0.000002  -0.000021
    18  H    0.000001  -0.000003  -0.000000   0.000002
    19  C   -0.004097   0.001095  -0.003104   0.009429
    20  H   -0.000263  -0.000754   0.000027   0.000020
    21  C    0.001560  -0.059709   0.006346  -0.014329
    22  H   -0.000050   0.004092  -0.000090  -0.000367
    23  C    0.385617   0.348145  -0.044890  -0.033574
    24  H   -0.020592  -0.055774  -0.000867  -0.008237
    25  H    0.568998  -0.021972  -0.008436   0.006657
    26  C   -0.021972   4.936701   0.437712   0.402042
    27  H   -0.008436   0.437712   0.537477  -0.021968
    28  H    0.006657   0.402042  -0.021968   0.585136
          Atomic-Atomic Spin Densities.
               1          2          3          4          5          6
     1  C    0.000001   0.000000  -0.000000  -0.000000  -0.000000  -0.000000
     2  C    0.000000  -0.000000  -0.000000  -0.000000   0.000000   0.000000
     3  H   -0.000000  -0.000000  -0.000000   0.000000   0.000000  -0.000000
     4  H   -0.000000  -0.000000   0.000000   0.000000  -0.000000   0.000000
     5  C   -0.000000   0.000000   0.000000  -0.000000   0.000000  -0.000000
     6  C   -0.000000   0.000000  -0.000000   0.000000  -0.000000  -0.000000
     7  H    0.000000  -0.000000  -0.000000   0.000000   0.000000   0.000000
     8  H   -0.000000   0.000000   0.000000   0.000000  -0.000000   0.000000
     9  C    0.000000  -0.000000   0.000000   0.000000  -0.000000  -0.000000
    10  H   -0.000000   0.000000   0.000000  -0.000000   0.000000  -0.000000
    11  H   -0.000000   0.000000  -0.000000  -0.000000  -0.000000   0.000000
    12  C    0.000000  -0.000000  -0.000000  -0.000000   0.000000   0.000000
    13  H   -0.000000  -0.000000  -0.000000  -0.000000  -0.000000   0.000000
    14  C    0.000000   0.000000   0.000000   0.000000  -0.000000  -0.000000
    15  H   -0.000000   0.000000   0.000000  -0.000000  -0.000000   0.000000
    16  C    0.000000  -0.000000  -0.000000  -0.000000   0.000000   0.000000
    17  H   -0.000000   0.000000   0.000000  -0.000000  -0.000000  -0.000000
    18  H    0.000000  -0.000000   0.000000  -0.000000   0.000000   0.000000
    19  C   -0.000000  -0.000000  -0.000000   0.000000  -0.000000  -0.000000
    20  H    0.000000  -0.000000  -0.000000  -0.000000   0.000000   0.000000
    21  C   -0.000000   0.000000  -0.000000   0.000000  -0.000000   0.000000
    22  H    0.000000  -0.000000   0.000000   0.000000  -0.000000   0.000000
    23  C    0.000000   0.000000  -0.000000   0.000000  -0.000000   0.000000
    24  H    0.000000  -0.000000   0.000000  -0.000000  -0.000000  -0.000000
    25  H    0.000000   0.000000  -0.000000  -0.000000   0.000000  -0.000000
    26  C   -0.000000  -0.000000   0.000000   0.000000  -0.000000   0.000000
    27  H   -0.000000   0.000000   0.000000  -0.000000  -0.000000  -0.000000
    28  H   -0.000000  -0.000000   0.000000  -0.000000   0.000000  -0.000000
               7          8          9         10         11         12
     1  C    0.000000  -0.000000   0.000000  -0.000000  -0.000000   0.000000
     2  C   -0.000000   0.000000  -0.000000   0.000000   0.000000  -0.000000
     3  H   -0.000000   0.000000   0.000000   0.000000  -0.000000  -0.000000
     4  H    0.000000   0.000000   0.000000  -0.000000  -0.000000  -0.000000
     5  C    0.000000  -0.000000  -0.000000   0.000000  -0.000000   0.000000
     6  C    0.000000   0.000000  -0.000000  -0.000000   0.000000   0.000000
     7  H   -0.000000   0.000000  -0.000000   0.000000   0.000000   0.000000
     8  H    0.000000   0.000000  -0.000000   0.000000  -0.000000  -0.000000
     9  C   -0.000000  -0.000000   0.000001   0.000000  -0.000000   0.000000
    10  H    0.000000   0.000000   0.000000  -0.000000   0.000000  -0.000000
    11  H    0.000000  -0.000000  -0.000000   0.000000  -0.000000   0.000000
    12  C    0.000000  -0.000000   0.000000  -0.000000   0.000000  -0.000000
    13  H   -0.000000  -0.000000  -0.000000   0.000000   0.000000   0.000000
    14  C   -0.000000  -0.000000  -0.000000  -0.000000  -0.000000   0.000000
    15  H    0.000000  -0.000000   0.000000   0.000000  -0.000000   0.000000
    16  C    0.000000  -0.000000  -0.000000   0.000000   0.000000  -0.000000
    17  H    0.000000   0.000000  -0.000000  -0.000000   0.000000  -0.000000
    18  H   -0.000000   0.000000  -0.000000   0.000000   0.000000   0.000000
    19  C   -0.000000  -0.000000  -0.000000  -0.000000   0.000000   0.000000
    20  H   -0.000000  -0.000000  -0.000000   0.000000  -0.000000  -0.000000
    21  C    0.000000   0.000000   0.000000   0.000000  -0.000000   0.000000
    22  H    0.000000   0.000000   0.000000  -0.000000  -0.000000  -0.000000
    23  C    0.000000  -0.000000   0.000000   0.000000  -0.000000  -0.000000
    24  H    0.000000   0.000000   0.000000  -0.000000   0.000000   0.000000
    25  H   -0.000000   0.000000  -0.000000   0.000000   0.000000  -0.000000
    26  C    0.000000   0.000000  -0.000000  -0.000000   0.000000   0.000000
    27  H    0.000000   0.000000   0.000000  -0.000000   0.000000   0.000000
    28  H   -0.000000   0.000000  -0.000000   0.000000   0.000000  -0.000000
              13         14         15         16         17         18
     1  C   -0.000000   0.000000  -0.000000   0.000000  -0.000000   0.000000
     2  C   -0.000000   0.000000   0.000000  -0.000000   0.000000  -0.000000
     3  H   -0.000000   0.000000   0.000000  -0.000000   0.000000   0.000000
     4  H   -0.000000   0.000000  -0.000000  -0.000000  -0.000000  -0.000000
     5  C   -0.000000  -0.000000  -0.000000   0.000000  -0.000000   0.000000
     6  C    0.000000  -0.000000   0.000000   0.000000  -0.000000   0.000000
     7  H   -0.000000  -0.000000   0.000000   0.000000   0.000000  -0.000000
     8  H   -0.000000  -0.000000  -0.000000  -0.000000   0.000000   0.000000
     9  C   -0.000000  -0.000000   0.000000  -0.000000  -0.000000  -0.000000
    10  H    0.000000  -0.000000   0.000000   0.000000  -0.000000   0.000000
    11  H    0.000000  -0.000000  -0.000000   0.000000   0.000000   0.000000
    12  C    0.000000   0.000000   0.000000  -0.000000  -0.000000   0.000000
    13  H    0.000000  -0.000000  -0.000000   0.000000   0.000000  -0.000000
    14  C   -0.000000  -0.000000  -0.000000   0.000000  -0.000000   0.000000
    15  H   -0.000000  -0.000000   0.000000  -0.000000  -0.000000  -0.000000
    16  C    0.000000   0.000000  -0.000000  -0.000000   0.000000   0.000000
    17  H    0.000000  -0.000000  -0.000000   0.000000   0.000000  -0.000000
    18  H   -0.000000   0.000000  -0.000000   0.000000  -0.000000   0.000000
    19  C    0.000000   0.000000  -0.000000   0.000000  -0.000000   0.000000
    20  H   -0.000000  -0.000000   0.000000  -0.000000   0.000000  -0.000000
    21  C    0.000000  -0.000000   0.000000  -0.000000   0.000000  -0.000000
    22  H    0.000000   0.000000   0.000000  -0.000000   0.000000  -0.000000
    23  C   -0.000000  -0.000000  -0.000000   0.000000   0.000000  -0.000000
    24  H    0.000000   0.000000   0.000000   0.000000  -0.000000  -0.000000
    25  H    0.000000   0.000000  -0.000000   0.000000   0.000000   0.000000
    26  C    0.000000  -0.000000   0.000000   0.000000  -0.000000  -0.000000
    27  H    0.000000  -0.000000   0.000000   0.000000  -0.000000  -0.000000
[...]
     3  H   -0.000000   0.000000   0.000000   0.000000
     4  H   -0.000000   0.000000   0.000000  -0.000000
     5  C   -0.000000  -0.000000  -0.000000  -0.000000
     6  C   -0.000000   0.000000   0.000000  -0.000000
     7  H   -0.000000   0.000000   0.000000  -0.000000
     8  H    0.000000   0.000000   0.000000   0.000000
     9  C    0.000000  -0.000000   0.000000   0.000000
    10  H    0.000000  -0.000000  -0.000000  -0.000000
    11  H    0.000000   0.000000   0.000000   0.000000
    12  C    0.000000   0.000000   0.000000   0.000000
    13  H    0.000000   0.000000   0.000000  -0.000000
    14  C   -0.000000  -0.000000  -0.000000  -0.000000
    15  H   -0.000000   0.000000  -0.000000  -0.000000
    16  C    0.000000   0.000000   0.000000   0.000000
    17  H    0.000000  -0.000000  -0.000000  -0.000000
    18  H    0.000000  -0.000000  -0.000000   0.000000
    19  C   -0.000000  -0.000000  -0.000000   0.000000
    20  H   -0.000000  -0.000000   0.000000  -0.000000
    21  C    0.000000   0.000000  -0.000000   0.000000
    22  H   -0.000000  -0.000000   0.000000  -0.000000
    23  C   -0.000000   0.000000   0.000000   0.000000
    24  H   -0.000000  -0.000000  -0.000000  -0.000000
    25  H    0.000000  -0.000000  -0.000000   0.000000
    26  C   -0.000000   0.000001  -0.000000  -0.000000
    27  H   -0.000000  -0.000000  -0.000000  -0.000000
    28  H    0.000000  -0.000000  -0.000000   0.000000
 Mulliken charges and spin densities:
               1          2
     1  C   -0.203736   0.000001
     2  C   -0.199682  -0.000000
     3  H    0.148334  -0.000000
     4  H    0.171449  -0.000000
     5  C   -0.190483   0.000000
     6  C   -0.196268   0.000000
     7  H    0.166974  -0.000000
     8  H    0.170451   0.000000
     9  C   -0.217585   0.000001
    10  H    0.131008  -0.000000
    11  H    0.142908  -0.000000
    12  C   -0.162695   0.000000
    13  H    0.151918   0.000000
    14  C   -0.201820  -0.000001
    15  H    0.148288   0.000000
    16  C   -0.194891  -0.000000
    17  H    0.119248  -0.000000
    18  H    0.133084   0.000000
    19  C   -0.190564  -0.000000
    20  H    0.168328   0.000000
    21  C   -0.159924  -0.000000
    22  H    0.151602  -0.000000
    23  C   -0.218033  -0.000001
    24  H    0.143441   0.000000
    25  H    0.131123   0.000000
    26  C   -0.193955   0.000000
    27  H    0.133140  -0.000000
    28  H    0.118340   0.000000
 Sum of Mulliken charges =  -0.00000  -0.00000
 Mulliken charges and spin densities with hydrogens summed into heavy atoms:
               1          2
     1  C   -0.055402   0.000001
     2  C   -0.028232  -0.000000
     5  C   -0.023509  -0.000000
     6  C   -0.025817   0.000000
     9  C    0.056331   0.000001
    12  C   -0.010777   0.000000
    14  C   -0.053532  -0.000001
    16  C    0.057441  -0.000000
    19  C   -0.022236   0.000000
    21  C   -0.008322  -0.000001
    23  C    0.056531  -0.000001
    26  C    0.057524   0.000000
 Electronic spatial extent (au):  <R**2>=           2301.2583
 Charge=              0.0000 electrons
 Dipole moment (field-independent basis, Debye):
    X=              0.0027    Y=             -0.0049    Z=             -0.0046  Tot=              0.0072
 Quadrupole moment (field-independent basis, Debye-Ang):
   XX=            -70.2905   YY=            -68.1370   ZZ=            -75.2944
   XY=             -3.3572   XZ=             -3.7620   YZ=             -1.7278
 Traceless Quadrupole moment (field-independent basis, Debye-Ang):
   XX=              0.9502   YY=              3.1036   ZZ=             -4.0538
   XY=             -3.3572   XZ=             -3.7620   YZ=             -1.7278
 Octapole moment (field-independent basis, Debye-Ang**2):
  XXX=              0.0233  YYY=             -0.0315  ZZZ=             -0.0195  XYY=              0.0018
  XXY=             -0.0010  XXZ=             -0.0126  XZZ=              0.0101  YZZ=             -0.0139
  YYZ=             -0.0203  XYZ=             -0.0002
 Hexadecapole moment (field-independent basis, Debye-Ang**3):
 XXXX=          -2041.8094 YYYY=           -610.4102 ZZZZ=           -406.4071 XXXY=           -113.3002
 XXXZ=           -156.2295 YYYX=            -64.3194 YYYZ=             -6.4368 ZZZX=            -98.7341
 ZZZY=            -19.1696 XXYY=           -437.9491 XXZZ=           -430.6852 YYZZ=           -184.5519
 XXYZ=            -25.4771 YYXZ=            -35.8042 ZZXY=            -46.4893
 N-N= 6.752223560911D+02 E-N=-2.433063845439D+03  KE= 4.643146932671D+02
                          Isotropic Fermi Contact Couplings
        Atom                 a.u.       MegaHertz       Gauss      10(-4) cm-1
     1  C(13)              0.00000       0.00004       0.00002       0.00001
     2  C(13)              0.00000       0.00006       0.00002       0.00002
     3  H(1)              -0.00000      -0.00003      -0.00001      -0.00001
     4  H(1)              -0.00000      -0.00007      -0.00003      -0.00002
     5  C(13)              0.00000       0.00016       0.00006       0.00005
     6  C(13)             -0.00000      -0.00008      -0.00003      -0.00003
     7  H(1)              -0.00000      -0.00026      -0.00009      -0.00009
     8  H(1)               0.00000       0.00009       0.00003       0.00003
     9  C(13)              0.00000       0.00032       0.00012       0.00011
    10  H(1)              -0.00000      -0.00016      -0.00006      -0.00005
    11  H(1)              -0.00000      -0.00017      -0.00006      -0.00006
    12  C(13)             -0.00000      -0.00010      -0.00004      -0.00003
    13  H(1)               0.00000       0.00021       0.00007       0.00007
    14  C(13)             -0.00000      -0.00002      -0.00001      -0.00001
    15  H(1)               0.00000       0.00002       0.00001       0.00001
    16  C(13)             -0.00000      -0.00013      -0.00005      -0.00004
    17  H(1)               0.00000       0.00002       0.00001       0.00001
    18  H(1)               0.00000       0.00002       0.00001       0.00001
    19  C(13)             -0.00000      -0.00014      -0.00005      -0.00005
    20  H(1)               0.00000       0.00024       0.00009       0.00008
    21  C(13)              0.00000       0.00008       0.00003       0.00003
    22  H(1)              -0.00000      -0.00019      -0.00007      -0.00007
    23  C(13)             -0.00000      -0.00031      -0.00011      -0.00010
    24  H(1)               0.00000       0.00017       0.00006       0.00006
    25  H(1)               0.00000       0.00014       0.00005       0.00005
    26  C(13)              0.00000       0.00012       0.00004       0.00004
    27  H(1)              -0.00000      -0.00001      -0.00000      -0.00000
    28  H(1)              -0.00000      -0.00000      -0.00000      -0.00000
 --------------------------------------------------------
       Center         ----  Spin Dipole Couplings  ----
                      3XX-RR        3YY-RR        3ZZ-RR
 --------------------------------------------------------
     1   Atom        0.000000     -0.000001      0.000000
     2   Atom       -0.000000      0.000000     -0.000000
     3   Atom        0.000000     -0.000000      0.000000
     4   Atom        0.000000      0.000000     -0.000000
     5   Atom        0.000000      0.000000     -0.000001
     6   Atom        0.000000     -0.000000      0.000000
     7   Atom       -0.000000      0.000000     -0.000000
     8   Atom       -0.000000     -0.000000      0.000000
     9   Atom        0.000000     -0.000000      0.000000
    10   Atom       -0.000000     -0.000000      0.000000
    11   Atom        0.000000      0.000000     -0.000000
    12   Atom       -0.000000     -0.000001      0.000001
    13   Atom        0.000000     -0.000000      0.000000
    14   Atom       -0.000000      0.000000     -0.000000
    15   Atom        0.000000      0.000000     -0.000000
    16   Atom       -0.000000      0.000000     -0.000000
    17   Atom       -0.000000      0.000000      0.000000
    18   Atom        0.000000     -0.000000      0.000000
    19   Atom       -0.000000     -0.000001      0.000001
    20   Atom        0.000000     -0.000000      0.000000
    21   Atom        0.000000      0.000001     -0.000001
    22   Atom       -0.000000      0.000000     -0.000000
    23   Atom       -0.000000      0.000000     -0.000000
    24   Atom        0.000000     -0.000000      0.000000
    25   Atom        0.000000      0.000000     -0.000000
    26   Atom        0.000000     -0.000000      0.000000
    27   Atom       -0.000000      0.000000     -0.000000
    28   Atom        0.000000      0.000000     -0.000000
 --------------------------------------------------------
                        XY            XZ            YZ
 --------------------------------------------------------
     1   Atom       -0.000000      0.000001     -0.000000
     2   Atom       -0.000000     -0.000001     -0.000000
     3   Atom        0.000000     -0.000000     -0.000000
     4   Atom        0.000000      0.000000     -0.000000
     5   Atom       -0.000000      0.000000      0.000000
     6   Atom        0.000000      0.000001      0.000000
     7   Atom       -0.000000     -0.000000      0.000000
     8   Atom       -0.000000     -0.000000      0.000000
     9   Atom        0.000000     -0.000000      0.000000
    10   Atom       -0.000000      0.000000     -0.000000
    11   Atom        0.000000      0.000000      0.000000
    12   Atom       -0.000000      0.000000      0.000000
    13   Atom       -0.000000      0.000000      0.000000
    14   Atom        0.000000     -0.000001      0.000000
    15   Atom       -0.000000      0.000000      0.000000
    16   Atom        0.000000      0.000000      0.000000
    17   Atom       -0.000000     -0.000000     -0.000000
    18   Atom        0.000000     -0.000000      0.000000
    19   Atom        0.000000      0.000000      0.000000
    20   Atom        0.000000      0.000000     -0.000000
    21   Atom        0.000000     -0.000000     -0.000000
    22   Atom       -0.000000     -0.000000     -0.000000
    23   Atom       -0.000000      0.000000     -0.000000
    24   Atom       -0.000000     -0.000000     -0.000000
    25   Atom        0.000000     -0.000000      0.000000
    26   Atom       -0.000000     -0.000000     -0.000000
    27   Atom       -0.000000      0.000000     -0.000000
    28   Atom        0.000000      0.000000      0.000000
 --------------------------------------------------------


 ---------------------------------------------------------------------------------
              Anisotropic Spin Dipole Couplings in Principal Axis System
 ---------------------------------------------------------------------------------

       Atom             a.u.   MegaHertz   Gauss  10(-4) cm-1        Axes

              Baa    -0.0000    -0.000    -0.000    -0.000 -0.6326  0.3095  0.7100
     1 C(13)  Bbb    -0.0000    -0.000    -0.000    -0.000  0.3060  0.9420 -0.1380
              Bcc     0.0000     0.000     0.000     0.000  0.7115 -0.1299  0.6906
 
              Baa    -0.0000    -0.000    -0.000    -0.000  0.6670  0.1864  0.7214
     2 C(13)  Bbb     0.0000     0.000     0.000     0.000  0.2480  0.8575 -0.4508
              Bcc     0.0000     0.000     0.000     0.000  0.7026 -0.4796 -0.5257
 
              Baa    -0.0000    -0.000    -0.000    -0.000 -0.0597  0.9846  0.1641
     3 H(1)   Bbb    -0.0000    -0.000    -0.000    -0.000  0.8810 -0.0253  0.4724
              Bcc     0.0000     0.000     0.000     0.000 -0.4693 -0.1727  0.8660
 
              Baa    -0.0000    -0.000    -0.000    -0.000 -0.3681  0.2004  0.9079
     4 H(1)   Bbb     0.0000     0.000     0.000     0.000  0.9096 -0.1248  0.3963
              Bcc     0.0000     0.000     0.000     0.000  0.1927  0.9717 -0.1363
 
              Baa    -0.0000    -0.000    -0.000    -0.000 -0.0170 -0.0471  0.9987
     5 C(13)  Bbb     0.0000     0.000     0.000     0.000  0.8060  0.5905  0.0415
              Bcc     0.0000     0.000     0.000     0.000 -0.5917  0.8057  0.0280
 
              Baa    -0.0000    -0.000    -0.000    -0.000  0.6539 -0.4409 -0.6149
     6 C(13)  Bbb    -0.0000    -0.000    -0.000    -0.000  0.1668  0.8767 -0.4512
              Bcc     0.0000     0.000     0.000     0.000  0.7380  0.1924  0.6468
 
              Baa    -0.0000    -0.000    -0.000    -0.000  0.4844  0.0126  0.8748
     7 H(1)   Bbb    -0.0000    -0.000    -0.000    -0.000  0.7345  0.5374 -0.4145
              Bcc     0.0000     0.000     0.000     0.000 -0.4753  0.8432  0.2510
 
              Baa    -0.0000    -0.000    -0.000    -0.000  0.8853  0.4431  0.1410
     8 H(1)   Bbb    -0.0000    -0.000    -0.000    -0.000 -0.3725  0.8573 -0.3554
              Bcc     0.0000     0.000     0.000     0.000 -0.2784  0.2622  0.9240
 
              Baa    -0.0000    -0.000    -0.000    -0.000 -0.3569  0.8894 -0.2858
     9 C(13)  Bbb     0.0000     0.000     0.000     0.000 -0.2160  0.2191  0.9515
              Bcc     0.0000     0.000     0.000     0.000  0.9088  0.4013  0.1139
 
              Baa    -0.0000    -0.000    -0.000    -0.000  0.6931  0.6907 -0.2060
    10 H(1)   Bbb    -0.0000    -0.000    -0.000    -0.000 -0.5651  0.6982  0.4396
              Bcc     0.0000     0.000     0.000     0.000  0.4475 -0.1883  0.8742
 
              Baa    -0.0000    -0.000    -0.000    -0.000  0.5715 -0.5074  0.6450
    11 H(1)   Bbb    -0.0000    -0.000    -0.000    -0.000 -0.5833  0.3017  0.7542
              Bcc     0.0000     0.000     0.000     0.000  0.5772  0.8072  0.1235
 
              Baa    -0.0000    -0.000    -0.000    -0.000  0.3007  0.9446 -0.1317
    12 C(13)  Bbb    -0.0000    -0.000    -0.000    -0.000  0.9459 -0.3130 -0.0854
              Bcc     0.0000     0.000     0.000     0.000  0.1219  0.0988  0.9876
 
              Baa    -0.0000    -0.000    -0.000    -0.000  0.1950  0.9500 -0.2439
    13 H(1)   Bbb     0.0000     0.000     0.000     0.000  0.9475 -0.2467 -0.2035
              Bcc     0.0000     0.000     0.000     0.000  0.2535  0.1914  0.9482
 
              Baa    -0.0000    -0.000    -0.000    -0.000  0.7658 -0.1594  0.6230
    14 C(13)  Bbb     0.0000     0.000     0.000     0.000  0.2860  0.9521 -0.1080
              Bcc     0.0000     0.000     0.000     0.000 -0.5759  0.2609  0.7748
 
              Baa    -0.0000    -0.000    -0.000    -0.000 -0.3978 -0.1818  0.8993
    15 H(1)   Bbb     0.0000     0.000     0.000     0.000  0.9172 -0.1003  0.3855
              Bcc     0.0000     0.000     0.000     0.000  0.0202  0.9782  0.2066
 
              Baa    -0.0000    -0.000    -0.000    -0.000 -0.7003 -0.0218  0.7136
    16 C(13)  Bbb     0.0000     0.000     0.000     0.000  0.6689 -0.3691  0.6452
              Bcc     0.0000     0.000     0.000     0.000  0.2493  0.9291  0.2731
 
              Baa    -0.0000    -0.000    -0.000    -0.000  0.5696  0.5991  0.5628
    17 H(1)   Bbb     0.0000     0.000     0.000     0.000  0.8131 -0.3108 -0.4921
              Bcc     0.0000     0.000     0.000     0.000 -0.1199  0.7379 -0.6642
 
              Baa    -0.0000    -0.000    -0.000    -0.000 -0.5539  0.7630 -0.3333
    18 H(1)   Bbb     0.0000     0.000     0.000     0.000 -0.6208 -0.1117  0.7760
              Bcc     0.0000     0.000     0.000     0.000  0.5549  0.6367  0.5355
 
              Baa    -0.0000    -0.000    -0.000    -0.000 -0.4983  0.8661  0.0396
    19 C(13)  Bbb    -0.0000    -0.000    -0.000    -0.000  0.8603  0.4996 -0.1020
              Bcc     0.0000     0.000     0.000     0.000  0.1081  0.0167  0.9940
 
              Baa    -0.0000    -0.000    -0.000    -0.000 -0.4467  0.8586  0.2514
    20 H(1)   Bbb     0.0000     0.000     0.000     0.000  0.7330  0.5124 -0.4475
              Bcc     0.0000     0.000     0.000     0.000  0.5131  0.0156  0.8582
 
              Baa    -0.0000    -0.000    -0.000    -0.000  0.2004  0.0731  0.9770
    21 C(13)  Bbb     0.0000     0.000     0.000     0.000  0.9492 -0.2613 -0.1751
              Bcc     0.0000     0.000     0.000     0.000  0.2425  0.9625 -0.1218
 
              Baa    -0.0000    -0.000    -0.000    -0.000  0.3412  0.1705  0.9244
    22 H(1)   Bbb     0.0000     0.000     0.000     0.000  0.9388 -0.1103 -0.3262
              Bcc     0.0000     0.000     0.000     0.000  0.0463  0.9792 -0.1978
 
              Baa    -0.0000    -0.000    -0.000    -0.000  0.8928  0.4084  0.1902
    23 C(13)  Bbb    -0.0000    -0.000    -0.000    -0.000 -0.2848  0.1845  0.9407
              Bcc     0.0000     0.000     0.000     0.000 -0.3491  0.8940 -0.2811
 
              Baa    -0.0000    -0.000    -0.000    -0.000  0.5607  0.8187  0.1238
    24 H(1)   Bbb     0.0000     0.000     0.000     0.000 -0.6410  0.3346  0.6907
              Bcc     0.0000     0.000     0.000     0.000  0.5241 -0.4666  0.7124
 
              Baa    -0.0000    -0.000    -0.000    -0.000  0.4610 -0.1991  0.8648
    25 H(1)   Bbb     0.0000     0.000     0.000     0.000 -0.5120  0.7363  0.4424
              Bcc     0.0000     0.000     0.000     0.000  0.7248  0.6467 -0.2375
 
              Baa    -0.0000    -0.000    -0.000    -0.000  0.2391  0.9334  0.2676
    26 C(13)  Bbb    -0.0000    -0.000    -0.000    -0.000  0.6729 -0.3579  0.6474
              Bcc     0.0000     0.000     0.000     0.000 -0.7001 -0.0253  0.7136
 
              Baa    -0.0000    -0.000    -0.000    -0.000  0.4872  0.5924  0.6416
    27 H(1)   Bbb    -0.0000    -0.000    -0.000    -0.000  0.7069  0.1638 -0.6880
              Bcc     0.0000     0.000     0.000     0.000 -0.5126  0.7888 -0.3390
 
              Baa    -0.0000    -0.000    -0.000    -0.000 -0.3836  0.7562 -0.5302
    28 H(1)   Bbb    -0.0000    -0.000    -0.000    -0.000  0.7181 -0.1168 -0.6861
              Bcc     0.0000     0.000     0.000     0.000  0.5808  0.6439  0.4982
 

 ---------------------------------------------------------------------------------

 No NMR shielding tensors so no spin-rotation constants.
 Leave Link  601 at Tue Aug  4 01:59:50 2020, MaxMem=  6442450944 cpu:               8.0 elap:               0.4
 (Enter /scratch/scicomp/CentOS/7.3.1611/Haswell/software/Gaussian/g16/l9999.exe)
 1\1\GINC-ATLAS-205\SP\UwB97XD\def2TZVP\C12H16\BOCHEN\04-Aug-2020\0\\#p
  uwb97xd guess=mix def2tzvp # scrf=(iefpcm,solvent=Cyclohexane,read) n
 osym 6d 10f\\endo-2 xp-pcm for eta=3\\0,1\C,0,-3.12716,-0.441387,0.265
 808\C,0,-0.742781,-0.253682,-1.25379\H,0,-4.06659,-0.531634,0.798854\H
 ,0,0.204971,-0.172502,-1.771631\C,0,1.175378,1.427467,0.803019\C,0,0.7
 42781,0.253682,1.25379\H,0,0.582914,2.324068,0.940997\H,0,-0.204971,0.
 172502,1.771631\C,0,1.574588,-0.989808,1.127258\H,0,2.116105,-1.122154
 ,2.072691\H,0,0.927535,-1.86179,1.025285\C,0,2.460878,1.53095,0.111768
 \H,0,2.860246,2.516008,-0.098202\C,0,3.12716,0.441387,-0.265808\H,0,4.
 06659,0.531634,-0.798854\C,0,2.57273,-0.937949,-0.034385\H,0,2.091291,
 -1.273998,-0.960989\H,0,3.384763,-1.644565,0.147485\C,0,-1.175378,-1.4
 27467,-0.803019\H,0,-0.582914,-2.324068,-0.940997\C,0,-2.460878,-1.530
 95,-0.111768\H,0,-2.860246,-2.516008,0.098202\C,0,-1.574588,0.989808,-
 1.127258\H,0,-0.927535,1.86179,-1.025285\H,0,-2.116105,1.122154,-2.072
 691\C,0,-2.57273,0.937949,0.034385\H,0,-3.384763,1.644565,-0.147485\H,
 0,-2.091291,1.273998,0.960989\\Version=ES64L-G16RevB.01\HF=-466.808570
 6\S2=0.\S2-1=0.\S2A=0.\RMSD=9.919e-09\Dipole=0.001073,-0.0019085,-0.00
 18129\Quadrupole=0.70643,2.3074401,-3.0138701,-2.4959727,-2.7969177,-1
 .284583\PG=CI [X(C12H16)]\\@


 ERWIN WITH HIS PSI CAN DO
 CALCULATIONS QUITE A FEW.
 BUT ONE THING HAS NOT BEEN SEEN
 JUST WHAT DOES PSI REALLY MEAN.
 -- WALTER HUCKEL, TRANS. BY FELIX BLOCH
 Job cpu time:       0 days  2 hours  6 minutes 29.3 seconds.
 Elapsed time:       0 days  0 hours  5 minutes 19.4 seconds.
 File lengths (MBytes):  RWF=    643 Int=      0 D2E=      0 Chk=     24 Scr=      1
 Normal termination of Gaussian 16 at Tue Aug  4 01:59:50 2020.
