 Entering Gaussian System, Link 0=g16
 Input=meso-TS_25_2_xp-Ger.com
 Output=meso-TS_25_2_xp-Ger.log
 Initial command:
 /scratch/scicomp/CentOS/7.3.1611/Haswell/software/Gaussian/g16/l1.exe "/scratch/bochen/cyclohexadiene-dimerization/wb97xd-def2tzvp/xp-pcm/meso/Gau-332370.inp" -scrdir="/scratch/bochen/cyclohexadiene-dimerization/wb97xd-def2tzvp/xp-pcm/meso/"
 Entering Link 1 = /scratch/scicomp/CentOS/7.3.1611/Haswell/software/Gaussian/g16/l1.exe PID=    332371.
  
 Copyright (c) 1988-2017, Gaussian, Inc.  All Rights Reserved.
  
 This is part of the Gaussian(R) 16 program.  It is based on
 the Gaussian(R) 09 system (copyright 2009, Gaussian, Inc.),
 the Gaussian(R) 03 system (copyright 2003, Gaussian, Inc.),
 the Gaussian(R) 98 system (copyright 1998, Gaussian, Inc.),
 the Gaussian(R) 94 system (copyright 1995, Gaussian, Inc.),
 the Gaussian 92(TM) system (copyright 1992, Gaussian, Inc.),
 the Gaussian 90(TM) system (copyright 1990, Gaussian, Inc.),
 the Gaussian 88(TM) system (copyright 1988, Gaussian, Inc.),
 the Gaussian 86(TM) system (copyright 1986, Carnegie Mellon
 University), and the Gaussian 82(TM) system (copyright 1983,
 Carnegie Mellon University). Gaussian is a federally registered
 trademark of Gaussian, Inc.
  
 This software contains proprietary and confidential information,
 including trade secrets, belonging to Gaussian, Inc.
  
 This software is provided under written license and may be
 used, copied, transmitted, or stored only in accord with that
 written license.
  
 The following legend is applicable only to US Government
 contracts under FAR:
  
                    RESTRICTED RIGHTS LEGEND
  
 Use, reproduction and disclosure by the US Government is
 subject to restrictions as set forth in subparagraphs (a)
 and (c) of the Commercial Computer Software - Restricted
 Rights clause in FAR 52.227-19.
  
 Gaussian, Inc.
 340 Quinnipiac St., Bldg. 40, Wallingford CT 06492
  
  
 ---------------------------------------------------------------
 Warning -- This program may not be used in any manner that
 competes with the business of Gaussian, Inc. or will provide
 assistance to any competitor of Gaussian, Inc.  The licensee
 of this program is prohibited from giving any competitor of
 Gaussian, Inc. access to this program.  By using this program,
 the user acknowledges that Gaussian, Inc. is engaged in the
 business of creating and licensing software in the field of
 computational chemistry and represents and warrants to the
 licensee that it is not a competitor of Gaussian, Inc. and that
 it will not use this program in any manner prohibited above.
 ---------------------------------------------------------------
  

 Cite this work as:
 Gaussian 16, Revision B.01,
 M. J. Frisch, G. W. Trucks, H. B. Schlegel, G. E. Scuseria, 
 M. A. Robb, J. R. Cheeseman, G. Scalmani, V. Barone, 
 G. A. Petersson, H. Nakatsuji, X. Li, M. Caricato, A. V. Marenich, 
 J. Bloino, B. G. Janesko, R. Gomperts, B. Mennucci, H. P. Hratchian, 
 J. V. Ortiz, A. F. Izmaylov, J. L. Sonnenberg, D. Williams-Young, 
 F. Ding, F. Lipparini, F. Egidi, J. Goings, B. Peng, A. Petrone, 
 T. Henderson, D. Ranasinghe, V. G. Zakrzewski, J. Gao, N. Rega, 
 G. Zheng, W. Liang, M. Hada, M. Ehara, K. Toyota, R. Fukuda, 
 J. Hasegawa, M. Ishida, T. Nakajima, Y. Honda, O. Kitao, H. Nakai, 
 T. Vreven, K. Throssell, J. A. Montgomery, Jr., J. E. Peralta, 
 F. Ogliaro, M. J. Bearpark, J. J. Heyd, E. N. Brothers, K. N. Kudin, 
 V. N. Staroverov, T. A. Keith, R. Kobayashi, J. Normand, 
 K. Raghavachari, A. P. Rendell, J. C. Burant, S. S. Iyengar, 
 J. Tomasi, M. Cossi, J. M. Millam, M. Klene, C. Adamo, R. Cammi, 
 J. W. Ochterski, R. L. Martin, K. Morokuma, O. Farkas, 
 J. B. Foresman, and D. J. Fox, Gaussian, Inc., Wallingford CT, 2016.
 
 ******************************************
 Gaussian 16:  ES64L-G16RevB.01 20-Dec-2017
                 4-Aug-2020 
 ******************************************
 %chk=meso-TS_25_2_xp-12.chk
 %nproc=24
 Will use up to   24 processors via shared memory.
 %mem=48GB
 ----------------------------------------------------------------------
 #p uwb97xd guess=mix def2tzvp # scrf=(iefpcm,solvent=Cyclohexane,read)
  nosym 6d 10f
 ----------------------------------------------------------------------
 1/38=1,40=2,172=1/1;
 2/12=2,15=1,17=6,18=5,40=1/2;
 3/5=44,7=101,8=22,11=2,25=1,30=1,70=2203,72=17,74=-58,116=2/1,2,3;
 4/13=-1/1;
 5/5=2,38=5,53=17/2;
 6/7=2,8=2,9=2,10=2,28=1/1;
 99/5=1,9=1/99;
 Leave Link    1 at Tue Aug  4 07:58:04 2020, MaxMem=  6442450944 cpu:               3.0 elap:               0.1
 (Enter /scratch/scicomp/CentOS/7.3.1611/Haswell/software/Gaussian/g16/l101.exe)
 -----------------------
 endo-2 xp-pcm for eta=3
 -----------------------
 Symbolic Z-matrix:
 Charge =  0 Multiplicity = 1
 6                    -3.12259  -0.43839   0.24911 
 6                    -0.6218   -0.22272  -1.06094 
 1                    -4.08532  -0.54721   0.73502 
 1                     0.34928  -0.12863  -1.52714 
 6                     1.1043    1.41273   0.71153 
 6                     0.6218    0.22272   1.06094 
 1                     0.51626   2.31205   0.8443 
 1                    -0.34928   0.12863   1.52714 
 6                     1.4894   -1.001     1.01977 
 1                     1.9618   -1.06585   2.00807 
 1                     0.88901  -1.90293   0.91447 
 6                     2.42836   1.51914   0.10794 
 1                     2.83616   2.5068   -0.07181 
 6                     3.12259   0.43839  -0.24911 
 1                     4.08532   0.54721  -0.73502 
 6                     2.58944  -0.95353  -0.0453 
 1                     2.22687  -1.33938  -1.00611 
 1                     3.40096  -1.62307   0.24731 
 6                    -1.1043   -1.41273  -0.71153 
 1                    -0.51626  -2.31205  -0.8443 
 6                    -2.42836  -1.51914  -0.10794 
 1                    -2.83616  -2.5068    0.07181 
 6                    -1.4894    1.001    -1.01977 
 1                    -0.88901   1.90293  -0.91447 
 1                    -1.9618    1.06585  -2.00807 
 6                    -2.58944   0.95353   0.0453 
 1                    -3.40096   1.62307  -0.24731 
 1                    -2.22687   1.33938   1.00611 
 
 ITRead=  0  0  0  0  0  0  0  0  0  0  0  0  0  0  0  0  0  0  0  0
 ITRead=  0  0  0  0  0  0  0  0
 MicOpt= -1 -1 -1 -1 -1 -1 -1 -1 -1 -1 -1 -1 -1 -1 -1 -1 -1 -1 -1 -1
 MicOpt= -1 -1 -1 -1 -1 -1 -1 -1
 NAtoms=     28 NQM=       28 NQMF=       0 NMMI=      0 NMMIF=      0
                NMic=       0 NMicF=      0.
                    Isotopes and Nuclear Properties:
 (Nuclear quadrupole moments (NQMom) in fm**2, nuclear magnetic moments (NMagM)
  in nuclear magnetons)

  Atom         1           2           3           4           5           6           7           8           9          10
 IAtWgt=          12          12           1           1          12          12           1           1          12           1
 AtmWgt=  12.0000000  12.0000000   1.0078250   1.0078250  12.0000000  12.0000000   1.0078250   1.0078250  12.0000000   1.0078250
 NucSpn=           0           0           1           1           0           0           1           1           0           1
 AtZEff=  -0.0000000  -0.0000000  -0.0000000  -0.0000000  -0.0000000  -0.0000000  -0.0000000  -0.0000000  -0.0000000  -0.0000000
 NQMom=    0.0000000   0.0000000   0.0000000   0.0000000   0.0000000   0.0000000   0.0000000   0.0000000   0.0000000   0.0000000
 NMagM=    0.0000000   0.0000000   2.7928460   2.7928460   0.0000000   0.0000000   2.7928460   2.7928460   0.0000000   2.7928460
 AtZNuc=   6.0000000   6.0000000   1.0000000   1.0000000   6.0000000   6.0000000   1.0000000   1.0000000   6.0000000   1.0000000

  Atom        11          12          13          14          15          16          17          18          19          20
 IAtWgt=           1          12           1          12           1          12           1           1          12           1
 AtmWgt=   1.0078250  12.0000000   1.0078250  12.0000000   1.0078250  12.0000000   1.0078250   1.0078250  12.0000000   1.0078250
 NucSpn=           1           0           1           0           1           0           1           1           0           1
 AtZEff=  -0.0000000  -0.0000000  -0.0000000  -0.0000000  -0.0000000  -0.0000000  -0.0000000  -0.0000000  -0.0000000  -0.0000000
 NQMom=    0.0000000   0.0000000   0.0000000   0.0000000   0.0000000   0.0000000   0.0000000   0.0000000   0.0000000   0.0000000
 NMagM=    2.7928460   0.0000000   2.7928460   0.0000000   2.7928460   0.0000000   2.7928460   2.7928460   0.0000000   2.7928460
 AtZNuc=   1.0000000   6.0000000   1.0000000   6.0000000   1.0000000   6.0000000   1.0000000   1.0000000   6.0000000   1.0000000

  Atom        21          22          23          24          25          26          27          28
 IAtWgt=          12           1          12           1           1          12           1           1
 AtmWgt=  12.0000000   1.0078250  12.0000000   1.0078250   1.0078250  12.0000000   1.0078250   1.0078250
 NucSpn=           0           1           0           1           1           0           1           1
 AtZEff=  -0.0000000  -0.0000000  -0.0000000  -0.0000000  -0.0000000  -0.0000000  -0.0000000  -0.0000000
 NQMom=    0.0000000   0.0000000   0.0000000   0.0000000   0.0000000   0.0000000   0.0000000   0.0000000
 NMagM=    0.0000000   2.7928460   0.0000000   2.7928460   2.7928460   0.0000000   2.7928460   2.7928460
 AtZNuc=   6.0000000   1.0000000   6.0000000   1.0000000   1.0000000   6.0000000   1.0000000   1.0000000
 Leave Link  101 at Tue Aug  4 07:58:04 2020, MaxMem=  6442450944 cpu:               2.4 elap:               0.1
 (Enter /scratch/scicomp/CentOS/7.3.1611/Haswell/software/Gaussian/g16/l202.exe)
                          Input orientation:                          
 ---------------------------------------------------------------------
 Center     Atomic      Atomic             Coordinates (Angstroms)
 Number     Number       Type             X           Y           Z
 ---------------------------------------------------------------------
      1          6           0       -3.122592   -0.438388    0.249109
      2          6           0       -0.621801   -0.222716   -1.060943
      3          1           0       -4.085324   -0.547212    0.735016
      4          1           0        0.349284   -0.128633   -1.527138
      5          6           0        1.104299    1.412726    0.711533
      6          6           0        0.621801    0.222716    1.060943
      7          1           0        0.516259    2.312051    0.844298
      8          1           0       -0.349284    0.128633    1.527138
      9          6           0        1.489396   -1.000996    1.019772
     10          1           0        1.961797   -1.065850    2.008075
     11          1           0        0.889010   -1.902931    0.914465
     12          6           0        2.428355    1.519137    0.107940
     13          1           0        2.836160    2.506797   -0.071809
     14          6           0        3.122592    0.438388   -0.249109
     15          1           0        4.085324    0.547212   -0.735016
     16          6           0        2.589439   -0.953530   -0.045302
     17          1           0        2.226867   -1.339383   -1.006111
     18          1           0        3.400958   -1.623074    0.247309
     19          6           0       -1.104299   -1.412726   -0.711533
     20          1           0       -0.516259   -2.312051   -0.844298
     21          6           0       -2.428355   -1.519137   -0.107940
     22          1           0       -2.836160   -2.506797    0.071809
     23          6           0       -1.489396    1.000996   -1.019772
     24          1           0       -0.889010    1.902931   -0.914465
     25          1           0       -1.961797    1.065850   -2.008075
     26          6           0       -2.589439    0.953530    0.045302
     27          1           0       -3.400958    1.623074   -0.247309
     28          1           0       -2.226867    1.339383    1.006111
 ---------------------------------------------------------------------
                    Distance matrix (angstroms):
                    1          2          3          4          5
     1  C    0.000000
     2  C    2.831379   0.000000
     3  H    1.083882   3.914940   0.000000
     4  H    3.912151   1.081293   4.995828   0.000000
     5  C    4.637571   2.965765   5.547440   2.820901   0.000000
     6  C    3.888009   2.499471   4.780799   2.626000   1.330795
     7  H    4.600044   3.369001   5.418662   3.407129   1.082683
     8  H    3.105818   2.626000   3.878430   3.143690   2.104046
     9  C    4.709658   3.064677   5.600403   2.923632   2.463608
    10  H    5.416519   4.099357   6.201398   3.997037   2.925690
    11  H    4.322098   3.001318   5.158893   3.066083   3.328830
    12  C    5.887686   3.701863   6.862291   3.116274   1.459031
    13  H    6.654610   4.515099   7.608211   3.904872   2.193162
    14  C    6.326079   3.888009   7.341251   3.105818   2.438375
    15  H    7.341251   4.780799   8.373664   3.878430   3.424636
    16  C    5.742765   3.446401   6.732492   2.809731   2.894410
    17  H    5.568131   3.060206   6.595666   2.294058   3.432865
    18  H    6.630248   4.455908   7.578902   3.833371   3.834870
    19  C    2.438375   1.330795   3.424636   2.104046   3.858264
    20  H    3.391036   2.103187   4.283353   2.445966   4.349803
    21  C    1.333217   2.419206   2.097799   3.415099   4.663368
    22  H    2.095661   3.376913   2.416656   4.284781   5.594562
    23  C    2.519765   1.500629   3.495007   2.216805   3.145504
    24  H    3.438687   2.147378   4.352058   2.456826   2.618674
    25  H    2.950433   2.086397   3.825687   2.645597   4.113093
    26  C    1.504402   2.545375   2.228363   3.504246   3.781326
    27  H    2.138585   3.434043   2.478601   4.332523   4.610961
    28  H    2.129752   3.047803   2.662066   3.899869   3.344970
                    6          7          8          9         10
     6  C    0.000000
     7  H    2.103187   0.000000
     8  H    1.081293   2.445966   0.000000
     9  C    1.500629   3.457465   2.216805   0.000000
    10  H    2.086397   3.854111   2.645597   1.097320   0.000000
    11  H    2.147378   4.232014   2.456826   1.088595   1.745726
    12  C    2.419206   2.197054   3.415099   2.839745   3.241967
    13  H    3.376913   2.501823   4.284781   3.912791   4.225427
    14  C    2.831379   3.391036   3.912151   2.519765   2.950433
    15  H    3.914940   4.283353   4.995828   3.495007   3.825687
    16  C    2.545375   3.969066   3.504246   1.531904   2.150095
    17  H    3.047803   4.436571   3.899869   2.182332   3.038157
    18  H    3.434043   4.915597   4.332523   2.153543   2.341363
    19  C    2.965765   4.349803   2.820901   3.145504   4.113093
    20  H    3.369001   5.029888   3.407129   3.035832   3.978669
    21  C    3.701863   4.924988   3.116274   4.109620   4.894530
    22  H    4.515099   5.920874   3.904872   4.677233   5.370833
    23  C    3.064677   3.035832   2.923632   4.128064   5.034922
    24  H    3.001318   2.288101   3.066083   4.222663   5.047970
    25  H    4.099357   3.978669   3.997037   5.034922   6.005680
    26  C    3.446401   3.482719   2.809731   4.626733   5.352020
    27  H    4.455908   4.124425   3.833371   5.692697   6.409073
    28  H    3.060206   2.914963   2.294058   4.391830   4.932949
                   11         12         13         14         15
    11  H    0.000000
    12  C    3.838048   0.000000
    13  H    4.920349   1.083553   0.000000
    14  C    3.438687   1.333217   2.095661   0.000000
    15  H    4.352058   2.097799   2.416656   1.083882   0.000000
    16  C    2.171169   2.482642   3.469213   1.504402   2.228363
    17  H    2.407501   3.074548   4.004655   2.129752   2.662066
    18  H    2.614058   3.292244   4.180510   2.138585   2.478601
    19  C    2.618674   4.663368   5.594562   4.637571   5.547440
    20  H    2.288101   4.924988   5.920874   4.600044   5.418662
    21  C    3.492495   5.732830   6.627561   5.887686   6.862291
    22  H    3.866732   6.627561   7.571787   6.654610   7.608211
    23  C    4.222663   4.109620   4.677233   4.709658   5.600403
    24  H    4.581585   3.492495   3.866732   4.322098   5.158893
    25  H    5.047970   4.894530   5.370833   5.416519   6.201398
    26  C    4.584149   5.049960   5.644774   5.742765   6.732492
    27  H    5.673293   5.841053   6.301857   6.630248   7.578902
    28  H    4.497743   4.744483   5.306506   5.568131   6.595666
                   16         17         18         19         20
    16  C    0.000000
    17  H    1.097039   0.000000
    18  H    1.092004   1.740699   0.000000
    19  C    3.781326   3.344970   4.610961   0.000000
    20  H    3.482719   2.914963   4.124425   1.082683   0.000000
    21  C    5.049960   4.744483   5.841053   1.459031   2.197054
    22  H    5.644774   5.306506   6.301857   2.193162   2.501823
    23  C    4.626733   4.391830   5.692697   2.463608   3.457465
    24  H    4.584149   4.497743   5.673293   3.328830   4.232014
    25  H    5.352020   4.932949   6.409073   2.925690   3.854111
    26  C    5.519589   5.436885   6.524151   2.894410   3.969066
    27  H    6.524151   6.405025   7.553025   3.834870   4.915597
    28  H    5.436885   5.573201   6.405025   3.432865   4.436571
                   21         22         23         24         25
    21  C    0.000000
    22  H    1.083553   0.000000
    23  C    2.839745   3.912791   0.000000
    24  H    3.838048   4.920349   1.088595   0.000000
    25  H    3.241967   4.225427   1.097320   1.745726   0.000000
    26  C    2.482642   3.469213   1.531904   2.171169   2.150095
    27  H    3.292244   4.180510   2.153543   2.614058   2.341363
    28  H    3.074548   4.004655   2.182332   2.407501   3.038157
                   26         27         28
    26  C    0.000000
    27  H    1.092004   0.000000
    28  H    1.097039   1.740699   0.000000
 Symmetry turned off by external request.
 Stoichiometry    C12H16
 Framework group  CI[X(C12H16)]
 Deg. of freedom    39
 Full point group                 CI      NOp   2
 Rotational constants (GHZ):           1.8700670           0.6206596           0.5469464
 Leave Link  202 at Tue Aug  4 07:58:04 2020, MaxMem=  6442450944 cpu:               0.3 elap:               0.0
 (Enter /scratch/scicomp/CentOS/7.3.1611/Haswell/software/Gaussian/g16/l301.exe)
 Standard basis: def2TZVP (6D, 10F)
 Ernie: Thresh=  0.10000D-02 Tol=  0.10000D-05 Strict=F.
   528 basis functions,   740 primitive gaussians,   528 cartesian basis functions
    44 alpha electrons       44 beta electrons
       nuclear repulsion energy       685.9079802724 Hartrees.
 IExCor= 4639 DFT=T Ex+Corr=wB97XD ExCW=0 ScaHFX=  1.000000
 ScaDFX=  1.000000  1.000000  1.000000  1.000000 ScalE2=  1.000000  1.000000
 IRadAn=      5 IRanWt=     -1 IRanGd=            0 ICorTp=0 IEmpDi=121
 HFx  wShort=  0.000000 wLong=  0.200000 cFull=  0.222036 cShort=  0.000000 cLong=  0.777964
 DFx  wShort=  0.000000 wLong=  0.200000 cFull=  0.000000 cShort=  0.000000 cLong=  1.000000
 NAtoms=   28 NActive=   28 NUniq=   28 SFac= 1.00D+00 NAtFMM=   60 NAOKFM=F Big=F
 Integral buffers will be    131072 words long.
 Raffenetti 2 integral format.
 Two-electron integral symmetry is turned off.
 R6Disp:  Grimme-D2 Dispersion energy=       -0.0229309712 Hartrees.
 Nuclear repulsion after empirical dispersion term =      685.8850493012 Hartrees.
 Using the following non-standard input for PCM:
 qrep pcmdoc geomview  nodis nocav g03defaults tsare=0.075
 Warning! Using old PCM defaults because the g03defaults keyword was found.
 These settings can be overridden by following keywords.
 nsfe=28
 NVESolv=36  SolvMW=84.1595   Rsolv=2.815
 eps=2.0165 RhoS=0.778099999999998
 --- end of non-standard input.
 Reading user-defined spheres from input:
 ISph  on   Nord    Re0     Alpha      Xe            Ye            Ze
 --- end of user-defined spheres data.
 ------------------------------------------------------------------------------
 Polarizable Continuum Model (PCM)
 =================================
 Model                : PCM.
 Atomic radii         : UA0 (Simple United Atom Topological Model).
 Polarization charges : Total charges.
 Charge compensation  : None.
 Solution method      : On-the-fly selection.
 Cavity type          : SES (Solvent Excluding Surface) (Alpha=1.000).
 Cavity algorithm     : GePol (RMin=0.200 OFac=0.890).
                        User-defined sphere list used, NSphG=   28.
                        Tesserae with average area of 0.075 Ang**2.
                        Smoothing algorithm: None.
                        Polarization charges: point-like.
                        Self-potential: constant (ISelfS= 1).
                        Self-field    : global E.n sum rule (ISelfD= 3).
 Solvent              : CycloHexane, Eps=   2.016500 Eps(inf)=   2.035188
                        RSolv=   2.815000 Ang.
 ------------------------------------------------------------------------------
 GePol: Number of generator spheres                  =      28
 GePol: Total number of spheres                      =     170
 GePol: Number of exposed spheres                    =     122 ( 71.76%)
 GePol: Number of tesserae                           =    4596
 GePol: Average area of tesserae                     =       0.05 Ang**2
 GePol: Minimum area of tessera                      =   0.10D-02 Ang**2
 GePol: Maximum area of tessera                      =    0.12515 Ang**2
 GePol: Number of small tesserae                     =       0
 GePol: Fraction of small tesserae (<1% of avg)      =       0.00%
 GePol: Total count of vertices                      =   16247
 GePol: Maximum number of vertices in a tessera      =       8
 GePol: Cavity surface area                          =    219.273 Ang**2
 GePol: Cavity volume                                =    247.297 Ang**3
 Leave Link  301 at Tue Aug  4 07:58:05 2020, MaxMem=  6442450944 cpu:               7.2 elap:               0.3
 (Enter /scratch/scicomp/CentOS/7.3.1611/Haswell/software/Gaussian/g16/l302.exe)
 NPDir=0 NMtPBC=     1 NCelOv=     1 NCel=       1 NClECP=     1 NCelD=      1
         NCelK=      1 NCelE2=     1 NClLst=     1 CellRange=     0.0.
 One-electron integrals computed using PRISM.
   1 Symmetry operations used in ECPInt.
 ECPInt:  NShTT=   19306 NPrTT=   56928 LenC2=   18508 LenP2D=   42134.
 LDataN:  DoStor=T MaxTD1= 6 Len=  172
 NBasis=   528 RedAO= T EigKep=  1.81D-05  NBF=   528
 NBsUse=   528 1.00D-06 EigRej= -1.00D+00 NBFU=   528
 Precomputing XC quadrature grid using
 IXCGrd= 4 IRadAn=           5 IRanWt=          -1 IRanGd=           0 AccXCQ= 0.00D+00.
 Generated NRdTot=       0 NPtTot=           0 NUsed=           0 NTot=          32
 NSgBfM=   526   526   526   526   526 MxSgAt=    28 MxSgA2=    28.
 Leave Link  302 at Tue Aug  4 07:58:05 2020, MaxMem=  6442450944 cpu:              12.7 elap:               0.6
 (Enter /scratch/scicomp/CentOS/7.3.1611/Haswell/software/Gaussian/g16/l303.exe)
 DipDrv:  MaxL=1.
 Leave Link  303 at Tue Aug  4 07:58:05 2020, MaxMem=  6442450944 cpu:               1.6 elap:               0.1
 (Enter /scratch/scicomp/CentOS/7.3.1611/Haswell/software/Gaussian/g16/l401.exe)
 ExpMin= 9.52D-02 ExpMax= 1.36D+04 ExpMxC= 4.63D+02 IAcc=3 IRadAn=         5 AccDes= 0.00D+00
 Harris functional with IExCor= 4639 and IRadAn=       5 diagonalized for initial guess.
 HarFok:  IExCor= 4639 AccDes= 0.00D+00 IRadAn=         5 IDoV= 1 UseB2=F ITyADJ=14
 ICtDFT=  3500011 ScaDFX=  1.000000  1.000000  1.000000  1.000000
 FoFCou: FMM=F IPFlag=           0 FMFlag=      100000 FMFlg1=           0
         NFxFlg=           0 DoJE=T BraDBF=F KetDBF=T FulRan=T
         wScrn=  0.000000 ICntrl=       500 IOpCl=  0 I1Cent=   200000004 NGrid=           0
         NMat0=    1 NMatS0=      1 NMatT0=    0 NMatD0=    1 NMtDS0=    0 NMtDT0=    0
 Symmetry not used in FoFCou.
 Harris En= -444.640525448281    
 JPrj=0 DoOrth=F DoCkMO=T.
 Mixing orbitals, IMix= 1 IMixAn=  0 NRI=1 NE=   44 Coef=  7.07106781D-01  7.07106781D-01
 Mixing orbitals, IMix= 1 IMixAn=  0 NRI=1 NE=   44 Coef= -7.07106781D-01  7.07106781D-01
 Initial guess <Sx>= 0.0000 <Sy>= 0.0000 <Sz>= 0.0000 <S**2>= 1.0000 S= 0.6180
 Leave Link  401 at Tue Aug  4 07:58:08 2020, MaxMem=  6442450944 cpu:              48.7 elap:               2.1
 (Enter /scratch/scicomp/CentOS/7.3.1611/Haswell/software/Gaussian/g16/l502.exe)
 Two-electron integral symmetry not used.
 UHF open shell SCF:
 Using DIIS extrapolation, IDIIS=  1040.
 NGot=  6442450944 LenX=  6441877030 LenY=  6441597718
 Requested convergence on RMS density matrix=1.00D-08 within 128 cycles.
 Requested convergence on MAX density matrix=1.00D-06.
 Requested convergence on             energy=1.00D-06.
 No special actions if energy rises.
 Fock matrices will be formed incrementally for  20 cycles.

 Cycle   1  Pass 1  IDiag  1:
 FoFJK:  IHMeth= 1 ICntrl=       0 DoSepK=T KAlg= 0 I1Cent=           0 FoldK=F
 IRaf=         1 NMat=       1 IRICut=       1 DoRegI=T DoRafI=F ISym2E= 0 IDoP0=0 IntGTp=1.
 FoFCou: FMM=F IPFlag=           0 FMFlag=      100000 FMFlg1=           0
         NFxFlg=           0 DoJE=T BraDBF=F KetDBF=F FulRan=T
         wScrn=  0.000000 ICntrl=       500 IOpCl=  0 I1Cent=           0 NGrid=           0
         NMat0=    1 NMatS0=      1 NMatT0=    0 NMatD0=    1 NMtDS0=    0 NMtDT0=    0
 Symmetry not used in FoFCou.
 Inv3:  Mode=1 IEnd=    63369648.
 Iteration    1 A*A^-1 deviation from unit magnitude is 6.22D-15 for   2529.
 Iteration    1 A*A^-1 deviation from orthogonality  is 2.22D-15 for   2357   1572.
 Iteration    1 A^-1*A deviation from unit magnitude is 4.66D-15 for   2529.
 Iteration    1 A^-1*A deviation from orthogonality  is 1.64D-15 for   3570   3555.
 E= -466.580129071617    
 DIIS: error= 5.79D-02 at cycle   1 NSaved=   1.
 NSaved= 1 IEnMin= 1 EnMin= -466.580129071617     IErMin= 1 ErrMin= 5.79D-02
 ErrMax= 5.79D-02  0.00D+00 EMaxC= 1.00D-01 BMatC= 4.11D+00 BMatP= 4.11D+00
 IDIUse=3 WtCom= 4.21D-01 WtEn= 5.79D-01
 Coeff-Com:  0.100D+01
 Coeff-En:   0.100D+01
 Coeff:      0.100D+01
 Gap=     0.188 Goal=   None    Shift=    0.000
 Gap=     0.188 Goal=   None    Shift=    0.000
 GapD=    0.188 DampG=1.000 DampE=0.500 DampFc=0.5000 IDamp=-1.
 Damping current iteration by 5.00D-01
 RMSDP=1.68D-03 MaxDP=9.22D-02              OVMax= 3.07D-01

 Cycle   2  Pass 1  IDiag  1:
 RMSU=  8.17D-04    CP:  9.68D-01
 E= -466.682241958328     Delta-E=       -0.102112886711 Rises=F Damp=T
 DIIS: error= 2.75D-02 at cycle   2 NSaved=   2.
 NSaved= 2 IEnMin= 2 EnMin= -466.682241958328     IErMin= 2 ErrMin= 2.75D-02
 ErrMax= 2.75D-02  0.00D+00 EMaxC= 1.00D-01 BMatC= 9.32D-01 BMatP= 4.11D+00
 IDIUse=3 WtCom= 7.25D-01 WtEn= 2.75D-01
 Coeff-Com: -0.868D+00 0.187D+01
 Coeff-En:   0.000D+00 0.100D+01
 Coeff:     -0.629D+00 0.163D+01
 Gap=     0.262 Goal=   None    Shift=    0.000
 Gap=     0.262 Goal=   None    Shift=    0.000
 RMSDP=1.19D-03 MaxDP=4.92D-02 DE=-1.02D-01 OVMax= 1.33D-01

 Cycle   3  Pass 1  IDiag  1:
 RMSU=  6.19D-04    CP:  9.23D-01  2.20D+00
 E= -466.812732602634     Delta-E=       -0.130490644306 Rises=F Damp=F
 DIIS: error= 7.55D-03 at cycle   3 NSaved=   3.
 NSaved= 3 IEnMin= 3 EnMin= -466.812732602634     IErMin= 3 ErrMin= 7.55D-03
 ErrMax= 7.55D-03  0.00D+00 EMaxC= 1.00D-01 BMatC= 2.28D-02 BMatP= 9.32D-01
 IDIUse=3 WtCom= 9.25D-01 WtEn= 7.55D-02
 Coeff-Com: -0.312D+00 0.670D+00 0.641D+00
 Coeff-En:   0.000D+00 0.000D+00 0.100D+01
 Coeff:     -0.288D+00 0.620D+00 0.669D+00
 Gap=     0.281 Goal=   None    Shift=    0.000
 Gap=     0.281 Goal=   None    Shift=    0.000
 RMSDP=2.43D-04 MaxDP=1.35D-02 DE=-1.30D-01 OVMax= 6.77D-02

 Cycle   4  Pass 1  IDiag  1:
 RMSU=  2.25D-04    CP:  9.14D-01  2.29D+00  1.00D+00
 E= -466.823572321637     Delta-E=       -0.010839719003 Rises=F Damp=F
 DIIS: error= 5.17D-03 at cycle   4 NSaved=   4.
 NSaved= 4 IEnMin= 4 EnMin= -466.823572321637     IErMin= 4 ErrMin= 5.17D-03
 ErrMax= 5.17D-03  0.00D+00 EMaxC= 1.00D-01 BMatC= 2.19D-03 BMatP= 2.28D-02
 IDIUse=3 WtCom= 9.48D-01 WtEn= 5.17D-02
 Coeff-Com:  0.119D+00-0.254D+00-0.486D-01 0.118D+01
 Coeff-En:   0.000D+00 0.000D+00 0.000D+00 0.100D+01
 Coeff:      0.113D+00-0.241D+00-0.460D-01 0.117D+01
 Gap=     0.291 Goal=   None    Shift=    0.000
 Gap=     0.291 Goal=   None    Shift=    0.000
 RMSDP=2.36D-04 MaxDP=1.07D-02 DE=-1.08D-02 OVMax= 8.07D-02

 Cycle   5  Pass 1  IDiag  1:
 RMSU=  9.63D-05    CP:  9.07D-01  2.34D+00  1.24D+00  1.64D+00
 E= -466.828640621487     Delta-E=       -0.005068299850 Rises=F Damp=F
 DIIS: error= 2.74D-03 at cycle   5 NSaved=   5.
 NSaved= 5 IEnMin= 5 EnMin= -466.828640621487     IErMin= 5 ErrMin= 2.74D-03
 ErrMax= 2.74D-03  0.00D+00 EMaxC= 1.00D-01 BMatC= 1.09D-03 BMatP= 2.19D-03
 IDIUse=3 WtCom= 9.73D-01 WtEn= 2.74D-02
 Coeff-Com:  0.852D-01-0.183D+00-0.104D+00 0.475D+00 0.727D+00
 Coeff-En:   0.000D+00 0.000D+00 0.000D+00 0.000D+00 0.100D+01
 Coeff:      0.828D-01-0.178D+00-0.101D+00 0.462D+00 0.735D+00
 Gap=     0.295 Goal=   None    Shift=    0.000
 Gap=     0.295 Goal=   None    Shift=    0.000
 RMSDP=1.02D-04 MaxDP=4.75D-03 DE=-5.07D-03 OVMax= 3.55D-02

 Cycle   6  Pass 1  IDiag  1:
 RMSU=  3.63D-05    CP:  9.04D-01  2.35D+00  1.29D+00  1.99D+00  1.42D+00
 E= -466.830338242107     Delta-E=       -0.001697620619 Rises=F Damp=F
 DIIS: error= 1.91D-03 at cycle   6 NSaved=   6.
 NSaved= 6 IEnMin= 6 EnMin= -466.830338242107     IErMin= 6 ErrMin= 1.91D-03
 ErrMax= 1.91D-03  0.00D+00 EMaxC= 1.00D-01 BMatC= 5.62D-04 BMatP= 1.09D-03
 IDIUse=3 WtCom= 9.81D-01 WtEn= 1.91D-02
 Coeff-Com: -0.664D-01 0.143D+00 0.574D-01-0.482D+00-0.834D-02 0.136D+01
 Coeff-En:   0.000D+00 0.000D+00 0.000D+00 0.000D+00 0.000D+00 0.100D+01
 Coeff:     -0.652D-01 0.140D+00 0.563D-01-0.473D+00-0.818D-02 0.135D+01
 Gap=     0.291 Goal=   None    Shift=    0.000
 Gap=     0.291 Goal=   None    Shift=    0.000
 RMSDP=1.15D-04 MaxDP=4.76D-03 DE=-1.70D-03 OVMax= 4.18D-02

 Cycle   7  Pass 1  IDiag  1:
 RMSU=  3.27D-05    CP:  9.02D-01  2.34D+00  1.34D+00  2.31D+00  2.11D+00
                    CP:  2.04D+00
 E= -466.832063404812     Delta-E=       -0.001725162705 Rises=F Damp=F
 DIIS: error= 1.31D-03 at cycle   7 NSaved=   7.
 NSaved= 7 IEnMin= 7 EnMin= -466.832063404812     IErMin= 7 ErrMin= 1.31D-03
 ErrMax= 1.31D-03  0.00D+00 EMaxC= 1.00D-01 BMatC= 3.19D-04 BMatP= 5.62D-04
 IDIUse=3 WtCom= 9.87D-01 WtEn= 1.31D-02
 Coeff-Com: -0.209D-01 0.456D-01 0.464D-01 0.602D-01-0.526D+00-0.922D+00
 Coeff-Com:  0.232D+01
 Coeff-En:   0.000D+00 0.000D+00 0.000D+00 0.000D+00 0.000D+00 0.000D+00
 Coeff-En:   0.100D+01
 Coeff:     -0.207D-01 0.450D-01 0.458D-01 0.594D-01-0.519D+00-0.910D+00
 Coeff:      0.230D+01
 Gap=     0.290 Goal=   None    Shift=    0.000
 Gap=     0.290 Goal=   None    Shift=    0.000
 RMSDP=1.59D-04 MaxDP=7.16D-03 DE=-1.73D-03 OVMax= 6.01D-02

 Cycle   8  Pass 1  IDiag  1:
 RMSU=  4.43D-05    CP:  8.99D-01  2.34D+00  1.39D+00  2.68D+00  3.00D+00
                    CP:  3.00D+00  2.85D+00
 E= -466.833818342625     Delta-E=       -0.001754937813 Rises=F Damp=F
 DIIS: error= 6.11D-04 at cycle   8 NSaved=   8.
 NSaved= 8 IEnMin= 8 EnMin= -466.833818342625     IErMin= 8 ErrMin= 6.11D-04
 ErrMax= 6.11D-04  0.00D+00 EMaxC= 1.00D-01 BMatC= 1.15D-04 BMatP= 3.19D-04
 IDIUse=3 WtCom= 9.94D-01 WtEn= 6.11D-03
 Coeff-Com:  0.341D-01-0.733D-01-0.161D-01 0.352D+00-0.157D+00-0.117D+01
 Coeff-Com:  0.780D+00 0.125D+01
 Coeff-En:   0.000D+00 0.000D+00 0.000D+00 0.000D+00 0.000D+00 0.000D+00
 Coeff-En:   0.000D+00 0.100D+01
 Coeff:      0.339D-01-0.729D-01-0.160D-01 0.350D+00-0.156D+00-0.116D+01
 Coeff:      0.775D+00 0.124D+01
 Gap=     0.292 Goal=   None    Shift=    0.000
 Gap=     0.292 Goal=   None    Shift=    0.000
 RMSDP=1.07D-04 MaxDP=5.02D-03 DE=-1.75D-03 OVMax= 4.11D-02

 Cycle   9  Pass 1  IDiag  1:
 RMSU=  6.90D-05    CP:  8.96D-01  2.33D+00  1.42D+00  2.89D+00  3.00D+00
                    CP:  3.00D+00  3.00D+00  2.36D+00
 E= -466.834401804014     Delta-E=       -0.000583461388 Rises=F Damp=F
 DIIS: error= 2.44D-04 at cycle   9 NSaved=   9.
 NSaved= 9 IEnMin= 9 EnMin= -466.834401804014     IErMin= 9 ErrMin= 2.44D-04
 ErrMax= 2.44D-04  0.00D+00 EMaxC= 1.00D-01 BMatC= 2.79D-05 BMatP= 1.15D-04
 IDIUse=3 WtCom= 9.98D-01 WtEn= 2.44D-03
 Coeff-Com:  0.230D-01-0.496D-01-0.193D-01 0.165D+00 0.494D-01-0.346D+00
 Coeff-Com: -0.171D+00 0.517D+00 0.830D+00
 Coeff-En:   0.000D+00 0.000D+00 0.000D+00 0.000D+00 0.000D+00 0.000D+00
 Coeff-En:   0.000D+00 0.000D+00 0.100D+01
 Coeff:      0.230D-01-0.495D-01-0.192D-01 0.165D+00 0.493D-01-0.345D+00
 Coeff:     -0.170D+00 0.516D+00 0.830D+00
 Gap=     0.292 Goal=   None    Shift=    0.000
 Gap=     0.292 Goal=   None    Shift=    0.000
 RMSDP=3.59D-05 MaxDP=1.76D-03 DE=-5.83D-04 OVMax= 1.40D-02

 Cycle  10  Pass 1  IDiag  1:
 RMSU=  7.70D-06    CP:  8.96D-01  2.33D+00  1.43D+00  2.94D+00  3.00D+00
                    CP:  3.00D+00  3.00D+00  2.84D+00  1.33D+00
 E= -466.834480436959     Delta-E=       -0.000078632945 Rises=F Damp=F
 DIIS: error= 1.19D-04 at cycle  10 NSaved=  10.
 NSaved=10 IEnMin=10 EnMin= -466.834480436959     IErMin=10 ErrMin= 1.19D-04
 ErrMax= 1.19D-04  0.00D+00 EMaxC= 1.00D-01 BMatC= 4.25D-06 BMatP= 2.79D-05
 IDIUse=3 WtCom= 9.99D-01 WtEn= 1.19D-03
 Coeff-Com: -0.156D-02 0.342D-02-0.992D-03-0.376D-01 0.363D-01 0.163D+00
 Coeff-Com: -0.166D+00-0.230D+00 0.913D-01 0.114D+01
 Coeff-En:   0.000D+00 0.000D+00 0.000D+00 0.000D+00 0.000D+00 0.000D+00
 Coeff-En:   0.000D+00 0.000D+00 0.000D+00 0.100D+01
 Coeff:     -0.156D-02 0.342D-02-0.991D-03-0.376D-01 0.363D-01 0.163D+00
 Coeff:     -0.166D+00-0.230D+00 0.912D-01 0.114D+01
 Gap=     0.291 Goal=   None    Shift=    0.000
 Gap=     0.291 Goal=   None    Shift=    0.000
 RMSDP=2.09D-05 MaxDP=9.06D-04 DE=-7.86D-05 OVMax= 8.23D-03

 Cycle  11  Pass 1  IDiag  1:
 RMSU=  6.67D-06    CP:  8.95D-01  2.33D+00  1.44D+00  2.98D+00  3.00D+00
                    CP:  3.00D+00  3.00D+00  3.00D+00  1.52D+00  1.62D+00
 E= -466.834496299222     Delta-E=       -0.000015862263 Rises=F Damp=F
 DIIS: error= 3.32D-05 at cycle  11 NSaved=  11.
 NSaved=11 IEnMin=11 EnMin= -466.834496299222     IErMin=11 ErrMin= 3.32D-05
 ErrMax= 3.32D-05  0.00D+00 EMaxC= 1.00D-01 BMatC= 8.71D-07 BMatP= 4.25D-06
 IDIUse=1 WtCom= 1.00D+00 WtEn= 0.00D+00
 Coeff-Com: -0.270D-02 0.583D-02 0.159D-02-0.287D-01 0.580D-02 0.840D-01
 Coeff-Com: -0.275D-01-0.141D+00-0.742D-01 0.431D+00 0.746D+00
 Coeff:     -0.270D-02 0.583D-02 0.159D-02-0.287D-01 0.580D-02 0.840D-01
 Coeff:     -0.275D-01-0.141D+00-0.742D-01 0.431D+00 0.746D+00
 Gap=     0.291 Goal=   None    Shift=    0.000
 Gap=     0.291 Goal=   None    Shift=    0.000
 RMSDP=4.15D-06 MaxDP=1.74D-04 DE=-1.59D-05 OVMax= 1.54D-03

 Cycle  12  Pass 1  IDiag  1:
 RMSU=  1.35D-06    CP:  8.95D-01  2.33D+00  1.44D+00  2.99D+00  3.00D+00
                    CP:  3.00D+00  3.00D+00  3.00D+00  1.55D+00  1.79D+00
                    CP:  1.33D+00
 E= -466.834497158791     Delta-E=       -0.000000859569 Rises=F Damp=F
 DIIS: error= 1.57D-05 at cycle  12 NSaved=  12.
 NSaved=12 IEnMin=12 EnMin= -466.834497158791     IErMin=12 ErrMin= 1.57D-05
 ErrMax= 1.57D-05  0.00D+00 EMaxC= 1.00D-01 BMatC= 1.06D-07 BMatP= 8.71D-07
 IDIUse=1 WtCom= 1.00D+00 WtEn= 0.00D+00
 Coeff-Com:  0.825D-03-0.180D-02-0.315D-03 0.104D-01-0.440D-02-0.375D-01
 Coeff-Com:  0.287D-01 0.488D-01-0.369D-02-0.211D+00 0.281D-02 0.117D+01
 Coeff:      0.825D-03-0.180D-02-0.315D-03 0.104D-01-0.440D-02-0.375D-01
 Coeff:      0.287D-01 0.488D-01-0.369D-02-0.211D+00 0.281D-02 0.117D+01
 Gap=     0.291 Goal=   None    Shift=    0.000
 Gap=     0.291 Goal=   None    Shift=    0.000
 RMSDP=1.22D-06 MaxDP=4.48D-05 DE=-8.60D-07 OVMax= 2.45D-04

 Cycle  13  Pass 1  IDiag  1:
 RMSU=  8.93D-07    CP:  8.95D-01  2.33D+00  1.44D+00  2.99D+00  3.00D+00
                    CP:  3.00D+00  3.00D+00  3.00D+00  1.56D+00  1.85D+00
                    CP:  1.40D+00  1.26D+00
 E= -466.834497307552     Delta-E=       -0.000000148761 Rises=F Damp=F
 DIIS: error= 8.34D-06 at cycle  13 NSaved=  13.
 NSaved=13 IEnMin=13 EnMin= -466.834497307552     IErMin=13 ErrMin= 8.34D-06
 ErrMax= 8.34D-06  0.00D+00 EMaxC= 1.00D-01 BMatC= 2.43D-08 BMatP= 1.06D-07
 IDIUse=1 WtCom= 1.00D+00 WtEn= 0.00D+00
 Coeff-Com:  0.409D-04-0.845D-04 0.280D-04 0.103D-02-0.686D-03-0.391D-02
 Coeff-Com:  0.238D-02 0.823D-02 0.245D-02-0.362D-01-0.776D-01-0.489D-01
 Coeff-Com:  0.115D+01
 Coeff:      0.409D-04-0.845D-04 0.280D-04 0.103D-02-0.686D-03-0.391D-02
 Coeff:      0.238D-02 0.823D-02 0.245D-02-0.362D-01-0.776D-01-0.489D-01
 Coeff:      0.115D+01
 Gap=     0.291 Goal=   None    Shift=    0.000
 Gap=     0.291 Goal=   None    Shift=    0.000
 RMSDP=5.07D-07 MaxDP=2.96D-05 DE=-1.49D-07 OVMax= 1.42D-04

 Cycle  14  Pass 1  IDiag  1:
 RMSU=  2.93D-07    CP:  8.95D-01  2.33D+00  1.44D+00  2.99D+00  3.00D+00
                    CP:  3.00D+00  3.00D+00  3.00D+00  1.56D+00  1.87D+00
                    CP:  1.43D+00  1.35D+00  1.30D+00
 E= -466.834497351801     Delta-E=       -0.000000044249 Rises=F Damp=F
 DIIS: error= 5.00D-06 at cycle  14 NSaved=  14.
 NSaved=14 IEnMin=14 EnMin= -466.834497351801     IErMin=14 ErrMin= 5.00D-06
 ErrMax= 5.00D-06  0.00D+00 EMaxC= 1.00D-01 BMatC= 8.83D-09 BMatP= 2.43D-08
 IDIUse=1 WtCom= 1.00D+00 WtEn= 0.00D+00
 Coeff-Com: -0.396D-03 0.858D-03 0.242D-03-0.414D-02 0.120D-02 0.139D-01
 Coeff-Com: -0.963D-02-0.178D-01 0.634D-04 0.753D-01 0.192D-03-0.411D+00
 Coeff-Com: -0.503D-01 0.140D+01
 Coeff:     -0.396D-03 0.858D-03 0.242D-03-0.414D-02 0.120D-02 0.139D-01
 Coeff:     -0.963D-02-0.178D-01 0.634D-04 0.753D-01 0.192D-03-0.411D+00
 Coeff:     -0.503D-01 0.140D+01
 Gap=     0.291 Goal=   None    Shift=    0.000
 Gap=     0.291 Goal=   None    Shift=    0.000
 RMSDP=4.03D-07 MaxDP=2.15D-05 DE=-4.42D-08 OVMax= 1.01D-04

 Cycle  15  Pass 1  IDiag  1:
 RMSU=  1.81D-07    CP:  8.95D-01  2.33D+00  1.44D+00  2.99D+00  3.00D+00
                    CP:  3.00D+00  3.00D+00  3.00D+00  1.56D+00  1.88D+00
                    CP:  1.43D+00  1.39D+00  1.48D+00  2.04D+00
 E= -466.834497372405     Delta-E=       -0.000000020604 Rises=F Damp=F
 DIIS: error= 2.10D-06 at cycle  15 NSaved=  15.
 NSaved=15 IEnMin=15 EnMin= -466.834497372405     IErMin=15 ErrMin= 2.10D-06
 ErrMax= 2.10D-06  0.00D+00 EMaxC= 1.00D-01 BMatC= 1.75D-09 BMatP= 8.83D-09
 IDIUse=1 WtCom= 1.00D+00 WtEn= 0.00D+00
 Coeff-Com: -0.396D-04 0.842D-04-0.632D-05-0.640D-03 0.485D-03 0.254D-02
 Coeff-Com: -0.264D-02-0.345D-02 0.158D-02 0.204D-01 0.164D-01-0.516D-01
 Coeff-Com: -0.301D+00 0.188D+00 0.113D+01
 Coeff:     -0.396D-04 0.842D-04-0.632D-05-0.640D-03 0.485D-03 0.254D-02
 Coeff:     -0.264D-02-0.345D-02 0.158D-02 0.204D-01 0.164D-01-0.516D-01
 Coeff:     -0.301D+00 0.188D+00 0.113D+01
 Gap=     0.291 Goal=   None    Shift=    0.000
 Gap=     0.291 Goal=   None    Shift=    0.000
 RMSDP=2.41D-07 MaxDP=1.03D-05 DE=-2.06D-08 OVMax= 5.73D-05

 Cycle  16  Pass 1  IDiag  1:
 RMSU=  7.24D-08    CP:  8.95D-01  2.33D+00  1.44D+00  2.99D+00  3.00D+00
                    CP:  3.00D+00  3.00D+00  3.00D+00  1.56D+00  1.87D+00
                    CP:  1.42D+00  1.38D+00  1.54D+00  2.55D+00  1.55D+00
 E= -466.834497376025     Delta-E=       -0.000000003619 Rises=F Damp=F
 DIIS: error= 6.34D-07 at cycle  16 NSaved=  16.
 NSaved=16 IEnMin=16 EnMin= -466.834497376025     IErMin=16 ErrMin= 6.34D-07
 ErrMax= 6.34D-07  0.00D+00 EMaxC= 1.00D-01 BMatC= 2.18D-10 BMatP= 1.75D-09
 IDIUse=1 WtCom= 1.00D+00 WtEn= 0.00D+00
 Coeff-Com:  0.131D-04-0.287D-04-0.114D-04 0.186D-03-0.183D-04-0.615D-03
 Coeff-Com:  0.352D-03 0.977D-03 0.158D-03-0.440D-02 0.437D-02 0.420D-01
 Coeff-Com: -0.631D-01-0.165D+00 0.273D+00 0.913D+00
 Coeff:      0.131D-04-0.287D-04-0.114D-04 0.186D-03-0.183D-04-0.615D-03
 Coeff:      0.352D-03 0.977D-03 0.158D-03-0.440D-02 0.437D-02 0.420D-01
 Coeff:     -0.631D-01-0.165D+00 0.273D+00 0.913D+00
 Gap=     0.291 Goal=   None    Shift=    0.000
 Gap=     0.291 Goal=   None    Shift=    0.000
 RMSDP=7.15D-08 MaxDP=3.22D-06 DE=-3.62D-09 OVMax= 1.57D-05

 Cycle  17  Pass 1  IDiag  1:
 RMSU=  2.38D-08    CP:  8.95D-01  2.33D+00  1.44D+00  2.99D+00  3.00D+00
                    CP:  3.00D+00  3.00D+00  3.00D+00  1.56D+00  1.88D+00
                    CP:  1.42D+00  1.37D+00  1.55D+00  2.67D+00  1.73D+00
                    CP:  1.42D+00
 E= -466.834497376272     Delta-E=       -0.000000000247 Rises=F Damp=F
 DIIS: error= 1.68D-07 at cycle  17 NSaved=  17.
 NSaved=17 IEnMin=17 EnMin= -466.834497376272     IErMin=17 ErrMin= 1.68D-07
 ErrMax= 1.68D-07  0.00D+00 EMaxC= 1.00D-01 BMatC= 2.24D-11 BMatP= 2.18D-10
 IDIUse=1 WtCom= 1.00D+00 WtEn= 0.00D+00
 Coeff-Com: -0.127D-05 0.282D-05 0.225D-05 0.192D-04-0.301D-04-0.935D-04
 Coeff-Com:  0.142D-03 0.269D-03-0.186D-03-0.213D-02-0.320D-03 0.117D-01
 Coeff-Com:  0.156D-01-0.509D-01-0.571D-01 0.213D+00 0.870D+00
 Coeff:     -0.127D-05 0.282D-05 0.225D-05 0.192D-04-0.301D-04-0.935D-04
 Coeff:      0.142D-03 0.269D-03-0.186D-03-0.213D-02-0.320D-03 0.117D-01
 Coeff:      0.156D-01-0.509D-01-0.571D-01 0.213D+00 0.870D+00
 Gap=     0.291 Goal=   None    Shift=    0.000
 Gap=     0.291 Goal=   None    Shift=    0.000
 RMSDP=1.54D-08 MaxDP=7.24D-07 DE=-2.47D-10 OVMax= 2.70D-06

 Cycle  18  Pass 1  IDiag  1:
 RMSU=  8.11D-09    CP:  8.95D-01  2.33D+00  1.44D+00  2.99D+00  3.00D+00
                    CP:  3.00D+00  3.00D+00  3.00D+00  1.56D+00  1.88D+00
                    CP:  1.42D+00  1.37D+00  1.55D+00  2.68D+00  1.77D+00
                    CP:  1.53D+00  1.15D+00
 E= -466.834497376287     Delta-E=       -0.000000000015 Rises=F Damp=F
 DIIS: error= 6.05D-08 at cycle  18 NSaved=  18.
 NSaved=18 IEnMin=18 EnMin= -466.834497376287     IErMin=18 ErrMin= 6.05D-08
 ErrMax= 6.05D-08  0.00D+00 EMaxC= 1.00D-01 BMatC= 3.29D-12 BMatP= 2.24D-11
 IDIUse=1 WtCom= 1.00D+00 WtEn= 0.00D+00
 Coeff-Com: -0.144D-05 0.315D-05 0.169D-05-0.138D-04-0.890D-05 0.434D-04
 Coeff-Com: -0.115D-04-0.833D-05-0.512D-04-0.147D-03-0.618D-03-0.115D-02
 Coeff-Com:  0.121D-01 0.311D-02-0.492D-01-0.411D-01 0.246D+00 0.831D+00
 Coeff:     -0.144D-05 0.315D-05 0.169D-05-0.138D-04-0.890D-05 0.434D-04
 Coeff:     -0.115D-04-0.833D-05-0.512D-04-0.147D-03-0.618D-03-0.115D-02
 Coeff:      0.121D-01 0.311D-02-0.492D-01-0.411D-01 0.246D+00 0.831D+00
 Gap=     0.291 Goal=   None    Shift=    0.000
 Gap=     0.291 Goal=   None    Shift=    0.000
 RMSDP=5.16D-09 MaxDP=2.10D-07 DE=-1.48D-11 OVMax= 8.74D-07

 Error on total polarization charges =  0.01122
 SCF Done:  E(UwB97XD) =  -466.834497376     A.U. after   18 cycles
            NFock= 18  Conv=0.52D-08     -V/T= 2.0055
 <Sx>= 0.0000 <Sy>= 0.0000 <Sz>= 0.0000 <S**2>= 0.0000 S= 0.0000
 <L.S>=  0.00000000000    
 KE= 4.643004314227D+02 PE=-2.453757948875D+03 EE= 8.367379707748D+02
 --------------------------------------------------------------------
 Variational PCM results
 =======================
 <psi(f)|   H    |psi(f)>                     (a.u.) =    -466.842736
 <psi(f)|H+V(f)/2|psi(f)>                     (a.u.) =    -466.844276
 Total free energy in solution:
 - with all non electrostatic terms           (a.u.) =    -466.834497
 --------------------------------------------------------------------
 (Polarized solute)-Solvent               (kcal/mol) =      -0.97
 --------------------------------------------------------------------
 Quantum repulsion energy                 (kcal/mol) =       6.14
 Total non electrostatic                  (kcal/mol) =       6.14
 --------------------------------------------------------------------
 Partition over spheres:
 Sphere  on Atom  Surface  Charge   GEl     GCav    GDR
    1               7.16   0.011   -0.05    0.00    0.00
    2               3.95   0.006   -0.03    0.00    0.00
    3               7.52  -0.010   -0.04    0.00    0.00
    4               2.32  -0.003   -0.01    0.00    0.00
    5               4.61   0.009   -0.06    0.00    0.00
    6               3.17   0.004   -0.02    0.00    0.00
    7               4.70  -0.007   -0.03    0.00    0.00
    8               2.33  -0.003   -0.01    0.00    0.00
    9               3.32   0.002    0.00    0.00    0.00
   10               6.59  -0.007   -0.01    0.00    0.00
   11               3.73  -0.003   -0.01    0.00    0.00
   12               6.75   0.011   -0.06    0.00    0.00
   13               7.50  -0.010   -0.03    0.00    0.00
   14               6.59   0.010   -0.05    0.00    0.00
   15               7.52  -0.010   -0.03    0.00    0.00
   16               3.57   0.001    0.00    0.00    0.00
   17               4.66  -0.005   -0.02    0.00    0.00
   18               7.04  -0.008   -0.03    0.00    0.00
   19               5.43   0.010   -0.07    0.00    0.00
   20               5.34  -0.007   -0.03    0.00    0.00
   21               6.94   0.011   -0.06    0.00    0.00
   22               7.52  -0.010   -0.03    0.00    0.00
   23               3.47   0.002    0.00    0.00    0.00
   24               4.05  -0.004   -0.01    0.00    0.00
   25               6.65  -0.007   -0.01    0.00    0.00
   26               3.31   0.001    0.00    0.00    0.00
   27               6.96  -0.008   -0.03    0.00    0.00
   28               4.61  -0.005   -0.02    0.00    0.00
 Added spheres:    71.97   0.017   -0.22    0.00    0.00
 --------------------------------------------------------------------
 After PCM corrections, the energy is  -466.834497376     a.u.
 --------------------------------------------------------------------
 Annihilation of the first spin contaminant:
 S**2 before annihilation     0.0000,   after    -0.0000
 Leave Link  502 at Tue Aug  4 08:03:46 2020, MaxMem=  6442450944 cpu:            8057.7 elap:             338.6
 (Enter /scratch/scicomp/CentOS/7.3.1611/Haswell/software/Gaussian/g16/l601.exe)
 Copying SCF densities to generalized density rwf, IOpCl= 1 IROHF=0.

 **********************************************************************

            Population analysis using the SCF Density.

 **********************************************************************

 Alpha  occ. eigenvalues --  -10.28426 -10.28426 -10.28097 -10.28095 -10.28045
 Alpha  occ. eigenvalues --  -10.28044 -10.28025 -10.28023 -10.27796 -10.27795
 Alpha  occ. eigenvalues --  -10.27082 -10.27080  -0.94444  -0.93350  -0.84579
 Alpha  occ. eigenvalues --   -0.84230  -0.83529  -0.83386  -0.71565  -0.70894
 Alpha  occ. eigenvalues --   -0.68207  -0.67724  -0.59761  -0.59710  -0.57516
 Alpha  occ. eigenvalues --   -0.56330  -0.53566  -0.52856  -0.50912  -0.50787
 Alpha  occ. eigenvalues --   -0.49733  -0.48956  -0.47491  -0.46777  -0.45670
 Alpha  occ. eigenvalues --   -0.44744  -0.41350  -0.40844  -0.39782  -0.39072
 Alpha  occ. eigenvalues --   -0.39053  -0.38519  -0.30085  -0.26432
 Alpha virt. eigenvalues --    0.02699   0.06358   0.11398   0.13247   0.14472
 Alpha virt. eigenvalues --    0.15458   0.15619   0.16682   0.16745   0.16792
 Alpha virt. eigenvalues --    0.17452   0.17735   0.18350   0.19276   0.20911
 Alpha virt. eigenvalues --    0.22122   0.22309   0.23677   0.24238   0.24915
 Alpha virt. eigenvalues --    0.25401   0.26088   0.26769   0.27290   0.28369
 Alpha virt. eigenvalues --    0.29369   0.29817   0.30155   0.31136   0.31226
 Alpha virt. eigenvalues --    0.31569   0.32460   0.33052   0.33511   0.34740
 Alpha virt. eigenvalues --    0.34871   0.35443   0.36488   0.36844   0.37995
 Alpha virt. eigenvalues --    0.39099   0.39251   0.42024   0.42435   0.42877
 Alpha virt. eigenvalues --    0.43457   0.44796   0.44840   0.45690   0.46300
 Alpha virt. eigenvalues --    0.47419   0.48285   0.48949   0.48983   0.49415
 Alpha virt. eigenvalues --    0.49595   0.49724   0.49832   0.50684   0.50798
 Alpha virt. eigenvalues --    0.51296   0.51351   0.52878   0.52982   0.53605
 Alpha virt. eigenvalues --    0.53902   0.55030   0.55074   0.56110   0.56114
 Alpha virt. eigenvalues --    0.57625   0.57831   0.58363   0.60028   0.60928
 Alpha virt. eigenvalues --    0.61491   0.61845   0.63071   0.63524   0.64826
 Alpha virt. eigenvalues --    0.66427   0.66521   0.68338   0.68906   0.69435
 Alpha virt. eigenvalues --    0.69541   0.72576   0.74155   0.75371   0.76260
 Alpha virt. eigenvalues --    0.78431   0.78563   0.78957   0.80619   0.81455
 Alpha virt. eigenvalues --    0.82523   0.83655   0.84703   0.85428   0.88021
 Alpha virt. eigenvalues --    0.89842   0.91305   0.91868   0.93889   0.93947
 Alpha virt. eigenvalues --    0.95146   0.97413   0.97502   0.99162   1.00013
 Alpha virt. eigenvalues --    1.01826   1.03499   1.04758   1.05394   1.05619
 Alpha virt. eigenvalues --    1.07580   1.08120   1.08459   1.10516   1.12306
 Alpha virt. eigenvalues --    1.12691   1.12766   1.14889   1.16093   1.17110
 Alpha virt. eigenvalues --    1.17237   1.18900   1.19307   1.19542   1.20179
 Alpha virt. eigenvalues --    1.20379   1.21028   1.23673   1.25468   1.25875
 Alpha virt. eigenvalues --    1.26419   1.27140   1.28462   1.29304   1.29593
 Alpha virt. eigenvalues --    1.30845   1.31397   1.32164   1.32388   1.33541
 Alpha virt. eigenvalues --    1.34587   1.34937   1.37286   1.37919   1.38641
 Alpha virt. eigenvalues --    1.39246   1.40049   1.41028   1.41119   1.42543
 Alpha virt. eigenvalues --    1.42909   1.43069   1.43784   1.44747   1.45163
 Alpha virt. eigenvalues --    1.45441   1.46370   1.47891   1.49104   1.49437
 Alpha virt. eigenvalues --    1.50803   1.52215   1.53324   1.55687   1.56892
 Alpha virt. eigenvalues --    1.58404   1.59049   1.60159   1.61334   1.61973
 Alpha virt. eigenvalues --    1.63495   1.64293   1.64731   1.66109   1.67430
 Alpha virt. eigenvalues --    1.68377   1.71752   1.75546   1.76007   1.77817
 Alpha virt. eigenvalues --    1.80321   1.82132   1.83046   1.84732   1.84902
 Alpha virt. eigenvalues --    1.88782   1.89531   1.90759   1.92319   1.93353
 Alpha virt. eigenvalues --    1.94614   1.96364   1.97985   2.00398   2.01485
 Alpha virt. eigenvalues --    2.04345   2.04599   2.09384   2.11669   2.12115
 Alpha virt. eigenvalues --    2.12287   2.13457   2.15735   2.16418   2.17795
 Alpha virt. eigenvalues --    2.17914   2.19846   2.20263   2.23408   2.23759
 Alpha virt. eigenvalues --    2.24811   2.24988   2.25612   2.29191   2.31905
 Alpha virt. eigenvalues --    2.36093   2.36789   2.38919   2.41424   2.42248
 Alpha virt. eigenvalues --    2.44641   2.46255   2.46591   2.48650   2.49695
 Alpha virt. eigenvalues --    2.50252   2.51480   2.51535   2.54303   2.56505
 Alpha virt. eigenvalues --    2.58564   2.59528   2.60704   2.62964   2.63440
 Alpha virt. eigenvalues --    2.63759   2.64717   2.65554   2.66404   2.66696
 Alpha virt. eigenvalues --    2.68987   2.69388   2.69833   2.72983   2.73701
 Alpha virt. eigenvalues --    2.74263   2.74805   2.75563   2.75924   2.77290
 Alpha virt. eigenvalues --    2.79189   2.80278   2.81022   2.81108   2.81713
 Alpha virt. eigenvalues --    2.81962   2.83753   2.83762   2.84336   2.86312
 Alpha virt. eigenvalues --    2.86336   2.88102   2.88149   2.89902   2.90421
 Alpha virt. eigenvalues --    2.92414   2.92822   2.93866   2.94881   2.96516
 Alpha virt. eigenvalues --    2.97134   2.98261   2.98614   2.99730   3.01059
 Alpha virt. eigenvalues --    3.01623   3.02427   3.04073   3.05048   3.06533
 Alpha virt. eigenvalues --    3.07023   3.09213   3.10281   3.10820   3.11533
 Alpha virt. eigenvalues --    3.11556   3.13519   3.13716   3.14857   3.15362
 Alpha virt. eigenvalues --    3.16317   3.16884   3.17309   3.18403   3.19609
 Alpha virt. eigenvalues --    3.20434   3.20972   3.21112   3.21822   3.21960
 Alpha virt. eigenvalues --    3.23064   3.23179   3.23374   3.24669   3.25790
 Alpha virt. eigenvalues --    3.25877   3.27470   3.28167   3.28332   3.29459
 Alpha virt. eigenvalues --    3.29583   3.30822   3.30875   3.31247   3.33060
 Alpha virt. eigenvalues --    3.33162   3.33712   3.35028   3.36375   3.36701
 Alpha virt. eigenvalues --    3.37307   3.37448   3.38965   3.40018   3.42235
 Alpha virt. eigenvalues --    3.43083   3.44180   3.44597   3.45868   3.46008
 Alpha virt. eigenvalues --    3.46761   3.47316   3.47555   3.47998   3.48267
 Alpha virt. eigenvalues --    3.49016   3.51179   3.51336   3.52333   3.54563
 Alpha virt. eigenvalues --    3.54654   3.55073   3.56160   3.57336   3.58958
 Alpha virt. eigenvalues --    3.60596   3.61320   3.62331   3.62802   3.64067
 Alpha virt. eigenvalues --    3.65493   3.67466   3.69671   3.69897   3.70157
 Alpha virt. eigenvalues --    3.71100   3.71986   3.74296   3.77571   3.78566
 Alpha virt. eigenvalues --    3.79831   3.80668   3.81253   3.82528   3.83890
 Alpha virt. eigenvalues --    3.84549   3.86047   3.87169   3.89363   3.90242
 Alpha virt. eigenvalues --    3.91651   3.93018   3.95937   3.97171   4.00261
 Alpha virt. eigenvalues --    4.00422   4.03513   4.04064   4.05315   4.08649
 Alpha virt. eigenvalues --    4.08666   4.09326   4.09853   4.11020   4.12696
 Alpha virt. eigenvalues --    4.14006   4.14486   4.17035   4.18313   4.18813
 Alpha virt. eigenvalues --    4.20549   4.22733   4.23425   4.26134   4.27548
 Alpha virt. eigenvalues --    4.28254   4.30720   4.32315   4.32372   4.36904
 Alpha virt. eigenvalues --    4.38166   4.38488   4.40323   4.42467   4.46429
 Alpha virt. eigenvalues --    4.47918   4.49767   4.50435   4.51427   4.54289
 Alpha virt. eigenvalues --    4.56169   4.60827   4.62472   4.67880   4.67993
 Alpha virt. eigenvalues --    4.71238   4.71639   4.72906   4.75953   4.78628
 Alpha virt. eigenvalues --    4.78975   4.81795   4.83478   4.85492   4.86170
 Alpha virt. eigenvalues --    4.87508   4.89822   4.93792   4.95108   4.96811
 Alpha virt. eigenvalues --    4.99019   5.05580   5.06069   5.10305   5.11126
 Alpha virt. eigenvalues --    5.15054   5.19134   5.19339   5.22827   5.24667
 Alpha virt. eigenvalues --    5.26525   5.35404   5.36655   5.41286   5.42894
 Alpha virt. eigenvalues --    5.46020   5.46902   5.51435   5.56276   5.71811
 Alpha virt. eigenvalues --    5.72330   5.78403   5.78626   5.97418   6.02271
 Alpha virt. eigenvalues --    7.95526   7.95536   8.02909   8.04029   8.05488
 Alpha virt. eigenvalues --    8.09792   8.11352   8.14387   8.18039   8.20186
 Alpha virt. eigenvalues --    8.36460   8.36827  34.77401  34.78057  34.81658
 Alpha virt. eigenvalues --   34.81751  34.85113  34.91726  34.96487  35.00630
 Alpha virt. eigenvalues --   35.01695  35.03404  35.18233  35.18752
  Beta  occ. eigenvalues --  -10.28426 -10.28426 -10.28097 -10.28095 -10.28045
  Beta  occ. eigenvalues --  -10.28044 -10.28025 -10.28023 -10.27796 -10.27795
  Beta  occ. eigenvalues --  -10.27082 -10.27080  -0.94444  -0.93350  -0.84579
  Beta  occ. eigenvalues --   -0.84230  -0.83529  -0.83386  -0.71565  -0.70894
  Beta  occ. eigenvalues --   -0.68207  -0.67724  -0.59761  -0.59710  -0.57516
  Beta  occ. eigenvalues --   -0.56330  -0.53566  -0.52856  -0.50912  -0.50787
  Beta  occ. eigenvalues --   -0.49733  -0.48956  -0.47491  -0.46777  -0.45670
  Beta  occ. eigenvalues --   -0.44744  -0.41350  -0.40844  -0.39782  -0.39072
  Beta  occ. eigenvalues --   -0.39053  -0.38519  -0.30085  -0.26432
  Beta virt. eigenvalues --    0.02699   0.06358   0.11398   0.13247   0.14472
  Beta virt. eigenvalues --    0.15458   0.15619   0.16682   0.16745   0.16792
  Beta virt. eigenvalues --    0.17452   0.17735   0.18350   0.19276   0.20911
  Beta virt. eigenvalues --    0.22122   0.22309   0.23677   0.24238   0.24915
  Beta virt. eigenvalues --    0.25401   0.26088   0.26769   0.27290   0.28369
  Beta virt. eigenvalues --    0.29369   0.29817   0.30155   0.31136   0.31226
  Beta virt. eigenvalues --    0.31569   0.32460   0.33052   0.33511   0.34740
  Beta virt. eigenvalues --    0.34871   0.35443   0.36488   0.36844   0.37995
  Beta virt. eigenvalues --    0.39099   0.39251   0.42024   0.42435   0.42877
  Beta virt. eigenvalues --    0.43457   0.44796   0.44840   0.45690   0.46300
  Beta virt. eigenvalues --    0.47419   0.48285   0.48949   0.48983   0.49415
  Beta virt. eigenvalues --    0.49595   0.49724   0.49832   0.50684   0.50798
  Beta virt. eigenvalues --    0.51296   0.51351   0.52878   0.52982   0.53605
  Beta virt. eigenvalues --    0.53902   0.55030   0.55074   0.56110   0.56114
  Beta virt. eigenvalues --    0.57625   0.57831   0.58363   0.60028   0.60928
  Beta virt. eigenvalues --    0.61491   0.61845   0.63071   0.63524   0.64826
  Beta virt. eigenvalues --    0.66427   0.66521   0.68338   0.68906   0.69435
  Beta virt. eigenvalues --    0.69541   0.72576   0.74155   0.75371   0.76260
  Beta virt. eigenvalues --    0.78431   0.78563   0.78957   0.80619   0.81455
  Beta virt. eigenvalues --    0.82523   0.83655   0.84703   0.85428   0.88021
  Beta virt. eigenvalues --    0.89842   0.91305   0.91868   0.93889   0.93947
  Beta virt. eigenvalues --    0.95146   0.97413   0.97502   0.99162   1.00013
  Beta virt. eigenvalues --    1.01826   1.03499   1.04758   1.05394   1.05619
  Beta virt. eigenvalues --    1.07580   1.08120   1.08459   1.10516   1.12306
  Beta virt. eigenvalues --    1.12691   1.12766   1.14889   1.16093   1.17110
  Beta virt. eigenvalues --    1.17237   1.18900   1.19307   1.19542   1.20179
  Beta virt. eigenvalues --    1.20379   1.21028   1.23673   1.25468   1.25875
  Beta virt. eigenvalues --    1.26419   1.27140   1.28462   1.29304   1.29593
  Beta virt. eigenvalues --    1.30845   1.31397   1.32164   1.32388   1.33541
  Beta virt. eigenvalues --    1.34587   1.34937   1.37286   1.37919   1.38641
  Beta virt. eigenvalues --    1.39246   1.40049   1.41028   1.41119   1.42543
  Beta virt. eigenvalues --    1.42909   1.43069   1.43784   1.44747   1.45163
  Beta virt. eigenvalues --    1.45441   1.46370   1.47891   1.49104   1.49437
  Beta virt. eigenvalues --    1.50803   1.52215   1.53324   1.55687   1.56892
  Beta virt. eigenvalues --    1.58404   1.59049   1.60159   1.61334   1.61973
  Beta virt. eigenvalues --    1.63495   1.64293   1.64731   1.66109   1.67430
  Beta virt. eigenvalues --    1.68377   1.71752   1.75546   1.76007   1.77817
  Beta virt. eigenvalues --    1.80321   1.82132   1.83046   1.84732   1.84902
  Beta virt. eigenvalues --    1.88782   1.89531   1.90759   1.92319   1.93353
  Beta virt. eigenvalues --    1.94614   1.96364   1.97985   2.00398   2.01485
  Beta virt. eigenvalues --    2.04345   2.04599   2.09384   2.11669   2.12115
  Beta virt. eigenvalues --    2.12287   2.13457   2.15735   2.16418   2.17795
  Beta virt. eigenvalues --    2.17914   2.19846   2.20263   2.23408   2.23759
  Beta virt. eigenvalues --    2.24811   2.24988   2.25612   2.29191   2.31905
  Beta virt. eigenvalues --    2.36093   2.36789   2.38919   2.41424   2.42248
  Beta virt. eigenvalues --    2.44641   2.46255   2.46591   2.48650   2.49695
  Beta virt. eigenvalues --    2.50252   2.51480   2.51535   2.54303   2.56505
  Beta virt. eigenvalues --    2.58564   2.59528   2.60704   2.62964   2.63440
  Beta virt. eigenvalues --    2.63759   2.64717   2.65554   2.66404   2.66696
  Beta virt. eigenvalues --    2.68987   2.69388   2.69833   2.72983   2.73701
  Beta virt. eigenvalues --    2.74263   2.74805   2.75563   2.75924   2.77290
  Beta virt. eigenvalues --    2.79189   2.80278   2.81022   2.81108   2.81713
  Beta virt. eigenvalues --    2.81962   2.83753   2.83762   2.84336   2.86312
  Beta virt. eigenvalues --    2.86336   2.88102   2.88149   2.89902   2.90421
  Beta virt. eigenvalues --    2.92414   2.92822   2.93866   2.94881   2.96516
  Beta virt. eigenvalues --    2.97134   2.98261   2.98614   2.99730   3.01059
  Beta virt. eigenvalues --    3.01623   3.02427   3.04073   3.05048   3.06533
  Beta virt. eigenvalues --    3.07023   3.09213   3.10281   3.10820   3.11533
  Beta virt. eigenvalues --    3.11556   3.13519   3.13716   3.14857   3.15362
  Beta virt. eigenvalues --    3.16317   3.16884   3.17309   3.18403   3.19609
  Beta virt. eigenvalues --    3.20434   3.20972   3.21112   3.21822   3.21960
  Beta virt. eigenvalues --    3.23064   3.23179   3.23374   3.24669   3.25790
  Beta virt. eigenvalues --    3.25877   3.27470   3.28167   3.28332   3.29459
  Beta virt. eigenvalues --    3.29583   3.30822   3.30875   3.31247   3.33060
  Beta virt. eigenvalues --    3.33162   3.33712   3.35028   3.36375   3.36701
  Beta virt. eigenvalues --    3.37307   3.37448   3.38965   3.40018   3.42235
  Beta virt. eigenvalues --    3.43083   3.44180   3.44597   3.45868   3.46008
  Beta virt. eigenvalues --    3.46761   3.47316   3.47555   3.47998   3.48267
  Beta virt. eigenvalues --    3.49016   3.51179   3.51336   3.52333   3.54563
  Beta virt. eigenvalues --    3.54654   3.55073   3.56160   3.57336   3.58958
  Beta virt. eigenvalues --    3.60596   3.61320   3.62331   3.62802   3.64067
  Beta virt. eigenvalues --    3.65493   3.67466   3.69671   3.69897   3.70157
  Beta virt. eigenvalues --    3.71100   3.71986   3.74296   3.77571   3.78566
  Beta virt. eigenvalues --    3.79831   3.80668   3.81253   3.82528   3.83890
  Beta virt. eigenvalues --    3.84549   3.86047   3.87169   3.89363   3.90242
  Beta virt. eigenvalues --    3.91651   3.93018   3.95937   3.97171   4.00261
  Beta virt. eigenvalues --    4.00422   4.03513   4.04064   4.05315   4.08649
  Beta virt. eigenvalues --    4.08666   4.09326   4.09853   4.11020   4.12696
  Beta virt. eigenvalues --    4.14006   4.14486   4.17035   4.18313   4.18813
  Beta virt. eigenvalues --    4.20549   4.22733   4.23425   4.26134   4.27548
  Beta virt. eigenvalues --    4.28254   4.30720   4.32315   4.32372   4.36904
  Beta virt. eigenvalues --    4.38166   4.38488   4.40323   4.42467   4.46429
  Beta virt. eigenvalues --    4.47918   4.49767   4.50435   4.51427   4.54289
  Beta virt. eigenvalues --    4.56169   4.60827   4.62472   4.67880   4.67993
  Beta virt. eigenvalues --    4.71238   4.71639   4.72906   4.75953   4.78628
  Beta virt. eigenvalues --    4.78975   4.81795   4.83478   4.85492   4.86170
  Beta virt. eigenvalues --    4.87508   4.89822   4.93792   4.95108   4.96811
  Beta virt. eigenvalues --    4.99019   5.05580   5.06069   5.10305   5.11126
  Beta virt. eigenvalues --    5.15054   5.19134   5.19339   5.22827   5.24667
  Beta virt. eigenvalues --    5.26525   5.35404   5.36655   5.41286   5.42894
  Beta virt. eigenvalues --    5.46020   5.46902   5.51435   5.56276   5.71811
  Beta virt. eigenvalues --    5.72330   5.78403   5.78626   5.97418   6.02271
  Beta virt. eigenvalues --    7.95526   7.95536   8.02909   8.04029   8.05488
  Beta virt. eigenvalues --    8.09792   8.11352   8.14387   8.18039   8.20186
  Beta virt. eigenvalues --    8.36460   8.36827  34.77401  34.78057  34.81658
  Beta virt. eigenvalues --   34.81751  34.85113  34.91726  34.96487  35.00630
  Beta virt. eigenvalues --   35.01695  35.03404  35.18233  35.18752
          Condensed to atoms (all electrons):
               1          2          3          4          5          6
     1  C    5.155014  -0.006536   0.424417  -0.001833   0.001906  -0.009467
     2  C   -0.006536   5.421814  -0.002286   0.423661  -0.063380  -0.006362
     3  H    0.424417  -0.002286   0.491463   0.000027  -0.000047   0.000025
     4  H   -0.001833   0.423661   0.000027   0.457972  -0.012600   0.001437
     5  C    0.001906  -0.063380  -0.000047  -0.012600   5.229253   0.474339
     6  C   -0.009467  -0.006362   0.000025   0.001437   0.474339   5.420829
     7  H    0.000289  -0.003398   0.000001  -0.000031   0.429765  -0.027373
     8  H   -0.002251   0.001452  -0.000074   0.000204  -0.032177   0.423630
     9  C    0.002842  -0.018414  -0.000009  -0.003241  -0.056692   0.196345
    10  H   -0.000044   0.001963  -0.000001  -0.000346  -0.006537  -0.042182
    11  H    0.000132  -0.008776   0.000003   0.000544   0.010456  -0.062229
    12  C   -0.000211   0.017280   0.000002   0.004297   0.275961  -0.061906
    13  H   -0.000001   0.000141   0.000000   0.000042  -0.036682   0.005271
    14  C    0.000176  -0.009451  -0.000000  -0.002240  -0.040594  -0.006291
    15  H   -0.000000   0.000027  -0.000000  -0.000075   0.006953  -0.002313
    16  C   -0.000619   0.017858   0.000000   0.000835  -0.004681  -0.054377
    17  H   -0.000014   0.001045  -0.000000  -0.003519   0.009729  -0.003848
    18  H    0.000003   0.000238   0.000000   0.000409  -0.003336   0.012087
    19  C   -0.040755   0.473751   0.006903  -0.032190  -0.028927  -0.063361
    20  H    0.003898  -0.027820  -0.000088  -0.003986   0.000279  -0.003368
    21  C    0.569615  -0.061657  -0.031550   0.004313   0.003553   0.017269
    22  H   -0.025802   0.005178  -0.005741  -0.000048   0.000042   0.000144
    23  C   -0.082598   0.195851   0.005235  -0.010468   0.013871  -0.018368
    24  H    0.013625  -0.062155  -0.000069  -0.003898   0.000527  -0.008789
    25  H    0.004382  -0.042201  -0.000030  -0.001148   0.000799   0.001963
    26  C    0.270225  -0.054553  -0.028933   0.003903  -0.010769   0.017873
    27  H   -0.037869   0.012145  -0.004283  -0.000064   0.000324   0.000235
    28  H   -0.033153  -0.003883   0.000907  -0.000165  -0.003918   0.001050
               7          8          9         10         11         12
     1  C    0.000289  -0.002251   0.002842  -0.000044   0.000132  -0.000211
     2  C   -0.003398   0.001452  -0.018414   0.001963  -0.008776   0.017280
     3  H    0.000001  -0.000074  -0.000009  -0.000001   0.000003   0.000002
     4  H   -0.000031   0.000204  -0.003241  -0.000346   0.000544   0.004297
     5  C    0.429765  -0.032177  -0.056692  -0.006537   0.010456   0.275961
     6  C   -0.027373   0.423630   0.196345  -0.042182  -0.062229  -0.061906
     7  H    0.474668  -0.003995   0.002800  -0.000206  -0.000002  -0.031057
     8  H   -0.003995   0.458119  -0.010489  -0.001151  -0.003904   0.004323
     9  C    0.002800  -0.010489   5.014874   0.392957   0.470070   0.037087
    10  H   -0.000206  -0.001151   0.392957   0.569034  -0.020250   0.001034
    11  H   -0.000002  -0.003904   0.470070  -0.020250   0.525298  -0.005085
    12  C   -0.031057   0.004323   0.037087   0.001034  -0.005085   5.023619
    13  H   -0.003261  -0.000048  -0.000106  -0.000068   0.000024   0.425217
    14  C    0.003926  -0.001840  -0.082841   0.004322   0.013640   0.569132
    15  H   -0.000087   0.000027   0.005250  -0.000031  -0.000068  -0.031914
    16  C   -0.001080   0.003918   0.332921  -0.022042  -0.058304  -0.050993
    17  H    0.000014  -0.000165  -0.028070   0.006323  -0.007287  -0.013768
    18  H    0.000028  -0.000065  -0.045113  -0.009600  -0.000671   0.005855
    19  C    0.000285  -0.012626   0.013832   0.000801   0.000522   0.003535
    20  H    0.000008  -0.000033   0.003515   0.000348  -0.002481  -0.000144
    21  C   -0.000144   0.004346  -0.004080  -0.000109  -0.000020  -0.000423
    22  H   -0.000001   0.000042  -0.000094  -0.000001  -0.000016  -0.000001
    23  C    0.003555  -0.003268   0.002527  -0.000071   0.000403  -0.004091
    24  H   -0.002502   0.000546   0.000403  -0.000024  -0.000018  -0.000025
    25  H    0.000348  -0.000346  -0.000070   0.000010  -0.000024  -0.000110
    26  C   -0.002096   0.000849  -0.001321   0.000056  -0.000132   0.001294
    27  H   -0.000014   0.000412  -0.000005   0.000000  -0.000000  -0.000040
    28  H    0.001710  -0.003514   0.000465   0.000009  -0.000003   0.000357
              13         14         15         16         17         18
     1  C   -0.000001   0.000176  -0.000000  -0.000619  -0.000014   0.000003
     2  C    0.000141  -0.009451   0.000027   0.017858   0.001045   0.000238
     3  H    0.000000  -0.000000  -0.000000   0.000000  -0.000000   0.000000
     4  H    0.000042  -0.002240  -0.000075   0.000835  -0.003519   0.000409
     5  C   -0.036682  -0.040594   0.006953  -0.004681   0.009729  -0.003336
     6  C    0.005271  -0.006291  -0.002313  -0.054377  -0.003848   0.012087
     7  H   -0.003261   0.003926  -0.000087  -0.001080   0.000014   0.000028
     8  H   -0.000048  -0.001840   0.000027   0.003918  -0.000165  -0.000065
     9  C   -0.000106  -0.082841   0.005250   0.332921  -0.028070  -0.045113
    10  H   -0.000068   0.004322  -0.000031  -0.022042   0.006323  -0.009600
    11  H    0.000024   0.013640  -0.000068  -0.058304  -0.007287  -0.000671
    12  C    0.425217   0.569132  -0.031914  -0.050993  -0.013768   0.005855
    13  H    0.489546  -0.025624  -0.005755   0.004206  -0.000381  -0.000090
    14  C   -0.025624   5.155572   0.424770   0.270274  -0.033284  -0.037706
    15  H   -0.005755   0.424770   0.491534  -0.028932   0.000900  -0.004263
    16  C    0.004206   0.270274  -0.028932   4.958666   0.398532   0.436470
    17  H   -0.000381  -0.033284   0.000900   0.398532   0.578110  -0.022008
    18  H   -0.000090  -0.037706  -0.004263   0.436470  -0.022008   0.537242
    19  C    0.000042   0.001906  -0.000047  -0.010767  -0.003903   0.000324
    20  H   -0.000001   0.000287   0.000001  -0.002086   0.001705  -0.000014
    21  C   -0.000001  -0.000210   0.000002   0.001290   0.000358  -0.000040
    22  H    0.000000  -0.000001   0.000000   0.000015   0.000000  -0.000001
    23  C   -0.000092   0.002845  -0.000009  -0.001316   0.000464  -0.000005
    24  H   -0.000018   0.000131   0.000003  -0.000133  -0.000002  -0.000000
    25  H   -0.000001  -0.000044  -0.000001   0.000056   0.000009   0.000000
    26  C    0.000015  -0.000620   0.000000   0.000762   0.000016  -0.000004
    27  H   -0.000001   0.000003   0.000000  -0.000004   0.000001  -0.000000
    28  H    0.000000  -0.000014  -0.000000   0.000017  -0.000012   0.000001
              19         20         21         22         23         24
     1  C   -0.040755   0.003898   0.569615  -0.025802  -0.082598   0.013625
     2  C    0.473751  -0.027820  -0.061657   0.005178   0.195851  -0.062155
     3  H    0.006903  -0.000088  -0.031550  -0.005741   0.005235  -0.000069
     4  H   -0.032190  -0.003986   0.004313  -0.000048  -0.010468  -0.003898
     5  C   -0.028927   0.000279   0.003553   0.000042   0.013871   0.000527
     6  C   -0.063361  -0.003368   0.017269   0.000144  -0.018368  -0.008789
     7  H    0.000285   0.000008  -0.000144  -0.000001   0.003555  -0.002502
     8  H   -0.012626  -0.000033   0.004346   0.000042  -0.003268   0.000546
     9  C    0.013832   0.003515  -0.004080  -0.000094   0.002527   0.000403
    10  H    0.000801   0.000348  -0.000109  -0.000001  -0.000071  -0.000024
    11  H    0.000522  -0.002481  -0.000020  -0.000016   0.000403  -0.000018
    12  C    0.003535  -0.000144  -0.000423  -0.000001  -0.004091  -0.000025
    13  H    0.000042  -0.000001  -0.000001   0.000000  -0.000092  -0.000018
    14  C    0.001906   0.000287  -0.000210  -0.000001   0.002845   0.000131
    15  H   -0.000047   0.000001   0.000002   0.000000  -0.000009   0.000003
    16  C   -0.010767  -0.002086   0.001290   0.000015  -0.001316  -0.000133
    17  H   -0.003903   0.001705   0.000358   0.000000   0.000464  -0.000002
    18  H    0.000324  -0.000014  -0.000040  -0.000001  -0.000005  -0.000000
    19  C    5.229367   0.430152   0.276197  -0.036539  -0.056396   0.010407
    20  H    0.430152   0.474566  -0.030977  -0.003261   0.002808  -0.000002
    21  C    0.276197  -0.030977   5.023256   0.425367   0.036915  -0.005074
    22  H   -0.036539  -0.003261   0.425367   0.489537  -0.000105   0.000024
    23  C   -0.056396   0.002808   0.036915  -0.000105   5.015097   0.470008
    24  H    0.010407  -0.000002  -0.005074   0.000024   0.470008   0.525186
    25  H   -0.006488  -0.000205   0.000970  -0.000068   0.392972  -0.020252
    26  C   -0.004464  -0.001073  -0.051055   0.004202   0.332829  -0.058232
    27  H   -0.003387   0.000028   0.005990  -0.000089  -0.045151  -0.000679
    28  H    0.009777   0.000014  -0.013884  -0.000382  -0.028071  -0.007290
              25         26         27         28
     1  C    0.004382   0.270225  -0.037869  -0.033153
     2  C   -0.042201  -0.054553   0.012145  -0.003883
     3  H   -0.000030  -0.028933  -0.004283   0.000907
     4  H   -0.001148   0.003903  -0.000064  -0.000165
     5  C    0.000799  -0.010769   0.000324  -0.003918
     6  C    0.001963   0.017873   0.000235   0.001050
     7  H    0.000348  -0.002096  -0.000014   0.001710
     8  H   -0.000346   0.000849   0.000412  -0.003514
     9  C   -0.000070  -0.001321  -0.000005   0.000465
    10  H    0.000010   0.000056   0.000000   0.000009
    11  H   -0.000024  -0.000132  -0.000000  -0.000003
    12  C   -0.000110   0.001294  -0.000040   0.000357
    13  H   -0.000001   0.000015  -0.000001   0.000000
    14  C   -0.000044  -0.000620   0.000003  -0.000014
    15  H   -0.000001   0.000000   0.000000  -0.000000
    16  C    0.000056   0.000762  -0.000004   0.000017
    17  H    0.000009   0.000016   0.000001  -0.000012
    18  H    0.000000  -0.000004  -0.000000   0.000001
    19  C   -0.006488  -0.004464  -0.003387   0.009777
    20  H   -0.000205  -0.001073   0.000028   0.000014
    21  C    0.000970  -0.051055   0.005990  -0.013884
    22  H   -0.000068   0.004202  -0.000089  -0.000382
    23  C    0.392972   0.332829  -0.045151  -0.028071
    24  H   -0.020252  -0.058232  -0.000679  -0.007290
    25  H    0.569083  -0.022117  -0.009595   0.006328
    26  C   -0.022117   4.959171   0.436585   0.398469
    27  H   -0.009595   0.436585   0.537094  -0.022030
    28  H    0.006328   0.398469  -0.022030   0.578151
          Atomic-Atomic Spin Densities.
               1          2          3          4          5          6
     1  C    0.000000   0.000000  -0.000000  -0.000000  -0.000000  -0.000000
     2  C    0.000000   0.000000   0.000000  -0.000000  -0.000000  -0.000000
     3  H   -0.000000   0.000000  -0.000000  -0.000000   0.000000  -0.000000
     4  H   -0.000000  -0.000000  -0.000000   0.000000   0.000000   0.000000
     5  C   -0.000000  -0.000000   0.000000   0.000000  -0.000000   0.000000
     6  C   -0.000000  -0.000000  -0.000000   0.000000   0.000000   0.000000
     7  H    0.000000  -0.000000  -0.000000  -0.000000   0.000000  -0.000000
     8  H    0.000000  -0.000000   0.000000   0.000000   0.000000   0.000000
     9  C    0.000000  -0.000000   0.000000   0.000000   0.000000  -0.000000
    10  H    0.000000  -0.000000   0.000000  -0.000000   0.000000   0.000000
    11  H   -0.000000   0.000000  -0.000000   0.000000  -0.000000   0.000000
    12  C    0.000000   0.000000  -0.000000  -0.000000   0.000000  -0.000000
    13  H   -0.000000  -0.000000  -0.000000  -0.000000   0.000000  -0.000000
    14  C   -0.000000   0.000000   0.000000  -0.000000   0.000000  -0.000000
    15  H   -0.000000   0.000000  -0.000000  -0.000000   0.000000  -0.000000
    16  C    0.000000  -0.000000  -0.000000  -0.000000  -0.000000   0.000000
    17  H   -0.000000  -0.000000   0.000000   0.000000   0.000000   0.000000
    18  H    0.000000   0.000000  -0.000000  -0.000000  -0.000000   0.000000
    19  C   -0.000000  -0.000000  -0.000000  -0.000000   0.000000   0.000000
    20  H   -0.000000   0.000000   0.000000  -0.000000   0.000000   0.000000
    21  C   -0.000000   0.000000   0.000000   0.000000  -0.000000  -0.000000
    22  H   -0.000000   0.000000   0.000000   0.000000   0.000000   0.000000
    23  C    0.000000   0.000000  -0.000000   0.000000   0.000000   0.000000
    24  H    0.000000  -0.000000   0.000000   0.000000  -0.000000  -0.000000
    25  H    0.000000  -0.000000  -0.000000  -0.000000  -0.000000   0.000000
    26  C   -0.000000  -0.000000   0.000000   0.000000  -0.000000   0.000000
    27  H   -0.000000  -0.000000   0.000000   0.000000  -0.000000  -0.000000
    28  H    0.000000  -0.000000  -0.000000  -0.000000   0.000000   0.000000
               7          8          9         10         11         12
     1  C    0.000000   0.000000   0.000000   0.000000  -0.000000   0.000000
     2  C   -0.000000  -0.000000  -0.000000  -0.000000   0.000000   0.000000
     3  H   -0.000000   0.000000   0.000000   0.000000  -0.000000  -0.000000
     4  H   -0.000000   0.000000   0.000000  -0.000000   0.000000  -0.000000
     5  C    0.000000   0.000000   0.000000   0.000000  -0.000000   0.000000
     6  C   -0.000000   0.000000  -0.000000   0.000000   0.000000  -0.000000
     7  H    0.000000   0.000000  -0.000000   0.000000  -0.000000  -0.000000
     8  H    0.000000  -0.000000  -0.000000   0.000000  -0.000000  -0.000000
     9  C   -0.000000  -0.000000   0.000001   0.000000  -0.000000  -0.000000
    10  H    0.000000   0.000000   0.000000  -0.000000   0.000000  -0.000000
    11  H   -0.000000  -0.000000  -0.000000   0.000000  -0.000000   0.000000
    12  C   -0.000000  -0.000000  -0.000000  -0.000000   0.000000   0.000000
    13  H    0.000000  -0.000000  -0.000000   0.000000  -0.000000  -0.000000
    14  C    0.000000   0.000000  -0.000000  -0.000000  -0.000000   0.000000
    15  H   -0.000000   0.000000   0.000000   0.000000  -0.000000  -0.000000
    16  C   -0.000000  -0.000000  -0.000000   0.000000   0.000000  -0.000000
    17  H    0.000000   0.000000  -0.000000  -0.000000   0.000000  -0.000000
    18  H   -0.000000  -0.000000  -0.000000   0.000000   0.000000   0.000000
    19  C   -0.000000  -0.000000  -0.000000   0.000000   0.000000   0.000000
    20  H    0.000000   0.000000  -0.000000  -0.000000   0.000000  -0.000000
    21  C    0.000000   0.000000   0.000000  -0.000000  -0.000000  -0.000000
    22  H    0.000000   0.000000   0.000000  -0.000000   0.000000  -0.000000
    23  C    0.000000  -0.000000   0.000000   0.000000  -0.000000  -0.000000
    24  H   -0.000000  -0.000000   0.000000  -0.000000   0.000000   0.000000
    25  H    0.000000   0.000000  -0.000000   0.000000   0.000000   0.000000
    26  C   -0.000000   0.000000   0.000000  -0.000000   0.000000   0.000000
    27  H    0.000000   0.000000   0.000000  -0.000000  -0.000000   0.000000
    28  H   -0.000000  -0.000000  -0.000000   0.000000   0.000000  -0.000000
              13         14         15         16         17         18
     1  C   -0.000000  -0.000000  -0.000000   0.000000  -0.000000   0.000000
     2  C   -0.000000   0.000000   0.000000  -0.000000  -0.000000   0.000000
     3  H   -0.000000   0.000000  -0.000000  -0.000000   0.000000  -0.000000
     4  H   -0.000000  -0.000000  -0.000000  -0.000000   0.000000  -0.000000
     5  C    0.000000   0.000000   0.000000  -0.000000   0.000000  -0.000000
     6  C   -0.000000  -0.000000  -0.000000   0.000000   0.000000   0.000000
     7  H    0.000000   0.000000  -0.000000  -0.000000   0.000000  -0.000000
     8  H   -0.000000   0.000000   0.000000  -0.000000   0.000000  -0.000000
     9  C   -0.000000  -0.000000   0.000000  -0.000000  -0.000000  -0.000000
    10  H    0.000000  -0.000000   0.000000   0.000000  -0.000000   0.000000
    11  H   -0.000000  -0.000000  -0.000000   0.000000   0.000000   0.000000
    12  C   -0.000000   0.000000  -0.000000  -0.000000  -0.000000   0.000000
    13  H   -0.000000   0.000000  -0.000000  -0.000000   0.000000  -0.000000
    14  C    0.000000  -0.000000   0.000000   0.000000  -0.000000   0.000000
    15  H   -0.000000   0.000000   0.000000  -0.000000   0.000000  -0.000000
    16  C   -0.000000   0.000000  -0.000000  -0.000001   0.000000   0.000000
    17  H    0.000000  -0.000000   0.000000   0.000000   0.000000  -0.000000
    18  H   -0.000000   0.000000  -0.000000   0.000000  -0.000000   0.000000
    19  C   -0.000000   0.000000  -0.000000   0.000000  -0.000000   0.000000
    20  H   -0.000000  -0.000000   0.000000   0.000000   0.000000  -0.000000
    21  C    0.000000  -0.000000   0.000000  -0.000000   0.000000  -0.000000
    22  H   -0.000000   0.000000   0.000000  -0.000000   0.000000  -0.000000
    23  C   -0.000000  -0.000000  -0.000000  -0.000000   0.000000  -0.000000
    24  H   -0.000000   0.000000   0.000000  -0.000000  -0.000000   0.000000
    25  H    0.000000  -0.000000  -0.000000   0.000000  -0.000000   0.000000
    26  C    0.000000  -0.000000   0.000000  -0.000000  -0.000000   0.000000
[...]
     2  C    0.000000  -0.000000  -0.000000  -0.000000
     3  H   -0.000000   0.000000   0.000000  -0.000000
     4  H   -0.000000   0.000000   0.000000  -0.000000
     5  C   -0.000000  -0.000000  -0.000000   0.000000
     6  C    0.000000  -0.000000  -0.000000   0.000000
     7  H    0.000000  -0.000000   0.000000  -0.000000
     8  H    0.000000   0.000000  -0.000000   0.000000
     9  C   -0.000000   0.000000   0.000000  -0.000000
    10  H   -0.000000  -0.000000  -0.000000   0.000000
    11  H    0.000000   0.000000  -0.000000   0.000000
    12  C   -0.000000   0.000000   0.000000  -0.000000
    13  H    0.000000   0.000000   0.000000  -0.000000
    14  C   -0.000000  -0.000000  -0.000000   0.000000
    15  H   -0.000000   0.000000   0.000000  -0.000000
    16  C    0.000000   0.000000  -0.000000   0.000000
    17  H   -0.000000  -0.000000   0.000000   0.000000
    18  H    0.000000   0.000000  -0.000000  -0.000000
    19  C   -0.000000   0.000000  -0.000000  -0.000000
    20  H   -0.000000   0.000000   0.000000  -0.000000
    21  C   -0.000000   0.000000  -0.000000   0.000000
    22  H   -0.000000   0.000000   0.000000  -0.000000
    23  C   -0.000000   0.000000   0.000000   0.000000
    24  H   -0.000000  -0.000000  -0.000000  -0.000000
    25  H    0.000000  -0.000000  -0.000000   0.000000
    26  C   -0.000000   0.000000  -0.000000  -0.000000
    27  H   -0.000000  -0.000000  -0.000000   0.000000
    28  H    0.000000  -0.000000   0.000000  -0.000000
 Mulliken charges and spin densities:
               1          2
     1  C   -0.202658   0.000001
     2  C   -0.210173  -0.000001
     3  H    0.147790  -0.000000
     4  H    0.183896   0.000000
     5  C   -0.172409   0.000001
     6  C   -0.211547  -0.000001
     7  H    0.164333   0.000000
     8  H    0.183981  -0.000000
     9  C   -0.237321   0.000001
    10  H    0.133407  -0.000000
    11  H    0.154195  -0.000000
    12  C   -0.170545  -0.000000
    13  H    0.150870  -0.000000
    14  C   -0.203003   0.000001
    15  H    0.147902   0.000000
    16  C   -0.198764  -0.000000
    17  H    0.124260   0.000000
    18  H    0.134652   0.000000
    19  C   -0.171473   0.000000
    20  H    0.164249  -0.000000
    21  C   -0.171333  -0.000001
    22  H    0.150500   0.000000
    23  C   -0.238194  -0.000001
    24  H    0.153590   0.000000
    25  H    0.133451   0.000000
    26  C   -0.197982   0.000000
    27  H    0.134636  -0.000000
    28  H    0.123694  -0.000000
 Sum of Mulliken charges =  -0.00000   0.00000
 Mulliken charges and spin densities with hydrogens summed into heavy atoms:
               1          2
     1  C   -0.054868   0.000001
     2  C   -0.026277  -0.000000
     5  C   -0.008076   0.000001
     6  C   -0.027567  -0.000001
     9  C    0.050280   0.000000
    12  C   -0.019675  -0.000000
    14  C   -0.055101   0.000001
    16  C    0.060149  -0.000000
    19  C   -0.007224   0.000000
    21  C   -0.020834  -0.000001
    23  C    0.048846  -0.000000
    26  C    0.060348   0.000000
 Electronic spatial extent (au):  <R**2>=           2224.9682
 Charge=             -0.0000 electrons
 Dipole moment (field-independent basis, Debye):
    X=             -0.0021    Y=             -0.0024    Z=              0.0001  Tot=              0.0032
 Quadrupole moment (field-independent basis, Debye-Ang):
   XX=            -70.1906   YY=            -68.2243   ZZ=            -75.7089
   XY=             -3.4016   XZ=             -3.3580   YZ=             -1.5731
 Traceless Quadrupole moment (field-independent basis, Debye-Ang):
   XX=              1.1840   YY=              3.1503   ZZ=             -4.3343
   XY=             -3.4016   XZ=             -3.3580   YZ=             -1.5731
 Octapole moment (field-independent basis, Debye-Ang**2):
  XXX=             -0.0307  YYY=             -0.0233  ZZZ=             -0.0032  XYY=              0.0028
  XXY=             -0.0076  XXZ=             -0.0083  XZZ=             -0.0069  YZZ=              0.0038
  YYZ=              0.0095  XYZ=              0.0020
 Hexadecapole moment (field-independent basis, Debye-Ang**3):
 XXXX=          -1992.4678 YYYY=           -608.2463 ZZZZ=           -341.9383 XXXY=           -102.1352
 XXXZ=           -126.7579 YYYX=            -57.0806 YYYZ=             -2.8857 ZZZX=            -73.8289
 ZZZY=            -13.5914 XXYY=           -430.9882 XXZZ=           -414.8357 YYZZ=           -173.6222
 XXYZ=            -21.8849 YYXZ=            -27.2706 ZZXY=            -43.1845
 N-N= 6.858850493012D+02 E-N=-2.454441975771D+03  KE= 4.644141447976D+02
                          Isotropic Fermi Contact Couplings
        Atom                 a.u.       MegaHertz       Gauss      10(-4) cm-1
     1  C(13)              0.00000       0.00006       0.00002       0.00002
     2  C(13)             -0.00000      -0.00006      -0.00002      -0.00002
     3  H(1)              -0.00000      -0.00005      -0.00002      -0.00002
     4  H(1)               0.00000       0.00008       0.00003       0.00003
     5  C(13)              0.00000       0.00000       0.00000       0.00000
     6  C(13)             -0.00000      -0.00003      -0.00001      -0.00001
     7  H(1)              -0.00000      -0.00000      -0.00000      -0.00000
     8  H(1)              -0.00000      -0.00004      -0.00001      -0.00001
     9  C(13)              0.00000       0.00020       0.00007       0.00007
    10  H(1)              -0.00000      -0.00016      -0.00006      -0.00005
    11  H(1)              -0.00000      -0.00016      -0.00006      -0.00005
    12  C(13)             -0.00000      -0.00000      -0.00000      -0.00000
    13  H(1)              -0.00000      -0.00002      -0.00001      -0.00001
    14  C(13)              0.00000       0.00003       0.00001       0.00001
    15  H(1)              -0.00000      -0.00000      -0.00000      -0.00000
    16  C(13)             -0.00000      -0.00014      -0.00005      -0.00005
    17  H(1)               0.00000       0.00010       0.00004       0.00003
    18  H(1)               0.00000       0.00004       0.00001       0.00001
    19  C(13)              0.00000       0.00008       0.00003       0.00003
    20  H(1)              -0.00000      -0.00003      -0.00001      -0.00001
    21  C(13)             -0.00000      -0.00008      -0.00003      -0.00003
    22  H(1)               0.00000       0.00006       0.00002       0.00002
    23  C(13)             -0.00000      -0.00017      -0.00006      -0.00006
    24  H(1)               0.00000       0.00015       0.00005       0.00005
    25  H(1)               0.00000       0.00010       0.00004       0.00003
    26  C(13)              0.00000       0.00011       0.00004       0.00004
    27  H(1)              -0.00000      -0.00000      -0.00000      -0.00000
    28  H(1)              -0.00000      -0.00003      -0.00001      -0.00001
 --------------------------------------------------------
       Center         ----  Spin Dipole Couplings  ----
                      3XX-RR        3YY-RR        3ZZ-RR
 --------------------------------------------------------
     1   Atom        0.000000     -0.000000      0.000000
     2   Atom        0.000000      0.000000     -0.000000
     3   Atom        0.000000     -0.000000      0.000000
     4   Atom       -0.000000      0.000000      0.000000
     5   Atom       -0.000000     -0.000000      0.000000
     6   Atom        0.000000      0.000000     -0.000001
     7   Atom       -0.000000     -0.000000      0.000000
     8   Atom        0.000000      0.000000     -0.000000
     9   Atom        0.000000     -0.000000      0.000000
    10   Atom       -0.000000     -0.000000      0.000000
    11   Atom       -0.000000      0.000000     -0.000000
    12   Atom        0.000000      0.000000     -0.000000
    13   Atom        0.000000      0.000000     -0.000000
    14   Atom       -0.000000     -0.000000      0.000001
    15   Atom        0.000000     -0.000000     -0.000000
    16   Atom       -0.000000      0.000000     -0.000000
    17   Atom        0.000000      0.000000     -0.000000
    18   Atom       -0.000000      0.000000      0.000000
    19   Atom       -0.000000     -0.000000      0.000000
    20   Atom       -0.000000      0.000000     -0.000000
    21   Atom        0.000000      0.000000     -0.000000
    22   Atom        0.000000     -0.000000      0.000000
    23   Atom       -0.000000      0.000000     -0.000000
    24   Atom        0.000000     -0.000000      0.000000
    25   Atom        0.000000      0.000000     -0.000000
    26   Atom        0.000000     -0.000000      0.000000
    27   Atom        0.000000      0.000000     -0.000000
    28   Atom       -0.000000     -0.000000      0.000000
 --------------------------------------------------------
                        XY            XZ            YZ
 --------------------------------------------------------
     1   Atom       -0.000000      0.000000     -0.000000
     2   Atom       -0.000000     -0.000000     -0.000000
     3   Atom        0.000000     -0.000000     -0.000000
     4   Atom       -0.000000      0.000000      0.000000
     5   Atom        0.000000      0.000000      0.000000
     6   Atom       -0.000000     -0.000000     -0.000000
     7   Atom       -0.000000      0.000000      0.000000
     8   Atom       -0.000000      0.000000     -0.000000
     9   Atom        0.000000     -0.000000      0.000000
    10   Atom        0.000000      0.000000     -0.000000
    11   Atom        0.000000      0.000000      0.000000
    12   Atom        0.000000     -0.000000      0.000000
    13   Atom       -0.000000     -0.000000      0.000000
    14   Atom        0.000000      0.000000      0.000000
    15   Atom        0.000000      0.000000      0.000000
    16   Atom        0.000000      0.000000     -0.000000
    17   Atom       -0.000000     -0.000000     -0.000000
    18   Atom        0.000000     -0.000000      0.000000
    19   Atom       -0.000000      0.000000     -0.000000
    20   Atom       -0.000000     -0.000000      0.000000
    21   Atom       -0.000000     -0.000000      0.000000
    22   Atom       -0.000000     -0.000000      0.000000
    23   Atom       -0.000000     -0.000000     -0.000000
    24   Atom       -0.000000     -0.000000     -0.000000
    25   Atom        0.000000     -0.000000      0.000000
    26   Atom        0.000000     -0.000000      0.000000
    27   Atom       -0.000000      0.000000     -0.000000
    28   Atom        0.000000      0.000000      0.000000
 --------------------------------------------------------


 ---------------------------------------------------------------------------------
              Anisotropic Spin Dipole Couplings in Principal Axis System
 ---------------------------------------------------------------------------------

       Atom             a.u.   MegaHertz   Gauss  10(-4) cm-1        Axes

              Baa    -0.0000    -0.000    -0.000    -0.000 -0.1325  0.9612  0.2420
     1 C(13)  Bbb    -0.0000    -0.000    -0.000    -0.000  0.8052  0.2468 -0.5392
              Bcc     0.0000     0.000     0.000     0.000  0.5780 -0.1234  0.8067
 
              Baa    -0.0000    -0.000    -0.000    -0.000  0.4113  0.0734  0.9085
     2 C(13)  Bbb     0.0000     0.000     0.000     0.000  0.8948  0.1576 -0.4178
              Bcc     0.0000     0.000     0.000     0.000 -0.1739  0.9848 -0.0008
 
              Baa    -0.0000    -0.000    -0.000    -0.000 -0.0681  0.9845  0.1616
     3 H(1)   Bbb    -0.0000    -0.000    -0.000    -0.000  0.7394 -0.0589  0.6707
              Bcc     0.0000     0.000     0.000     0.000 -0.6698 -0.1652  0.7239
 
              Baa    -0.0000    -0.000    -0.000    -0.000  0.9474  0.0947 -0.3057
     4 H(1)   Bbb     0.0000     0.000     0.000     0.000  0.3033  0.0387  0.9521
              Bcc     0.0000     0.000     0.000     0.000 -0.1020  0.9948 -0.0080
 
              Baa    -0.0000    -0.000    -0.000    -0.000  0.8072  0.3278 -0.4908
     5 C(13)  Bbb    -0.0000    -0.000    -0.000    -0.000 -0.3828  0.9237 -0.0126
              Bcc     0.0000     0.000     0.000     0.000  0.4493  0.1980  0.8712
 
              Baa    -0.0000    -0.000    -0.000    -0.000  0.3867  0.2448  0.8891
     6 C(13)  Bbb     0.0000     0.000     0.000     0.000 -0.3571  0.9287 -0.1003
              Bcc     0.0000     0.000     0.000     0.000  0.8503  0.2787 -0.4465
 
              Baa    -0.0000    -0.000    -0.000    -0.000  0.6583  0.6547 -0.3715
     7 H(1)   Bbb     0.0000     0.000     0.000     0.000  0.2503  0.2751  0.9283
              Bcc     0.0000     0.000     0.000     0.000  0.7099 -0.7041  0.0172
 
              Baa    -0.0000    -0.000    -0.000    -0.000 -0.2706  0.1016  0.9573
     8 H(1)   Bbb     0.0000     0.000     0.000     0.000  0.9518  0.1772  0.2502
              Bcc     0.0000     0.000     0.000     0.000 -0.1442  0.9789 -0.1447
 
              Baa    -0.0000    -0.000    -0.000    -0.000 -0.5545  0.8310 -0.0447
     9 C(13)  Bbb     0.0000     0.000     0.000     0.000 -0.1517 -0.0481  0.9873
              Bcc     0.0000     0.000     0.000     0.000  0.8182  0.5542  0.1527
 
              Baa    -0.0000    -0.000    -0.000    -0.000 -0.5838  0.7709  0.2548
    10 H(1)   Bbb    -0.0000    -0.000    -0.000    -0.000  0.7294  0.6358 -0.2524
              Bcc     0.0000     0.000     0.000     0.000  0.3566 -0.0385  0.9335
 
              Baa    -0.0000    -0.000    -0.000    -0.000  0.7863 -0.5897  0.1845
    11 H(1)   Bbb    -0.0000    -0.000    -0.000    -0.000 -0.2097  0.0263  0.9774
              Bcc     0.0000     0.000     0.000     0.000  0.5812  0.8072  0.1030
 
              Baa    -0.0000    -0.000    -0.000    -0.000  0.5369 -0.0661  0.8410
    12 C(13)  Bbb     0.0000     0.000     0.000     0.000 -0.2236  0.9501  0.2174
              Bcc     0.0000     0.000     0.000     0.000  0.8135  0.3048 -0.4953
 
              Baa    -0.0000    -0.000    -0.000    -0.000  0.3573 -0.2883  0.8884
    13 H(1)   Bbb    -0.0000    -0.000    -0.000    -0.000  0.5889  0.8078  0.0253
              Bcc     0.0000     0.000     0.000     0.000  0.7249 -0.5142 -0.4584
 
              Baa    -0.0000    -0.000    -0.000    -0.000  0.9114 -0.2937 -0.2884
    14 C(13)  Bbb    -0.0000    -0.000    -0.000    -0.000  0.2549  0.9528 -0.1649
              Bcc     0.0000     0.000     0.000     0.000  0.3232  0.0768  0.9432
 
              Baa    -0.0000    -0.000    -0.000    -0.000 -0.1547  0.9880 -0.0009
    15 H(1)   Bbb    -0.0000    -0.000    -0.000    -0.000 -0.0228 -0.0027  0.9997
              Bcc     0.0000     0.000     0.000     0.000  0.9877  0.1547  0.0229
 
              Baa    -0.0000    -0.000    -0.000    -0.000  0.7322 -0.0824 -0.6761
    16 C(13)  Bbb     0.0000     0.000     0.000     0.000  0.6789  0.1685  0.7146
              Bcc     0.0000     0.000     0.000     0.000 -0.0550  0.9823 -0.1793
 
              Baa    -0.0000    -0.000    -0.000    -0.000  0.2545  0.2856  0.9240
    17 H(1)   Bbb     0.0000     0.000     0.000     0.000  0.9495 -0.2552 -0.1826
              Bcc     0.0000     0.000     0.000     0.000  0.1836  0.9238 -0.3361
 
              Baa    -0.0000    -0.000    -0.000    -0.000  0.7737 -0.5492  0.3159
    18 H(1)   Bbb     0.0000     0.000     0.000     0.000 -0.3505  0.0442  0.9355
              Bcc     0.0000     0.000     0.000     0.000  0.5278  0.8345  0.1583
 
              Baa    -0.0000    -0.000    -0.000    -0.000  0.3541  0.9348  0.0279
    19 C(13)  Bbb    -0.0000    -0.000    -0.000    -0.000  0.9174 -0.3413 -0.2047
              Bcc     0.0000     0.000     0.000     0.000  0.1818 -0.0981  0.9784
 
              Baa    -0.0000    -0.000    -0.000    -0.000  0.7798  0.6074 -0.1513
    20 H(1)   Bbb    -0.0000    -0.000    -0.000    -0.000  0.2387 -0.0651  0.9689
              Bcc     0.0000     0.000     0.000     0.000 -0.5787  0.7917  0.1958
 
              Baa    -0.0000    -0.000    -0.000    -0.000  0.2371  0.0152  0.9714
    21 C(13)  Bbb     0.0000     0.000     0.000     0.000  0.6870  0.7043 -0.1788
              Bcc     0.0000     0.000     0.000     0.000 -0.6868  0.7097  0.1565
 
              Baa    -0.0000    -0.000    -0.000    -0.000  0.4706  0.8742 -0.1193
    22 H(1)   Bbb     0.0000     0.000     0.000     0.000  0.2729 -0.0156  0.9619
              Bcc     0.0000     0.000     0.000     0.000  0.8391 -0.4852 -0.2459
 
              Baa    -0.0000    -0.000    -0.000    -0.000  0.6277  0.3922  0.6724
    23 C(13)  Bbb    -0.0000    -0.000    -0.000    -0.000 -0.5617 -0.3698  0.7401
              Bcc     0.0000     0.000     0.000     0.000 -0.5390  0.8423  0.0119
 
              Baa    -0.0000    -0.000    -0.000    -0.000  0.4655  0.8800  0.0943
    24 H(1)   Bbb     0.0000     0.000     0.000     0.000 -0.1028 -0.0520  0.9933
              Bcc     0.0000     0.000     0.000     0.000  0.8790 -0.4721  0.0663
 
              Baa    -0.0000    -0.000    -0.000    -0.000  0.4323 -0.0862  0.8976
    25 H(1)   Bbb     0.0000     0.000     0.000     0.000 -0.3320  0.9103  0.2474
              Bcc     0.0000     0.000     0.000     0.000  0.8384  0.4049 -0.3649
 
              Baa    -0.0000    -0.000    -0.000    -0.000 -0.0516  0.9891 -0.1376
    26 C(13)  Bbb     0.0000     0.000     0.000     0.000  0.6891  0.1350  0.7120
              Bcc     0.0000     0.000     0.000     0.000  0.7229 -0.0580 -0.6886
 
              Baa    -0.0000    -0.000    -0.000    -0.000  0.1386  0.5467  0.8258
    27 H(1)   Bbb    -0.0000    -0.000    -0.000    -0.000  0.7792  0.4545 -0.4316
              Bcc     0.0000     0.000     0.000     0.000 -0.6113  0.7033 -0.3630
 
              Baa    -0.0000    -0.000    -0.000    -0.000  0.7160 -0.6976  0.0268
    28 H(1)   Bbb    -0.0000    -0.000    -0.000    -0.000  0.6056  0.6015 -0.5210
              Bcc     0.0000     0.000     0.000     0.000  0.3473  0.3893  0.8532
 

 ---------------------------------------------------------------------------------

 No NMR shielding tensors so no spin-rotation constants.
 Leave Link  601 at Tue Aug  4 08:38:13 2020, MaxMem=  6442450944 cpu:               7.9 elap:               0.4
 (Enter /scratch/scicomp/CentOS/7.3.1611/Haswell/software/Gaussian/g16/l9999.exe)
 1\1\GINC-ATLAS-205\SP\UwB97XD\def2TZVP\C12H16\BOCHEN\04-Aug-2020\0\\#p
  uwb97xd guess=mix def2tzvp # scrf=(iefpcm,solvent=Cyclohexane,read) n
 osym 6d 10f\\endo-2 xp-pcm for eta=3\\0,1\C,0,-3.122592,-0.438388,0.24
 9109\C,0,-0.621801,-0.222716,-1.060943\H,0,-4.085324,-0.547212,0.73501
 6\H,0,0.349284,-0.128633,-1.527138\C,0,1.104299,1.412726,0.711533\C,0,
 0.621801,0.222716,1.060943\H,0,0.516259,2.312051,0.844298\H,0,-0.34928
 4,0.128633,1.527138\C,0,1.489396,-1.000996,1.019772\H,0,1.961797,-1.06
 585,2.008075\H,0,0.88901,-1.902931,0.914465\C,0,2.428355,1.519137,0.10
 794\H,0,2.83616,2.506797,-0.071809\C,0,3.122592,0.438388,-0.249109\H,0
 ,4.085324,0.547212,-0.735016\C,0,2.589439,-0.95353,-0.045302\H,0,2.226
 867,-1.339383,-1.006111\H,0,3.400958,-1.623074,0.247309\C,0,-1.104299,
 -1.412726,-0.711533\H,0,-0.516259,-2.312051,-0.844298\C,0,-2.428355,-1
 .519137,-0.10794\H,0,-2.83616,-2.506797,0.071809\C,0,-1.489396,1.00099
 6,-1.019772\H,0,-0.88901,1.902931,-0.914465\H,0,-1.961797,1.06585,-2.0
 08075\C,0,-2.589439,0.95353,0.045302\H,0,-3.400958,1.623074,-0.247309\
 H,0,-2.226867,1.339383,1.006111\\Version=ES64L-G16RevB.01\HF=-466.7959
 027\S2=0.\S2-1=0.\S2A=0.\RMSD=4.527e-09\Dipole=-0.000831,-0.0009428,0.
 0000292\Quadrupole=0.8802984,2.3421565,-3.2224549,-2.528978,-2.4966116
 ,-1.1695394\PG=CI [X(C12H16)]\\@


 IN THE WOODS WE RETURN TO REASON AND FAITH.

                                 -- EMERSON
 Job cpu time:       0 days  2 hours 15 minutes 12.5 seconds.
 Elapsed time:       0 days  0 hours  5 minutes 41.1 seconds.
 File lengths (MBytes):  RWF=    608 Int=      0 D2E=      0 Chk=     24 Scr=      1
 Normal termination of Gaussian 16 at Tue Aug  4 08:38:13 2020.
