 Entering Gaussian System, Link 0=g16
 Input=meso-TS_40_2_xp-Ger.com
 Output=meso-TS_40_2_xp-Ger.log
 Initial command:
 /scratch/scicomp/CentOS/7.3.1611/Haswell/software/Gaussian/g16/l1.exe "/scratch/bochen/cyclohexadiene-dimerization/wb97xd-def2tzvp/xp-pcm/meso/Gau-288982.inp" -scrdir="/scratch/bochen/cyclohexadiene-dimerization/wb97xd-def2tzvp/xp-pcm/meso/"
 Entering Link 1 = /scratch/scicomp/CentOS/7.3.1611/Haswell/software/Gaussian/g16/l1.exe PID=    288983.
  
 Copyright (c) 1988-2017, Gaussian, Inc.  All Rights Reserved.
  
 This is part of the Gaussian(R) 16 program.  It is based on
 the Gaussian(R) 09 system (copyright 2009, Gaussian, Inc.),
 the Gaussian(R) 03 system (copyright 2003, Gaussian, Inc.),
 the Gaussian(R) 98 system (copyright 1998, Gaussian, Inc.),
 the Gaussian(R) 94 system (copyright 1995, Gaussian, Inc.),
 the Gaussian 92(TM) system (copyright 1992, Gaussian, Inc.),
 the Gaussian 90(TM) system (copyright 1990, Gaussian, Inc.),
 the Gaussian 88(TM) system (copyright 1988, Gaussian, Inc.),
 the Gaussian 86(TM) system (copyright 1986, Carnegie Mellon
 University), and the Gaussian 82(TM) system (copyright 1983,
 Carnegie Mellon University). Gaussian is a federally registered
 trademark of Gaussian, Inc.
  
 This software contains proprietary and confidential information,
 including trade secrets, belonging to Gaussian, Inc.
  
 This software is provided under written license and may be
 used, copied, transmitted, or stored only in accord with that
 written license.
  
 The following legend is applicable only to US Government
 contracts under FAR:
  
                    RESTRICTED RIGHTS LEGEND
  
 Use, reproduction and disclosure by the US Government is
 subject to restrictions as set forth in subparagraphs (a)
 and (c) of the Commercial Computer Software - Restricted
 Rights clause in FAR 52.227-19.
  
 Gaussian, Inc.
 340 Quinnipiac St., Bldg. 40, Wallingford CT 06492
  
  
 ---------------------------------------------------------------
 Warning -- This program may not be used in any manner that
 competes with the business of Gaussian, Inc. or will provide
 assistance to any competitor of Gaussian, Inc.  The licensee
 of this program is prohibited from giving any competitor of
 Gaussian, Inc. access to this program.  By using this program,
 the user acknowledges that Gaussian, Inc. is engaged in the
 business of creating and licensing software in the field of
 computational chemistry and represents and warrants to the
 licensee that it is not a competitor of Gaussian, Inc. and that
 it will not use this program in any manner prohibited above.
 ---------------------------------------------------------------
  

 Cite this work as:
 Gaussian 16, Revision B.01,
 M. J. Frisch, G. W. Trucks, H. B. Schlegel, G. E. Scuseria, 
 M. A. Robb, J. R. Cheeseman, G. Scalmani, V. Barone, 
 G. A. Petersson, H. Nakatsuji, X. Li, M. Caricato, A. V. Marenich, 
 J. Bloino, B. G. Janesko, R. Gomperts, B. Mennucci, H. P. Hratchian, 
 J. V. Ortiz, A. F. Izmaylov, J. L. Sonnenberg, D. Williams-Young, 
 F. Ding, F. Lipparini, F. Egidi, J. Goings, B. Peng, A. Petrone, 
 T. Henderson, D. Ranasinghe, V. G. Zakrzewski, J. Gao, N. Rega, 
 G. Zheng, W. Liang, M. Hada, M. Ehara, K. Toyota, R. Fukuda, 
 J. Hasegawa, M. Ishida, T. Nakajima, Y. Honda, O. Kitao, H. Nakai, 
 T. Vreven, K. Throssell, J. A. Montgomery, Jr., J. E. Peralta, 
 F. Ogliaro, M. J. Bearpark, J. J. Heyd, E. N. Brothers, K. N. Kudin, 
 V. N. Staroverov, T. A. Keith, R. Kobayashi, J. Normand, 
 K. Raghavachari, A. P. Rendell, J. C. Burant, S. S. Iyengar, 
 J. Tomasi, M. Cossi, J. M. Millam, M. Klene, C. Adamo, R. Cammi, 
 J. W. Ochterski, R. L. Martin, K. Morokuma, O. Farkas, 
 J. B. Foresman, and D. J. Fox, Gaussian, Inc., Wallingford CT, 2016.
 
 ******************************************
 Gaussian 16:  ES64L-G16RevB.01 20-Dec-2017
                 4-Aug-2020 
 ******************************************
 %chk=meso-TS_40_2_xp-12.chk
 %nproc=24
 Will use up to   24 processors via shared memory.
 %mem=48GB
 ----------------------------------------------------------------------
 #p uwb97xd guess=mix def2tzvp # scrf=(iefpcm,solvent=Cyclohexane,read)
  nosym 6d 10f
 ----------------------------------------------------------------------
 1/38=1,40=2,172=1/1;
 2/12=2,15=1,17=6,18=5,40=1/2;
 3/5=44,7=101,8=22,11=2,25=1,30=1,70=2203,72=17,74=-58,116=2/1,2,3;
 4/13=-1/1;
 5/5=2,38=5,53=17/2;
 6/7=2,8=2,9=2,10=2,28=1/1;
 99/5=1,9=1/99;
 Leave Link    1 at Tue Aug  4 04:38:21 2020, MaxMem=  6442450944 cpu:               3.8 elap:               0.2
 (Enter /scratch/scicomp/CentOS/7.3.1611/Haswell/software/Gaussian/g16/l101.exe)
 -----------------------
 endo-2 xp-pcm for eta=3
 -----------------------
 Symbolic Z-matrix:
 Charge =  0 Multiplicity = 1
 6                    -3.12689  -0.44089   0.25512 
 6                    -0.68442  -0.23978  -1.16564 
 1                    -4.08122  -0.54015   0.75934 
 1                     0.27956  -0.15138  -1.65003 
 6                     1.13715   1.41976   0.75289 
 6                     0.68442   0.23978   1.16564 
 1                     0.5438    2.31661   0.88265 
 1                    -0.27956   0.15138   1.65003 
 6                     1.52714  -0.99901   1.07056 
 1                     2.02746  -1.11996   2.03974 
 1                     0.89477  -1.87785   0.94887 
 6                     2.44322   1.52599   0.10499 
 1                     2.84602   2.51251  -0.09124 
 6                     3.12689   0.44089  -0.25512 
 1                     4.08122   0.54015  -0.75934 
 6                     2.58283  -0.94511  -0.03962 
 1                     2.1641   -1.30486  -0.98762 
 1                     3.39638  -1.63318   0.19866 
 6                    -1.13715  -1.41976  -0.75289 
 1                    -0.5438   -2.31661  -0.88265 
 6                    -2.44322  -1.52599  -0.10499 
 1                    -2.84602  -2.51251   0.09124 
 6                    -1.52714   0.99901  -1.07056 
 1                    -0.89477   1.87785  -0.94887 
 1                    -2.02746   1.11996  -2.03974 
 6                    -2.58283   0.94511   0.03962 
 1                    -3.39638   1.63318  -0.19866 
 1                    -2.1641    1.30486   0.98762 
 
 ITRead=  0  0  0  0  0  0  0  0  0  0  0  0  0  0  0  0  0  0  0  0
 ITRead=  0  0  0  0  0  0  0  0
 MicOpt= -1 -1 -1 -1 -1 -1 -1 -1 -1 -1 -1 -1 -1 -1 -1 -1 -1 -1 -1 -1
 MicOpt= -1 -1 -1 -1 -1 -1 -1 -1
 NAtoms=     28 NQM=       28 NQMF=       0 NMMI=      0 NMMIF=      0
                NMic=       0 NMicF=      0.
                    Isotopes and Nuclear Properties:
 (Nuclear quadrupole moments (NQMom) in fm**2, nuclear magnetic moments (NMagM)
  in nuclear magnetons)

  Atom         1           2           3           4           5           6           7           8           9          10
 IAtWgt=          12          12           1           1          12          12           1           1          12           1
 AtmWgt=  12.0000000  12.0000000   1.0078250   1.0078250  12.0000000  12.0000000   1.0078250   1.0078250  12.0000000   1.0078250
 NucSpn=           0           0           1           1           0           0           1           1           0           1
 AtZEff=  -0.0000000  -0.0000000  -0.0000000  -0.0000000  -0.0000000  -0.0000000  -0.0000000  -0.0000000  -0.0000000  -0.0000000
 NQMom=    0.0000000   0.0000000   0.0000000   0.0000000   0.0000000   0.0000000   0.0000000   0.0000000   0.0000000   0.0000000
 NMagM=    0.0000000   0.0000000   2.7928460   2.7928460   0.0000000   0.0000000   2.7928460   2.7928460   0.0000000   2.7928460
 AtZNuc=   6.0000000   6.0000000   1.0000000   1.0000000   6.0000000   6.0000000   1.0000000   1.0000000   6.0000000   1.0000000

  Atom        11          12          13          14          15          16          17          18          19          20
 IAtWgt=           1          12           1          12           1          12           1           1          12           1
 AtmWgt=   1.0078250  12.0000000   1.0078250  12.0000000   1.0078250  12.0000000   1.0078250   1.0078250  12.0000000   1.0078250
 NucSpn=           1           0           1           0           1           0           1           1           0           1
 AtZEff=  -0.0000000  -0.0000000  -0.0000000  -0.0000000  -0.0000000  -0.0000000  -0.0000000  -0.0000000  -0.0000000  -0.0000000
 NQMom=    0.0000000   0.0000000   0.0000000   0.0000000   0.0000000   0.0000000   0.0000000   0.0000000   0.0000000   0.0000000
 NMagM=    2.7928460   0.0000000   2.7928460   0.0000000   2.7928460   0.0000000   2.7928460   2.7928460   0.0000000   2.7928460
 AtZNuc=   1.0000000   6.0000000   1.0000000   6.0000000   1.0000000   6.0000000   1.0000000   1.0000000   6.0000000   1.0000000

  Atom        21          22          23          24          25          26          27          28
 IAtWgt=          12           1          12           1           1          12           1           1
 AtmWgt=  12.0000000   1.0078250  12.0000000   1.0078250   1.0078250  12.0000000   1.0078250   1.0078250
 NucSpn=           0           1           0           1           1           0           1           1
 AtZEff=  -0.0000000  -0.0000000  -0.0000000  -0.0000000  -0.0000000  -0.0000000  -0.0000000  -0.0000000
 NQMom=    0.0000000   0.0000000   0.0000000   0.0000000   0.0000000   0.0000000   0.0000000   0.0000000
 NMagM=    0.0000000   2.7928460   0.0000000   2.7928460   2.7928460   0.0000000   2.7928460   2.7928460
 AtZNuc=   6.0000000   1.0000000   6.0000000   1.0000000   1.0000000   6.0000000   1.0000000   1.0000000
 Leave Link  101 at Tue Aug  4 04:38:21 2020, MaxMem=  6442450944 cpu:               2.4 elap:               0.1
 (Enter /scratch/scicomp/CentOS/7.3.1611/Haswell/software/Gaussian/g16/l202.exe)
                          Input orientation:                          
 ---------------------------------------------------------------------
 Center     Atomic      Atomic             Coordinates (Angstroms)
 Number     Number       Type             X           Y           Z
 ---------------------------------------------------------------------
      1          6           0       -3.126891   -0.440888    0.255118
      2          6           0       -0.684423   -0.239784   -1.165641
      3          1           0       -4.081225   -0.540147    0.759340
      4          1           0        0.279559   -0.151378   -1.650033
      5          6           0        1.137152    1.419764    0.752892
      6          6           0        0.684423    0.239784    1.165641
      7          1           0        0.543796    2.316608    0.882649
      8          1           0       -0.279559    0.151379    1.650033
      9          6           0        1.527143   -0.999005    1.070559
     10          1           0        2.027460   -1.119961    2.039740
     11          1           0        0.894773   -1.877853    0.948868
     12          6           0        2.443219    1.525992    0.104990
     13          1           0        2.846024    2.512508   -0.091240
     14          6           0        3.126891    0.440888   -0.255118
     15          1           0        4.081225    0.540147   -0.759340
     16          6           0        2.582831   -0.945113   -0.039623
     17          1           0        2.164096   -1.304863   -0.987620
     18          1           0        3.396382   -1.633179    0.198658
     19          6           0       -1.137152   -1.419764   -0.752892
     20          1           0       -0.543796   -2.316608   -0.882649
     21          6           0       -2.443219   -1.525992   -0.104990
     22          1           0       -2.846024   -2.512508    0.091240
     23          6           0       -1.527143    0.999005   -1.070559
     24          1           0       -0.894773    1.877853   -0.948868
     25          1           0       -2.027460    1.119961   -2.039740
     26          6           0       -2.582831    0.945113    0.039623
     27          1           0       -3.396382    1.633179   -0.198658
     28          1           0       -2.164097    1.304863    0.987620
 ---------------------------------------------------------------------
                    Distance matrix (angstroms):
                    1          2          3          4          5
     1  C    0.000000
     2  C    2.832781   0.000000
     3  H    1.083903   3.915869   0.000000
     4  H    3.913735   1.082457   4.997265   0.000000
     5  C    4.678875   3.122980   5.574294   2.996331   0.000000
     6  C    3.977245   2.745651   4.846109   2.871401   1.329541
     7  H    4.633737   3.498450   5.437561   3.546160   1.083161
     8  H    3.225503   2.871401   3.965376   3.360760   2.102554
     9  C    4.757780   3.235434   5.635708   3.110717   2.470516
    10  H    5.496667   4.289929   6.268304   4.196157   2.983091
    11  H    4.326654   3.106168   5.156155   3.180171   3.312315
    12  C    5.909085   3.809805   6.874989   3.251938   1.461805
    13  H    6.672198   4.603640   7.617675   4.014084   2.197019
    14  C    6.336218   3.977245   7.344964   3.225503   2.435846
    15  H    7.344964   4.846109   8.372515   3.965376   3.424637
    16  C    5.739516   3.527089   6.723986   2.920359   2.882830
    17  H    5.503217   3.046333   6.529984   2.306686   3.392284
    18  H    6.631579   4.522812   7.577842   3.915096   3.838197
    19  C    2.435846   1.329541   3.424637   2.102554   3.937355
    20  H    3.388985   2.100728   4.285481   2.440289   4.411469
    21  C    1.332117   2.423360   2.098099   3.419100   4.715135
    22  H    2.096986   3.378986   2.421216   4.286751   5.636154
    23  C    2.527826   1.501271   3.498693   2.218861   3.255838
    24  H    3.436349   2.139071   4.349503   2.447134   2.689712
    25  H    2.985192   2.101596   3.848215   2.662801   4.231246
    26  C    1.504473   2.541770   2.229165   3.500072   3.817371
    27  H    2.140162   3.434788   2.471865   4.336320   4.637232
    28  H    2.123953   3.035112   2.670497   3.879343   3.311577
                    6          7          8          9         10
     6  C    0.000000
     7  H    2.100728   0.000000
     8  H    1.082457   2.440289   0.000000
     9  C    1.501271   3.463462   2.218861   0.000000
    10  H    2.101596   3.917924   2.662802   1.097387   0.000000
    11  H    2.139071   4.209640   2.447135   1.089529   1.745675
    12  C    2.423360   2.199462   3.419099   2.854318   3.304116
    13  H    3.378986   2.507407   4.286751   3.926824   4.290216
    14  C    2.832781   3.388985   3.913734   2.527826   2.985192
    15  H    3.915869   4.285481   4.997265   3.498693   3.848215
    16  C    2.541770   3.955638   3.500073   1.532934   2.159342
    17  H    3.035111   4.386152   3.879343   2.176088   3.036078
    18  H    3.434788   4.919950   4.336321   2.157879   2.350941
    19  C    3.122980   4.411469   2.996332   3.255838   4.231246
    20  H    3.498450   5.076005   3.546161   3.136859   4.072306
    21  C    3.809805   4.966212   3.251938   4.174135   4.975108
    22  H    4.603640   5.952946   4.014084   4.730153   5.430164
    23  C    3.235434   3.136859   3.110716   4.231441   5.176792
    24  H    3.106168   2.369903   3.180171   4.268498   5.143745
    25  H    4.289929   4.072306   4.196157   5.176792   6.172664
    26  C    3.527089   3.516744   2.920359   4.662007   5.433211
    27  H    4.522812   4.142620   3.915096   5.725417   6.481379
    28  H    3.046334   2.892634   2.306686   4.352004   4.955389
                   11         12         13         14         15
    11  H    0.000000
    12  C    3.833533   0.000000
    13  H    4.915737   1.083500   0.000000
    14  C    3.436349   1.332117   2.096986   0.000000
    15  H    4.349503   2.098099   2.421216   1.083903   0.000000
    16  C    2.167177   2.479267   3.468008   1.504473   2.229165
    17  H    2.385264   3.047203   3.980056   2.123954   2.670498
    18  H    2.623114   3.301160   4.192094   2.140162   2.471865
    19  C    2.689712   4.715135   5.636154   4.678875   5.574294
    20  H    2.369903   4.966212   5.952946   4.633737   5.437561
    21  C    3.518041   5.765065   6.654755   5.909085   6.874989
    22  H    3.889971   6.654755   7.594965   6.672198   7.617675
    23  C    4.268498   4.174135   4.730153   4.757780   5.635708
    24  H    4.572658   3.518041   3.889971   4.326654   5.156155
    25  H    5.143745   4.975108   5.430164   5.496667   6.268304
    26  C    4.570513   5.059928   5.652107   5.739516   6.723986
    27  H    5.661994   5.848473   6.304950   6.631579   7.577842
    28  H    4.414507   4.696306   5.265326   5.503218   6.529985
                   16         17         18         19         20
    16  C    0.000000
    17  H    1.097022   0.000000
    18  H    1.091823   1.741716   0.000000
    19  C    3.817371   3.311576   4.637232   0.000000
    20  H    3.516744   2.892633   4.142620   1.083161   0.000000
    21  C    5.059928   4.696305   5.848473   1.461805   2.199462
    22  H    5.652107   5.265325   6.304950   2.197019   2.507407
    23  C    4.662007   4.352003   5.725417   2.470516   3.463462
    24  H    4.570513   4.414506   5.661994   3.312315   4.209640
    25  H    5.433211   4.955388   6.481379   2.983091   3.917924
    26  C    5.501209   5.352657   6.513361   2.882830   3.955638
    27  H    6.513361   6.338254   7.547754   3.838197   4.919950
    28  H    5.352658   5.426371   6.338255   3.392284   4.386152
                   21         22         23         24         25
    21  C    0.000000
    22  H    1.083500   0.000000
    23  C    2.854318   3.926824   0.000000
    24  H    3.833533   4.915737   1.089529   0.000000
    25  H    3.304116   4.290216   1.097387   1.745675   0.000000
    26  C    2.479267   3.468008   1.532934   2.167177   2.159342
    27  H    3.301160   4.192094   2.157879   2.623114   2.350941
    28  H    3.047203   3.980056   2.176088   2.385264   3.036078
                   26         27         28
    26  C    0.000000
    27  H    1.091823   0.000000
    28  H    1.097022   1.741716   0.000000
 Symmetry turned off by external request.
 Stoichiometry    C12H16
 Framework group  CI[X(C12H16)]
 Deg. of freedom    39
 Full point group                 CI      NOp   2
 Rotational constants (GHZ):           1.8059238           0.6061502           0.5409639
 Leave Link  202 at Tue Aug  4 04:38:21 2020, MaxMem=  6442450944 cpu:               0.3 elap:               0.0
 (Enter /scratch/scicomp/CentOS/7.3.1611/Haswell/software/Gaussian/g16/l301.exe)
 Standard basis: def2TZVP (6D, 10F)
 Ernie: Thresh=  0.10000D-02 Tol=  0.10000D-05 Strict=F.
   528 basis functions,   740 primitive gaussians,   528 cartesian basis functions
    44 alpha electrons       44 beta electrons
       nuclear repulsion energy       680.3343633383 Hartrees.
 IExCor= 4639 DFT=T Ex+Corr=wB97XD ExCW=0 ScaHFX=  1.000000
 ScaDFX=  1.000000  1.000000  1.000000  1.000000 ScalE2=  1.000000  1.000000
 IRadAn=      5 IRanWt=     -1 IRanGd=            0 ICorTp=0 IEmpDi=121
 HFx  wShort=  0.000000 wLong=  0.200000 cFull=  0.222036 cShort=  0.000000 cLong=  0.777964
 DFx  wShort=  0.000000 wLong=  0.200000 cFull=  0.000000 cShort=  0.000000 cLong=  1.000000
 NAtoms=   28 NActive=   28 NUniq=   28 SFac= 1.00D+00 NAtFMM=   60 NAOKFM=F Big=F
 Integral buffers will be    131072 words long.
 Raffenetti 2 integral format.
 Two-electron integral symmetry is turned off.
 R6Disp:  Grimme-D2 Dispersion energy=       -0.0226369669 Hartrees.
 Nuclear repulsion after empirical dispersion term =      680.3117263713 Hartrees.
 Using the following non-standard input for PCM:
 qrep pcmdoc geomview  nodis nocav g03defaults tsare=0.075
 Warning! Using old PCM defaults because the g03defaults keyword was found.
 These settings can be overridden by following keywords.
 nsfe=28
 NVESolv=36  SolvMW=84.1595   Rsolv=2.815
 eps=2.0165 RhoS=0.778099999999998
 --- end of non-standard input.
 Reading user-defined spheres from input:
 ISph  on   Nord    Re0     Alpha      Xe            Ye            Ze
 --- end of user-defined spheres data.
 ------------------------------------------------------------------------------
 Polarizable Continuum Model (PCM)
 =================================
 Model                : PCM.
 Atomic radii         : UA0 (Simple United Atom Topological Model).
 Polarization charges : Total charges.
 Charge compensation  : None.
 Solution method      : On-the-fly selection.
 Cavity type          : SES (Solvent Excluding Surface) (Alpha=1.000).
 Cavity algorithm     : GePol (RMin=0.200 OFac=0.890).
                        User-defined sphere list used, NSphG=   28.
                        Tesserae with average area of 0.075 Ang**2.
                        Smoothing algorithm: None.
                        Polarization charges: point-like.
                        Self-potential: constant (ISelfS= 1).
                        Self-field    : global E.n sum rule (ISelfD= 3).
 Solvent              : CycloHexane, Eps=   2.016500 Eps(inf)=   2.035188
                        RSolv=   2.815000 Ang.
 ------------------------------------------------------------------------------
 GePol: Number of generator spheres                  =      28
 GePol: Total number of spheres                      =     189
 GePol: Number of exposed spheres                    =     133 ( 70.37%)
 GePol: Number of tesserae                           =    4668
 GePol: Average area of tesserae                     =       0.05 Ang**2
 GePol: Minimum area of tessera                      =   0.10D-02 Ang**2
 GePol: Maximum area of tessera                      =    0.12395 Ang**2
 GePol: Number of small tesserae                     =       0
 GePol: Fraction of small tesserae (<1% of avg)      =       0.00%
 GePol: Total count of vertices                      =   16545
 GePol: Maximum number of vertices in a tessera      =       7
 GePol: Cavity surface area                          =    220.782 Ang**2
 GePol: Cavity volume                                =    250.497 Ang**3
 Leave Link  301 at Tue Aug  4 04:38:22 2020, MaxMem=  6442450944 cpu:               8.0 elap:               0.4
 (Enter /scratch/scicomp/CentOS/7.3.1611/Haswell/software/Gaussian/g16/l302.exe)
 NPDir=0 NMtPBC=     1 NCelOv=     1 NCel=       1 NClECP=     1 NCelD=      1
         NCelK=      1 NCelE2=     1 NClLst=     1 CellRange=     0.0.
 One-electron integrals computed using PRISM.
   1 Symmetry operations used in ECPInt.
 ECPInt:  NShTT=   19306 NPrTT=   56928 LenC2=   18486 LenP2D=   42012.
 LDataN:  DoStor=T MaxTD1= 6 Len=  172
 NBasis=   528 RedAO= T EigKep=  1.79D-05  NBF=   528
 NBsUse=   528 1.00D-06 EigRej= -1.00D+00 NBFU=   528
 Precomputing XC quadrature grid using
 IXCGrd= 4 IRadAn=           5 IRanWt=          -1 IRanGd=           0 AccXCQ= 0.00D+00.
 Generated NRdTot=       0 NPtTot=           0 NUsed=           0 NTot=          32
 NSgBfM=   526   526   526   526   526 MxSgAt=    28 MxSgA2=    28.
 Leave Link  302 at Tue Aug  4 04:38:22 2020, MaxMem=  6442450944 cpu:              12.8 elap:               0.6
 (Enter /scratch/scicomp/CentOS/7.3.1611/Haswell/software/Gaussian/g16/l303.exe)
 DipDrv:  MaxL=1.
 Leave Link  303 at Tue Aug  4 04:38:23 2020, MaxMem=  6442450944 cpu:               1.5 elap:               0.1
 (Enter /scratch/scicomp/CentOS/7.3.1611/Haswell/software/Gaussian/g16/l401.exe)
 ExpMin= 9.52D-02 ExpMax= 1.36D+04 ExpMxC= 4.63D+02 IAcc=3 IRadAn=         5 AccDes= 0.00D+00
 Harris functional with IExCor= 4639 and IRadAn=       5 diagonalized for initial guess.
 HarFok:  IExCor= 4639 AccDes= 0.00D+00 IRadAn=         5 IDoV= 1 UseB2=F ITyADJ=14
 ICtDFT=  3500011 ScaDFX=  1.000000  1.000000  1.000000  1.000000
 FoFCou: FMM=F IPFlag=           0 FMFlag=      100000 FMFlg1=           0
         NFxFlg=           0 DoJE=T BraDBF=F KetDBF=T FulRan=T
         wScrn=  0.000000 ICntrl=       500 IOpCl=  0 I1Cent=   200000004 NGrid=           0
         NMat0=    1 NMatS0=      1 NMatT0=    0 NMatD0=    1 NMtDS0=    0 NMtDT0=    0
 Symmetry not used in FoFCou.
 Harris En= -444.651711864449    
 JPrj=0 DoOrth=F DoCkMO=T.
 Mixing orbitals, IMix= 1 IMixAn=  0 NRI=1 NE=   44 Coef=  7.07106781D-01  7.07106781D-01
 Mixing orbitals, IMix= 1 IMixAn=  0 NRI=1 NE=   44 Coef= -7.07106781D-01  7.07106781D-01
 Initial guess <Sx>= 0.0000 <Sy>= 0.0000 <Sz>= 0.0000 <S**2>= 1.0000 S= 0.6180
 Leave Link  401 at Tue Aug  4 04:38:25 2020, MaxMem=  6442450944 cpu:              48.7 elap:               2.1
 (Enter /scratch/scicomp/CentOS/7.3.1611/Haswell/software/Gaussian/g16/l502.exe)
 Two-electron integral symmetry not used.
 UHF open shell SCF:
 Using DIIS extrapolation, IDIIS=  1040.
 NGot=  6442450944 LenX=  6441877030 LenY=  6441597718
 Requested convergence on RMS density matrix=1.00D-08 within 128 cycles.
 Requested convergence on MAX density matrix=1.00D-06.
 Requested convergence on             energy=1.00D-06.
 No special actions if energy rises.
 Fock matrices will be formed incrementally for  20 cycles.

 Cycle   1  Pass 1  IDiag  1:
 FoFJK:  IHMeth= 1 ICntrl=       0 DoSepK=T KAlg= 0 I1Cent=           0 FoldK=F
 IRaf=         1 NMat=       1 IRICut=       1 DoRegI=T DoRafI=F ISym2E= 0 IDoP0=0 IntGTp=1.
 FoFCou: FMM=F IPFlag=           0 FMFlag=      100000 FMFlg1=           0
         NFxFlg=           0 DoJE=T BraDBF=F KetDBF=F FulRan=T
         wScrn=  0.000000 ICntrl=       500 IOpCl=  0 I1Cent=           0 NGrid=           0
         NMat0=    1 NMatS0=      1 NMatT0=    0 NMatD0=    1 NMtDS0=    0 NMtDT0=    0
 Symmetry not used in FoFCou.
 Inv3:  Mode=1 IEnd=    65370672.
 Iteration    1 A*A^-1 deviation from unit magnitude is 3.66D-15 for   4332.
 Iteration    1 A*A^-1 deviation from orthogonality  is 1.67D-15 for   4257   2163.
 Iteration    1 A^-1*A deviation from unit magnitude is 3.66D-15 for   4332.
 Iteration    1 A^-1*A deviation from orthogonality  is 1.95D-15 for   2695   2675.
 E= -466.572949491663    
 DIIS: error= 5.09D-02 at cycle   1 NSaved=   1.
 NSaved= 1 IEnMin= 1 EnMin= -466.572949491663     IErMin= 1 ErrMin= 5.09D-02
 ErrMax= 5.09D-02  0.00D+00 EMaxC= 1.00D-01 BMatC= 4.11D+00 BMatP= 4.11D+00
 IDIUse=3 WtCom= 4.91D-01 WtEn= 5.09D-01
 Coeff-Com:  0.100D+01
 Coeff-En:   0.100D+01
 Coeff:      0.100D+01
 Gap=     0.183 Goal=   None    Shift=    0.000
 Gap=     0.183 Goal=   None    Shift=    0.000
 GapD=    0.183 DampG=1.000 DampE=0.500 DampFc=0.5000 IDamp=-1.
 Damping current iteration by 5.00D-01
 RMSDP=1.70D-03 MaxDP=9.26D-02              OVMax= 3.35D-01

 Cycle   2  Pass 1  IDiag  1:
 RMSU=  8.21D-04    CP:  9.66D-01
 E= -466.681351254077     Delta-E=       -0.108401762415 Rises=F Damp=T
 DIIS: error= 2.41D-02 at cycle   2 NSaved=   2.
 NSaved= 2 IEnMin= 2 EnMin= -466.681351254077     IErMin= 2 ErrMin= 2.41D-02
 ErrMax= 2.41D-02  0.00D+00 EMaxC= 1.00D-01 BMatC= 9.35D-01 BMatP= 4.11D+00
 IDIUse=3 WtCom= 7.59D-01 WtEn= 2.41D-01
 Coeff-Com: -0.869D+00 0.187D+01
 Coeff-En:   0.000D+00 0.100D+01
 Coeff:     -0.659D+00 0.166D+01
 Gap=     0.273 Goal=   None    Shift=    0.000
 Gap=     0.273 Goal=   None    Shift=    0.000
 RMSDP=1.21D-03 MaxDP=5.03D-02 DE=-1.08D-01 OVMax= 1.39D-01

 Cycle   3  Pass 1  IDiag  1:
 RMSU=  6.09D-04    CP:  9.15D-01  2.21D+00
 E= -466.822352420428     Delta-E=       -0.141001166351 Rises=F Damp=F
 DIIS: error= 7.71D-03 at cycle   3 NSaved=   3.
 NSaved= 3 IEnMin= 3 EnMin= -466.822352420428     IErMin= 3 ErrMin= 7.71D-03
 ErrMax= 7.71D-03  0.00D+00 EMaxC= 1.00D-01 BMatC= 2.41D-02 BMatP= 9.35D-01
 IDIUse=3 WtCom= 9.23D-01 WtEn= 7.71D-02
 Coeff-Com: -0.318D+00 0.683D+00 0.636D+00
 Coeff-En:   0.000D+00 0.000D+00 0.100D+01
 Coeff:     -0.294D+00 0.630D+00 0.664D+00
 Gap=     0.294 Goal=   None    Shift=    0.000
 Gap=     0.294 Goal=   None    Shift=    0.000
 RMSDP=2.31D-04 MaxDP=1.24D-02 DE=-1.41D-01 OVMax= 6.54D-02

 Cycle   4  Pass 1  IDiag  1:
 RMSU=  2.14D-04    CP:  9.07D-01  2.30D+00  1.00D+00
 E= -466.833290242133     Delta-E=       -0.010937821705 Rises=F Damp=F
 DIIS: error= 5.17D-03 at cycle   4 NSaved=   4.
 NSaved= 4 IEnMin= 4 EnMin= -466.833290242133     IErMin= 4 ErrMin= 5.17D-03
 ErrMax= 5.17D-03  0.00D+00 EMaxC= 1.00D-01 BMatC= 2.15D-03 BMatP= 2.41D-02
 IDIUse=3 WtCom= 9.48D-01 WtEn= 5.17D-02
 Coeff-Com:  0.138D+00-0.295D+00-0.639D-01 0.122D+01
 Coeff-En:   0.000D+00 0.000D+00 0.000D+00 0.100D+01
 Coeff:      0.131D+00-0.280D+00-0.606D-01 0.121D+01
 Gap=     0.305 Goal=   None    Shift=    0.000
 Gap=     0.305 Goal=   None    Shift=    0.000
 RMSDP=2.29D-04 MaxDP=1.18D-02 DE=-1.09D-02 OVMax= 7.96D-02

 Cycle   5  Pass 1  IDiag  1:
 RMSU=  9.29D-05    CP:  9.00D-01  2.36D+00  1.24D+00  1.64D+00
 E= -466.838191226487     Delta-E=       -0.004900984353 Rises=F Damp=F
 DIIS: error= 2.48D-03 at cycle   5 NSaved=   5.
 NSaved= 5 IEnMin= 5 EnMin= -466.838191226487     IErMin= 5 ErrMin= 2.48D-03
 ErrMax= 2.48D-03  0.00D+00 EMaxC= 1.00D-01 BMatC= 9.57D-04 BMatP= 2.15D-03
 IDIUse=3 WtCom= 9.75D-01 WtEn= 2.48D-02
 Coeff-Com:  0.765D-01-0.164D+00-0.832D-01 0.432D+00 0.739D+00
 Coeff-En:   0.000D+00 0.000D+00 0.000D+00 0.000D+00 0.100D+01
 Coeff:      0.746D-01-0.160D+00-0.811D-01 0.421D+00 0.745D+00
 Gap=     0.308 Goal=   None    Shift=    0.000
 Gap=     0.308 Goal=   None    Shift=    0.000
 RMSDP=8.54D-05 MaxDP=3.99D-03 DE=-4.90D-03 OVMax= 3.01D-02

 Cycle   6  Pass 1  IDiag  1:
 RMSU=  3.35D-05    CP:  8.98D-01  2.36D+00  1.28D+00  1.94D+00  1.38D+00
 E= -466.839644026673     Delta-E=       -0.001452800187 Rises=F Damp=F
 DIIS: error= 1.81D-03 at cycle   6 NSaved=   6.
 NSaved= 6 IEnMin= 6 EnMin= -466.839644026673     IErMin= 6 ErrMin= 1.81D-03
 ErrMax= 1.81D-03  0.00D+00 EMaxC= 1.00D-01 BMatC= 5.46D-04 BMatP= 9.57D-04
 IDIUse=3 WtCom= 9.82D-01 WtEn= 1.81D-02
 Coeff-Com: -0.761D-01 0.163D+00 0.573D-01-0.550D+00 0.138D-01 0.139D+01
 Coeff-En:   0.000D+00 0.000D+00 0.000D+00 0.000D+00 0.000D+00 0.100D+01
 Coeff:     -0.747D-01 0.160D+00 0.562D-01-0.540D+00 0.136D-01 0.139D+01
 Gap=     0.304 Goal=   None    Shift=    0.000
 Gap=     0.304 Goal=   None    Shift=    0.000
 RMSDP=1.09D-04 MaxDP=4.14D-03 DE=-1.45D-03 OVMax= 3.95D-02

 Cycle   7  Pass 1  IDiag  1:
 RMSU=  3.26D-05    CP:  8.96D-01  2.36D+00  1.32D+00  2.24D+00  2.08D+00
                    CP:  2.17D+00
 E= -466.841322770434     Delta-E=       -0.001678743761 Rises=F Damp=F
 DIIS: error= 1.19D-03 at cycle   7 NSaved=   7.
 NSaved= 7 IEnMin= 7 EnMin= -466.841322770434     IErMin= 7 ErrMin= 1.19D-03
 ErrMax= 1.19D-03  0.00D+00 EMaxC= 1.00D-01 BMatC= 2.91D-04 BMatP= 5.46D-04
 IDIUse=3 WtCom= 9.88D-01 WtEn= 1.19D-02
 Coeff-Com: -0.240D-01 0.520D-01 0.434D-01 0.196D-01-0.619D+00-0.712D+00
 Coeff-Com:  0.224D+01
 Coeff-En:   0.000D+00 0.000D+00 0.000D+00 0.000D+00 0.000D+00 0.000D+00
 Coeff-En:   0.100D+01
 Coeff:     -0.237D-01 0.514D-01 0.429D-01 0.194D-01-0.611D+00-0.703D+00
 Coeff:      0.222D+01
 Gap=     0.303 Goal=   None    Shift=    0.000
 Gap=     0.303 Goal=   None    Shift=    0.000
 RMSDP=1.50D-04 MaxDP=7.03D-03 DE=-1.68D-03 OVMax= 5.56D-02

 Cycle   8  Pass 1  IDiag  1:
 RMSU=  5.15D-05    CP:  8.93D-01  2.35D+00  1.37D+00  2.58D+00  2.97D+00
                    CP:  3.00D+00  2.77D+00
 E= -466.842891159477     Delta-E=       -0.001568389043 Rises=F Damp=F
 DIIS: error= 4.62D-04 at cycle   8 NSaved=   8.
 NSaved= 8 IEnMin= 8 EnMin= -466.842891159477     IErMin= 8 ErrMin= 4.62D-04
 ErrMax= 4.62D-04  0.00D+00 EMaxC= 1.00D-01 BMatC= 8.27D-05 BMatP= 2.91D-04
 IDIUse=3 WtCom= 9.95D-01 WtEn= 4.62D-03
 Coeff-Com:  0.281D-01-0.604D-01-0.985D-02 0.294D+00-0.196D+00-0.908D+00
 Coeff-Com:  0.699D+00 0.115D+01
 Coeff-En:   0.000D+00 0.000D+00 0.000D+00 0.000D+00 0.000D+00 0.000D+00
 Coeff-En:   0.000D+00 0.100D+01
 Coeff:      0.280D-01-0.601D-01-0.981D-02 0.293D+00-0.196D+00-0.903D+00
 Coeff:      0.696D+00 0.115D+01
 Gap=     0.306 Goal=   None    Shift=    0.000
 Gap=     0.306 Goal=   None    Shift=    0.000
 RMSDP=7.92D-05 MaxDP=3.92D-03 DE=-1.57D-03 OVMax= 2.99D-02

 Cycle   9  Pass 1  IDiag  1:
 RMSU=  4.88D-05    CP:  8.92D-01  2.35D+00  1.39D+00  2.72D+00  3.00D+00
                    CP:  3.00D+00  3.00D+00  1.88D+00
 E= -466.843247571567     Delta-E=       -0.000356412090 Rises=F Damp=F
 DIIS: error= 1.58D-04 at cycle   9 NSaved=   9.
 NSaved= 9 IEnMin= 9 EnMin= -466.843247571567     IErMin= 9 ErrMin= 1.58D-04
 ErrMax= 1.58D-04  0.00D+00 EMaxC= 1.00D-01 BMatC= 1.60D-05 BMatP= 8.27D-05
 IDIUse=3 WtCom= 9.98D-01 WtEn= 1.58D-03
 Coeff-Com:  0.169D-01-0.364D-01-0.119D-01 0.123D+00 0.310D-01-0.251D+00
 Coeff-Com: -0.116D+00 0.418D+00 0.826D+00
 Coeff-En:   0.000D+00 0.000D+00 0.000D+00 0.000D+00 0.000D+00 0.000D+00
 Coeff-En:   0.000D+00 0.000D+00 0.100D+01
 Coeff:      0.169D-01-0.364D-01-0.119D-01 0.123D+00 0.310D-01-0.251D+00
 Coeff:     -0.115D+00 0.417D+00 0.827D+00
 Gap=     0.305 Goal=   None    Shift=    0.000
 Gap=     0.305 Goal=   None    Shift=    0.000
 RMSDP=2.18D-05 MaxDP=1.10D-03 DE=-3.56D-04 OVMax= 8.26D-03

 Cycle  10  Pass 1  IDiag  1:
 RMSU=  6.40D-06    CP:  8.91D-01  2.35D+00  1.40D+00  2.75D+00  3.00D+00
                    CP:  3.00D+00  3.00D+00  2.12D+00  1.30D+00
 E= -466.843281096488     Delta-E=       -0.000033524920 Rises=F Damp=F
 DIIS: error= 7.28D-05 at cycle  10 NSaved=  10.
 NSaved=10 IEnMin=10 EnMin= -466.843281096488     IErMin=10 ErrMin= 7.28D-05
 ErrMax= 7.28D-05  0.00D+00 EMaxC= 1.00D-01 BMatC= 2.47D-06 BMatP= 1.60D-05
 IDIUse=1 WtCom= 1.00D+00 WtEn= 0.00D+00
 Coeff-Com: -0.125D-02 0.273D-02-0.774D-03-0.288D-01 0.392D-01 0.110D+00
 Coeff-Com: -0.135D+00-0.181D+00 0.148D+00 0.105D+01
 Coeff:     -0.125D-02 0.273D-02-0.774D-03-0.288D-01 0.392D-01 0.110D+00
 Coeff:     -0.135D+00-0.181D+00 0.148D+00 0.105D+01
 Gap=     0.305 Goal=   None    Shift=    0.000
 Gap=     0.305 Goal=   None    Shift=    0.000
 RMSDP=1.08D-05 MaxDP=4.92D-04 DE=-3.35D-05 OVMax= 4.11D-03

 Cycle  11  Pass 1  IDiag  1:
 RMSU=  3.08D-06    CP:  8.91D-01  2.35D+00  1.40D+00  2.76D+00  3.00D+00
                    CP:  3.00D+00  3.00D+00  2.23D+00  1.45D+00  1.52D+00
 E= -466.843286426511     Delta-E=       -0.000005330023 Rises=F Damp=F
 DIIS: error= 2.64D-05 at cycle  11 NSaved=  11.
 NSaved=11 IEnMin=11 EnMin= -466.843286426511     IErMin=11 ErrMin= 2.64D-05
 ErrMax= 2.64D-05  0.00D+00 EMaxC= 1.00D-01 BMatC= 5.61D-07 BMatP= 2.47D-06
 IDIUse=1 WtCom= 1.00D+00 WtEn= 0.00D+00
 Coeff-Com: -0.195D-02 0.420D-02 0.787D-03-0.216D-01 0.104D-01 0.596D-01
 Coeff-Com: -0.296D-01-0.112D+00-0.386D-01 0.411D+00 0.718D+00
 Coeff:     -0.195D-02 0.420D-02 0.787D-03-0.216D-01 0.104D-01 0.596D-01
 Coeff:     -0.296D-01-0.112D+00-0.386D-01 0.411D+00 0.718D+00
 Gap=     0.304 Goal=   None    Shift=    0.000
 Gap=     0.304 Goal=   None    Shift=    0.000
 RMSDP=1.96D-06 MaxDP=9.71D-05 DE=-5.33D-06 OVMax= 6.55D-04

 Cycle  12  Pass 1  IDiag  1:
 RMSU=  9.93D-07    CP:  8.91D-01  2.35D+00  1.40D+00  2.76D+00  3.00D+00
                    CP:  3.00D+00  3.00D+00  2.24D+00  1.47D+00  1.61D+00
                    CP:  1.18D+00
 E= -466.843286803768     Delta-E=       -0.000000377257 Rises=F Damp=F
 DIIS: error= 1.53D-05 at cycle  12 NSaved=  12.
 NSaved=12 IEnMin=12 EnMin= -466.843286803768     IErMin=12 ErrMin= 1.53D-05
 ErrMax= 1.53D-05  0.00D+00 EMaxC= 1.00D-01 BMatC= 8.46D-08 BMatP= 5.61D-07
 IDIUse=1 WtCom= 1.00D+00 WtEn= 0.00D+00
 Coeff-Com:  0.603D-03-0.131D-02-0.164D-03 0.811D-02-0.560D-02-0.268D-01
 Coeff-Com:  0.247D-01 0.421D-01-0.173D-01-0.224D+00-0.114D-01 0.121D+01
 Coeff:      0.603D-03-0.131D-02-0.164D-03 0.811D-02-0.560D-02-0.268D-01
 Coeff:      0.247D-01 0.421D-01-0.173D-01-0.224D+00-0.114D-01 0.121D+01
 Gap=     0.305 Goal=   None    Shift=    0.000
 Gap=     0.305 Goal=   None    Shift=    0.000
 RMSDP=9.88D-07 MaxDP=3.54D-05 DE=-3.77D-07 OVMax= 1.75D-04

 Cycle  13  Pass 1  IDiag  1:
 RMSU=  5.98D-07    CP:  8.91D-01  2.35D+00  1.40D+00  2.76D+00  3.00D+00
                    CP:  3.00D+00  3.00D+00  2.24D+00  1.47D+00  1.62D+00
                    CP:  1.32D+00  1.64D+00
 E= -466.843286931813     Delta-E=       -0.000000128045 Rises=F Damp=F
 DIIS: error= 8.12D-06 at cycle  13 NSaved=  13.
 NSaved=13 IEnMin=13 EnMin= -466.843286931813     IErMin=13 ErrMin= 8.12D-06
 ErrMax= 8.12D-06  0.00D+00 EMaxC= 1.00D-01 BMatC= 2.18D-08 BMatP= 8.46D-08
 IDIUse=1 WtCom= 1.00D+00 WtEn= 0.00D+00
 Coeff-Com: -0.561D-04 0.125D-03 0.835D-04-0.995D-04-0.460D-03-0.647D-04
 Coeff-Com: -0.536D-03 0.423D-02 0.260D-02-0.193D-01-0.105D+00-0.206D+00
 Coeff-Com:  0.132D+01
 Coeff:     -0.561D-04 0.125D-03 0.835D-04-0.995D-04-0.460D-03-0.647D-04
 Coeff:     -0.536D-03 0.423D-02 0.260D-02-0.193D-01-0.105D+00-0.206D+00
 Coeff:      0.132D+01
 Gap=     0.305 Goal=   None    Shift=    0.000
 Gap=     0.305 Goal=   None    Shift=    0.000
 RMSDP=4.87D-07 MaxDP=2.84D-05 DE=-1.28D-07 OVMax= 1.21D-04

 Cycle  14  Pass 1  IDiag  1:
 RMSU=  3.20D-07    CP:  8.91D-01  2.35D+00  1.40D+00  2.76D+00  3.00D+00
                    CP:  3.00D+00  3.00D+00  2.24D+00  1.47D+00  1.63D+00
                    CP:  1.36D+00  1.83D+00  1.43D+00
 E= -466.843286977738     Delta-E=       -0.000000045926 Rises=F Damp=F
 DIIS: error= 4.48D-06 at cycle  14 NSaved=  14.
 NSaved=14 IEnMin=14 EnMin= -466.843286977738     IErMin=14 ErrMin= 4.48D-06
 ErrMax= 4.48D-06  0.00D+00 EMaxC= 1.00D-01 BMatC= 6.83D-09 BMatP= 2.18D-08
 IDIUse=1 WtCom= 1.00D+00 WtEn= 0.00D+00
 Coeff-Com: -0.265D-03 0.572D-03 0.144D-03-0.281D-02 0.136D-02 0.866D-02
 Coeff-Com: -0.754D-02-0.125D-01 0.531D-02 0.694D-01-0.924D-02-0.411D+00
 Coeff-Com:  0.811D-01 0.128D+01
 Coeff:     -0.265D-03 0.572D-03 0.144D-03-0.281D-02 0.136D-02 0.866D-02
 Coeff:     -0.754D-02-0.125D-01 0.531D-02 0.694D-01-0.924D-02-0.411D+00
 Coeff:      0.811D-01 0.128D+01
 Gap=     0.305 Goal=   None    Shift=    0.000
 Gap=     0.305 Goal=   None    Shift=    0.000
 RMSDP=3.63D-07 MaxDP=1.71D-05 DE=-4.59D-08 OVMax= 8.54D-05

 Cycle  15  Pass 1  IDiag  1:
 RMSU=  1.33D-07    CP:  8.91D-01  2.35D+00  1.40D+00  2.76D+00  3.00D+00
                    CP:  3.00D+00  3.00D+00  2.24D+00  1.47D+00  1.64D+00
                    CP:  1.36D+00  1.89D+00  1.71D+00  1.86D+00
 E= -466.843286993227     Delta-E=       -0.000000015489 Rises=F Damp=F
 DIIS: error= 1.62D-06 at cycle  15 NSaved=  15.
 NSaved=15 IEnMin=15 EnMin= -466.843286993227     IErMin=15 ErrMin= 1.62D-06
 ErrMax= 1.62D-06  0.00D+00 EMaxC= 1.00D-01 BMatC= 1.09D-09 BMatP= 6.83D-09
 IDIUse=1 WtCom= 1.00D+00 WtEn= 0.00D+00
 Coeff-Com:  0.551D-05-0.127D-04-0.280D-04-0.127D-03 0.345D-03 0.774D-03
 Coeff-Com: -0.130D-02-0.162D-02 0.201D-02 0.138D-01 0.194D-01-0.168D-01
 Coeff-Com: -0.301D+00 0.186D+00 0.110D+01
 Coeff:      0.551D-05-0.127D-04-0.280D-04-0.127D-03 0.345D-03 0.774D-03
 Coeff:     -0.130D-02-0.162D-02 0.201D-02 0.138D-01 0.194D-01-0.168D-01
 Coeff:     -0.301D+00 0.186D+00 0.110D+01
 Gap=     0.305 Goal=   None    Shift=    0.000
 Gap=     0.305 Goal=   None    Shift=    0.000
 RMSDP=1.77D-07 MaxDP=7.19D-06 DE=-1.55D-08 OVMax= 3.92D-05

 Cycle  16  Pass 1  IDiag  1:
 RMSU=  5.81D-08    CP:  8.91D-01  2.35D+00  1.40D+00  2.76D+00  3.00D+00
                    CP:  3.00D+00  3.00D+00  2.24D+00  1.47D+00  1.64D+00
                    CP:  1.36D+00  1.89D+00  1.82D+00  2.24D+00  1.47D+00
 E= -466.843286995197     Delta-E=       -0.000000001970 Rises=F Damp=F
 DIIS: error= 3.33D-07 at cycle  16 NSaved=  16.
 NSaved=16 IEnMin=16 EnMin= -466.843286995197     IErMin=16 ErrMin= 3.33D-07
 ErrMax= 3.33D-07  0.00D+00 EMaxC= 1.00D-01 BMatC= 1.03D-10 BMatP= 1.09D-09
 IDIUse=1 WtCom= 1.00D+00 WtEn= 0.00D+00
 Coeff-Com:  0.820D-05-0.178D-04-0.104D-04 0.837D-04 0.159D-04-0.185D-03
 Coeff-Com:  0.798D-04 0.259D-03-0.660D-05-0.172D-02 0.636D-02 0.296D-01
 Coeff-Com: -0.807D-01-0.749D-01 0.279D+00 0.843D+00
 Coeff:      0.820D-05-0.178D-04-0.104D-04 0.837D-04 0.159D-04-0.185D-03
 Coeff:      0.798D-04 0.259D-03-0.660D-05-0.172D-02 0.636D-02 0.296D-01
 Coeff:     -0.807D-01-0.749D-01 0.279D+00 0.843D+00
 Gap=     0.305 Goal=   None    Shift=    0.000
 Gap=     0.305 Goal=   None    Shift=    0.000
 RMSDP=3.59D-08 MaxDP=1.66D-06 DE=-1.97D-09 OVMax= 6.22D-06

 Cycle  17  Pass 1  IDiag  1:
 RMSU=  1.59D-08    CP:  8.91D-01  2.35D+00  1.40D+00  2.76D+00  3.00D+00
                    CP:  3.00D+00  3.00D+00  2.24D+00  1.47D+00  1.64D+00
                    CP:  1.36D+00  1.89D+00  1.83D+00  2.29D+00  1.57D+00
                    CP:  1.31D+00
 E= -466.843286995276     Delta-E=       -0.000000000078 Rises=F Damp=F
 DIIS: error= 7.90D-08 at cycle  17 NSaved=  17.
 NSaved=17 IEnMin=17 EnMin= -466.843286995276     IErMin=17 ErrMin= 7.90D-08
 ErrMax= 7.90D-08  0.00D+00 EMaxC= 1.00D-01 BMatC= 1.01D-11 BMatP= 1.03D-10
 IDIUse=1 WtCom= 1.00D+00 WtEn= 0.00D+00
 Coeff-Com: -0.105D-05 0.236D-05 0.722D-06-0.399D-05-0.132D-04 0.161D-04
 Coeff-Com:  0.249D-04 0.724D-04-0.176D-03-0.120D-02-0.697D-03 0.458D-02
 Coeff-Com:  0.190D-01-0.300D-01-0.729D-01 0.146D+00 0.936D+00
 Coeff:     -0.105D-05 0.236D-05 0.722D-06-0.399D-05-0.132D-04 0.161D-04
 Coeff:      0.249D-04 0.724D-04-0.176D-03-0.120D-02-0.697D-03 0.458D-02
 Coeff:      0.190D-01-0.300D-01-0.729D-01 0.146D+00 0.936D+00
 Gap=     0.305 Goal=   None    Shift=    0.000
 Gap=     0.305 Goal=   None    Shift=    0.000
 RMSDP=1.11D-08 MaxDP=3.54D-07 DE=-7.83D-11 OVMax= 1.52D-06

 Cycle  18  Pass 1  IDiag  1:
 RMSU=  6.03D-09    CP:  8.91D-01  2.35D+00  1.40D+00  2.76D+00  3.00D+00
                    CP:  3.00D+00  3.00D+00  2.24D+00  1.47D+00  1.64D+00
                    CP:  1.36D+00  1.89D+00  1.83D+00  2.29D+00  1.61D+00
                    CP:  1.41D+00  1.22D+00
 E= -466.843286995275     Delta-E=        0.000000000001 Rises=F Damp=F
 DIIS: error= 2.89D-08 at cycle  18 NSaved=  18.
 NSaved=18 IEnMin=17 EnMin= -466.843286995276     IErMin=18 ErrMin= 2.89D-08
 ErrMax= 2.89D-08  0.00D+00 EMaxC= 1.00D-01 BMatC= 9.28D-13 BMatP= 1.01D-11
 IDIUse=1 WtCom= 1.00D+00 WtEn= 0.00D+00
 Coeff-Com:  0.502D-06-0.109D-05 0.477D-06 0.338D-05-0.136D-04-0.555D-05
 Coeff-Com:  0.826D-05 0.289D-04-0.768D-07-0.554D-04-0.786D-03-0.252D-02
 Coeff-Com:  0.107D-01 0.507D-02-0.372D-01-0.861D-01 0.749D-01 0.104D+01
 Coeff:      0.502D-06-0.109D-05 0.477D-06 0.338D-05-0.136D-04-0.555D-05
 Coeff:      0.826D-05 0.289D-04-0.768D-07-0.554D-04-0.786D-03-0.252D-02
 Coeff:      0.107D-01 0.507D-02-0.372D-01-0.861D-01 0.749D-01 0.104D+01
 Gap=     0.305 Goal=   None    Shift=    0.000
 Gap=     0.305 Goal=   None    Shift=    0.000
 RMSDP=4.33D-09 MaxDP=1.86D-07 DE= 1.02D-12 OVMax= 4.57D-07

 Error on total polarization charges =  0.01122
 SCF Done:  E(UwB97XD) =  -466.843286995     A.U. after   18 cycles
            NFock= 18  Conv=0.43D-08     -V/T= 2.0056
 <Sx>= 0.0000 <Sy>= 0.0000 <Sz>= 0.0000 <S**2>= 0.0000 S= 0.0000
 <L.S>=  0.00000000000    
 KE= 4.642408400890D+02 PE=-2.442584395286D+03 EE= 8.311885418301D+02
 --------------------------------------------------------------------
 Variational PCM results
 =======================
 <psi(f)|   H    |psi(f)>                     (a.u.) =    -466.851443
 <psi(f)|H+V(f)/2|psi(f)>                     (a.u.) =    -466.852987
 Total free energy in solution:
 - with all non electrostatic terms           (a.u.) =    -466.843287
 --------------------------------------------------------------------
 (Polarized solute)-Solvent               (kcal/mol) =      -0.97
 --------------------------------------------------------------------
 Quantum repulsion energy                 (kcal/mol) =       6.09
 Total non electrostatic                  (kcal/mol) =       6.09
 --------------------------------------------------------------------
 Partition over spheres:
 Sphere  on Atom  Surface  Charge   GEl     GCav    GDR
    1               7.20   0.011   -0.05    0.00    0.00
    2               4.74   0.007   -0.04    0.00    0.00
    3               7.52  -0.010   -0.04    0.00    0.00
    4               2.96  -0.003   -0.01    0.00    0.00
    5               5.31   0.010   -0.07    0.00    0.00
    6               4.68   0.007   -0.04    0.00    0.00
    7               4.62  -0.006   -0.03    0.00    0.00
    8               3.28  -0.004   -0.01    0.00    0.00
    9               3.12   0.002    0.00    0.00    0.00
   10               6.88  -0.007   -0.01    0.00    0.00
   11               2.56  -0.002   -0.01    0.00    0.00
   12               6.80   0.010   -0.06    0.00    0.00
   13               7.52  -0.010   -0.03    0.00    0.00
   14               7.35   0.011   -0.05    0.00    0.00
   15               7.52  -0.010   -0.04    0.00    0.00
   16               3.66   0.001    0.00    0.00    0.00
   17               3.52  -0.003   -0.01    0.00    0.00
   18               6.94  -0.008   -0.03    0.00    0.00
   19               5.10   0.010   -0.07    0.00    0.00
   20               5.35  -0.008   -0.03    0.00    0.00
   21               6.34   0.010   -0.06    0.00    0.00
   22               7.51  -0.010   -0.03    0.00    0.00
   23               3.63   0.002    0.00    0.00    0.00
   24               3.90  -0.003   -0.01    0.00    0.00
   25               6.83  -0.007   -0.01    0.00    0.00
   26               3.27   0.001    0.00    0.00    0.00
   27               6.95  -0.008   -0.03    0.00    0.00
   28               3.57  -0.004   -0.01    0.00    0.00
 Added spheres:    72.16   0.012   -0.21    0.00    0.00
 --------------------------------------------------------------------
 After PCM corrections, the energy is  -466.843286995     a.u.
 --------------------------------------------------------------------
 Annihilation of the first spin contaminant:
 S**2 before annihilation     0.0000,   after    -0.0000
 Leave Link  502 at Tue Aug  4 04:44:00 2020, MaxMem=  6442450944 cpu:            7979.7 elap:             335.3
 (Enter /scratch/scicomp/CentOS/7.3.1611/Haswell/software/Gaussian/g16/l601.exe)
 Copying SCF densities to generalized density rwf, IOpCl= 1 IROHF=0.

 **********************************************************************

            Population analysis using the SCF Density.

 **********************************************************************

 Alpha  occ. eigenvalues --  -10.28390 -10.28389 -10.28077 -10.28076 -10.28071
 Alpha  occ. eigenvalues --  -10.28071 -10.28014 -10.28012 -10.27798 -10.27797
 Alpha  occ. eigenvalues --  -10.27276 -10.27274  -0.94179  -0.93398  -0.84309
 Alpha  occ. eigenvalues --   -0.84131  -0.83575  -0.83554  -0.71452  -0.71012
 Alpha  occ. eigenvalues --   -0.67985  -0.67782  -0.59689  -0.59555  -0.57335
 Alpha  occ. eigenvalues --   -0.56447  -0.53605  -0.52729  -0.50846  -0.50844
 Alpha  occ. eigenvalues --   -0.49738  -0.49142  -0.47354  -0.46749  -0.45328
 Alpha  occ. eigenvalues --   -0.44865  -0.41254  -0.40860  -0.39693  -0.39140
 Alpha  occ. eigenvalues --   -0.39075  -0.38729  -0.29793  -0.27101
 Alpha virt. eigenvalues --    0.03351   0.05582   0.11397   0.13139   0.14402
 Alpha virt. eigenvalues --    0.15526   0.15546   0.16450   0.16578   0.16910
 Alpha virt. eigenvalues --    0.17509   0.17667   0.18191   0.19198   0.20926
 Alpha virt. eigenvalues --    0.22189   0.22333   0.23690   0.24268   0.24679
 Alpha virt. eigenvalues --    0.25475   0.26222   0.26585   0.27371   0.28546
 Alpha virt. eigenvalues --    0.29144   0.29722   0.29996   0.30968   0.31194
 Alpha virt. eigenvalues --    0.31848   0.32393   0.32910   0.33337   0.34396
 Alpha virt. eigenvalues --    0.34540   0.35081   0.36455   0.36684   0.37909
 Alpha virt. eigenvalues --    0.38791   0.39494   0.41495   0.41938   0.42403
 Alpha virt. eigenvalues --    0.42501   0.44517   0.44796   0.45832   0.46459
 Alpha virt. eigenvalues --    0.47243   0.47799   0.48634   0.48697   0.49247
 Alpha virt. eigenvalues --    0.49558   0.49660   0.49720   0.50419   0.50831
 Alpha virt. eigenvalues --    0.51271   0.51295   0.52699   0.52852   0.53448
 Alpha virt. eigenvalues --    0.53953   0.54894   0.54988   0.55894   0.55966
 Alpha virt. eigenvalues --    0.57660   0.58132   0.58167   0.59732   0.60865
 Alpha virt. eigenvalues --    0.61079   0.61451   0.62288   0.63627   0.65590
 Alpha virt. eigenvalues --    0.66331   0.67095   0.68552   0.68587   0.68949
 Alpha virt. eigenvalues --    0.69518   0.72775   0.73657   0.74522   0.75384
 Alpha virt. eigenvalues --    0.78367   0.78508   0.78887   0.80296   0.80578
 Alpha virt. eigenvalues --    0.81944   0.83013   0.83939   0.86858   0.87885
 Alpha virt. eigenvalues --    0.90139   0.90739   0.90889   0.92559   0.93460
 Alpha virt. eigenvalues --    0.94766   0.96216   0.96986   0.98630   0.99205
 Alpha virt. eigenvalues --    1.01361   1.03871   1.05039   1.05420   1.05514
 Alpha virt. eigenvalues --    1.07089   1.07976   1.08206   1.10267   1.11306
 Alpha virt. eigenvalues --    1.12947   1.13682   1.14389   1.15311   1.16359
 Alpha virt. eigenvalues --    1.16963   1.17744   1.18579   1.19234   1.20209
 Alpha virt. eigenvalues --    1.20579   1.21257   1.23832   1.25167   1.25325
 Alpha virt. eigenvalues --    1.26070   1.26698   1.28149   1.28877   1.29097
 Alpha virt. eigenvalues --    1.29906   1.31785   1.31823   1.32620   1.32890
 Alpha virt. eigenvalues --    1.34395   1.35044   1.37303   1.37918   1.37922
 Alpha virt. eigenvalues --    1.38712   1.39417   1.41183   1.41261   1.42320
 Alpha virt. eigenvalues --    1.43101   1.43423   1.43666   1.44299   1.45062
 Alpha virt. eigenvalues --    1.45737   1.46291   1.47534   1.48552   1.49268
 Alpha virt. eigenvalues --    1.49731   1.51370   1.53254   1.54278   1.56418
 Alpha virt. eigenvalues --    1.58320   1.58382   1.59354   1.60739   1.61679
 Alpha virt. eigenvalues --    1.62721   1.63762   1.64049   1.66282   1.67156
 Alpha virt. eigenvalues --    1.68390   1.71007   1.74642   1.74692   1.78670
 Alpha virt. eigenvalues --    1.80646   1.80951   1.81969   1.83521   1.85559
 Alpha virt. eigenvalues --    1.87292   1.88068   1.90683   1.91545   1.92956
 Alpha virt. eigenvalues --    1.93059   1.97354   1.98319   1.99971   2.00849
 Alpha virt. eigenvalues --    2.03093   2.03657   2.09207   2.09290   2.09921
 Alpha virt. eigenvalues --    2.12255   2.12402   2.12731   2.15401   2.15723
 Alpha virt. eigenvalues --    2.17734   2.20558   2.20830   2.21547   2.23057
 Alpha virt. eigenvalues --    2.23834   2.25016   2.25547   2.27886   2.28829
 Alpha virt. eigenvalues --    2.33922   2.36268   2.38225   2.40172   2.42115
 Alpha virt. eigenvalues --    2.44069   2.45453   2.45524   2.49268   2.49595
 Alpha virt. eigenvalues --    2.50544   2.50558   2.52732   2.55358   2.55645
 Alpha virt. eigenvalues --    2.57444   2.57766   2.59449   2.62080   2.62658
 Alpha virt. eigenvalues --    2.62865   2.64738   2.65517   2.65584   2.66120
 Alpha virt. eigenvalues --    2.66961   2.67834   2.71219   2.72544   2.73032
 Alpha virt. eigenvalues --    2.73183   2.74521   2.75333   2.75967   2.77079
 Alpha virt. eigenvalues --    2.78166   2.78891   2.80481   2.80817   2.81441
 Alpha virt. eigenvalues --    2.82181   2.82915   2.83358   2.84478   2.85745
 Alpha virt. eigenvalues --    2.86282   2.87423   2.87595   2.88326   2.90175
 Alpha virt. eigenvalues --    2.91527   2.92326   2.92762   2.93695   2.94979
 Alpha virt. eigenvalues --    2.96108   2.96298   2.96836   2.97909   3.01254
 Alpha virt. eigenvalues --    3.01396   3.02630   3.03695   3.05420   3.05951
 Alpha virt. eigenvalues --    3.07371   3.09265   3.09868   3.10964   3.11239
 Alpha virt. eigenvalues --    3.11890   3.13328   3.13832   3.14821   3.15773
 Alpha virt. eigenvalues --    3.15791   3.16908   3.17191   3.18935   3.19049
 Alpha virt. eigenvalues --    3.20232   3.20865   3.20973   3.21286   3.21572
 Alpha virt. eigenvalues --    3.22380   3.23093   3.23279   3.24123   3.25117
 Alpha virt. eigenvalues --    3.25850   3.26437   3.27358   3.27431   3.28126
 Alpha virt. eigenvalues --    3.28623   3.30424   3.31122   3.31840   3.32352
 Alpha virt. eigenvalues --    3.32444   3.33273   3.33891   3.35317   3.36082
 Alpha virt. eigenvalues --    3.36375   3.36844   3.37893   3.38839   3.39130
 Alpha virt. eigenvalues --    3.42448   3.42714   3.43356   3.44346   3.44747
 Alpha virt. eigenvalues --    3.45820   3.46002   3.46964   3.47526   3.47616
 Alpha virt. eigenvalues --    3.48514   3.49707   3.49996   3.51366   3.52889
 Alpha virt. eigenvalues --    3.53645   3.53741   3.54933   3.55155   3.56139
 Alpha virt. eigenvalues --    3.57840   3.59152   3.59386   3.61591   3.65663
 Alpha virt. eigenvalues --    3.65797   3.66764   3.67658   3.68580   3.69607
 Alpha virt. eigenvalues --    3.70945   3.71141   3.72912   3.73411   3.74228
 Alpha virt. eigenvalues --    3.78434   3.78475   3.79738   3.81682   3.84031
 Alpha virt. eigenvalues --    3.85428   3.85480   3.85780   3.87326   3.88472
 Alpha virt. eigenvalues --    3.90248   3.91618   3.93622   3.94585   3.96394
 Alpha virt. eigenvalues --    3.99022   4.01241   4.01667   4.02961   4.05479
 Alpha virt. eigenvalues --    4.07139   4.08681   4.09310   4.09461   4.11230
 Alpha virt. eigenvalues --    4.12671   4.13233   4.15260   4.15665   4.18727
 Alpha virt. eigenvalues --    4.19177   4.21797   4.22196   4.22947   4.25786
 Alpha virt. eigenvalues --    4.26658   4.27149   4.31423   4.31526   4.35856
 Alpha virt. eigenvalues --    4.36144   4.38158   4.39259   4.40883   4.42585
 Alpha virt. eigenvalues --    4.45399   4.46821   4.48889   4.49811   4.53172
 Alpha virt. eigenvalues --    4.54984   4.59711   4.61770   4.65674   4.67850
 Alpha virt. eigenvalues --    4.69027   4.69657   4.73228   4.74600   4.76366
 Alpha virt. eigenvalues --    4.78108   4.80571   4.82157   4.84832   4.85195
 Alpha virt. eigenvalues --    4.85672   4.87785   4.92931   4.95491   4.95645
 Alpha virt. eigenvalues --    4.98347   5.01748   5.01846   5.07344   5.08127
 Alpha virt. eigenvalues --    5.14266   5.16464   5.19259   5.22354   5.23084
 Alpha virt. eigenvalues --    5.23834   5.33763   5.34240   5.41569   5.42792
 Alpha virt. eigenvalues --    5.44963   5.45433   5.50838   5.53450   5.70864
 Alpha virt. eigenvalues --    5.71560   5.77360   5.79431   5.96201   6.02657
 Alpha virt. eigenvalues --    7.94616   7.95501   8.01202   8.04469   8.05306
 Alpha virt. eigenvalues --    8.09620   8.09793   8.13219   8.17143   8.19544
 Alpha virt. eigenvalues --    8.35746   8.36386  34.76568  34.77882  34.81399
 Alpha virt. eigenvalues --   34.81824  34.84975  34.90324  34.96101  34.99968
 Alpha virt. eigenvalues --   35.01623  35.02107  35.17479  35.18324
  Beta  occ. eigenvalues --  -10.28390 -10.28389 -10.28077 -10.28076 -10.28071
  Beta  occ. eigenvalues --  -10.28071 -10.28014 -10.28012 -10.27798 -10.27797
  Beta  occ. eigenvalues --  -10.27276 -10.27274  -0.94179  -0.93398  -0.84309
  Beta  occ. eigenvalues --   -0.84131  -0.83575  -0.83554  -0.71452  -0.71012
  Beta  occ. eigenvalues --   -0.67985  -0.67782  -0.59689  -0.59555  -0.57335
  Beta  occ. eigenvalues --   -0.56447  -0.53605  -0.52729  -0.50846  -0.50844
  Beta  occ. eigenvalues --   -0.49738  -0.49142  -0.47354  -0.46749  -0.45328
  Beta  occ. eigenvalues --   -0.44865  -0.41254  -0.40860  -0.39693  -0.39140
  Beta  occ. eigenvalues --   -0.39075  -0.38729  -0.29793  -0.27101
  Beta virt. eigenvalues --    0.03351   0.05582   0.11397   0.13139   0.14402
  Beta virt. eigenvalues --    0.15526   0.15546   0.16450   0.16578   0.16910
  Beta virt. eigenvalues --    0.17509   0.17667   0.18191   0.19198   0.20926
  Beta virt. eigenvalues --    0.22189   0.22333   0.23690   0.24268   0.24679
  Beta virt. eigenvalues --    0.25475   0.26222   0.26585   0.27371   0.28546
  Beta virt. eigenvalues --    0.29144   0.29722   0.29996   0.30968   0.31194
  Beta virt. eigenvalues --    0.31848   0.32393   0.32910   0.33337   0.34396
  Beta virt. eigenvalues --    0.34540   0.35081   0.36455   0.36684   0.37909
  Beta virt. eigenvalues --    0.38791   0.39494   0.41495   0.41938   0.42403
  Beta virt. eigenvalues --    0.42501   0.44517   0.44796   0.45832   0.46459
  Beta virt. eigenvalues --    0.47243   0.47799   0.48634   0.48697   0.49247
  Beta virt. eigenvalues --    0.49558   0.49660   0.49720   0.50419   0.50831
  Beta virt. eigenvalues --    0.51271   0.51295   0.52699   0.52852   0.53448
  Beta virt. eigenvalues --    0.53953   0.54894   0.54988   0.55894   0.55966
  Beta virt. eigenvalues --    0.57660   0.58132   0.58167   0.59732   0.60865
  Beta virt. eigenvalues --    0.61079   0.61451   0.62288   0.63627   0.65590
  Beta virt. eigenvalues --    0.66331   0.67095   0.68552   0.68587   0.68949
  Beta virt. eigenvalues --    0.69518   0.72775   0.73657   0.74522   0.75384
  Beta virt. eigenvalues --    0.78367   0.78508   0.78887   0.80296   0.80578
  Beta virt. eigenvalues --    0.81944   0.83013   0.83939   0.86858   0.87885
  Beta virt. eigenvalues --    0.90139   0.90739   0.90889   0.92559   0.93460
  Beta virt. eigenvalues --    0.94766   0.96216   0.96986   0.98630   0.99205
  Beta virt. eigenvalues --    1.01361   1.03871   1.05039   1.05420   1.05514
  Beta virt. eigenvalues --    1.07089   1.07976   1.08206   1.10267   1.11306
  Beta virt. eigenvalues --    1.12947   1.13682   1.14389   1.15311   1.16359
  Beta virt. eigenvalues --    1.16963   1.17744   1.18579   1.19234   1.20209
  Beta virt. eigenvalues --    1.20579   1.21257   1.23832   1.25167   1.25325
  Beta virt. eigenvalues --    1.26070   1.26698   1.28149   1.28877   1.29097
  Beta virt. eigenvalues --    1.29906   1.31785   1.31823   1.32620   1.32890
  Beta virt. eigenvalues --    1.34395   1.35044   1.37303   1.37918   1.37922
  Beta virt. eigenvalues --    1.38712   1.39417   1.41183   1.41261   1.42320
  Beta virt. eigenvalues --    1.43101   1.43423   1.43666   1.44299   1.45062
  Beta virt. eigenvalues --    1.45737   1.46291   1.47534   1.48552   1.49268
  Beta virt. eigenvalues --    1.49731   1.51370   1.53254   1.54278   1.56418
  Beta virt. eigenvalues --    1.58320   1.58382   1.59354   1.60739   1.61679
  Beta virt. eigenvalues --    1.62721   1.63762   1.64049   1.66282   1.67156
  Beta virt. eigenvalues --    1.68390   1.71007   1.74642   1.74692   1.78670
  Beta virt. eigenvalues --    1.80646   1.80951   1.81969   1.83521   1.85559
  Beta virt. eigenvalues --    1.87292   1.88068   1.90683   1.91545   1.92956
  Beta virt. eigenvalues --    1.93059   1.97354   1.98319   1.99971   2.00849
  Beta virt. eigenvalues --    2.03093   2.03657   2.09207   2.09290   2.09921
  Beta virt. eigenvalues --    2.12255   2.12402   2.12731   2.15401   2.15723
  Beta virt. eigenvalues --    2.17734   2.20558   2.20830   2.21547   2.23057
  Beta virt. eigenvalues --    2.23834   2.25016   2.25547   2.27886   2.28829
  Beta virt. eigenvalues --    2.33922   2.36268   2.38225   2.40172   2.42115
  Beta virt. eigenvalues --    2.44069   2.45453   2.45524   2.49268   2.49595
  Beta virt. eigenvalues --    2.50544   2.50558   2.52732   2.55358   2.55645
  Beta virt. eigenvalues --    2.57444   2.57766   2.59449   2.62080   2.62658
  Beta virt. eigenvalues --    2.62865   2.64738   2.65517   2.65584   2.66120
  Beta virt. eigenvalues --    2.66961   2.67834   2.71219   2.72544   2.73032
  Beta virt. eigenvalues --    2.73183   2.74521   2.75333   2.75967   2.77079
  Beta virt. eigenvalues --    2.78166   2.78891   2.80481   2.80817   2.81441
  Beta virt. eigenvalues --    2.82181   2.82915   2.83358   2.84478   2.85745
  Beta virt. eigenvalues --    2.86282   2.87423   2.87595   2.88326   2.90175
  Beta virt. eigenvalues --    2.91527   2.92326   2.92762   2.93695   2.94979
  Beta virt. eigenvalues --    2.96108   2.96298   2.96836   2.97909   3.01254
  Beta virt. eigenvalues --    3.01396   3.02630   3.03695   3.05420   3.05951
  Beta virt. eigenvalues --    3.07371   3.09265   3.09868   3.10964   3.11239
  Beta virt. eigenvalues --    3.11890   3.13328   3.13832   3.14821   3.15773
  Beta virt. eigenvalues --    3.15791   3.16908   3.17191   3.18935   3.19049
  Beta virt. eigenvalues --    3.20232   3.20865   3.20973   3.21286   3.21572
  Beta virt. eigenvalues --    3.22380   3.23093   3.23279   3.24123   3.25117
  Beta virt. eigenvalues --    3.25850   3.26437   3.27358   3.27431   3.28126
  Beta virt. eigenvalues --    3.28623   3.30424   3.31122   3.31840   3.32352
  Beta virt. eigenvalues --    3.32444   3.33273   3.33891   3.35317   3.36082
  Beta virt. eigenvalues --    3.36375   3.36844   3.37893   3.38839   3.39130
  Beta virt. eigenvalues --    3.42448   3.42714   3.43356   3.44346   3.44747
  Beta virt. eigenvalues --    3.45820   3.46002   3.46964   3.47526   3.47616
  Beta virt. eigenvalues --    3.48514   3.49707   3.49996   3.51366   3.52889
  Beta virt. eigenvalues --    3.53645   3.53741   3.54933   3.55155   3.56139
  Beta virt. eigenvalues --    3.57840   3.59152   3.59386   3.61591   3.65663
  Beta virt. eigenvalues --    3.65797   3.66764   3.67658   3.68580   3.69607
  Beta virt. eigenvalues --    3.70945   3.71141   3.72912   3.73411   3.74228
  Beta virt. eigenvalues --    3.78434   3.78475   3.79738   3.81682   3.84031
  Beta virt. eigenvalues --    3.85428   3.85480   3.85780   3.87326   3.88472
  Beta virt. eigenvalues --    3.90248   3.91618   3.93622   3.94585   3.96394
  Beta virt. eigenvalues --    3.99022   4.01241   4.01667   4.02961   4.05479
  Beta virt. eigenvalues --    4.07139   4.08681   4.09310   4.09461   4.11230
  Beta virt. eigenvalues --    4.12671   4.13233   4.15260   4.15665   4.18727
  Beta virt. eigenvalues --    4.19177   4.21797   4.22196   4.22947   4.25786
  Beta virt. eigenvalues --    4.26658   4.27149   4.31423   4.31526   4.35856
  Beta virt. eigenvalues --    4.36144   4.38158   4.39259   4.40883   4.42585
  Beta virt. eigenvalues --    4.45399   4.46821   4.48889   4.49811   4.53172
  Beta virt. eigenvalues --    4.54984   4.59711   4.61770   4.65674   4.67850
  Beta virt. eigenvalues --    4.69027   4.69657   4.73228   4.74600   4.76366
  Beta virt. eigenvalues --    4.78108   4.80571   4.82157   4.84832   4.85195
  Beta virt. eigenvalues --    4.85672   4.87785   4.92931   4.95491   4.95645
  Beta virt. eigenvalues --    4.98347   5.01748   5.01846   5.07344   5.08127
  Beta virt. eigenvalues --    5.14266   5.16464   5.19259   5.22354   5.23084
  Beta virt. eigenvalues --    5.23834   5.33763   5.34240   5.41569   5.42792
  Beta virt. eigenvalues --    5.44963   5.45433   5.50838   5.53450   5.70864
  Beta virt. eigenvalues --    5.71560   5.77360   5.79431   5.96201   6.02657
  Beta virt. eigenvalues --    7.94616   7.95501   8.01202   8.04469   8.05306
  Beta virt. eigenvalues --    8.09620   8.09793   8.13219   8.17143   8.19544
  Beta virt. eigenvalues --    8.35746   8.36386  34.76568  34.77882  34.81399
  Beta virt. eigenvalues --   34.81824  34.84975  34.90324  34.96101  34.99968
  Beta virt. eigenvalues --   35.01623  35.02107  35.17479  35.18324
          Condensed to atoms (all electrons):
               1          2          3          4          5          6
     1  C    5.144711  -0.001288   0.423984  -0.001772   0.001537  -0.006784
     2  C   -0.001288   5.381848  -0.002238   0.426023  -0.042407  -0.027170
     3  H    0.423984  -0.002238   0.491593   0.000026  -0.000043   0.000009
     4  H   -0.001772   0.426023   0.000026   0.462048  -0.006201   0.003153
     5  C    0.001537  -0.042407  -0.000043  -0.006201   5.198147   0.485592
     6  C   -0.006784  -0.027170   0.000009   0.003153   0.485592   5.381411
     7  H    0.000310  -0.002422   0.000001  -0.000068   0.425626  -0.026461
     8  H   -0.002076   0.003122  -0.000039   0.000034  -0.038357   0.425891
     9  C    0.002275  -0.010492  -0.000006  -0.001917  -0.056183   0.202193
    10  H   -0.000044   0.000866  -0.000001  -0.000173  -0.005330  -0.036664
    11  H    0.000089  -0.006710   0.000002   0.000317   0.009675  -0.061621
    12  C   -0.000184   0.012384   0.000002   0.002305   0.285503  -0.067539
    13  H   -0.000001   0.000056   0.000000   0.000025  -0.036411   0.004933
    14  C    0.000170  -0.006713  -0.000000  -0.002120  -0.047861  -0.001311
    15  H   -0.000000   0.000010  -0.000000  -0.000039   0.007091  -0.002228
    16  C   -0.000640   0.014304   0.000000   0.000670  -0.002863  -0.057144
    17  H   -0.000030  -0.000122  -0.000000  -0.001877   0.009108  -0.001761
    18  H    0.000003   0.000425   0.000000   0.000277  -0.003209   0.011646
    19  C   -0.047850   0.485326   0.007097  -0.038612  -0.018196  -0.042449
    20  H    0.003688  -0.025841  -0.000079  -0.004032   0.000348  -0.002453
    21  C    0.577787  -0.067451  -0.031536   0.004651   0.002042   0.012434
    22  H   -0.025243   0.005009  -0.005666  -0.000048   0.000027   0.000055
    23  C   -0.081866   0.202553   0.005192  -0.012203   0.011494  -0.010554
    24  H    0.013633  -0.061671  -0.000077  -0.003886   0.000862  -0.006716
    25  H    0.003763  -0.036601  -0.000051  -0.000690   0.000674   0.000867
    26  C    0.274646  -0.057140  -0.029102   0.003584  -0.007908   0.014335
    27  H   -0.038869   0.011654  -0.004368  -0.000079   0.000271   0.000423
    28  H   -0.034929  -0.001770   0.000970  -0.000134  -0.003460  -0.000138
               7          8          9         10         11         12
     1  C    0.000310  -0.002076   0.002275  -0.000044   0.000089  -0.000184
     2  C   -0.002422   0.003122  -0.010492   0.000866  -0.006710   0.012384
     3  H    0.000001  -0.000039  -0.000006  -0.000001   0.000002   0.000002
     4  H   -0.000068   0.000034  -0.001917  -0.000173   0.000317   0.002305
     5  C    0.425626  -0.038357  -0.056183  -0.005330   0.009675   0.285503
     6  C   -0.026461   0.425891   0.202193  -0.036664  -0.061621  -0.067539
     7  H    0.474277  -0.004049   0.002789  -0.000250  -0.000012  -0.029408
     8  H   -0.004049   0.462443  -0.012360  -0.000697  -0.003881   0.004645
     9  C    0.002789  -0.012360   5.003998   0.386840   0.466710   0.036950
    10  H   -0.000250  -0.000697   0.386840   0.569076  -0.020671   0.001421
    11  H   -0.000012  -0.003881   0.466710  -0.020671   0.530563  -0.004821
    12  C   -0.029408   0.004645   0.036950   0.001421  -0.004821   5.011851
    13  H   -0.003198  -0.000049  -0.000264  -0.000053   0.000025   0.425366
    14  C    0.003662  -0.001764  -0.081820   0.003766   0.013632   0.577681
    15  H   -0.000080   0.000026   0.005189  -0.000050  -0.000077  -0.031580
    16  C   -0.000897   0.003583   0.339660  -0.021105  -0.058021  -0.054909
    17  H    0.000014  -0.000133  -0.031683   0.006475  -0.008067  -0.014074
    18  H    0.000027  -0.000080  -0.044514  -0.009064  -0.000615   0.006229
    19  C    0.000348  -0.006304   0.011520   0.000672   0.000842   0.002055
    20  H    0.000009  -0.000070   0.002928   0.000258  -0.001767  -0.000153
    21  C   -0.000154   0.002389  -0.002786  -0.000050  -0.000032  -0.000329
    22  H   -0.000001   0.000026  -0.000066  -0.000001   0.000000  -0.000000
    23  C    0.002875  -0.001922   0.001782  -0.000042   0.000334  -0.002765
    24  H   -0.001746   0.000316   0.000336  -0.000013  -0.000022  -0.000034
    25  H    0.000258  -0.000174  -0.000043   0.000005  -0.000013  -0.000049
    26  C   -0.001884   0.000686  -0.001032   0.000070  -0.000118   0.001066
    27  H   -0.000023   0.000278  -0.000020   0.000000  -0.000001  -0.000042
    28  H    0.001593  -0.001923   0.000495  -0.000000   0.000006   0.000450
              13         14         15         16         17         18
     1  C   -0.000001   0.000170  -0.000000  -0.000640  -0.000030   0.000003
     2  C    0.000056  -0.006713   0.000010   0.014304  -0.000122   0.000425
     3  H    0.000000  -0.000000  -0.000000   0.000000  -0.000000   0.000000
     4  H    0.000025  -0.002120  -0.000039   0.000670  -0.001877   0.000277
     5  C   -0.036411  -0.047861   0.007091  -0.002863   0.009108  -0.003209
     6  C    0.004933  -0.001311  -0.002228  -0.057144  -0.001761   0.011646
     7  H   -0.003198   0.003662  -0.000080  -0.000897   0.000014   0.000027
     8  H   -0.000049  -0.001764   0.000026   0.003583  -0.000133  -0.000080
     9  C   -0.000264  -0.081820   0.005189   0.339660  -0.031683  -0.044514
    10  H   -0.000053   0.003766  -0.000050  -0.021105   0.006475  -0.009064
    11  H    0.000025   0.013632  -0.000077  -0.058021  -0.008067  -0.000615
    12  C    0.425366   0.577681  -0.031580  -0.054909  -0.014074   0.006229
    13  H    0.488810  -0.025452  -0.005666   0.004259  -0.000375  -0.000089
    14  C   -0.025452   5.145043   0.424011   0.274483  -0.034998  -0.038871
    15  H   -0.005666   0.424011   0.491593  -0.029092   0.000971  -0.004372
    16  C    0.004259   0.274483  -0.029092   4.946658   0.400895   0.437123
    17  H   -0.000375  -0.034998   0.000971   0.400895   0.582511  -0.022171
    18  H   -0.000089  -0.038871  -0.004372   0.437123  -0.022171   0.537218
    19  C    0.000027   0.001514  -0.000043  -0.007893  -0.003483   0.000270
    20  H   -0.000001   0.000311   0.000001  -0.001901   0.001588  -0.000023
    21  C   -0.000000  -0.000184   0.000002   0.001063   0.000450  -0.000043
    22  H    0.000000  -0.000001   0.000000   0.000017  -0.000000  -0.000001
    23  C   -0.000069   0.002274  -0.000006  -0.001028   0.000496  -0.000020
    24  H    0.000002   0.000090   0.000002  -0.000117   0.000006  -0.000001
    25  H   -0.000001  -0.000045  -0.000001   0.000070  -0.000000   0.000000
    26  C    0.000017  -0.000640   0.000000   0.000878   0.000045  -0.000004
    27  H   -0.000001   0.000003   0.000000  -0.000004   0.000002  -0.000000
    28  H   -0.000000  -0.000030  -0.000000   0.000046  -0.000016   0.000002
              19         20         21         22         23         24
     1  C   -0.047850   0.003688   0.577787  -0.025243  -0.081866   0.013633
     2  C    0.485326  -0.025841  -0.067451   0.005009   0.202553  -0.061671
     3  H    0.007097  -0.000079  -0.031536  -0.005666   0.005192  -0.000077
     4  H   -0.038612  -0.004032   0.004651  -0.000048  -0.012203  -0.003886
     5  C   -0.018196   0.000348   0.002042   0.000027   0.011494   0.000862
     6  C   -0.042449  -0.002453   0.012434   0.000055  -0.010554  -0.006716
     7  H    0.000348   0.000009  -0.000154  -0.000001   0.002875  -0.001746
     8  H   -0.006304  -0.000070   0.002389   0.000026  -0.001922   0.000316
     9  C    0.011520   0.002928  -0.002786  -0.000066   0.001782   0.000336
    10  H    0.000672   0.000258  -0.000050  -0.000001  -0.000042  -0.000013
    11  H    0.000842  -0.001767  -0.000032   0.000000   0.000334  -0.000022
    12  C    0.002055  -0.000153  -0.000329  -0.000000  -0.002765  -0.000034
    13  H    0.000027  -0.000001  -0.000000   0.000000  -0.000069   0.000002
    14  C    0.001514   0.000311  -0.000184  -0.000001   0.002274   0.000090
    15  H   -0.000043   0.000001   0.000002   0.000000  -0.000006   0.000002
    16  C   -0.007893  -0.001901   0.001063   0.000017  -0.001028  -0.000117
    17  H   -0.003483   0.001588   0.000450  -0.000000   0.000496   0.000006
    18  H    0.000270  -0.000023  -0.000043  -0.000001  -0.000020  -0.000001
    19  C    5.198901   0.425201   0.285023  -0.036551  -0.056436   0.009705
    20  H    0.425201   0.474000  -0.029595  -0.003191   0.002775  -0.000012
    21  C    0.285023  -0.029595   5.012254   0.425226   0.036985  -0.004823
    22  H   -0.036551  -0.003191   0.425226   0.488782  -0.000269   0.000025
    23  C   -0.056436   0.002775   0.036985  -0.000269   5.004005   0.466753
    24  H    0.009705  -0.000012  -0.004823   0.000025   0.466753   0.530316
    25  H   -0.005320  -0.000250   0.001422  -0.000054   0.386708  -0.020628
    26  C   -0.002910  -0.000900  -0.055017   0.004267   0.339702  -0.058013
    27  H   -0.003211   0.000027   0.006243  -0.000089  -0.044539  -0.000620
    28  H    0.009133   0.000014  -0.014105  -0.000375  -0.031725  -0.008054
              25         26         27         28
     1  C    0.003763   0.274646  -0.038869  -0.034929
     2  C   -0.036601  -0.057140   0.011654  -0.001770
     3  H   -0.000051  -0.029102  -0.004368   0.000970
     4  H   -0.000690   0.003584  -0.000079  -0.000134
     5  C    0.000674  -0.007908   0.000271  -0.003460
     6  C    0.000867   0.014335   0.000423  -0.000138
     7  H    0.000258  -0.001884  -0.000023   0.001593
     8  H   -0.000174   0.000686   0.000278  -0.001923
     9  C   -0.000043  -0.001032  -0.000020   0.000495
    10  H    0.000005   0.000070   0.000000  -0.000000
    11  H   -0.000013  -0.000118  -0.000001   0.000006
    12  C   -0.000049   0.001066  -0.000042   0.000450
    13  H   -0.000001   0.000017  -0.000001  -0.000000
    14  C   -0.000045  -0.000640   0.000003  -0.000030
    15  H   -0.000001   0.000000   0.000000  -0.000000
    16  C    0.000070   0.000878  -0.000004   0.000046
    17  H   -0.000000   0.000045   0.000002  -0.000016
    18  H    0.000000  -0.000004  -0.000000   0.000002
    19  C   -0.005320  -0.002910  -0.003211   0.009133
    20  H   -0.000250  -0.000900   0.000027   0.000014
    21  C    0.001422  -0.055017   0.006243  -0.014105
    22  H   -0.000054   0.004267  -0.000089  -0.000375
    23  C    0.386708   0.339702  -0.044539  -0.031725
    24  H   -0.020628  -0.058013  -0.000620  -0.008054
    25  H    0.569120  -0.021104  -0.009059   0.006471
    26  C   -0.021104   4.946774   0.437106   0.400915
    27  H   -0.009059   0.437106   0.537211  -0.022154
    28  H    0.006471   0.400915  -0.022154   0.582311
          Atomic-Atomic Spin Densities.
               1          2          3          4          5          6
     1  C   -0.000000  -0.000000  -0.000000   0.000000   0.000000   0.000000
     2  C   -0.000000   0.000000   0.000000   0.000000  -0.000000   0.000000
     3  H   -0.000000   0.000000   0.000000  -0.000000  -0.000000   0.000000
     4  H    0.000000   0.000000  -0.000000  -0.000000  -0.000000   0.000000
     5  C    0.000000  -0.000000  -0.000000  -0.000000   0.000000  -0.000000
     6  C    0.000000   0.000000   0.000000   0.000000  -0.000000  -0.000000
     7  H   -0.000000   0.000000   0.000000  -0.000000  -0.000000   0.000000
     8  H    0.000000  -0.000000  -0.000000  -0.000000   0.000000  -0.000000
     9  C   -0.000000   0.000000  -0.000000  -0.000000  -0.000000   0.000000
    10  H    0.000000   0.000000  -0.000000   0.000000  -0.000000  -0.000000
    11  H    0.000000  -0.000000  -0.000000  -0.000000   0.000000  -0.000000
    12  C   -0.000000   0.000000   0.000000   0.000000  -0.000000   0.000000
    13  H   -0.000000   0.000000   0.000000   0.000000   0.000000  -0.000000
    14  C    0.000000  -0.000000  -0.000000  -0.000000  -0.000000   0.000000
    15  H    0.000000  -0.000000   0.000000   0.000000   0.000000  -0.000000
    16  C   -0.000000   0.000000   0.000000   0.000000  -0.000000  -0.000000
    17  H    0.000000  -0.000000  -0.000000   0.000000   0.000000  -0.000000
    18  H   -0.000000   0.000000  -0.000000   0.000000  -0.000000  -0.000000
    19  C    0.000000   0.000000  -0.000000  -0.000000  -0.000000   0.000000
    20  H    0.000000  -0.000000   0.000000   0.000000  -0.000000  -0.000000
    21  C    0.000000  -0.000000   0.000000  -0.000000   0.000000  -0.000000
    22  H   -0.000000   0.000000  -0.000000  -0.000000  -0.000000  -0.000000
    23  C   -0.000000  -0.000000   0.000000  -0.000000  -0.000000  -0.000000
    24  H   -0.000000   0.000000  -0.000000  -0.000000   0.000000   0.000000
    25  H   -0.000000   0.000000   0.000000   0.000000   0.000000  -0.000000
    26  C    0.000000   0.000000  -0.000000  -0.000000   0.000000  -0.000000
    27  H    0.000000   0.000000  -0.000000   0.000000   0.000000  -0.000000
    28  H   -0.000000   0.000000   0.000000   0.000000  -0.000000   0.000000
               7          8          9         10         11         12
     1  C   -0.000000   0.000000  -0.000000   0.000000   0.000000  -0.000000
     2  C    0.000000  -0.000000   0.000000   0.000000  -0.000000   0.000000
     3  H    0.000000  -0.000000  -0.000000  -0.000000  -0.000000   0.000000
     4  H   -0.000000  -0.000000  -0.000000   0.000000  -0.000000   0.000000
     5  C   -0.000000   0.000000  -0.000000  -0.000000   0.000000  -0.000000
     6  C    0.000000  -0.000000   0.000000  -0.000000  -0.000000   0.000000
     7  H    0.000000  -0.000000   0.000000  -0.000000  -0.000000   0.000000
     8  H   -0.000000   0.000000   0.000000  -0.000000   0.000000   0.000000
     9  C    0.000000   0.000000  -0.000001  -0.000000   0.000000  -0.000000
    10  H   -0.000000  -0.000000  -0.000000   0.000000  -0.000000  -0.000000
    11  H   -0.000000   0.000000   0.000000  -0.000000   0.000000  -0.000000
    12  C    0.000000   0.000000  -0.000000  -0.000000  -0.000000  -0.000000
    13  H    0.000000   0.000000   0.000000  -0.000000   0.000000  -0.000000
    14  C   -0.000000  -0.000000   0.000000   0.000000   0.000000  -0.000000
    15  H   -0.000000   0.000000  -0.000000  -0.000000   0.000000  -0.000000
    16  C   -0.000000   0.000000   0.000000  -0.000000  -0.000000   0.000000
    17  H   -0.000000  -0.000000   0.000000   0.000000  -0.000000   0.000000
    18  H    0.000000  -0.000000   0.000000  -0.000000  -0.000000  -0.000000
    19  C    0.000000   0.000000   0.000000   0.000000  -0.000000  -0.000000
    20  H   -0.000000   0.000000   0.000000  -0.000000   0.000000   0.000000
    21  C   -0.000000  -0.000000  -0.000000  -0.000000   0.000000   0.000000
    22  H   -0.000000  -0.000000  -0.000000   0.000000   0.000000   0.000000
    23  C   -0.000000   0.000000   0.000000  -0.000000   0.000000   0.000000
    24  H   -0.000000   0.000000  -0.000000   0.000000  -0.000000  -0.000000
    25  H    0.000000  -0.000000   0.000000  -0.000000  -0.000000   0.000000
    26  C    0.000000  -0.000000   0.000000   0.000000   0.000000  -0.000000
    27  H   -0.000000  -0.000000  -0.000000   0.000000   0.000000  -0.000000
    28  H    0.000000  -0.000000   0.000000  -0.000000  -0.000000   0.000000
              13         14         15         16         17         18
     1  C   -0.000000   0.000000   0.000000  -0.000000   0.000000  -0.000000
     2  C    0.000000  -0.000000  -0.000000   0.000000  -0.000000   0.000000
     3  H    0.000000  -0.000000   0.000000   0.000000  -0.000000  -0.000000
     4  H    0.000000  -0.000000   0.000000   0.000000   0.000000   0.000000
     5  C    0.000000  -0.000000   0.000000  -0.000000   0.000000  -0.000000
     6  C   -0.000000   0.000000  -0.000000  -0.000000  -0.000000  -0.000000
     7  H    0.000000  -0.000000  -0.000000  -0.000000  -0.000000   0.000000
     8  H    0.000000  -0.000000   0.000000   0.000000  -0.000000  -0.000000
     9  C    0.000000   0.000000  -0.000000   0.000000   0.000000   0.000000
    10  H   -0.000000   0.000000  -0.000000  -0.000000   0.000000  -0.000000
    11  H    0.000000   0.000000   0.000000  -0.000000  -0.000000  -0.000000
    12  C   -0.000000  -0.000000  -0.000000   0.000000   0.000000  -0.000000
    13  H   -0.000000   0.000000   0.000000  -0.000000  -0.000000   0.000000
    14  C    0.000000   0.000000   0.000000  -0.000000   0.000000  -0.000000
    15  H    0.000000   0.000000  -0.000000   0.000000  -0.000000   0.000000
    16  C   -0.000000  -0.000000   0.000000   0.000000  -0.000000  -0.000000
    17  H   -0.000000   0.000000  -0.000000  -0.000000  -0.000000   0.000000
    18  H    0.000000  -0.000000   0.000000  -0.000000   0.000000  -0.000000
    19  C    0.000000  -0.000000   0.000000  -0.000000   0.000000  -0.000000
    20  H    0.000000   0.000000  -0.000000  -0.000000  -0.000000   0.000000
    21  C   -0.000000   0.000000  -0.000000   0.000000  -0.000000   0.000000
    22  H    0.000000   0.000000  -0.000000   0.000000  -0.000000   0.000000
    23  C    0.000000   0.000000   0.000000  -0.000000  -0.000000   0.000000
    24  H   -0.000000  -0.000000   0.000000  -0.000000   0.000000  -0.000000
    25  H   -0.000000  -0.000000   0.000000  -0.000000   0.000000  -0.000000
    26  C   -0.000000   0.000000  -0.000000   0.000000   0.000000   0.000000
    27  H   -0.000000   0.000000   0.000000  -0.000000   0.000000  -0.000000
[...]
     2  C    0.000000   0.000000   0.000000  -0.000000
     3  H    0.000000   0.000000   0.000000   0.000000
     4  H    0.000000  -0.000000  -0.000000   0.000000
     5  C    0.000000   0.000000   0.000000  -0.000000
     6  C   -0.000000  -0.000000  -0.000000   0.000000
     7  H    0.000000   0.000000  -0.000000   0.000000
     8  H   -0.000000  -0.000000   0.000000  -0.000000
     9  C    0.000000   0.000000   0.000000   0.000000
    10  H   -0.000000   0.000000  -0.000000   0.000000
    11  H   -0.000000   0.000000   0.000000  -0.000000
    12  C   -0.000000   0.000000  -0.000000   0.000000
    13  H   -0.000000  -0.000000  -0.000000   0.000000
    14  C   -0.000000  -0.000000   0.000000  -0.000000
    15  H    0.000000  -0.000000   0.000000   0.000000
    16  C   -0.000000   0.000000  -0.000000  -0.000000
    17  H    0.000000   0.000000  -0.000000   0.000000
    18  H   -0.000000   0.000000  -0.000000   0.000000
    19  C    0.000000   0.000000  -0.000000   0.000000
    20  H    0.000000  -0.000000  -0.000000  -0.000000
    21  C   -0.000000   0.000000   0.000000  -0.000000
    22  H    0.000000   0.000000  -0.000000   0.000000
    23  C    0.000000  -0.000000  -0.000000  -0.000000
    24  H    0.000000   0.000000   0.000000   0.000000
    25  H   -0.000000   0.000000  -0.000000  -0.000000
    26  C    0.000000  -0.000000   0.000000   0.000000
    27  H   -0.000000   0.000000   0.000000  -0.000000
    28  H   -0.000000   0.000000  -0.000000   0.000000
 Mulliken charges and spin densities:
               1          2
     1  C   -0.203915   0.000001
     2  C   -0.204405  -0.000001
     3  H    0.147983  -0.000000
     4  H    0.175941   0.000000
     5  C   -0.183462   0.000001
     6  C   -0.201364  -0.000001
     7  H    0.166189   0.000000
     8  H    0.174920   0.000000
     9  C   -0.231223  -0.000000
    10  H    0.131927   0.000000
    11  H    0.149283   0.000000
    12  C   -0.164112  -0.000001
    13  H    0.151491   0.000000
    14  C   -0.203155   0.000002
    15  H    0.148032  -0.000000
    16  C   -0.194101   0.000000
    17  H    0.122376   0.000000
    18  H    0.133300   0.000000
    19  C   -0.183528   0.000001
    20  H    0.167255  -0.000000
    21  C   -0.161191  -0.000001
    22  H    0.150409   0.000000
    23  C   -0.230150   0.000001
    24  H    0.148656  -0.000000
    25  H    0.131995  -0.000000
    26  C   -0.193347  -0.000000
    27  H    0.133403   0.000000
    28  H    0.120792   0.000000
 Sum of Mulliken charges =  -0.00000  -0.00000
 Mulliken charges and spin densities with hydrogens summed into heavy atoms:
               1          2
     1  C   -0.055932   0.000001
     2  C   -0.028464  -0.000001
     5  C   -0.017273   0.000001
     6  C   -0.026444  -0.000001
     9  C    0.049987  -0.000000
    12  C   -0.012621  -0.000001
    14  C   -0.055123   0.000002
    16  C    0.061575   0.000000
    19  C   -0.016273   0.000001
    21  C   -0.010783  -0.000001
    23  C    0.050501   0.000000
    26  C    0.060848  -0.000000
 Electronic spatial extent (au):  <R**2>=           2262.0793
 Charge=              0.0000 electrons
 Dipole moment (field-independent basis, Debye):
    X=              0.0012    Y=             -0.0094    Z=             -0.0054  Tot=              0.0109
 Quadrupole moment (field-independent basis, Debye-Ang):
   XX=            -70.1674   YY=            -68.1538   ZZ=            -75.5775
   XY=             -3.4009   XZ=             -3.5790   YZ=             -1.6958
 Traceless Quadrupole moment (field-independent basis, Debye-Ang):
   XX=              1.1322   YY=              3.1458   ZZ=             -4.2780
   XY=             -3.4009   XZ=             -3.5790   YZ=             -1.6958
 Octapole moment (field-independent basis, Debye-Ang**2):
  XXX=             -0.0044  YYY=             -0.0636  ZZZ=             -0.0284  XYY=             -0.0033
  XXY=             -0.0113  XXZ=             -0.0231  XZZ=              0.0070  YZZ=             -0.0198
  YYZ=             -0.0070  XYZ=              0.0167
 Hexadecapole moment (field-independent basis, Debye-Ang**3):
 XXXX=          -2013.8282 YYYY=           -610.3180 ZZZZ=           -373.1557 XXXY=           -107.6042
 XXXZ=           -140.1737 YYYX=            -60.6123 YYYZ=             -4.3039 ZZZX=            -85.1374
 ZZZY=            -16.0483 XXYY=           -434.4749 XXZZ=           -422.6826 YYZZ=           -179.0322
 XXYZ=            -23.6504 YYXZ=            -31.2379 ZZXY=            -44.9793
 N-N= 6.803117263713D+02 E-N=-2.443268994035D+03  KE= 4.643553436099D+02
                          Isotropic Fermi Contact Couplings
        Atom                 a.u.       MegaHertz       Gauss      10(-4) cm-1
     1  C(13)              0.00000       0.00008       0.00003       0.00003
     2  C(13)             -0.00000      -0.00010      -0.00004      -0.00003
     3  H(1)              -0.00000      -0.00005      -0.00002      -0.00002
     4  H(1)               0.00000       0.00005       0.00002       0.00002
     5  C(13)              0.00000       0.00009       0.00003       0.00003
     6  C(13)             -0.00000      -0.00009      -0.00003      -0.00003
     7  H(1)              -0.00000      -0.00000      -0.00000      -0.00000
     8  H(1)               0.00000       0.00007       0.00002       0.00002
     9  C(13)             -0.00000      -0.00011      -0.00004      -0.00004
    10  H(1)               0.00000       0.00001       0.00000       0.00000
    11  H(1)               0.00000       0.00009       0.00003       0.00003
    12  C(13)             -0.00000      -0.00009      -0.00003      -0.00003
    13  H(1)               0.00000       0.00002       0.00001       0.00001
    14  C(13)              0.00000       0.00011       0.00004       0.00004
    15  H(1)              -0.00000      -0.00008      -0.00003      -0.00003
    16  C(13)              0.00000       0.00005       0.00002       0.00002
    17  H(1)               0.00000       0.00005       0.00002       0.00002
    18  H(1)               0.00000       0.00003       0.00001       0.00001
    19  C(13)              0.00000       0.00010       0.00004       0.00003
    20  H(1)              -0.00000      -0.00009      -0.00003      -0.00003
    21  C(13)             -0.00000      -0.00011      -0.00004      -0.00004
    22  H(1)               0.00000       0.00008       0.00003       0.00003
    23  C(13)              0.00000       0.00019       0.00007       0.00006
    24  H(1)              -0.00000      -0.00014      -0.00005      -0.00005
    25  H(1)              -0.00000      -0.00016      -0.00006      -0.00005
    26  C(13)             -0.00000      -0.00013      -0.00005      -0.00004
    27  H(1)               0.00000       0.00005       0.00002       0.00002
    28  H(1)               0.00000       0.00010       0.00004       0.00003
 --------------------------------------------------------
       Center         ----  Spin Dipole Couplings  ----
                      3XX-RR        3YY-RR        3ZZ-RR
 --------------------------------------------------------
     1   Atom       -0.000000     -0.000001      0.000001
     2   Atom        0.000000      0.000001     -0.000001
     3   Atom        0.000000     -0.000000      0.000000
     4   Atom       -0.000000      0.000000     -0.000000
     5   Atom       -0.000000     -0.000001      0.000001
     6   Atom        0.000000      0.000001     -0.000001
     7   Atom       -0.000000     -0.000000      0.000000
     8   Atom       -0.000000      0.000000     -0.000000
     9   Atom       -0.000000      0.000000     -0.000000
    10   Atom        0.000000      0.000000     -0.000000
    11   Atom        0.000000     -0.000000      0.000000
    12   Atom        0.000000      0.000001     -0.000001
    13   Atom        0.000000     -0.000000     -0.000000
    14   Atom       -0.000000     -0.000001      0.000001
    15   Atom        0.000000     -0.000000      0.000000
    16   Atom        0.000000     -0.000000      0.000000
    17   Atom       -0.000000      0.000000      0.000000
    18   Atom       -0.000000      0.000000     -0.000000
    19   Atom       -0.000000     -0.000000      0.000000
    20   Atom       -0.000000      0.000000     -0.000000
    21   Atom        0.000000      0.000000     -0.000001
    22   Atom        0.000000     -0.000000      0.000000
    23   Atom        0.000000     -0.000000      0.000000
    24   Atom        0.000000      0.000000     -0.000000
    25   Atom       -0.000000     -0.000000      0.000000
    26   Atom       -0.000000      0.000000     -0.000000
    27   Atom       -0.000000      0.000000      0.000000
    28   Atom        0.000000      0.000000     -0.000000
 --------------------------------------------------------
                        XY            XZ            YZ
 --------------------------------------------------------
     1   Atom        0.000000      0.000001      0.000000
     2   Atom       -0.000000     -0.000001     -0.000000
     3   Atom        0.000000     -0.000000     -0.000000
     4   Atom       -0.000000      0.000000     -0.000000
     5   Atom        0.000000      0.000001      0.000000
     6   Atom       -0.000000     -0.000001     -0.000000
     7   Atom       -0.000000      0.000000      0.000000
     8   Atom       -0.000000      0.000000     -0.000000
     9   Atom       -0.000000     -0.000000     -0.000000
    10   Atom        0.000000     -0.000000      0.000000
    11   Atom       -0.000000     -0.000000     -0.000000
    12   Atom       -0.000000     -0.000001     -0.000000
    13   Atom       -0.000000     -0.000000      0.000000
    14   Atom       -0.000000      0.000001     -0.000000
    15   Atom        0.000000     -0.000000     -0.000000
    16   Atom        0.000000     -0.000000     -0.000000
    17   Atom        0.000000      0.000000      0.000000
    18   Atom       -0.000000      0.000000     -0.000000
    19   Atom        0.000000      0.000001      0.000000
    20   Atom       -0.000000      0.000000      0.000000
    21   Atom       -0.000000     -0.000001      0.000000
    22   Atom       -0.000000     -0.000000      0.000000
    23   Atom        0.000000     -0.000000      0.000000
    24   Atom        0.000000      0.000000      0.000000
    25   Atom        0.000000      0.000000     -0.000000
    26   Atom        0.000000      0.000000     -0.000000
    27   Atom        0.000000     -0.000000      0.000000
    28   Atom        0.000000     -0.000000     -0.000000
 --------------------------------------------------------


 ---------------------------------------------------------------------------------
              Anisotropic Spin Dipole Couplings in Principal Axis System
 ---------------------------------------------------------------------------------

       Atom             a.u.   MegaHertz   Gauss  10(-4) cm-1        Axes

              Baa    -0.0000    -0.000    -0.000    -0.000  0.7863 -0.5373 -0.3049
     1 C(13)  Bbb    -0.0000    -0.000    -0.000    -0.000  0.4915  0.8431 -0.2182
              Bcc     0.0000     0.000     0.000     0.000  0.3744  0.0217  0.9270
 
              Baa    -0.0000    -0.000    -0.000    -0.000  0.3673  0.1926  0.9100
     2 C(13)  Bbb     0.0000     0.000     0.000     0.000 -0.6209  0.7792  0.0857
              Bcc     0.0000     0.000     0.000     0.000  0.6925  0.5965 -0.4057
 
              Baa    -0.0000    -0.000    -0.000    -0.000 -0.1430  0.9888  0.0430
     3 H(1)   Bbb    -0.0000    -0.000    -0.000    -0.000  0.2273 -0.0095  0.9738
              Bcc     0.0000     0.000     0.000     0.000  0.9633  0.1490 -0.2234
 
              Baa    -0.0000    -0.000    -0.000    -0.000  0.8304  0.0569 -0.5543
     4 H(1)   Bbb    -0.0000    -0.000    -0.000    -0.000  0.5419  0.1490  0.8271
              Bcc     0.0000     0.000     0.000     0.000 -0.1296  0.9872 -0.0929
 
              Baa    -0.0000    -0.000    -0.000    -0.000  0.0922  0.9812 -0.1698
     5 C(13)  Bbb    -0.0000    -0.000    -0.000    -0.000  0.9268 -0.1469 -0.3457
              Bcc     0.0000     0.000     0.000     0.000  0.3642  0.1255  0.9228
 
              Baa    -0.0000    -0.000    -0.000    -0.000  0.4744  0.1793  0.8618
     6 C(13)  Bbb     0.0000     0.000     0.000     0.000  0.8505  0.1590 -0.5013
              Bcc     0.0000     0.000     0.000     0.000 -0.2269  0.9709 -0.0770
 
              Baa    -0.0000    -0.000    -0.000    -0.000  0.6617  0.6541 -0.3665
     7 H(1)   Bbb     0.0000     0.000     0.000     0.000  0.2480  0.2704  0.9303
              Bcc     0.0000     0.000     0.000     0.000  0.7076 -0.7065  0.0167
 
              Baa    -0.0000    -0.000    -0.000    -0.000  0.7989  0.0124 -0.6013
     8 H(1)   Bbb     0.0000     0.000     0.000     0.000  0.5916  0.1640  0.7894
              Bcc     0.0000     0.000     0.000     0.000 -0.1084  0.9864 -0.1237
 
              Baa    -0.0000    -0.000    -0.000    -0.000  0.6431  0.2466  0.7250
     9 C(13)  Bbb    -0.0000    -0.000    -0.000    -0.000 -0.6518 -0.3207  0.6873
              Bcc     0.0000     0.000     0.000     0.000 -0.4020  0.9145  0.0455
 
              Baa    -0.0000    -0.000    -0.000    -0.000  0.5354 -0.2093  0.8182
    10 H(1)   Bbb     0.0000     0.000     0.000     0.000 -0.3600  0.8198  0.4453
              Bcc     0.0000     0.000     0.000     0.000  0.7640  0.5329 -0.3636
 
              Baa    -0.0000    -0.000    -0.000    -0.000  0.3686  0.9203  0.1312
    11 H(1)   Bbb     0.0000     0.000     0.000     0.000  0.7650 -0.3804  0.5197
              Bcc     0.0000     0.000     0.000     0.000 -0.5282  0.0912  0.8442
 
              Baa    -0.0000    -0.000    -0.000    -0.000  0.3752  0.0140  0.9268
    12 C(13)  Bbb     0.0000     0.000     0.000     0.000  0.7895  0.5190 -0.3275
              Bcc     0.0000     0.000     0.000     0.000 -0.4856  0.8546  0.1837
 
              Baa    -0.0000    -0.000    -0.000    -0.000  0.4941  0.8616 -0.1165
    13 H(1)   Bbb    -0.0000    -0.000    -0.000    -0.000  0.3521 -0.0757  0.9329
              Bcc     0.0000     0.000     0.000     0.000  0.7950 -0.5019 -0.3408
 
              Baa    -0.0000    -0.000    -0.000    -0.000 -0.2390  0.9454  0.2216
    14 C(13)  Bbb    -0.0000    -0.000    -0.000    -0.000  0.8127  0.3197 -0.4872
              Bcc     0.0000     0.000     0.000     0.000  0.5314 -0.0636  0.8447
 
              Baa    -0.0000    -0.000    -0.000    -0.000 -0.1026  0.9884  0.1117
    15 H(1)   Bbb    -0.0000    -0.000    -0.000    -0.000  0.6415 -0.0201  0.7668
              Bcc     0.0000     0.000     0.000     0.000  0.7602  0.1503 -0.6320
 
              Baa    -0.0000    -0.000    -0.000    -0.000 -0.0369  0.9993  0.0087
    16 C(13)  Bbb     0.0000     0.000     0.000     0.000  0.6580  0.0177  0.7528
              Bcc     0.0000     0.000     0.000     0.000  0.7521  0.0335 -0.6582
 
              Baa    -0.0000    -0.000    -0.000    -0.000  0.8333 -0.5166 -0.1966
    17 H(1)   Bbb    -0.0000    -0.000    -0.000    -0.000 -0.2066 -0.6210  0.7561
              Bcc     0.0000     0.000     0.000     0.000  0.5127  0.5894  0.6242
 
              Baa    -0.0000    -0.000    -0.000    -0.000 -0.4594  0.1597  0.8738
    18 H(1)   Bbb    -0.0000    -0.000    -0.000    -0.000  0.8192  0.4564  0.3473
              Bcc     0.0000     0.000     0.000     0.000 -0.3433  0.8753 -0.3405
 
              Baa    -0.0000    -0.000    -0.000    -0.000  0.6135  0.6163 -0.4939
    19 C(13)  Bbb    -0.0000    -0.000    -0.000    -0.000 -0.6068  0.7681  0.2047
              Bcc     0.0000     0.000     0.000     0.000  0.5055  0.1741  0.8451
 
              Baa    -0.0000    -0.000    -0.000    -0.000  0.6685  0.6071 -0.4296
    20 H(1)   Bbb    -0.0000    -0.000    -0.000    -0.000  0.4430  0.1390  0.8857
              Bcc     0.0000     0.000     0.000     0.000 -0.5974  0.7824  0.1760
 
              Baa    -0.0000    -0.000    -0.000    -0.000  0.5405 -0.0548  0.8396
    21 C(13)  Bbb     0.0000     0.000     0.000     0.000  0.4743  0.8440 -0.2503
              Bcc     0.0000     0.000     0.000     0.000  0.6949 -0.5335 -0.4822
 
              Baa    -0.0000    -0.000    -0.000    -0.000  0.3960  0.8815 -0.2573
    22 H(1)   Bbb    -0.0000    -0.000    -0.000    -0.000  0.5295  0.0097  0.8482
              Bcc     0.0000     0.000     0.000     0.000  0.7502 -0.4722 -0.4629
 
              Baa    -0.0000    -0.000    -0.000    -0.000 -0.4953  0.8637 -0.0933
    23 C(13)  Bbb     0.0000     0.000     0.000     0.000  0.1615  0.1971  0.9670
              Bcc     0.0000     0.000     0.000     0.000  0.8535  0.4639 -0.2372
 
              Baa    -0.0000    -0.000    -0.000    -0.000  0.7010 -0.6953  0.1585
    24 H(1)   Bbb    -0.0000    -0.000    -0.000    -0.000 -0.2164  0.0044  0.9763
              Bcc     0.0000     0.000     0.000     0.000  0.6795  0.7187  0.1474
 
              Baa    -0.0000    -0.000    -0.000    -0.000 -0.5174  0.8246  0.2289
    25 H(1)   Bbb    -0.0000    -0.000    -0.000    -0.000  0.7870  0.5635 -0.2512
              Bcc     0.0000     0.000     0.000     0.000  0.3361 -0.0502  0.9405
 
              Baa    -0.0000    -0.000    -0.000    -0.000  0.7459 -0.0403 -0.6648
    26 C(13)  Bbb     0.0000     0.000     0.000     0.000  0.6660  0.0314  0.7453
              Bcc     0.0000     0.000     0.000     0.000  0.0091  0.9987 -0.0502
 
              Baa    -0.0000    -0.000    -0.000    -0.000  0.8322 -0.4953  0.2493
    27 H(1)   Bbb     0.0000     0.000     0.000     0.000 -0.2416  0.0808  0.9670
              Bcc     0.0000     0.000     0.000     0.000  0.4991  0.8650  0.0524
 
              Baa    -0.0000    -0.000    -0.000    -0.000  0.2530  0.1931  0.9480
    28 H(1)   Bbb    -0.0000    -0.000    -0.000    -0.000  0.8829 -0.4467 -0.1447
              Bcc     0.0000     0.000     0.000     0.000  0.3955  0.8736 -0.2835
 

 ---------------------------------------------------------------------------------

 No NMR shielding tensors so no spin-rotation constants.
 Leave Link  601 at Tue Aug  4 05:18:08 2020, MaxMem=  6442450944 cpu:               7.9 elap:               0.4
 (Enter /scratch/scicomp/CentOS/7.3.1611/Haswell/software/Gaussian/g16/l9999.exe)
 1\1\GINC-ATLAS-205\SP\UwB97XD\def2TZVP\C12H16\BOCHEN\04-Aug-2020\0\\#p
  uwb97xd guess=mix def2tzvp # scrf=(iefpcm,solvent=Cyclohexane,read) n
 osym 6d 10f\\endo-2 xp-pcm for eta=3\\0,1\C,0,-3.126891,-0.440888,0.25
 5118\C,0,-0.684423,-0.239784,-1.165641\H,0,-4.081225,-0.540147,0.75934
 \H,0,0.279559,-0.151378,-1.650033\C,0,1.137152,1.419764,0.752892\C,0,0
 .684423,0.239784,1.165641\H,0,0.543796,2.316608,0.882649\H,0,-0.279559
 ,0.151379,1.650033\C,0,1.527143,-0.999005,1.070559\H,0,2.02746,-1.1199
 61,2.03974\H,0,0.894773,-1.877853,0.948868\C,0,2.443219,1.525992,0.104
 99\H,0,2.846024,2.512508,-0.09124\C,0,3.126891,0.440888,-0.255118\H,0,
 4.081225,0.540147,-0.75934\C,0,2.582831,-0.945113,-0.039623\H,0,2.1640
 96,-1.304863,-0.98762\H,0,3.396382,-1.633179,0.198658\C,0,-1.137152,-1
 .419764,-0.752892\H,0,-0.543796,-2.316608,-0.882649\C,0,-2.443219,-1.5
 25992,-0.10499\H,0,-2.846024,-2.512508,0.09124\C,0,-1.527143,0.999005,
 -1.070559\H,0,-0.894773,1.877853,-0.948868\H,0,-2.02746,1.119961,-2.03
 974\C,0,-2.582831,0.945113,0.039623\H,0,-3.396382,1.633179,-0.198658\H
 ,0,-2.164097,1.304863,0.98762\\Version=ES64L-G16RevB.01\HF=-466.803722
 9\S2=0.\S2-1=0.\S2A=0.\RMSD=3.637e-09\Dipole=0.0004896,-0.0037088,-0.0
 021131\Quadrupole=0.8417523,2.3388082,-3.1805605,-2.5284709,-2.6609211
 ,-1.2608146\PG=CI [X(C12H16)]\\@


    WHAT WE HAVE LEARNED
 IS LIKE A HANDFUL OF EARTH;
  WHAT WE HAVE YET TO LEARN
   IS LIKE THE WHOLE WORLD.

         -- AVVAYIAR
 Job cpu time:       0 days  2 hours 13 minutes 32.2 seconds.
 Elapsed time:       0 days  0 hours  5 minutes 36.9 seconds.
 File lengths (MBytes):  RWF=    610 Int=      0 D2E=      0 Chk=     24 Scr=      1
 Normal termination of Gaussian 16 at Tue Aug  4 05:18:08 2020.
