 Entering Gaussian System, Link 0=g16
 Input=meso-TS_34_2_xp-Ger.com
 Output=meso-TS_34_2_xp-Ger.log
 Initial command:
 /scratch/scicomp/CentOS/7.3.1611/Haswell/software/Gaussian/g16/l1.exe "/scratch/bochen/cyclohexadiene-dimerization/wb97xd-def2tzvp/xp-pcm/meso/Gau-306177.inp" -scrdir="/scratch/bochen/cyclohexadiene-dimerization/wb97xd-def2tzvp/xp-pcm/meso/"
 Entering Link 1 = /scratch/scicomp/CentOS/7.3.1611/Haswell/software/Gaussian/g16/l1.exe PID=    306178.
  
 Copyright (c) 1988-2017, Gaussian, Inc.  All Rights Reserved.
  
 This is part of the Gaussian(R) 16 program.  It is based on
 the Gaussian(R) 09 system (copyright 2009, Gaussian, Inc.),
 the Gaussian(R) 03 system (copyright 2003, Gaussian, Inc.),
 the Gaussian(R) 98 system (copyright 1998, Gaussian, Inc.),
 the Gaussian(R) 94 system (copyright 1995, Gaussian, Inc.),
 the Gaussian 92(TM) system (copyright 1992, Gaussian, Inc.),
 the Gaussian 90(TM) system (copyright 1990, Gaussian, Inc.),
 the Gaussian 88(TM) system (copyright 1988, Gaussian, Inc.),
 the Gaussian 86(TM) system (copyright 1986, Carnegie Mellon
 University), and the Gaussian 82(TM) system (copyright 1983,
 Carnegie Mellon University). Gaussian is a federally registered
 trademark of Gaussian, Inc.
  
 This software contains proprietary and confidential information,
 including trade secrets, belonging to Gaussian, Inc.
  
 This software is provided under written license and may be
 used, copied, transmitted, or stored only in accord with that
 written license.
  
 The following legend is applicable only to US Government
 contracts under FAR:
  
                    RESTRICTED RIGHTS LEGEND
  
 Use, reproduction and disclosure by the US Government is
 subject to restrictions as set forth in subparagraphs (a)
 and (c) of the Commercial Computer Software - Restricted
 Rights clause in FAR 52.227-19.
  
 Gaussian, Inc.
 340 Quinnipiac St., Bldg. 40, Wallingford CT 06492
  
  
 ---------------------------------------------------------------
 Warning -- This program may not be used in any manner that
 competes with the business of Gaussian, Inc. or will provide
 assistance to any competitor of Gaussian, Inc.  The licensee
 of this program is prohibited from giving any competitor of
 Gaussian, Inc. access to this program.  By using this program,
 the user acknowledges that Gaussian, Inc. is engaged in the
 business of creating and licensing software in the field of
 computational chemistry and represents and warrants to the
 licensee that it is not a competitor of Gaussian, Inc. and that
 it will not use this program in any manner prohibited above.
 ---------------------------------------------------------------
  

 Cite this work as:
 Gaussian 16, Revision B.01,
 M. J. Frisch, G. W. Trucks, H. B. Schlegel, G. E. Scuseria, 
 M. A. Robb, J. R. Cheeseman, G. Scalmani, V. Barone, 
 G. A. Petersson, H. Nakatsuji, X. Li, M. Caricato, A. V. Marenich, 
 J. Bloino, B. G. Janesko, R. Gomperts, B. Mennucci, H. P. Hratchian, 
 J. V. Ortiz, A. F. Izmaylov, J. L. Sonnenberg, D. Williams-Young, 
 F. Ding, F. Lipparini, F. Egidi, J. Goings, B. Peng, A. Petrone, 
 T. Henderson, D. Ranasinghe, V. G. Zakrzewski, J. Gao, N. Rega, 
 G. Zheng, W. Liang, M. Hada, M. Ehara, K. Toyota, R. Fukuda, 
 J. Hasegawa, M. Ishida, T. Nakajima, Y. Honda, O. Kitao, H. Nakai, 
 T. Vreven, K. Throssell, J. A. Montgomery, Jr., J. E. Peralta, 
 F. Ogliaro, M. J. Bearpark, J. J. Heyd, E. N. Brothers, K. N. Kudin, 
 V. N. Staroverov, T. A. Keith, R. Kobayashi, J. Normand, 
 K. Raghavachari, A. P. Rendell, J. C. Burant, S. S. Iyengar, 
 J. Tomasi, M. Cossi, J. M. Millam, M. Klene, C. Adamo, R. Cammi, 
 J. W. Ochterski, R. L. Martin, K. Morokuma, O. Farkas, 
 J. B. Foresman, and D. J. Fox, Gaussian, Inc., Wallingford CT, 2016.
 
 ******************************************
 Gaussian 16:  ES64L-G16RevB.01 20-Dec-2017
                 4-Aug-2020 
 ******************************************
 %chk=meso-TS_34_2_xp-12.chk
 %nproc=24
 Will use up to   24 processors via shared memory.
 %mem=48GB
 ----------------------------------------------------------------------
 #p uwb97xd guess=mix def2tzvp # scrf=(iefpcm,solvent=Cyclohexane,read)
  nosym 6d 10f
 ----------------------------------------------------------------------
 1/38=1,40=2,172=1/1;
 2/12=2,15=1,17=6,18=5,40=1/2;
 3/5=44,7=101,8=22,11=2,25=1,30=1,70=2203,72=17,74=-58,116=2/1,2,3;
 4/13=-1/1;
 5/5=2,38=5,53=17/2;
 6/7=2,8=2,9=2,10=2,28=1/1;
 99/5=1,9=1/99;
 Leave Link    1 at Tue Aug  4 05:58:02 2020, MaxMem=  6442450944 cpu:               3.7 elap:               0.2
 (Enter /scratch/scicomp/CentOS/7.3.1611/Haswell/software/Gaussian/g16/l101.exe)
 -----------------------
 endo-2 xp-pcm for eta=3
 -----------------------
 Symbolic Z-matrix:
 Charge =  0 Multiplicity = 1
 6                    -3.1254   -0.44001   0.25208 
 6                    -0.65984  -0.23375  -1.12638 
 1                    -4.0842   -0.54329   0.74694 
 1                     0.30874  -0.14223  -1.59997 
 6                     1.12266   1.41712   0.73456 
 6                     0.65984   0.23375   1.12638 
 1                     0.53029   2.31465   0.8625 
 1                    -0.30874   0.14223   1.59997 
 6                     1.51058  -1.00068   1.04895 
 1                     1.99819  -1.10621   2.02633 
 1                     0.8883   -1.88631   0.92853 
 6                     2.43683   1.52333   0.10525 
 1                     2.84201   2.51025  -0.08409 
 6                     3.1254    0.44001  -0.25208 
 1                     4.0842    0.54329  -0.74694 
 6                     2.58587  -0.94855  -0.04222 
 1                     2.19129  -1.31899  -0.99644 
 1                     3.3991   -1.62877   0.21891 
 6                    -1.12266  -1.41712  -0.73456 
 1                    -0.53029  -2.31465  -0.8625 
 6                    -2.43683  -1.52333  -0.10525 
 1                    -2.84201  -2.51025   0.08409 
 6                    -1.51058   1.00068  -1.04895 
 1                    -0.8883    1.88631  -0.92853 
 1                    -1.99819   1.10621  -2.02633 
 6                    -2.58587   0.94855   0.04222 
 1                    -3.3991    1.62877  -0.21891 
 1                    -2.19129   1.31899   0.99644 
 
 ITRead=  0  0  0  0  0  0  0  0  0  0  0  0  0  0  0  0  0  0  0  0
 ITRead=  0  0  0  0  0  0  0  0
 MicOpt= -1 -1 -1 -1 -1 -1 -1 -1 -1 -1 -1 -1 -1 -1 -1 -1 -1 -1 -1 -1
 MicOpt= -1 -1 -1 -1 -1 -1 -1 -1
 NAtoms=     28 NQM=       28 NQMF=       0 NMMI=      0 NMMIF=      0
                NMic=       0 NMicF=      0.
                    Isotopes and Nuclear Properties:
 (Nuclear quadrupole moments (NQMom) in fm**2, nuclear magnetic moments (NMagM)
  in nuclear magnetons)

  Atom         1           2           3           4           5           6           7           8           9          10
 IAtWgt=          12          12           1           1          12          12           1           1          12           1
 AtmWgt=  12.0000000  12.0000000   1.0078250   1.0078250  12.0000000  12.0000000   1.0078250   1.0078250  12.0000000   1.0078250
 NucSpn=           0           0           1           1           0           0           1           1           0           1
 AtZEff=  -0.0000000  -0.0000000  -0.0000000  -0.0000000  -0.0000000  -0.0000000  -0.0000000  -0.0000000  -0.0000000  -0.0000000
 NQMom=    0.0000000   0.0000000   0.0000000   0.0000000   0.0000000   0.0000000   0.0000000   0.0000000   0.0000000   0.0000000
 NMagM=    0.0000000   0.0000000   2.7928460   2.7928460   0.0000000   0.0000000   2.7928460   2.7928460   0.0000000   2.7928460
 AtZNuc=   6.0000000   6.0000000   1.0000000   1.0000000   6.0000000   6.0000000   1.0000000   1.0000000   6.0000000   1.0000000

  Atom        11          12          13          14          15          16          17          18          19          20
 IAtWgt=           1          12           1          12           1          12           1           1          12           1
 AtmWgt=   1.0078250  12.0000000   1.0078250  12.0000000   1.0078250  12.0000000   1.0078250   1.0078250  12.0000000   1.0078250
 NucSpn=           1           0           1           0           1           0           1           1           0           1
 AtZEff=  -0.0000000  -0.0000000  -0.0000000  -0.0000000  -0.0000000  -0.0000000  -0.0000000  -0.0000000  -0.0000000  -0.0000000
 NQMom=    0.0000000   0.0000000   0.0000000   0.0000000   0.0000000   0.0000000   0.0000000   0.0000000   0.0000000   0.0000000
 NMagM=    2.7928460   0.0000000   2.7928460   0.0000000   2.7928460   0.0000000   2.7928460   2.7928460   0.0000000   2.7928460
 AtZNuc=   1.0000000   6.0000000   1.0000000   6.0000000   1.0000000   6.0000000   1.0000000   1.0000000   6.0000000   1.0000000

  Atom        21          22          23          24          25          26          27          28
 IAtWgt=          12           1          12           1           1          12           1           1
 AtmWgt=  12.0000000   1.0078250  12.0000000   1.0078250   1.0078250  12.0000000   1.0078250   1.0078250
 NucSpn=           0           1           0           1           1           0           1           1
 AtZEff=  -0.0000000  -0.0000000  -0.0000000  -0.0000000  -0.0000000  -0.0000000  -0.0000000  -0.0000000
 NQMom=    0.0000000   0.0000000   0.0000000   0.0000000   0.0000000   0.0000000   0.0000000   0.0000000
 NMagM=    0.0000000   2.7928460   0.0000000   2.7928460   2.7928460   0.0000000   2.7928460   2.7928460
 AtZNuc=   6.0000000   1.0000000   6.0000000   1.0000000   1.0000000   6.0000000   1.0000000   1.0000000
 Leave Link  101 at Tue Aug  4 05:58:02 2020, MaxMem=  6442450944 cpu:               2.4 elap:               0.1
 (Enter /scratch/scicomp/CentOS/7.3.1611/Haswell/software/Gaussian/g16/l202.exe)
                          Input orientation:                          
 ---------------------------------------------------------------------
 Center     Atomic      Atomic             Coordinates (Angstroms)
 Number     Number       Type             X           Y           Z
 ---------------------------------------------------------------------
      1          6           0       -3.125400   -0.440005    0.252083
      2          6           0       -0.659840   -0.233754   -1.126379
      3          1           0       -4.084200   -0.543289    0.746935
      4          1           0        0.308739   -0.142233   -1.599972
      5          6           0        1.122664    1.417123    0.734560
      6          6           0        0.659840    0.233754    1.126379
      7          1           0        0.530286    2.314651    0.862502
      8          1           0       -0.308739    0.142233    1.599972
      9          6           0        1.510582   -1.000676    1.048954
     10          1           0        1.998188   -1.106214    2.026331
     11          1           0        0.888300   -1.886305    0.928530
     12          6           0        2.436831    1.523333    0.105247
     13          1           0        2.842008    2.510246   -0.084086
     14          6           0        3.125400    0.440005   -0.252083
     15          1           0        4.084200    0.543289   -0.746935
     16          6           0        2.585867   -0.948552   -0.042215
     17          1           0        2.191291   -1.318993   -0.996443
     18          1           0        3.399102   -1.628770    0.218906
     19          6           0       -1.122664   -1.417123   -0.734560
     20          1           0       -0.530286   -2.314651   -0.862502
     21          6           0       -2.436831   -1.523333   -0.105247
     22          1           0       -2.842008   -2.510246    0.084086
     23          6           0       -1.510582    1.000676   -1.048954
     24          1           0       -0.888300    1.886305   -0.928530
     25          1           0       -1.998187    1.106214   -2.026331
     26          6           0       -2.585867    0.948552    0.042215
     27          1           0       -3.399102    1.628770   -0.218906
     28          1           0       -2.191291    1.318993    0.996443
 ---------------------------------------------------------------------
                    Distance matrix (angstroms):
                    1          2          3          4          5
     1  C    0.000000
     2  C    2.832258   0.000000
     3  H    1.083902   3.915528   0.000000
     4  H    3.913066   1.082041   4.996672   0.000000
     5  C    4.661304   3.060361   5.563704   2.923030   0.000000
     6  C    3.942891   2.652365   4.822208   2.774460   1.329696
     7  H    4.617876   3.444766   5.429057   3.485562   1.082976
     8  H    3.176379   2.774460   3.930867   3.271367   2.103140
     9  C    4.737266   3.167171   5.621566   3.032847   2.468821
    10  H    5.462870   4.214959   6.240928   4.115042   2.966891
    11  H    4.319624   3.057828   5.153875   3.125860   3.317407
    12  C    5.900396   3.767443   6.870701   3.195412   1.460942
    13  H    6.665354   4.569338   7.614921   3.968754   2.195733
    14  C    6.332543   3.942891   7.344606   3.176379   2.437042
    15  H    7.344606   4.822208   8.374668   3.930867   3.424779
    16  C    5.741411   3.495849   6.728803   2.874382   2.888038
    17  H    5.531604   3.053453   6.559182   2.300655   3.409496
    18  H    6.631997   4.497874   7.580032   3.881811   3.837386
    19  C    2.437042   1.329696   3.424779   2.103140   3.902917
    20  H    3.389869   2.101558   4.284660   2.442790   4.382806
    21  C    1.332446   2.421450   2.097743   3.417571   4.692714
    22  H    2.096290   3.377795   2.418952   4.286111   5.618360
    23  C    2.525054   1.501191   3.497507   2.218060   3.207543
    24  H    3.436594   2.141492   4.350159   2.449225   2.651410
    25  H    2.975327   2.096807   3.842306   2.657501   4.178384
    26  C    1.504404   2.544217   2.228726   3.502190   3.801592
    27  H    2.139293   3.434539   2.473873   4.334960   4.626041
    28  H    2.126195   3.043475   2.667106   3.889306   3.325734
                    6          7          8          9         10
     6  C    0.000000
     7  H    2.101558   0.000000
     8  H    1.082041   2.442790   0.000000
     9  C    1.501191   3.462245   2.218060   0.000000
    10  H    2.096808   3.900199   2.657501   1.097344   0.000000
    11  H    2.141492   4.216701   2.449225   1.089071   1.745153
    12  C    2.421450   2.198757   3.417571   2.849411   3.285953
    13  H    3.377795   2.505663   4.286111   3.922123   4.271379
    14  C    2.832258   3.389869   3.913066   2.525054   2.975327
    15  H    3.915528   4.284660   4.996672   3.497507   3.842305
    16  C    2.544217   3.961366   3.502190   1.532842   2.156179
    17  H    3.043475   4.406584   3.889306   2.179068   3.036400
    18  H    3.434539   4.918830   4.334960   2.156383   2.345722
    19  C    3.060361   4.382806   2.923030   3.207543   4.178385
    20  H    3.444766   5.052810   3.485562   3.089553   4.024780
    21  C    3.767443   4.946761   3.195412   4.145771   4.938320
    22  H    4.569338   5.937839   3.968754   4.706890   5.401029
    23  C    3.167171   3.089553   3.032847   4.187369   5.119358
    24  H    3.057828   2.324578   3.125860   4.242610   5.100803
    25  H    4.214958   4.024780   4.115042   5.119358   6.106547
    26  C    3.495849   3.499930   2.874382   4.646925   5.401142
    27  H    4.497874   4.132792   3.881811   5.711957   6.453833
    28  H    3.053453   2.901078   2.300655   4.368923   4.949145
                   11         12         13         14         15
    11  H    0.000000
    12  C    3.834237   0.000000
    13  H    4.916506   1.083519   0.000000
    14  C    3.436594   1.332446   2.096290   0.000000
    15  H    4.350159   2.097743   2.418952   1.083902   0.000000
    16  C    2.168746   2.480760   3.468522   1.504404   2.228726
    17  H    2.392728   3.058239   3.989850   2.126195   2.667106
    18  H    2.621835   3.297671   4.187316   2.139293   2.473873
    19  C    2.651410   4.692714   5.618360   4.661304   5.563704
    20  H    2.324578   4.946761   5.937839   4.617876   5.429057
    21  C    3.500991   5.751440   6.643519   5.900396   6.870701
    22  H    3.875253   6.643519   7.585622   6.665354   7.614921
    23  C    4.242610   4.145771   4.706890   4.737266   5.621566
    24  H    4.564818   3.500991   3.875253   4.319624   5.153875
    25  H    5.100802   4.938319   5.401029   5.462869   6.240927
    26  C    4.570755   5.055872   5.649484   5.741411   6.728803
    27  H    5.661641   5.845879   6.304493   6.631997   7.580032
    28  H    4.445495   4.717573   5.284007   5.531604   6.559182
                   16         17         18         19         20
    16  C    0.000000
    17  H    1.097027   0.000000
    18  H    1.091894   1.741219   0.000000
    19  C    3.801592   3.325734   4.626041   0.000000
    20  H    3.499930   2.901078   4.132792   1.082976   0.000000
    21  C    5.055872   4.717573   5.845879   1.460942   2.198757
    22  H    5.649484   5.284007   6.304493   2.195733   2.505663
    23  C    4.646925   4.368923   5.711957   2.468821   3.462245
    24  H    4.570755   4.445495   5.661641   3.317407   4.216701
    25  H    5.401142   4.949144   6.453833   2.966891   3.900199
    26  C    5.509352   5.389045   6.518716   2.888038   3.961366
    27  H    6.518716   6.367603   7.551081   3.837386   4.918830
    28  H    5.389045   5.489771   6.367603   3.409496   4.406584
                   21         22         23         24         25
    21  C    0.000000
    22  H    1.083519   0.000000
    23  C    2.849411   3.922123   0.000000
    24  H    3.834237   4.916506   1.089071   0.000000
    25  H    3.285953   4.271379   1.097343   1.745153   0.000000
    26  C    2.480760   3.468522   1.532842   2.168746   2.156179
    27  H    3.297671   4.187316   2.156383   2.621835   2.345722
    28  H    3.058239   3.989850   2.179068   2.392728   3.036400
                   26         27         28
    26  C    0.000000
    27  H    1.091894   0.000000
    28  H    1.097027   1.741219   0.000000
 Symmetry turned off by external request.
 Stoichiometry    C12H16
 Framework group  CI[X(C12H16)]
 Deg. of freedom    39
 Full point group                 CI      NOp   2
 Rotational constants (GHZ):           1.8309195           0.6121209           0.5434251
 Leave Link  202 at Tue Aug  4 05:58:03 2020, MaxMem=  6442450944 cpu:               0.3 elap:               0.0
 (Enter /scratch/scicomp/CentOS/7.3.1611/Haswell/software/Gaussian/g16/l301.exe)
 Standard basis: def2TZVP (6D, 10F)
 Ernie: Thresh=  0.10000D-02 Tol=  0.10000D-05 Strict=F.
   528 basis functions,   740 primitive gaussians,   528 cartesian basis functions
    44 alpha electrons       44 beta electrons
       nuclear repulsion energy       682.5226214968 Hartrees.
 IExCor= 4639 DFT=T Ex+Corr=wB97XD ExCW=0 ScaHFX=  1.000000
 ScaDFX=  1.000000  1.000000  1.000000  1.000000 ScalE2=  1.000000  1.000000
 IRadAn=      5 IRanWt=     -1 IRanGd=            0 ICorTp=0 IEmpDi=121
 HFx  wShort=  0.000000 wLong=  0.200000 cFull=  0.222036 cShort=  0.000000 cLong=  0.777964
 DFx  wShort=  0.000000 wLong=  0.200000 cFull=  0.000000 cShort=  0.000000 cLong=  1.000000
 NAtoms=   28 NActive=   28 NUniq=   28 SFac= 1.00D+00 NAtFMM=   60 NAOKFM=F Big=F
 Integral buffers will be    131072 words long.
 Raffenetti 2 integral format.
 Two-electron integral symmetry is turned off.
 R6Disp:  Grimme-D2 Dispersion energy=       -0.0227943531 Hartrees.
 Nuclear repulsion after empirical dispersion term =      682.4998271437 Hartrees.
 Using the following non-standard input for PCM:
 qrep pcmdoc geomview  nodis nocav g03defaults tsare=0.075
 Warning! Using old PCM defaults because the g03defaults keyword was found.
 These settings can be overridden by following keywords.
 nsfe=28
 NVESolv=36  SolvMW=84.1595   Rsolv=2.815
 eps=2.0165 RhoS=0.778099999999998
 --- end of non-standard input.
 Reading user-defined spheres from input:
 ISph  on   Nord    Re0     Alpha      Xe            Ye            Ze
 --- end of user-defined spheres data.
 ------------------------------------------------------------------------------
 Polarizable Continuum Model (PCM)
 =================================
 Model                : PCM.
 Atomic radii         : UA0 (Simple United Atom Topological Model).
 Polarization charges : Total charges.
 Charge compensation  : None.
 Solution method      : On-the-fly selection.
 Cavity type          : SES (Solvent Excluding Surface) (Alpha=1.000).
 Cavity algorithm     : GePol (RMin=0.200 OFac=0.890).
                        User-defined sphere list used, NSphG=   28.
                        Tesserae with average area of 0.075 Ang**2.
                        Smoothing algorithm: None.
                        Polarization charges: point-like.
                        Self-potential: constant (ISelfS= 1).
                        Self-field    : global E.n sum rule (ISelfD= 3).
 Solvent              : CycloHexane, Eps=   2.016500 Eps(inf)=   2.035188
                        RSolv=   2.815000 Ang.
 ------------------------------------------------------------------------------
 GePol: Number of generator spheres                  =      28
 GePol: Total number of spheres                      =     191
 GePol: Number of exposed spheres                    =     138 ( 72.25%)
 GePol: Number of tesserae                           =    4714
 GePol: Average area of tesserae                     =       0.05 Ang**2
 GePol: Minimum area of tessera                      =   0.10D-02 Ang**2
 GePol: Maximum area of tessera                      =    0.12395 Ang**2
 GePol: Number of small tesserae                     =       0
 GePol: Fraction of small tesserae (<1% of avg)      =       0.00%
 GePol: Total count of vertices                      =   16733
 GePol: Maximum number of vertices in a tessera      =       7
 GePol: Cavity surface area                          =    220.126 Ang**2
 GePol: Cavity volume                                =    249.097 Ang**3
 Leave Link  301 at Tue Aug  4 05:58:03 2020, MaxMem=  6442450944 cpu:               8.1 elap:               0.4
 (Enter /scratch/scicomp/CentOS/7.3.1611/Haswell/software/Gaussian/g16/l302.exe)
 NPDir=0 NMtPBC=     1 NCelOv=     1 NCel=       1 NClECP=     1 NCelD=      1
         NCelK=      1 NCelE2=     1 NClLst=     1 CellRange=     0.0.
 One-electron integrals computed using PRISM.
   1 Symmetry operations used in ECPInt.
 ECPInt:  NShTT=   19306 NPrTT=   56928 LenC2=   18500 LenP2D=   42068.
 LDataN:  DoStor=T MaxTD1= 6 Len=  172
 NBasis=   528 RedAO= T EigKep=  1.77D-05  NBF=   528
 NBsUse=   528 1.00D-06 EigRej= -1.00D+00 NBFU=   528
 Precomputing XC quadrature grid using
 IXCGrd= 4 IRadAn=           5 IRanWt=          -1 IRanGd=           0 AccXCQ= 0.00D+00.
 Generated NRdTot=       0 NPtTot=           0 NUsed=           0 NTot=          32
 NSgBfM=   526   526   526   526   526 MxSgAt=    28 MxSgA2=    28.
 Leave Link  302 at Tue Aug  4 05:58:04 2020, MaxMem=  6442450944 cpu:              12.7 elap:               0.6
 (Enter /scratch/scicomp/CentOS/7.3.1611/Haswell/software/Gaussian/g16/l303.exe)
 DipDrv:  MaxL=1.
 Leave Link  303 at Tue Aug  4 05:58:04 2020, MaxMem=  6442450944 cpu:               1.5 elap:               0.1
 (Enter /scratch/scicomp/CentOS/7.3.1611/Haswell/software/Gaussian/g16/l401.exe)
 ExpMin= 9.52D-02 ExpMax= 1.36D+04 ExpMxC= 4.63D+02 IAcc=3 IRadAn=         5 AccDes= 0.00D+00
 Harris functional with IExCor= 4639 and IRadAn=       5 diagonalized for initial guess.
 HarFok:  IExCor= 4639 AccDes= 0.00D+00 IRadAn=         5 IDoV= 1 UseB2=F ITyADJ=14
 ICtDFT=  3500011 ScaDFX=  1.000000  1.000000  1.000000  1.000000
 FoFCou: FMM=F IPFlag=           0 FMFlag=      100000 FMFlg1=           0
         NFxFlg=           0 DoJE=T BraDBF=F KetDBF=T FulRan=T
         wScrn=  0.000000 ICntrl=       500 IOpCl=  0 I1Cent=   200000004 NGrid=           0
         NMat0=    1 NMatS0=      1 NMatT0=    0 NMatD0=    1 NMtDS0=    0 NMtDT0=    0
 Symmetry not used in FoFCou.
 Harris En= -444.648011425704    
 JPrj=0 DoOrth=F DoCkMO=T.
 Mixing orbitals, IMix= 1 IMixAn=  0 NRI=1 NE=   44 Coef=  7.07106781D-01  7.07106781D-01
 Mixing orbitals, IMix= 1 IMixAn=  0 NRI=1 NE=   44 Coef= -7.07106781D-01  7.07106781D-01
 Initial guess <Sx>= 0.0000 <Sy>= 0.0000 <Sz>= 0.0000 <S**2>= 1.0000 S= 0.6180
 Leave Link  401 at Tue Aug  4 05:58:06 2020, MaxMem=  6442450944 cpu:              48.9 elap:               2.1
 (Enter /scratch/scicomp/CentOS/7.3.1611/Haswell/software/Gaussian/g16/l502.exe)
 Two-electron integral symmetry not used.
 UHF open shell SCF:
 Using DIIS extrapolation, IDIIS=  1040.
 NGot=  6442450944 LenX=  6441877030 LenY=  6441597718
 Requested convergence on RMS density matrix=1.00D-08 within 128 cycles.
 Requested convergence on MAX density matrix=1.00D-06.
 Requested convergence on             energy=1.00D-06.
 No special actions if energy rises.
 Fock matrices will be formed incrementally for  20 cycles.

 Cycle   1  Pass 1  IDiag  1:
 FoFJK:  IHMeth= 1 ICntrl=       0 DoSepK=T KAlg= 0 I1Cent=           0 FoldK=F
 IRaf=         1 NMat=       1 IRICut=       1 DoRegI=T DoRafI=F ISym2E= 0 IDoP0=0 IntGTp=1.
 FoFCou: FMM=F IPFlag=           0 FMFlag=      100000 FMFlg1=           0
         NFxFlg=           0 DoJE=T BraDBF=F KetDBF=F FulRan=T
         wScrn=  0.000000 ICntrl=       500 IOpCl=  0 I1Cent=           0 NGrid=           0
         NMat0=    1 NMatS0=      1 NMatT0=    0 NMatD0=    1 NMtDS0=    0 NMtDT0=    0
 Symmetry not used in FoFCou.
 Inv3:  Mode=1 IEnd=    66665388.
 Iteration    1 A*A^-1 deviation from unit magnitude is 8.88D-15 for     86.
 Iteration    1 A*A^-1 deviation from orthogonality  is 1.28D-14 for    296     86.
 Iteration    1 A^-1*A deviation from unit magnitude is 1.29D-14 for     86.
 Iteration    1 A^-1*A deviation from orthogonality  is 8.17D-15 for    296     86.
 E= -466.575502956658    
 DIIS: error= 5.48D-02 at cycle   1 NSaved=   1.
 NSaved= 1 IEnMin= 1 EnMin= -466.575502956658     IErMin= 1 ErrMin= 5.48D-02
 ErrMax= 5.48D-02  0.00D+00 EMaxC= 1.00D-01 BMatC= 4.11D+00 BMatP= 4.11D+00
 IDIUse=3 WtCom= 4.52D-01 WtEn= 5.48D-01
 Coeff-Com:  0.100D+01
 Coeff-En:   0.100D+01
 Coeff:      0.100D+01
 Gap=     0.185 Goal=   None    Shift=    0.000
 Gap=     0.185 Goal=   None    Shift=    0.000
 GapD=    0.185 DampG=1.000 DampE=0.500 DampFc=0.5000 IDamp=-1.
 Damping current iteration by 5.00D-01
 RMSDP=1.69D-03 MaxDP=9.24D-02              OVMax= 3.26D-01

 Cycle   2  Pass 1  IDiag  1:
 RMSU=  8.20D-04    CP:  9.67D-01
 E= -466.681825923804     Delta-E=       -0.106322967146 Rises=F Damp=T
 DIIS: error= 2.60D-02 at cycle   2 NSaved=   2.
 NSaved= 2 IEnMin= 2 EnMin= -466.681825923804     IErMin= 2 ErrMin= 2.60D-02
 ErrMax= 2.60D-02  0.00D+00 EMaxC= 1.00D-01 BMatC= 9.34D-01 BMatP= 4.11D+00
 IDIUse=3 WtCom= 7.40D-01 WtEn= 2.60D-01
 Coeff-Com: -0.868D+00 0.187D+01
 Coeff-En:   0.000D+00 0.100D+01
 Coeff:     -0.643D+00 0.164D+01
 Gap=     0.269 Goal=   None    Shift=    0.000
 Gap=     0.269 Goal=   None    Shift=    0.000
 RMSDP=1.21D-03 MaxDP=4.92D-02 DE=-1.06D-01 OVMax= 1.37D-01

 Cycle   3  Pass 1  IDiag  1:
 RMSU=  6.10D-04    CP:  9.18D-01  2.21D+00
 E= -466.819514659888     Delta-E=       -0.137688736083 Rises=F Damp=F
 DIIS: error= 7.69D-03 at cycle   3 NSaved=   3.
 NSaved= 3 IEnMin= 3 EnMin= -466.819514659888     IErMin= 3 ErrMin= 7.69D-03
 ErrMax= 7.69D-03  0.00D+00 EMaxC= 1.00D-01 BMatC= 2.33D-02 BMatP= 9.34D-01
 IDIUse=3 WtCom= 9.23D-01 WtEn= 7.69D-02
 Coeff-Com: -0.314D+00 0.674D+00 0.640D+00
 Coeff-En:   0.000D+00 0.000D+00 0.100D+01
 Coeff:     -0.290D+00 0.622D+00 0.668D+00
 Gap=     0.289 Goal=   None    Shift=    0.000
 Gap=     0.289 Goal=   None    Shift=    0.000
 RMSDP=2.37D-04 MaxDP=1.28D-02 DE=-1.38D-01 OVMax= 6.68D-02

 Cycle   4  Pass 1  IDiag  1:
 RMSU=  2.19D-04    CP:  9.09D-01  2.30D+00  1.00D+00
 E= -466.830415438229     Delta-E=       -0.010900778342 Rises=F Damp=F
 DIIS: error= 5.18D-03 at cycle   4 NSaved=   4.
 NSaved= 4 IEnMin= 4 EnMin= -466.830415438229     IErMin= 4 ErrMin= 5.18D-03
 ErrMax= 5.18D-03  0.00D+00 EMaxC= 1.00D-01 BMatC= 2.17D-03 BMatP= 2.33D-02
 IDIUse=3 WtCom= 9.48D-01 WtEn= 5.18D-02
 Coeff-Com:  0.131D+00-0.282D+00-0.598D-01 0.121D+01
 Coeff-En:   0.000D+00 0.000D+00 0.000D+00 0.100D+01
 Coeff:      0.125D+00-0.267D+00-0.568D-01 0.120D+01
 Gap=     0.300 Goal=   None    Shift=    0.000
 Gap=     0.300 Goal=   None    Shift=    0.000
 RMSDP=2.33D-04 MaxDP=1.10D-02 DE=-1.09D-02 OVMax= 8.02D-02

 Cycle   5  Pass 1  IDiag  1:
 RMSU=  9.48D-05    CP:  9.02D-01  2.36D+00  1.24D+00  1.65D+00
 E= -466.835393774856     Delta-E=       -0.004978336626 Rises=F Damp=F
 DIIS: error= 2.57D-03 at cycle   5 NSaved=   5.
 NSaved= 5 IEnMin= 5 EnMin= -466.835393774856     IErMin= 5 ErrMin= 2.57D-03
 ErrMax= 2.57D-03  0.00D+00 EMaxC= 1.00D-01 BMatC= 1.01D-03 BMatP= 2.17D-03
 IDIUse=3 WtCom= 9.74D-01 WtEn= 2.57D-02
 Coeff-Com:  0.800D-01-0.172D+00-0.911D-01 0.453D+00 0.730D+00
 Coeff-En:   0.000D+00 0.000D+00 0.000D+00 0.000D+00 0.100D+01
 Coeff:      0.780D-01-0.167D+00-0.887D-01 0.441D+00 0.737D+00
 Gap=     0.304 Goal=   None    Shift=    0.000
 Gap=     0.304 Goal=   None    Shift=    0.000
 RMSDP=9.06D-05 MaxDP=4.26D-03 DE=-4.98D-03 OVMax= 3.17D-02

 Cycle   6  Pass 1  IDiag  1:
 RMSU=  3.43D-05    CP:  9.00D-01  2.36D+00  1.29D+00  1.96D+00  1.39D+00
 E= -466.836922130488     Delta-E=       -0.001528355633 Rises=F Damp=F
 DIIS: error= 1.85D-03 at cycle   6 NSaved=   6.
 NSaved= 6 IEnMin= 6 EnMin= -466.836922130488     IErMin= 6 ErrMin= 1.85D-03
 ErrMax= 1.85D-03  0.00D+00 EMaxC= 1.00D-01 BMatC= 5.53D-04 BMatP= 1.01D-03
 IDIUse=3 WtCom= 9.81D-01 WtEn= 1.85D-02
 Coeff-Com: -0.729D-01 0.156D+00 0.583D-01-0.528D+00-0.692D-05 0.139D+01
 Coeff-En:   0.000D+00 0.000D+00 0.000D+00 0.000D+00 0.000D+00 0.100D+01
 Coeff:     -0.715D-01 0.154D+00 0.572D-01-0.518D+00-0.680D-05 0.138D+01
 Gap=     0.300 Goal=   None    Shift=    0.000
 Gap=     0.300 Goal=   None    Shift=    0.000
 RMSDP=1.12D-04 MaxDP=4.12D-03 DE=-1.53D-03 OVMax= 4.03D-02

 Cycle   7  Pass 1  IDiag  1:
 RMSU=  3.28D-05    CP:  8.98D-01  2.36D+00  1.33D+00  2.27D+00  2.08D+00
                    CP:  2.12D+00
 E= -466.838620416201     Delta-E=       -0.001698285713 Rises=F Damp=F
 DIIS: error= 1.22D-03 at cycle   7 NSaved=   7.
 NSaved= 7 IEnMin= 7 EnMin= -466.838620416201     IErMin= 7 ErrMin= 1.22D-03
 ErrMax= 1.22D-03  0.00D+00 EMaxC= 1.00D-01 BMatC= 3.00D-04 BMatP= 5.53D-04
 IDIUse=3 WtCom= 9.88D-01 WtEn= 1.22D-02
 Coeff-Com: -0.230D-01 0.500D-01 0.447D-01 0.307D-01-0.581D+00-0.789D+00
 Coeff-Com:  0.227D+01
 Coeff-En:   0.000D+00 0.000D+00 0.000D+00 0.000D+00 0.000D+00 0.000D+00
 Coeff-En:   0.100D+01
 Coeff:     -0.228D-01 0.494D-01 0.441D-01 0.303D-01-0.574D+00-0.779D+00
 Coeff:      0.225D+01
 Gap=     0.299 Goal=   None    Shift=    0.000
 Gap=     0.299 Goal=   None    Shift=    0.000
 RMSDP=1.53D-04 MaxDP=7.15D-03 DE=-1.70D-03 OVMax= 5.71D-02

 Cycle   8  Pass 1  IDiag  1:
 RMSU=  4.83D-05    CP:  8.95D-01  2.35D+00  1.38D+00  2.62D+00  2.98D+00
                    CP:  3.00D+00  2.79D+00
 E= -466.840249027571     Delta-E=       -0.001628611370 Rises=F Damp=F
 DIIS: error= 5.06D-04 at cycle   8 NSaved=   8.
 NSaved= 8 IEnMin= 8 EnMin= -466.840249027571     IErMin= 8 ErrMin= 5.06D-04
 ErrMax= 5.06D-04  0.00D+00 EMaxC= 1.00D-01 BMatC= 9.27D-05 BMatP= 3.00D-04
 IDIUse=3 WtCom= 9.95D-01 WtEn= 5.06D-03
 Coeff-Com:  0.298D-01-0.641D-01-0.117D-01 0.312D+00-0.182D+00-0.997D+00
 Coeff-Com:  0.736D+00 0.118D+01
 Coeff-En:   0.000D+00 0.000D+00 0.000D+00 0.000D+00 0.000D+00 0.000D+00
 Coeff-En:   0.000D+00 0.100D+01
 Coeff:      0.297D-01-0.638D-01-0.116D-01 0.311D+00-0.181D+00-0.992D+00
 Coeff:      0.732D+00 0.118D+01
 Gap=     0.301 Goal=   None    Shift=    0.000
 Gap=     0.301 Goal=   None    Shift=    0.000
 RMSDP=8.70D-05 MaxDP=4.26D-03 DE=-1.63D-03 OVMax= 3.32D-02

 Cycle   9  Pass 1  IDiag  1:
 RMSU=  5.56D-05    CP:  8.93D-01  2.35D+00  1.40D+00  2.77D+00  3.00D+00
                    CP:  3.00D+00  3.00D+00  2.01D+00
 E= -466.840669443842     Delta-E=       -0.000420416271 Rises=F Damp=F
 DIIS: error= 1.82D-04 at cycle   9 NSaved=   9.
 NSaved= 9 IEnMin= 9 EnMin= -466.840669443842     IErMin= 9 ErrMin= 1.82D-04
 ErrMax= 1.82D-04  0.00D+00 EMaxC= 1.00D-01 BMatC= 1.94D-05 BMatP= 9.27D-05
 IDIUse=3 WtCom= 9.98D-01 WtEn= 1.82D-03
 Coeff-Com:  0.189D-01-0.407D-01-0.141D-01 0.138D+00 0.352D-01-0.290D+00
 Coeff-Com: -0.123D+00 0.454D+00 0.821D+00
 Coeff-En:   0.000D+00 0.000D+00 0.000D+00 0.000D+00 0.000D+00 0.000D+00
 Coeff-En:   0.000D+00 0.000D+00 0.100D+01
 Coeff:      0.189D-01-0.406D-01-0.141D-01 0.138D+00 0.352D-01-0.289D+00
 Coeff:     -0.123D+00 0.453D+00 0.821D+00
 Gap=     0.301 Goal=   None    Shift=    0.000
 Gap=     0.301 Goal=   None    Shift=    0.000
 RMSDP=2.55D-05 MaxDP=1.29D-03 DE=-4.20D-04 OVMax= 9.89D-03

 Cycle  10  Pass 1  IDiag  1:
 RMSU=  6.91D-06    CP:  8.93D-01  2.35D+00  1.41D+00  2.81D+00  3.00D+00
                    CP:  3.00D+00  3.00D+00  2.31D+00  1.31D+00
 E= -466.840714251994     Delta-E=       -0.000044808151 Rises=F Damp=F
 DIIS: error= 8.52D-05 at cycle  10 NSaved=  10.
 NSaved=10 IEnMin=10 EnMin= -466.840714251994     IErMin=10 ErrMin= 8.52D-05
 ErrMax= 8.52D-05  0.00D+00 EMaxC= 1.00D-01 BMatC= 2.85D-06 BMatP= 1.94D-05
 IDIUse=1 WtCom= 1.00D+00 WtEn= 0.00D+00
 Coeff-Com: -0.135D-02 0.295D-02-0.829D-03-0.316D-01 0.380D-01 0.127D+00
 Coeff-Com: -0.146D+00-0.196D+00 0.125D+00 0.108D+01
 Coeff:     -0.135D-02 0.295D-02-0.829D-03-0.316D-01 0.380D-01 0.127D+00
 Coeff:     -0.146D+00-0.196D+00 0.125D+00 0.108D+01
 Gap=     0.300 Goal=   None    Shift=    0.000
 Gap=     0.300 Goal=   None    Shift=    0.000
 RMSDP=1.34D-05 MaxDP=5.87D-04 DE=-4.48D-05 OVMax= 5.18D-03

 Cycle  11  Pass 1  IDiag  1:
 RMSU=  3.48D-06    CP:  8.93D-01  2.35D+00  1.42D+00  2.82D+00  3.00D+00
                    CP:  3.00D+00  3.00D+00  2.46D+00  1.47D+00  1.55D+00
 E= -466.840721718662     Delta-E=       -0.000007466669 Rises=F Damp=F
 DIIS: error= 2.80D-05 at cycle  11 NSaved=  11.
 NSaved=11 IEnMin=11 EnMin= -466.840721718662     IErMin=11 ErrMin= 2.80D-05
 ErrMax= 2.80D-05  0.00D+00 EMaxC= 1.00D-01 BMatC= 6.28D-07 BMatP= 2.85D-06
 IDIUse=1 WtCom= 1.00D+00 WtEn= 0.00D+00
 Coeff-Com: -0.218D-02 0.470D-02 0.980D-03-0.243D-01 0.949D-02 0.699D-01
 Coeff-Com: -0.326D-01-0.122D+00-0.469D-01 0.430D+00 0.713D+00
 Coeff:     -0.218D-02 0.470D-02 0.980D-03-0.243D-01 0.949D-02 0.699D-01
 Coeff:     -0.326D-01-0.122D+00-0.469D-01 0.430D+00 0.713D+00
 Gap=     0.300 Goal=   None    Shift=    0.000
 Gap=     0.300 Goal=   None    Shift=    0.000
 RMSDP=2.42D-06 MaxDP=1.07D-04 DE=-7.47D-06 OVMax= 8.15D-04

 Cycle  12  Pass 1  IDiag  1:
 RMSU=  1.05D-06    CP:  8.92D-01  2.35D+00  1.42D+00  2.83D+00  3.00D+00
                    CP:  3.00D+00  3.00D+00  2.48D+00  1.49D+00  1.65D+00
                    CP:  1.19D+00
 E= -466.840722155386     Delta-E=       -0.000000436724 Rises=F Damp=F
 DIIS: error= 1.50D-05 at cycle  12 NSaved=  12.
 NSaved=12 IEnMin=12 EnMin= -466.840722155386     IErMin=12 ErrMin= 1.50D-05
 ErrMax= 1.50D-05  0.00D+00 EMaxC= 1.00D-01 BMatC= 8.16D-08 BMatP= 6.28D-07
 IDIUse=1 WtCom= 1.00D+00 WtEn= 0.00D+00
 Coeff-Com:  0.714D-03-0.155D-02-0.251D-03 0.913D-02-0.503D-02-0.308D-01
 Coeff-Com:  0.254D-01 0.459D-01-0.785D-02-0.223D+00-0.402D-01 0.123D+01
 Coeff:      0.714D-03-0.155D-02-0.251D-03 0.913D-02-0.503D-02-0.308D-01
 Coeff:      0.254D-01 0.459D-01-0.785D-02-0.223D+00-0.402D-01 0.123D+01
 Gap=     0.300 Goal=   None    Shift=    0.000
 Gap=     0.300 Goal=   None    Shift=    0.000
 RMSDP=1.02D-06 MaxDP=3.69D-05 DE=-4.37D-07 OVMax= 1.73D-04

 Cycle  13  Pass 1  IDiag  1:
 RMSU=  5.64D-07    CP:  8.92D-01  2.35D+00  1.42D+00  2.83D+00  3.00D+00
                    CP:  3.00D+00  3.00D+00  2.48D+00  1.49D+00  1.67D+00
                    CP:  1.32D+00  1.59D+00
 E= -466.840722278109     Delta-E=       -0.000000122723 Rises=F Damp=F
 DIIS: error= 7.93D-06 at cycle  13 NSaved=  13.
 NSaved=13 IEnMin=13 EnMin= -466.840722278109     IErMin=13 ErrMin= 7.93D-06
 ErrMax= 7.93D-06  0.00D+00 EMaxC= 1.00D-01 BMatC= 2.10D-08 BMatP= 8.16D-08
 IDIUse=1 WtCom= 1.00D+00 WtEn= 0.00D+00
 Coeff-Com: -0.127D-04 0.308D-04 0.668D-04 0.460D-03-0.639D-03-0.194D-02
 Coeff-Com:  0.943D-03 0.642D-02 0.127D-02-0.322D-01-0.893D-01-0.112D+00
 Coeff-Com:  0.123D+01
 Coeff:     -0.127D-04 0.308D-04 0.668D-04 0.460D-03-0.639D-03-0.194D-02
 Coeff:      0.943D-03 0.642D-02 0.127D-02-0.322D-01-0.893D-01-0.112D+00
 Coeff:      0.123D+01
 Gap=     0.300 Goal=   None    Shift=    0.000
 Gap=     0.300 Goal=   None    Shift=    0.000
 RMSDP=4.65D-07 MaxDP=2.80D-05 DE=-1.23D-07 OVMax= 1.21D-04

 Cycle  14  Pass 1  IDiag  1:
 RMSU=  3.08D-07    CP:  8.92D-01  2.35D+00  1.42D+00  2.83D+00  3.00D+00
                    CP:  3.00D+00  3.00D+00  2.48D+00  1.50D+00  1.69D+00
                    CP:  1.36D+00  1.73D+00  1.42D+00
 E= -466.840722319445     Delta-E=       -0.000000041336 Rises=F Damp=F
 DIIS: error= 4.56D-06 at cycle  14 NSaved=  14.
 NSaved=14 IEnMin=14 EnMin= -466.840722319445     IErMin=14 ErrMin= 4.56D-06
 ErrMax= 4.56D-06  0.00D+00 EMaxC= 1.00D-01 BMatC= 7.14D-09 BMatP= 2.10D-08
 IDIUse=1 WtCom= 1.00D+00 WtEn= 0.00D+00
 Coeff-Com: -0.326D-03 0.705D-03 0.188D-03-0.344D-02 0.139D-02 0.109D-01
 Coeff-Com: -0.840D-02-0.153D-01 0.207D-02 0.753D-01 0.953D-02-0.425D+00
 Coeff-Com: -0.609D-02 0.136D+01
 Coeff:     -0.326D-03 0.705D-03 0.188D-03-0.344D-02 0.139D-02 0.109D-01
 Coeff:     -0.840D-02-0.153D-01 0.207D-02 0.753D-01 0.953D-02-0.425D+00
 Coeff:     -0.609D-02 0.136D+01
 Gap=     0.300 Goal=   None    Shift=    0.000
 Gap=     0.300 Goal=   None    Shift=    0.000
 RMSDP=3.86D-07 MaxDP=1.87D-05 DE=-4.13D-08 OVMax= 8.92D-05

 Cycle  15  Pass 1  IDiag  1:
 RMSU=  1.33D-07    CP:  8.92D-01  2.35D+00  1.42D+00  2.83D+00  3.00D+00
                    CP:  3.00D+00  3.00D+00  2.48D+00  1.49D+00  1.70D+00
                    CP:  1.36D+00  1.76D+00  1.76D+00  1.96D+00
 E= -466.840722336127     Delta-E=       -0.000000016682 Rises=F Damp=F
 DIIS: error= 1.70D-06 at cycle  15 NSaved=  15.
 NSaved=15 IEnMin=15 EnMin= -466.840722336127     IErMin=15 ErrMin= 1.70D-06
 ErrMax= 1.70D-06  0.00D+00 EMaxC= 1.00D-01 BMatC= 1.25D-09 BMatP= 7.14D-09
 IDIUse=1 WtCom= 1.00D+00 WtEn= 0.00D+00
 Coeff-Com: -0.153D-04 0.320D-04-0.205D-04-0.389D-03 0.456D-03 0.165D-02
 Coeff-Com: -0.197D-02-0.273D-02 0.216D-02 0.196D-01 0.185D-01-0.524D-01
 Coeff-Com: -0.298D+00 0.227D+00 0.109D+01
 Coeff:     -0.153D-04 0.320D-04-0.205D-04-0.389D-03 0.456D-03 0.165D-02
 Coeff:     -0.197D-02-0.273D-02 0.216D-02 0.196D-01 0.185D-01-0.524D-01
 Coeff:     -0.298D+00 0.227D+00 0.109D+01
 Gap=     0.300 Goal=   None    Shift=    0.000
 Gap=     0.300 Goal=   None    Shift=    0.000
 RMSDP=1.92D-07 MaxDP=8.29D-06 DE=-1.67D-08 OVMax= 4.56D-05

 Cycle  16  Pass 1  IDiag  1:
 RMSU=  5.56D-08    CP:  8.92D-01  2.35D+00  1.42D+00  2.83D+00  3.00D+00
                    CP:  3.00D+00  3.00D+00  2.48D+00  1.49D+00  1.70D+00
                    CP:  1.35D+00  1.74D+00  1.88D+00  2.38D+00  1.44D+00
 E= -466.840722338509     Delta-E=       -0.000000002382 Rises=F Damp=F
 DIIS: error= 3.81D-07 at cycle  16 NSaved=  16.
 NSaved=16 IEnMin=16 EnMin= -466.840722338509     IErMin=16 ErrMin= 3.81D-07
 ErrMax= 3.81D-07  0.00D+00 EMaxC= 1.00D-01 BMatC= 1.19D-10 BMatP= 1.25D-09
 IDIUse=1 WtCom= 1.00D+00 WtEn= 0.00D+00
 Coeff-Com:  0.664D-05-0.145D-04-0.108D-04 0.651D-04 0.331D-04-0.122D-03
 Coeff-Com: -0.439D-05 0.244D-03 0.274D-03-0.116D-02 0.413D-02 0.237D-01
 Coeff-Com: -0.661D-01-0.875D-01 0.255D+00 0.871D+00
 Coeff:      0.664D-05-0.145D-04-0.108D-04 0.651D-04 0.331D-04-0.122D-03
 Coeff:     -0.439D-05 0.244D-03 0.274D-03-0.116D-02 0.413D-02 0.237D-01
 Coeff:     -0.661D-01-0.875D-01 0.255D+00 0.871D+00
 Gap=     0.300 Goal=   None    Shift=    0.000
 Gap=     0.300 Goal=   None    Shift=    0.000
 RMSDP=4.20D-08 MaxDP=1.83D-06 DE=-2.38D-09 OVMax= 8.69D-06

 Cycle  17  Pass 1  IDiag  1:
 RMSU=  1.71D-08    CP:  8.92D-01  2.35D+00  1.42D+00  2.83D+00  3.00D+00
                    CP:  3.00D+00  3.00D+00  2.48D+00  1.49D+00  1.70D+00
                    CP:  1.35D+00  1.74D+00  1.89D+00  2.45D+00  1.56D+00
                    CP:  1.35D+00
 E= -466.840722338622     Delta-E=       -0.000000000112 Rises=F Damp=F
 DIIS: error= 8.55D-08 at cycle  17 NSaved=  17.
 NSaved=17 IEnMin=17 EnMin= -466.840722338622     IErMin=17 ErrMin= 8.55D-08
 ErrMax= 8.55D-08  0.00D+00 EMaxC= 1.00D-01 BMatC= 1.23D-11 BMatP= 1.19D-10
 IDIUse=1 WtCom= 1.00D+00 WtEn= 0.00D+00
 Coeff-Com: -0.139D-05 0.310D-05 0.947D-06-0.292D-05-0.145D-04 0.137D-04
 Coeff-Com:  0.278D-04 0.999D-04-0.163D-03-0.143D-02-0.912D-03 0.631D-02
 Coeff-Com:  0.222D-01-0.354D-01-0.804D-01 0.156D+00 0.933D+00
 Coeff:     -0.139D-05 0.310D-05 0.947D-06-0.292D-05-0.145D-04 0.137D-04
 Coeff:      0.278D-04 0.999D-04-0.163D-03-0.143D-02-0.912D-03 0.631D-02
 Coeff:      0.222D-01-0.354D-01-0.804D-01 0.156D+00 0.933D+00
 Gap=     0.300 Goal=   None    Shift=    0.000
 Gap=     0.300 Goal=   None    Shift=    0.000
 RMSDP=1.26D-08 MaxDP=4.57D-07 DE=-1.12D-10 OVMax= 1.70D-06

 Cycle  18  Pass 1  IDiag  1:
 RMSU=  6.00D-09    CP:  8.92D-01  2.35D+00  1.42D+00  2.83D+00  3.00D+00
                    CP:  3.00D+00  3.00D+00  2.48D+00  1.49D+00  1.70D+00
                    CP:  1.35D+00  1.73D+00  1.89D+00  2.45D+00  1.60D+00
                    CP:  1.49D+00  1.19D+00
 E= -466.840722338629     Delta-E=       -0.000000000007 Rises=F Damp=F
 DIIS: error= 2.73D-08 at cycle  18 NSaved=  18.
 NSaved=18 IEnMin=18 EnMin= -466.840722338629     IErMin=18 ErrMin= 2.73D-08
 ErrMax= 2.73D-08  0.00D+00 EMaxC= 1.00D-01 BMatC= 9.84D-13 BMatP= 1.23D-11
 IDIUse=1 WtCom= 1.00D+00 WtEn= 0.00D+00
 Coeff-Com:  0.541D-06-0.118D-05 0.436D-06 0.421D-05-0.121D-04-0.873D-05
 Coeff-Com:  0.712D-05 0.335D-04-0.173D-04-0.135D-03-0.562D-03-0.146D-02
 Coeff-Com:  0.919D-02 0.462D-02-0.342D-01-0.767D-01 0.853D-01 0.101D+01
 Coeff:      0.541D-06-0.118D-05 0.436D-06 0.421D-05-0.121D-04-0.873D-05
 Coeff:      0.712D-05 0.335D-04-0.173D-04-0.135D-03-0.562D-03-0.146D-02
 Coeff:      0.919D-02 0.462D-02-0.342D-01-0.767D-01 0.853D-01 0.101D+01
 Gap=     0.300 Goal=   None    Shift=    0.000
 Gap=     0.300 Goal=   None    Shift=    0.000
 RMSDP=4.39D-09 MaxDP=1.92D-07 DE=-6.93D-12 OVMax= 4.51D-07

 Error on total polarization charges =  0.01123
 SCF Done:  E(UwB97XD) =  -466.840722339     A.U. after   18 cycles
            NFock= 18  Conv=0.44D-08     -V/T= 2.0056
 <Sx>= 0.0000 <Sy>= 0.0000 <Sz>= 0.0000 <S**2>= 0.0000 S= 0.0000
 <L.S>=  0.00000000000    
 KE= 4.642625478601D+02 PE=-2.446971727521D+03 EE= 8.333686301781D+02
 --------------------------------------------------------------------
 Variational PCM results
 =======================
 <psi(f)|   H    |psi(f)>                     (a.u.) =    -466.848624
 <psi(f)|H+V(f)/2|psi(f)>                     (a.u.) =    -466.850172
 Total free energy in solution:
 - with all non electrostatic terms           (a.u.) =    -466.840722
 --------------------------------------------------------------------
 (Polarized solute)-Solvent               (kcal/mol) =      -0.97
 --------------------------------------------------------------------
 Quantum repulsion energy                 (kcal/mol) =       5.93
 Total non electrostatic                  (kcal/mol) =       5.93
 --------------------------------------------------------------------
 Partition over spheres:
 Sphere  on Atom  Surface  Charge   GEl     GCav    GDR
    1               7.21   0.011   -0.05    0.00    0.00
    2               4.34   0.006   -0.04    0.00    0.00
    3               7.52  -0.010   -0.04    0.00    0.00
    4               2.20  -0.003   -0.00    0.00    0.00
    5               4.61   0.009   -0.06    0.00    0.00
    6               4.53   0.007   -0.04    0.00    0.00
    7               4.59  -0.006   -0.03    0.00    0.00
    8               3.05  -0.004   -0.01    0.00    0.00
    9               3.09   0.002    0.00    0.00    0.00
   10               6.84  -0.007   -0.01    0.00    0.00
   11               2.56  -0.002   -0.01    0.00    0.00
   12               6.45   0.010   -0.06    0.00    0.00
   13               7.52  -0.010   -0.03    0.00    0.00
   14               7.35   0.011   -0.05    0.00    0.00
   15               7.52  -0.010   -0.04    0.00    0.00
   16               3.65   0.001    0.00    0.00    0.00
   17               3.71  -0.004   -0.01    0.00    0.00
   18               6.94  -0.008   -0.03    0.00    0.00
   19               5.45   0.010   -0.07    0.00    0.00
   20               5.27  -0.008   -0.03    0.00    0.00
   21               6.95   0.010   -0.06    0.00    0.00
   22               7.51  -0.010   -0.03    0.00    0.00
   23               3.57   0.002    0.00    0.00    0.00
   24               3.91  -0.003   -0.01    0.00    0.00
   25               6.78  -0.007   -0.01    0.00    0.00
   26               3.26   0.001    0.00    0.00    0.00
   27               6.94  -0.008   -0.03    0.00    0.00
   28               3.70  -0.004   -0.01    0.00    0.00
 Added spheres:    73.08   0.011   -0.21    0.00    0.00
 --------------------------------------------------------------------
 After PCM corrections, the energy is  -466.840722339     a.u.
 --------------------------------------------------------------------
 Annihilation of the first spin contaminant:
 S**2 before annihilation     0.0000,   after    -0.0000
 Leave Link  502 at Tue Aug  4 06:03:45 2020, MaxMem=  6442450944 cpu:            8067.2 elap:             339.0
 (Enter /scratch/scicomp/CentOS/7.3.1611/Haswell/software/Gaussian/g16/l601.exe)
 Copying SCF densities to generalized density rwf, IOpCl= 1 IROHF=0.

 **********************************************************************

            Population analysis using the SCF Density.

 **********************************************************************

 Alpha  occ. eigenvalues --  -10.28408 -10.28408 -10.28062 -10.28061 -10.28061
 Alpha  occ. eigenvalues --  -10.28060 -10.28026 -10.28025 -10.27797 -10.27796
 Alpha  occ. eigenvalues --  -10.27207 -10.27205  -0.94265  -0.93372  -0.84402
 Alpha  occ. eigenvalues --   -0.84173  -0.83544  -0.83506  -0.71506  -0.70973
 Alpha  occ. eigenvalues --   -0.68055  -0.67764  -0.59718  -0.59602  -0.57389
 Alpha  occ. eigenvalues --   -0.56401  -0.53615  -0.52770  -0.50870  -0.50832
 Alpha  occ. eigenvalues --   -0.49732  -0.49073  -0.47406  -0.46748  -0.45451
 Alpha  occ. eigenvalues --   -0.44824  -0.41292  -0.40849  -0.39729  -0.39115
 Alpha  occ. eigenvalues --   -0.39065  -0.38660  -0.29881  -0.26891
 Alpha virt. eigenvalues --    0.03145   0.05838   0.11402   0.13183   0.14430
 Alpha virt. eigenvalues --    0.15514   0.15589   0.16541   0.16618   0.16877
 Alpha virt. eigenvalues --    0.17482   0.17672   0.18253   0.19217   0.20928
 Alpha virt. eigenvalues --    0.22192   0.22328   0.23688   0.24260   0.24810
 Alpha virt. eigenvalues --    0.25452   0.26167   0.26638   0.27330   0.28472
 Alpha virt. eigenvalues --    0.29234   0.29779   0.30051   0.31050   0.31209
 Alpha virt. eigenvalues --    0.31732   0.32434   0.32962   0.33432   0.34584
 Alpha virt. eigenvalues --    0.34629   0.35231   0.36489   0.36759   0.37941
 Alpha virt. eigenvalues --    0.38986   0.39339   0.41978   0.42184   0.42528
 Alpha virt. eigenvalues --    0.42648   0.44671   0.44808   0.45796   0.46389
 Alpha virt. eigenvalues --    0.47324   0.48005   0.48740   0.48800   0.49309
 Alpha virt. eigenvalues --    0.49624   0.49684   0.49720   0.50503   0.50827
 Alpha virt. eigenvalues --    0.51302   0.51315   0.52834   0.52885   0.53513
 Alpha virt. eigenvalues --    0.53964   0.54912   0.55051   0.56011   0.56027
 Alpha virt. eigenvalues --    0.57706   0.57921   0.58200   0.59892   0.60984
 Alpha virt. eigenvalues --    0.61355   0.61579   0.62306   0.63656   0.65902
 Alpha virt. eigenvalues --    0.66272   0.66565   0.68402   0.68821   0.68928
 Alpha virt. eigenvalues --    0.69371   0.72685   0.73903   0.74843   0.75682
 Alpha virt. eigenvalues --    0.78478   0.78557   0.78937   0.80520   0.80533
 Alpha virt. eigenvalues --    0.82047   0.83255   0.84202   0.86143   0.87911
 Alpha virt. eigenvalues --    0.90008   0.91114   0.91271   0.93094   0.93638
 Alpha virt. eigenvalues --    0.94900   0.96991   0.97157   0.98920   0.99220
 Alpha virt. eigenvalues --    1.01536   1.03768   1.04930   1.05426   1.05602
 Alpha virt. eigenvalues --    1.07304   1.08101   1.08123   1.11022   1.11082
 Alpha virt. eigenvalues --    1.12845   1.13367   1.14536   1.15517   1.16615
 Alpha virt. eigenvalues --    1.17182   1.18137   1.18908   1.19352   1.20221
 Alpha virt. eigenvalues --    1.20437   1.20974   1.23651   1.25419   1.25468
 Alpha virt. eigenvalues --    1.26224   1.26878   1.28329   1.29124   1.29282
 Alpha virt. eigenvalues --    1.30250   1.31820   1.31942   1.32316   1.33119
 Alpha virt. eigenvalues --    1.34410   1.34962   1.37292   1.37890   1.38245
 Alpha virt. eigenvalues --    1.38680   1.39794   1.41150   1.41237   1.42291
 Alpha virt. eigenvalues --    1.42984   1.43209   1.43758   1.44465   1.45032
 Alpha virt. eigenvalues --    1.45523   1.46369   1.47683   1.48943   1.49179
 Alpha virt. eigenvalues --    1.50241   1.51615   1.53520   1.54470   1.56633
 Alpha virt. eigenvalues --    1.58433   1.58609   1.59652   1.61129   1.61792
 Alpha virt. eigenvalues --    1.63323   1.63660   1.64351   1.66558   1.66655
 Alpha virt. eigenvalues --    1.68292   1.71259   1.74916   1.75329   1.78466
 Alpha virt. eigenvalues --    1.80669   1.82036   1.82111   1.83680   1.85174
 Alpha virt. eigenvalues --    1.87876   1.88721   1.90779   1.91709   1.93046
 Alpha virt. eigenvalues --    1.93601   1.96823   1.98458   1.99742   2.01134
 Alpha virt. eigenvalues --    2.03482   2.03780   2.09411   2.10338   2.10706
 Alpha virt. eigenvalues --    2.12516   2.12671   2.13866   2.15784   2.16338
 Alpha virt. eigenvalues --    2.17745   2.20365   2.20732   2.22032   2.23244
 Alpha virt. eigenvalues --    2.24171   2.24972   2.25602   2.28386   2.30025
 Alpha virt. eigenvalues --    2.34980   2.36519   2.38525   2.40755   2.42250
 Alpha virt. eigenvalues --    2.44472   2.45397   2.45844   2.49287   2.49436
 Alpha virt. eigenvalues --    2.50117   2.50808   2.52096   2.55034   2.55959
 Alpha virt. eigenvalues --    2.57889   2.58335   2.59779   2.62541   2.63110
 Alpha virt. eigenvalues --    2.63158   2.64559   2.65521   2.65830   2.66091
 Alpha virt. eigenvalues --    2.67505   2.68252   2.70778   2.72769   2.73016
 Alpha virt. eigenvalues --    2.73476   2.74598   2.75620   2.75840   2.77154
 Alpha virt. eigenvalues --    2.78878   2.78936   2.80679   2.80922   2.81486
 Alpha virt. eigenvalues --    2.82353   2.82913   2.83530   2.84460   2.85954
 Alpha virt. eigenvalues --    2.86328   2.87673   2.87703   2.89193   2.90021
 Alpha virt. eigenvalues --    2.91664   2.92741   2.92911   2.94334   2.95543
 Alpha virt. eigenvalues --    2.96384   2.97092   2.97480   2.98580   3.01187
 Alpha virt. eigenvalues --    3.01467   3.02690   3.03875   3.05604   3.06083
 Alpha virt. eigenvalues --    3.06957   3.09212   3.09905   3.11214   3.11358
 Alpha virt. eigenvalues --    3.12032   3.13477   3.13853   3.14796   3.15683
 Alpha virt. eigenvalues --    3.15999   3.17073   3.17104   3.18710   3.19161
 Alpha virt. eigenvalues --    3.20338   3.20965   3.21109   3.21337   3.21689
 Alpha virt. eigenvalues --    3.22649   3.23063   3.23140   3.24230   3.25518
 Alpha virt. eigenvalues --    3.25834   3.26602   3.27714   3.27847   3.28687
 Alpha virt. eigenvalues --    3.28862   3.30326   3.31002   3.31555   3.32660
 Alpha virt. eigenvalues --    3.32764   3.33420   3.34100   3.35674   3.36505
 Alpha virt. eigenvalues --    3.36849   3.36937   3.38345   3.39196   3.40489
 Alpha virt. eigenvalues --    3.42844   3.43466   3.43643   3.45135   3.45180
 Alpha virt. eigenvalues --    3.46083   3.46298   3.47106   3.47621   3.47728
 Alpha virt. eigenvalues --    3.48889   3.50089   3.50243   3.51629   3.53551
 Alpha virt. eigenvalues --    3.54049   3.54215   3.55452   3.55728   3.57400
 Alpha virt. eigenvalues --    3.58568   3.59952   3.60343   3.62046   3.65208
 Alpha virt. eigenvalues --    3.65757   3.67116   3.68788   3.69029   3.69984
 Alpha virt. eigenvalues --    3.71002   3.71583   3.74112   3.74731   3.75885
 Alpha virt. eigenvalues --    3.79059   3.79427   3.80128   3.81940   3.84080
 Alpha virt. eigenvalues --    3.85129   3.85744   3.86000   3.88114   3.89254
 Alpha virt. eigenvalues --    3.90925   3.91804   3.94600   3.95122   3.97520
 Alpha virt. eigenvalues --    3.99720   4.01984   4.02666   4.03742   4.06334
 Alpha virt. eigenvalues --    4.07812   4.09186   4.09295   4.09660   4.11700
 Alpha virt. eigenvalues --    4.13260   4.13565   4.15973   4.16141   4.18761
 Alpha virt. eigenvalues --    4.19610   4.22544   4.22666   4.23285   4.26659
 Alpha virt. eigenvalues --    4.26873   4.28372   4.31660   4.31889   4.36256
 Alpha virt. eigenvalues --    4.36977   4.38065   4.39589   4.41471   4.43737
 Alpha virt. eigenvalues --    4.46356   4.48454   4.49495   4.50041   4.53748
 Alpha virt. eigenvalues --    4.55521   4.60150   4.62085   4.66635   4.67880
 Alpha virt. eigenvalues --    4.70039   4.70239   4.73039   4.75165   4.76686
 Alpha virt. eigenvalues --    4.78518   4.81089   4.82881   4.84996   4.85749
 Alpha virt. eigenvalues --    4.85852   4.88566   4.93299   4.95704   4.96323
 Alpha virt. eigenvalues --    4.98668   5.03973   5.04042   5.08055   5.08712
 Alpha virt. eigenvalues --    5.14206   5.17505   5.19160   5.22593   5.24142
 Alpha virt. eigenvalues --    5.24314   5.34362   5.35120   5.41552   5.42867
 Alpha virt. eigenvalues --    5.45309   5.46294   5.51122   5.54635   5.71543
 Alpha virt. eigenvalues --    5.71695   5.77860   5.79332   5.96806   6.02505
 Alpha virt. eigenvalues --    7.94982   7.95509   8.01706   8.04239   8.05348
 Alpha virt. eigenvalues --    8.09618   8.10523   8.13702   8.17141   8.19958
 Alpha virt. eigenvalues --    8.35929   8.36703  34.76852  34.77951  34.81518
 Alpha virt. eigenvalues --   34.81800  34.84909  34.90951  34.96035  35.00386
 Alpha virt. eigenvalues --   35.01440  35.02639  35.17983  35.18262
  Beta  occ. eigenvalues --  -10.28408 -10.28408 -10.28062 -10.28061 -10.28061
  Beta  occ. eigenvalues --  -10.28060 -10.28026 -10.28025 -10.27797 -10.27796
  Beta  occ. eigenvalues --  -10.27207 -10.27205  -0.94265  -0.93372  -0.84402
  Beta  occ. eigenvalues --   -0.84173  -0.83544  -0.83506  -0.71506  -0.70973
  Beta  occ. eigenvalues --   -0.68055  -0.67764  -0.59718  -0.59602  -0.57389
  Beta  occ. eigenvalues --   -0.56401  -0.53615  -0.52770  -0.50870  -0.50832
  Beta  occ. eigenvalues --   -0.49732  -0.49073  -0.47406  -0.46748  -0.45451
  Beta  occ. eigenvalues --   -0.44824  -0.41292  -0.40849  -0.39729  -0.39115
  Beta  occ. eigenvalues --   -0.39065  -0.38660  -0.29881  -0.26891
  Beta virt. eigenvalues --    0.03145   0.05838   0.11402   0.13183   0.14430
  Beta virt. eigenvalues --    0.15514   0.15589   0.16541   0.16618   0.16877
  Beta virt. eigenvalues --    0.17482   0.17672   0.18253   0.19217   0.20928
  Beta virt. eigenvalues --    0.22192   0.22328   0.23688   0.24260   0.24810
  Beta virt. eigenvalues --    0.25452   0.26167   0.26638   0.27330   0.28472
  Beta virt. eigenvalues --    0.29234   0.29779   0.30051   0.31050   0.31209
  Beta virt. eigenvalues --    0.31732   0.32434   0.32962   0.33432   0.34584
  Beta virt. eigenvalues --    0.34629   0.35231   0.36489   0.36759   0.37941
  Beta virt. eigenvalues --    0.38986   0.39339   0.41978   0.42184   0.42528
  Beta virt. eigenvalues --    0.42648   0.44671   0.44808   0.45796   0.46389
  Beta virt. eigenvalues --    0.47324   0.48005   0.48740   0.48800   0.49309
  Beta virt. eigenvalues --    0.49624   0.49684   0.49720   0.50503   0.50827
  Beta virt. eigenvalues --    0.51302   0.51315   0.52834   0.52885   0.53513
  Beta virt. eigenvalues --    0.53964   0.54912   0.55051   0.56011   0.56027
  Beta virt. eigenvalues --    0.57706   0.57921   0.58200   0.59892   0.60984
  Beta virt. eigenvalues --    0.61355   0.61579   0.62306   0.63656   0.65902
  Beta virt. eigenvalues --    0.66272   0.66565   0.68402   0.68821   0.68928
  Beta virt. eigenvalues --    0.69371   0.72685   0.73903   0.74843   0.75682
  Beta virt. eigenvalues --    0.78478   0.78557   0.78937   0.80520   0.80533
  Beta virt. eigenvalues --    0.82047   0.83255   0.84202   0.86143   0.87911
  Beta virt. eigenvalues --    0.90008   0.91114   0.91271   0.93094   0.93638
  Beta virt. eigenvalues --    0.94900   0.96991   0.97157   0.98920   0.99220
  Beta virt. eigenvalues --    1.01536   1.03768   1.04930   1.05426   1.05602
  Beta virt. eigenvalues --    1.07304   1.08101   1.08123   1.11022   1.11082
  Beta virt. eigenvalues --    1.12845   1.13367   1.14536   1.15517   1.16615
  Beta virt. eigenvalues --    1.17182   1.18137   1.18908   1.19352   1.20221
  Beta virt. eigenvalues --    1.20437   1.20974   1.23651   1.25419   1.25468
  Beta virt. eigenvalues --    1.26224   1.26878   1.28329   1.29124   1.29282
  Beta virt. eigenvalues --    1.30250   1.31820   1.31942   1.32316   1.33119
  Beta virt. eigenvalues --    1.34410   1.34962   1.37292   1.37890   1.38245
  Beta virt. eigenvalues --    1.38680   1.39794   1.41150   1.41237   1.42291
  Beta virt. eigenvalues --    1.42984   1.43209   1.43758   1.44465   1.45032
  Beta virt. eigenvalues --    1.45523   1.46369   1.47683   1.48943   1.49179
  Beta virt. eigenvalues --    1.50241   1.51615   1.53520   1.54470   1.56633
  Beta virt. eigenvalues --    1.58433   1.58609   1.59652   1.61129   1.61792
  Beta virt. eigenvalues --    1.63323   1.63660   1.64351   1.66558   1.66655
  Beta virt. eigenvalues --    1.68292   1.71259   1.74916   1.75329   1.78466
  Beta virt. eigenvalues --    1.80669   1.82036   1.82111   1.83680   1.85174
  Beta virt. eigenvalues --    1.87876   1.88721   1.90779   1.91709   1.93046
  Beta virt. eigenvalues --    1.93601   1.96823   1.98458   1.99742   2.01134
  Beta virt. eigenvalues --    2.03482   2.03780   2.09411   2.10338   2.10706
  Beta virt. eigenvalues --    2.12516   2.12671   2.13866   2.15784   2.16338
  Beta virt. eigenvalues --    2.17745   2.20365   2.20732   2.22032   2.23244
  Beta virt. eigenvalues --    2.24171   2.24972   2.25602   2.28386   2.30025
  Beta virt. eigenvalues --    2.34980   2.36519   2.38525   2.40755   2.42250
  Beta virt. eigenvalues --    2.44472   2.45397   2.45844   2.49287   2.49436
  Beta virt. eigenvalues --    2.50117   2.50808   2.52096   2.55034   2.55959
  Beta virt. eigenvalues --    2.57889   2.58335   2.59779   2.62541   2.63110
  Beta virt. eigenvalues --    2.63158   2.64559   2.65521   2.65830   2.66091
  Beta virt. eigenvalues --    2.67505   2.68252   2.70778   2.72769   2.73016
  Beta virt. eigenvalues --    2.73476   2.74598   2.75620   2.75840   2.77154
  Beta virt. eigenvalues --    2.78878   2.78936   2.80679   2.80922   2.81486
  Beta virt. eigenvalues --    2.82353   2.82913   2.83530   2.84460   2.85954
  Beta virt. eigenvalues --    2.86328   2.87673   2.87703   2.89193   2.90021
  Beta virt. eigenvalues --    2.91664   2.92741   2.92911   2.94334   2.95543
  Beta virt. eigenvalues --    2.96384   2.97092   2.97480   2.98580   3.01187
  Beta virt. eigenvalues --    3.01467   3.02690   3.03875   3.05604   3.06083
  Beta virt. eigenvalues --    3.06957   3.09212   3.09905   3.11214   3.11358
  Beta virt. eigenvalues --    3.12032   3.13477   3.13853   3.14796   3.15683
  Beta virt. eigenvalues --    3.15999   3.17073   3.17104   3.18710   3.19161
  Beta virt. eigenvalues --    3.20338   3.20965   3.21109   3.21337   3.21689
  Beta virt. eigenvalues --    3.22649   3.23063   3.23140   3.24230   3.25518
  Beta virt. eigenvalues --    3.25834   3.26602   3.27714   3.27847   3.28687
  Beta virt. eigenvalues --    3.28862   3.30326   3.31002   3.31555   3.32660
  Beta virt. eigenvalues --    3.32764   3.33420   3.34100   3.35674   3.36505
  Beta virt. eigenvalues --    3.36849   3.36937   3.38345   3.39196   3.40489
  Beta virt. eigenvalues --    3.42844   3.43466   3.43643   3.45135   3.45180
  Beta virt. eigenvalues --    3.46083   3.46298   3.47106   3.47621   3.47728
  Beta virt. eigenvalues --    3.48889   3.50089   3.50243   3.51629   3.53551
  Beta virt. eigenvalues --    3.54049   3.54215   3.55452   3.55728   3.57400
  Beta virt. eigenvalues --    3.58568   3.59952   3.60343   3.62046   3.65208
  Beta virt. eigenvalues --    3.65757   3.67116   3.68788   3.69029   3.69984
  Beta virt. eigenvalues --    3.71002   3.71583   3.74112   3.74731   3.75885
  Beta virt. eigenvalues --    3.79059   3.79427   3.80128   3.81940   3.84080
  Beta virt. eigenvalues --    3.85129   3.85744   3.86000   3.88114   3.89254
  Beta virt. eigenvalues --    3.90925   3.91804   3.94600   3.95122   3.97520
  Beta virt. eigenvalues --    3.99720   4.01984   4.02666   4.03742   4.06334
  Beta virt. eigenvalues --    4.07812   4.09186   4.09295   4.09660   4.11700
  Beta virt. eigenvalues --    4.13260   4.13565   4.15973   4.16141   4.18761
  Beta virt. eigenvalues --    4.19610   4.22544   4.22666   4.23285   4.26659
  Beta virt. eigenvalues --    4.26873   4.28372   4.31660   4.31889   4.36256
  Beta virt. eigenvalues --    4.36977   4.38065   4.39589   4.41471   4.43737
  Beta virt. eigenvalues --    4.46356   4.48454   4.49495   4.50041   4.53748
  Beta virt. eigenvalues --    4.55521   4.60150   4.62085   4.66635   4.67880
  Beta virt. eigenvalues --    4.70039   4.70239   4.73039   4.75165   4.76686
  Beta virt. eigenvalues --    4.78518   4.81089   4.82881   4.84996   4.85749
  Beta virt. eigenvalues --    4.85852   4.88566   4.93299   4.95704   4.96323
  Beta virt. eigenvalues --    4.98668   5.03973   5.04042   5.08055   5.08712
  Beta virt. eigenvalues --    5.14206   5.17505   5.19160   5.22593   5.24142
  Beta virt. eigenvalues --    5.24314   5.34362   5.35120   5.41552   5.42867
  Beta virt. eigenvalues --    5.45309   5.46294   5.51122   5.54635   5.71543
  Beta virt. eigenvalues --    5.71695   5.77860   5.79332   5.96806   6.02505
  Beta virt. eigenvalues --    7.94982   7.95509   8.01706   8.04239   8.05348
  Beta virt. eigenvalues --    8.09618   8.10523   8.13702   8.17141   8.19958
  Beta virt. eigenvalues --    8.35929   8.36703  34.76852  34.77951  34.81518
  Beta virt. eigenvalues --   34.81800  34.84909  34.90951  34.96035  35.00386
  Beta virt. eigenvalues --   35.01440  35.02639  35.17983  35.18262
          Condensed to atoms (all electrons):
               1          2          3          4          5          6
     1  C    5.148079  -0.002897   0.424264  -0.001775   0.001727  -0.007830
     2  C   -0.002897   5.401199  -0.002264   0.425433  -0.049770  -0.019302
     3  H    0.424264  -0.002264   0.491623   0.000026  -0.000045   0.000015
     4  H   -0.001775   0.425433   0.000026   0.459918  -0.008272   0.002731
     5  C    0.001727  -0.049770  -0.000045  -0.008272   5.211179   0.478650
     6  C   -0.007830  -0.019302   0.000015   0.002731   0.478650   5.400302
     7  H    0.000312  -0.002830   0.000001  -0.000062   0.426917  -0.026674
     8  H   -0.002253   0.002692  -0.000050   0.000087  -0.036405   0.425359
     9  C    0.002543  -0.013616  -0.000007  -0.002255  -0.055334   0.197778
    10  H   -0.000045   0.001259  -0.000001  -0.000230  -0.005838  -0.038206
    11  H    0.000119  -0.007757   0.000002   0.000399   0.010015  -0.062372
    12  C   -0.000202   0.014253   0.000002   0.002964   0.282432  -0.066583
    13  H   -0.000001   0.000084   0.000000   0.000032  -0.036630   0.005083
    14  C    0.000177  -0.007782  -0.000000  -0.002297  -0.045237  -0.002790
    15  H   -0.000000   0.000015  -0.000000  -0.000051   0.007077  -0.002259
    16  C   -0.000643   0.015666   0.000000   0.000735  -0.003967  -0.055926
    17  H   -0.000023   0.000281  -0.000000  -0.002467   0.009214  -0.002344
    18  H    0.000003   0.000363   0.000000   0.000326  -0.003230   0.011739
    19  C   -0.045066   0.478128   0.007080  -0.036569  -0.022468  -0.049777
    20  H    0.003721  -0.026570  -0.000081  -0.003945   0.000344  -0.002840
    21  C    0.575120  -0.066312  -0.031656   0.004474   0.002588   0.014263
    22  H   -0.025680   0.005073  -0.005710  -0.000047   0.000032   0.000084
    23  C   -0.082396   0.197839   0.005228  -0.011492   0.012772  -0.013660
    24  H    0.013671  -0.062393  -0.000074  -0.003845   0.000693  -0.007764
    25  H    0.003957  -0.038119  -0.000045  -0.000835   0.000744   0.001259
    26  C    0.272889  -0.055890  -0.029141   0.003643  -0.009138   0.015657
    27  H   -0.038451   0.011751  -0.004329  -0.000074   0.000279   0.000362
    28  H   -0.034248  -0.002336   0.000947  -0.000143  -0.003570   0.000261
               7          8          9         10         11         12
     1  C    0.000312  -0.002253   0.002543  -0.000045   0.000119  -0.000202
     2  C   -0.002830   0.002692  -0.013616   0.001259  -0.007757   0.014253
     3  H    0.000001  -0.000050  -0.000007  -0.000001   0.000002   0.000002
     4  H   -0.000062   0.000087  -0.002255  -0.000230   0.000399   0.002964
     5  C    0.426917  -0.036405  -0.055334  -0.005838   0.010015   0.282432
     6  C   -0.026674   0.425359   0.197778  -0.038206  -0.062372  -0.066583
     7  H    0.474266  -0.003963   0.002768  -0.000238  -0.000008  -0.029734
     8  H   -0.003963   0.460375  -0.011619  -0.000841  -0.003848   0.004469
     9  C    0.002768  -0.011619   5.010839   0.388498   0.468678   0.037151
    10  H   -0.000238  -0.000841   0.388498   0.569112  -0.020562   0.001299
    11  H   -0.000008  -0.003848   0.468678  -0.020562   0.528810  -0.004929
    12  C   -0.029734   0.004469   0.037151   0.001299  -0.004929   5.015116
    13  H   -0.003229  -0.000048  -0.000227  -0.000057   0.000025   0.425535
    14  C    0.003724  -0.001772  -0.082400   0.003957   0.013669   0.575229
    15  H   -0.000081   0.000026   0.005225  -0.000044  -0.000074  -0.031664
    16  C   -0.000957   0.003650   0.337092  -0.021243  -0.058484  -0.053035
    17  H    0.000013  -0.000143  -0.030315   0.006409  -0.007840  -0.013925
    18  H    0.000027  -0.000075  -0.044593  -0.009321  -0.000584   0.006082
    19  C    0.000348  -0.008367   0.012827   0.000744   0.000707   0.002585
    20  H    0.000009  -0.000063   0.003148   0.000297  -0.002010  -0.000154
    21  C   -0.000155   0.003038  -0.003461  -0.000072  -0.000049  -0.000357
    22  H   -0.000001   0.000033  -0.000080  -0.000001  -0.000006  -0.000000
    23  C    0.003147  -0.002273   0.002130  -0.000053   0.000387  -0.003428
    24  H   -0.002012   0.000398   0.000387  -0.000018  -0.000022  -0.000039
    25  H    0.000297  -0.000230  -0.000053   0.000007  -0.000018  -0.000072
    26  C   -0.002009   0.000770  -0.001145   0.000065  -0.000129   0.001182
    27  H   -0.000020   0.000328  -0.000016   0.000000  -0.000000  -0.000041
    28  H    0.001638  -0.002481   0.000491   0.000004   0.000002   0.000411
              13         14         15         16         17         18
     1  C   -0.000001   0.000177  -0.000000  -0.000643  -0.000023   0.000003
     2  C    0.000084  -0.007782   0.000015   0.015666   0.000281   0.000363
     3  H    0.000000  -0.000000  -0.000000   0.000000  -0.000000   0.000000
     4  H    0.000032  -0.002297  -0.000051   0.000735  -0.002467   0.000326
     5  C   -0.036630  -0.045237   0.007077  -0.003967   0.009214  -0.003230
     6  C    0.005083  -0.002790  -0.002259  -0.055926  -0.002344   0.011739
     7  H   -0.003229   0.003724  -0.000081  -0.000957   0.000013   0.000027
     8  H   -0.000048  -0.001772   0.000026   0.003650  -0.000143  -0.000075
     9  C   -0.000227  -0.082400   0.005225   0.337092  -0.030315  -0.044593
    10  H   -0.000057   0.003957  -0.000044  -0.021243   0.006409  -0.009321
    11  H    0.000025   0.013669  -0.000074  -0.058484  -0.007840  -0.000584
    12  C    0.425535   0.575229  -0.031664  -0.053035  -0.013925   0.006082
    13  H    0.489121  -0.025667  -0.005712   0.004284  -0.000378  -0.000089
    14  C   -0.025667   5.148122   0.424257   0.272890  -0.034270  -0.038466
    15  H   -0.005712   0.424257   0.491604  -0.029131   0.000948  -0.004332
    16  C    0.004284   0.272890  -0.029131   4.950632   0.399920   0.436837
    17  H   -0.000378  -0.034270   0.000948   0.399920   0.580964  -0.022184
    18  H   -0.000089  -0.038466  -0.004332   0.436837  -0.022184   0.537275
    19  C    0.000032   0.001719  -0.000045  -0.009143  -0.003581   0.000279
    20  H   -0.000001   0.000312   0.000001  -0.002006   0.001633  -0.000020
    21  C   -0.000000  -0.000202   0.000002   0.001182   0.000411  -0.000042
    22  H    0.000000  -0.000001   0.000000   0.000017  -0.000000  -0.000001
    23  C   -0.000080   0.002540  -0.000007  -0.001138   0.000490  -0.000016
    24  H   -0.000006   0.000117   0.000002  -0.000127   0.000002  -0.000000
    25  H   -0.000001  -0.000046  -0.000001   0.000065   0.000004   0.000000
    26  C    0.000017  -0.000642   0.000000   0.000843   0.000033  -0.000004
    27  H   -0.000001   0.000003   0.000000  -0.000004   0.000001  -0.000000
    28  H   -0.000000  -0.000023  -0.000000   0.000033  -0.000014   0.000001
              19         20         21         22         23         24
     1  C   -0.045066   0.003721   0.575120  -0.025680  -0.082396   0.013671
     2  C    0.478128  -0.026570  -0.066312   0.005073   0.197839  -0.062393
     3  H    0.007080  -0.000081  -0.031656  -0.005710   0.005228  -0.000074
     4  H   -0.036569  -0.003945   0.004474  -0.000047  -0.011492  -0.003845
     5  C   -0.022468   0.000344   0.002588   0.000032   0.012772   0.000693
     6  C   -0.049777  -0.002840   0.014263   0.000084  -0.013660  -0.007764
     7  H    0.000348   0.000009  -0.000155  -0.000001   0.003147  -0.002012
     8  H   -0.008367  -0.000063   0.003038   0.000033  -0.002273   0.000398
     9  C    0.012827   0.003148  -0.003461  -0.000080   0.002130   0.000387
    10  H    0.000744   0.000297  -0.000072  -0.000001  -0.000053  -0.000018
    11  H    0.000707  -0.002010  -0.000049  -0.000006   0.000387  -0.000022
    12  C    0.002585  -0.000154  -0.000357  -0.000000  -0.003428  -0.000039
    13  H    0.000032  -0.000001  -0.000000   0.000000  -0.000080  -0.000006
    14  C    0.001719   0.000312  -0.000202  -0.000001   0.002540   0.000117
    15  H   -0.000045   0.000001   0.000002   0.000000  -0.000007   0.000002
    16  C   -0.009143  -0.002006   0.001182   0.000017  -0.001138  -0.000127
    17  H   -0.003581   0.001633   0.000411  -0.000000   0.000490   0.000002
    18  H    0.000279  -0.000020  -0.000042  -0.000001  -0.000016  -0.000000
    19  C    5.211968   0.426936   0.281838  -0.036627  -0.055374   0.010032
    20  H    0.426936   0.474058  -0.029822  -0.003225   0.002762  -0.000008
    21  C    0.281838  -0.029822   5.015546   0.425561   0.037163  -0.004931
    22  H   -0.036627  -0.003225   0.425561   0.489109  -0.000228   0.000025
    23  C   -0.055374   0.002762   0.037163  -0.000228   5.011078   0.468704
    24  H    0.010032  -0.000008  -0.004931   0.000025   0.468704   0.528521
    25  H   -0.005850  -0.000239   0.001289  -0.000057   0.388385  -0.020518
    26  C   -0.004007  -0.000960  -0.053039   0.004282   0.337029  -0.058451
    27  H   -0.003235   0.000027   0.006083  -0.000089  -0.044636  -0.000593
    28  H    0.009232   0.000013  -0.013965  -0.000378  -0.030351  -0.007827
              25         26         27         28
     1  C    0.003957   0.272889  -0.038451  -0.034248
     2  C   -0.038119  -0.055890   0.011751  -0.002336
     3  H   -0.000045  -0.029141  -0.004329   0.000947
     4  H   -0.000835   0.003643  -0.000074  -0.000143
     5  C    0.000744  -0.009138   0.000279  -0.003570
     6  C    0.001259   0.015657   0.000362   0.000261
     7  H    0.000297  -0.002009  -0.000020   0.001638
     8  H   -0.000230   0.000770   0.000328  -0.002481
     9  C   -0.000053  -0.001145  -0.000016   0.000491
    10  H    0.000007   0.000065   0.000000   0.000004
    11  H   -0.000018  -0.000129  -0.000000   0.000002
    12  C   -0.000072   0.001182  -0.000041   0.000411
    13  H   -0.000001   0.000017  -0.000001  -0.000000
    14  C   -0.000046  -0.000642   0.000003  -0.000023
    15  H   -0.000001   0.000000   0.000000  -0.000000
    16  C    0.000065   0.000843  -0.000004   0.000033
    17  H    0.000004   0.000033   0.000001  -0.000014
    18  H    0.000000  -0.000004  -0.000000   0.000001
    19  C   -0.005850  -0.004007  -0.003235   0.009232
    20  H   -0.000239  -0.000960   0.000027   0.000013
    21  C    0.001289  -0.053039   0.006083  -0.013965
    22  H   -0.000057   0.004282  -0.000089  -0.000378
    23  C    0.388385   0.337029  -0.044636  -0.030351
    24  H   -0.020518  -0.058451  -0.000593  -0.007827
    25  H    0.569126  -0.021257  -0.009310   0.006407
    26  C   -0.021257   4.950802   0.436868   0.399905
    27  H   -0.009310   0.436868   0.537214  -0.022158
    28  H    0.006407   0.399905  -0.022158   0.580917
          Atomic-Atomic Spin Densities.
               1          2          3          4          5          6
     1  C   -0.000000  -0.000000  -0.000000   0.000000   0.000000   0.000000
     2  C   -0.000000  -0.000000   0.000000   0.000000  -0.000000   0.000000
     3  H   -0.000000   0.000000   0.000000   0.000000  -0.000000   0.000000
     4  H    0.000000   0.000000   0.000000  -0.000000  -0.000000   0.000000
     5  C    0.000000  -0.000000  -0.000000  -0.000000   0.000001  -0.000000
     6  C    0.000000   0.000000   0.000000   0.000000  -0.000000  -0.000001
     7  H   -0.000000   0.000000   0.000000   0.000000  -0.000000  -0.000000
     8  H    0.000000  -0.000000  -0.000000  -0.000000  -0.000000  -0.000000
     9  C   -0.000000   0.000000  -0.000000  -0.000000  -0.000000   0.000000
    10  H    0.000000   0.000000  -0.000000   0.000000  -0.000000   0.000000
    11  H    0.000000  -0.000000  -0.000000  -0.000000   0.000000  -0.000000
    12  C   -0.000000   0.000000   0.000000   0.000000  -0.000000   0.000000
    13  H   -0.000000   0.000000   0.000000   0.000000  -0.000000  -0.000000
    14  C    0.000000  -0.000000  -0.000000  -0.000000  -0.000000   0.000000
    15  H    0.000000  -0.000000   0.000000   0.000000  -0.000000   0.000000
    16  C   -0.000000   0.000000   0.000000   0.000000   0.000000  -0.000000
    17  H    0.000000   0.000000  -0.000000  -0.000000   0.000000  -0.000000
    18  H   -0.000000   0.000000   0.000000   0.000000  -0.000000  -0.000000
    19  C    0.000000   0.000000  -0.000000   0.000000  -0.000000   0.000000
    20  H    0.000000   0.000000   0.000000   0.000000  -0.000000  -0.000000
    21  C    0.000000  -0.000000   0.000000  -0.000000   0.000000  -0.000000
    22  H   -0.000000   0.000000  -0.000000  -0.000000  -0.000000  -0.000000
    23  C   -0.000000  -0.000000   0.000000  -0.000000  -0.000000  -0.000000
    24  H   -0.000000   0.000000  -0.000000  -0.000000   0.000000   0.000000
    25  H   -0.000000   0.000000   0.000000   0.000000   0.000000  -0.000000
    26  C    0.000000   0.000000  -0.000000  -0.000000   0.000000  -0.000000
    27  H    0.000000   0.000000  -0.000000  -0.000000   0.000000  -0.000000
    28  H   -0.000000  -0.000000   0.000000   0.000000  -0.000000   0.000000
               7          8          9         10         11         12
     1  C   -0.000000   0.000000  -0.000000   0.000000   0.000000  -0.000000
     2  C    0.000000  -0.000000   0.000000   0.000000  -0.000000   0.000000
     3  H    0.000000  -0.000000  -0.000000  -0.000000  -0.000000   0.000000
     4  H    0.000000  -0.000000  -0.000000   0.000000  -0.000000   0.000000
     5  C   -0.000000  -0.000000  -0.000000  -0.000000   0.000000  -0.000000
     6  C   -0.000000  -0.000000   0.000000   0.000000  -0.000000   0.000000
     7  H    0.000000  -0.000000   0.000000  -0.000000  -0.000000   0.000000
     8  H   -0.000000   0.000000   0.000000  -0.000000   0.000000   0.000000
     9  C    0.000000   0.000000  -0.000001  -0.000000   0.000000  -0.000000
    10  H   -0.000000  -0.000000  -0.000000   0.000000  -0.000000   0.000000
    11  H   -0.000000   0.000000   0.000000  -0.000000   0.000000  -0.000000
    12  C    0.000000   0.000000  -0.000000   0.000000  -0.000000  -0.000000
    13  H    0.000000   0.000000   0.000000  -0.000000  -0.000000   0.000000
    14  C   -0.000000  -0.000000   0.000000   0.000000   0.000000  -0.000000
    15  H   -0.000000  -0.000000  -0.000000  -0.000000   0.000000  -0.000000
    16  C   -0.000000   0.000000   0.000000  -0.000000  -0.000000   0.000000
    17  H   -0.000000  -0.000000   0.000000   0.000000  -0.000000   0.000000
    18  H    0.000000  -0.000000   0.000000  -0.000000  -0.000000  -0.000000
    19  C    0.000000   0.000000   0.000000  -0.000000  -0.000000  -0.000000
    20  H   -0.000000  -0.000000   0.000000  -0.000000   0.000000   0.000000
    21  C   -0.000000  -0.000000  -0.000000  -0.000000   0.000000   0.000000
    22  H   -0.000000  -0.000000  -0.000000   0.000000  -0.000000   0.000000
    23  C   -0.000000   0.000000   0.000000  -0.000000   0.000000   0.000000
    24  H   -0.000000  -0.000000  -0.000000   0.000000  -0.000000  -0.000000
    25  H    0.000000  -0.000000   0.000000  -0.000000  -0.000000  -0.000000
    26  C    0.000000  -0.000000   0.000000   0.000000   0.000000  -0.000000
    27  H   -0.000000   0.000000  -0.000000   0.000000   0.000000  -0.000000
    28  H    0.000000  -0.000000   0.000000  -0.000000  -0.000000   0.000000
              13         14         15         16         17         18
     1  C   -0.000000   0.000000   0.000000  -0.000000   0.000000  -0.000000
     2  C    0.000000  -0.000000  -0.000000   0.000000   0.000000   0.000000
     3  H    0.000000  -0.000000   0.000000   0.000000  -0.000000   0.000000
     4  H    0.000000  -0.000000   0.000000   0.000000  -0.000000   0.000000
     5  C   -0.000000  -0.000000  -0.000000   0.000000   0.000000  -0.000000
     6  C   -0.000000   0.000000   0.000000  -0.000000  -0.000000  -0.000000
     7  H    0.000000  -0.000000  -0.000000  -0.000000  -0.000000   0.000000
     8  H    0.000000  -0.000000  -0.000000   0.000000  -0.000000  -0.000000
     9  C    0.000000   0.000000  -0.000000   0.000000   0.000000   0.000000
    10  H   -0.000000   0.000000  -0.000000  -0.000000   0.000000  -0.000000
    11  H   -0.000000   0.000000   0.000000  -0.000000  -0.000000  -0.000000
    12  C    0.000000  -0.000000  -0.000000   0.000000   0.000000  -0.000000
    13  H   -0.000000   0.000000   0.000000  -0.000000  -0.000000   0.000000
    14  C    0.000000   0.000001  -0.000000  -0.000000  -0.000000  -0.000000
    15  H    0.000000  -0.000000  -0.000000   0.000000  -0.000000   0.000000
    16  C   -0.000000  -0.000000   0.000000   0.000000  -0.000000  -0.000000
    17  H   -0.000000  -0.000000  -0.000000  -0.000000  -0.000000   0.000000
    18  H    0.000000  -0.000000   0.000000  -0.000000   0.000000  -0.000000
    19  C    0.000000  -0.000000   0.000000  -0.000000   0.000000  -0.000000
    20  H    0.000000   0.000000  -0.000000  -0.000000  -0.000000   0.000000
    21  C   -0.000000   0.000000  -0.000000   0.000000  -0.000000   0.000000
    22  H    0.000000   0.000000  -0.000000   0.000000  -0.000000   0.000000
    23  C    0.000000   0.000000   0.000000  -0.000000  -0.000000   0.000000
    24  H    0.000000  -0.000000  -0.000000   0.000000   0.000000  -0.000000
    25  H   -0.000000  -0.000000   0.000000  -0.000000   0.000000  -0.000000
    26  C   -0.000000   0.000000  -0.000000   0.000000   0.000000   0.000000
    27  H   -0.000000   0.000000  -0.000000  -0.000000   0.000000  -0.000000
[...]
     1  C   -0.000000   0.000000   0.000000  -0.000000
     2  C    0.000000   0.000000   0.000000   0.000000
     3  H    0.000000  -0.000000  -0.000000   0.000000
     4  H    0.000000  -0.000000  -0.000000   0.000000
     5  C    0.000000   0.000000   0.000000  -0.000000
     6  C   -0.000000  -0.000000  -0.000000   0.000000
     7  H   -0.000000   0.000000  -0.000000   0.000000
     8  H   -0.000000  -0.000000  -0.000000   0.000000
     9  C    0.000000   0.000000  -0.000000   0.000000
    10  H   -0.000000   0.000000   0.000000  -0.000000
    11  H   -0.000000  -0.000000   0.000000  -0.000000
    12  C   -0.000000  -0.000000  -0.000000  -0.000000
    13  H   -0.000000  -0.000000  -0.000000   0.000000
    14  C   -0.000000   0.000000   0.000000  -0.000000
    15  H    0.000000  -0.000000  -0.000000   0.000000
    16  C   -0.000000   0.000000  -0.000000  -0.000000
    17  H    0.000000   0.000000   0.000000   0.000000
    18  H   -0.000000   0.000000  -0.000000  -0.000000
    19  C    0.000000   0.000000   0.000000  -0.000000
    20  H    0.000000   0.000000  -0.000000   0.000000
    21  C   -0.000000  -0.000000   0.000000  -0.000000
    22  H    0.000000   0.000000  -0.000000   0.000000
    23  C    0.000000  -0.000000  -0.000000  -0.000000
    24  H    0.000000   0.000000   0.000000   0.000000
    25  H   -0.000000   0.000000   0.000000  -0.000000
    26  C    0.000000  -0.000000   0.000000   0.000000
    27  H    0.000000   0.000000   0.000000  -0.000000
    28  H   -0.000000   0.000000  -0.000000   0.000000
 Mulliken charges and spin densities:
               1          2
     1  C   -0.203760  -0.000000
     2  C   -0.207315  -0.000000
     3  H    0.148271   0.000000
     4  H    0.179107  -0.000000
     5  C   -0.176954   0.000000
     6  C   -0.207133  -0.000000
     7  H    0.165838   0.000000
     8  H    0.177620   0.000000
     9  C   -0.234558  -0.000001
    10  H    0.132196   0.000000
    11  H    0.151284   0.000000
    12  C   -0.165094  -0.000000
    13  H    0.151029  -0.000000
    14  C   -0.203745   0.000001
    15  H    0.148097  -0.000000
    16  C   -0.195472   0.000000
    17  H    0.123383  -0.000000
    18  H    0.133832  -0.000000
    19  C   -0.179460   0.000000
    20  H    0.166521  -0.000000
    21  C   -0.164152  -0.000000
    22  H    0.150780   0.000000
    23  C   -0.235231   0.000001
    24  H    0.150584  -0.000000
    25  H    0.132613  -0.000000
    26  C   -0.194360  -0.000000
    27  H    0.133779   0.000000
    28  H    0.122300   0.000000
 Sum of Mulliken charges =  -0.00000   0.00000
 Mulliken charges and spin densities with hydrogens summed into heavy atoms:
               1          2
     1  C   -0.055489  -0.000000
     2  C   -0.028209  -0.000000
     5  C   -0.011116   0.000000
     6  C   -0.029512  -0.000000
     9  C    0.048921  -0.000000
    12  C   -0.014065  -0.000000
    14  C   -0.055648   0.000000
    16  C    0.061743   0.000000
    19  C   -0.012938   0.000000
    21  C   -0.013372   0.000000
    23  C    0.047965   0.000000
    26  C    0.061720  -0.000000
 Electronic spatial extent (au):  <R**2>=           2246.7355
 Charge=             -0.0000 electrons
 Dipole moment (field-independent basis, Debye):
    X=              0.0001    Y=             -0.0072    Z=             -0.0018  Tot=              0.0075
 Quadrupole moment (field-independent basis, Debye-Ang):
   XX=            -70.1443   YY=            -68.1703   ZZ=            -75.6604
   XY=             -3.4088   XZ=             -3.4846   YZ=             -1.6617
 Traceless Quadrupole moment (field-independent basis, Debye-Ang):
   XX=              1.1807   YY=              3.1547   ZZ=             -4.3354
   XY=             -3.4088   XZ=             -3.4846   YZ=             -1.6617
 Octapole moment (field-independent basis, Debye-Ang**2):
  XXX=             -0.0271  YYY=             -0.0447  ZZZ=             -0.0040  XYY=              0.0029
  XXY=             -0.0002  XXZ=             -0.0081  XZZ=              0.0137  YZZ=             -0.0143
  YYZ=             -0.0078  XYZ=              0.0161
 Hexadecapole moment (field-independent basis, Debye-Ang**3):
 XXXX=          -2003.7829 YYYY=           -609.7529 ZZZZ=           -360.2879 XXXY=           -105.3386
 XXXZ=           -134.2411 YYYX=            -59.0795 YYYZ=             -3.6564 ZZZX=            -80.2485
 ZZZY=            -15.0473 XXYY=           -433.0338 XXZZ=           -419.4816 YYZZ=           -176.8683
 XXYZ=            -22.9282 YYXZ=            -29.5262 ZZXY=            -44.3091
 N-N= 6.824998271437D+02 E-N=-2.447656763519D+03  KE= 4.643768591376D+02
                          Isotropic Fermi Contact Couplings
        Atom                 a.u.       MegaHertz       Gauss      10(-4) cm-1
     1  C(13)             -0.00000      -0.00001      -0.00000      -0.00000
     2  C(13)             -0.00000      -0.00003      -0.00001      -0.00001
     3  H(1)               0.00000       0.00002       0.00001       0.00001
     4  H(1)              -0.00000      -0.00000      -0.00000      -0.00000
     5  C(13)              0.00000       0.00001       0.00000       0.00000
     6  C(13)             -0.00000      -0.00001      -0.00000      -0.00000
     7  H(1)               0.00000       0.00003       0.00001       0.00001
     8  H(1)               0.00000       0.00002       0.00001       0.00001
     9  C(13)             -0.00000      -0.00020      -0.00007      -0.00007
    10  H(1)               0.00000       0.00011       0.00004       0.00004
    11  H(1)               0.00000       0.00014       0.00005       0.00005
    12  C(13)             -0.00000      -0.00002      -0.00001      -0.00001
    13  H(1)              -0.00000      -0.00002      -0.00001      -0.00001
    14  C(13)              0.00000       0.00004       0.00002       0.00001
    15  H(1)              -0.00000      -0.00004      -0.00001      -0.00001
    16  C(13)              0.00000       0.00010       0.00004       0.00003
    17  H(1)              -0.00000      -0.00002      -0.00001      -0.00001
    18  H(1)              -0.00000      -0.00001      -0.00000      -0.00000
    19  C(13)              0.00000       0.00002       0.00001       0.00001
    20  H(1)              -0.00000      -0.00005      -0.00002      -0.00002
    21  C(13)             -0.00000      -0.00001      -0.00000      -0.00000
    22  H(1)               0.00000       0.00004       0.00001       0.00001
    23  C(13)              0.00000       0.00022       0.00008       0.00007
    24  H(1)              -0.00000      -0.00015      -0.00005      -0.00005
    25  H(1)              -0.00000      -0.00014      -0.00005      -0.00005
    26  C(13)             -0.00000      -0.00012      -0.00004      -0.00004
    27  H(1)               0.00000       0.00002       0.00001       0.00001
    28  H(1)               0.00000       0.00005       0.00002       0.00002
 --------------------------------------------------------
       Center         ----  Spin Dipole Couplings  ----
                      3XX-RR        3YY-RR        3ZZ-RR
 --------------------------------------------------------
     1   Atom       -0.000000      0.000000      0.000000
     2   Atom        0.000000     -0.000000     -0.000000
     3   Atom        0.000000      0.000000     -0.000000
     4   Atom        0.000000     -0.000000     -0.000000
     5   Atom       -0.000000     -0.000000      0.000000
     6   Atom        0.000000      0.000000     -0.000000
     7   Atom       -0.000000     -0.000000      0.000000
     8   Atom       -0.000000      0.000000     -0.000000
     9   Atom       -0.000000      0.000000     -0.000000
    10   Atom        0.000000      0.000000     -0.000000
    11   Atom        0.000000     -0.000000      0.000000
    12   Atom        0.000000      0.000000     -0.000000
    13   Atom        0.000000     -0.000000     -0.000000
    14   Atom        0.000000     -0.000000      0.000000
    15   Atom        0.000000     -0.000000      0.000000
    16   Atom        0.000000     -0.000000      0.000000
    17   Atom       -0.000000     -0.000000      0.000000
    18   Atom        0.000000      0.000000     -0.000000
    19   Atom        0.000000      0.000000     -0.000000
    20   Atom       -0.000000      0.000000     -0.000000
    21   Atom       -0.000000     -0.000000      0.000000
    22   Atom        0.000000     -0.000000      0.000000
    23   Atom        0.000000     -0.000000      0.000000
    24   Atom       -0.000000      0.000000     -0.000000
    25   Atom       -0.000000     -0.000000      0.000000
    26   Atom       -0.000000      0.000000     -0.000000
    27   Atom       -0.000000     -0.000000      0.000000
    28   Atom        0.000000      0.000000     -0.000000
 --------------------------------------------------------
                        XY            XZ            YZ
 --------------------------------------------------------
     1   Atom        0.000000     -0.000000      0.000000
     2   Atom        0.000000      0.000000     -0.000000
     3   Atom        0.000000      0.000000      0.000000
     4   Atom       -0.000000     -0.000000      0.000000
     5   Atom        0.000000      0.000000      0.000000
     6   Atom       -0.000000     -0.000000     -0.000000
     7   Atom       -0.000000      0.000000     -0.000000
     8   Atom       -0.000000      0.000000     -0.000000
     9   Atom       -0.000000     -0.000000     -0.000000
    10   Atom        0.000000     -0.000000      0.000000
    11   Atom       -0.000000     -0.000000     -0.000000
    12   Atom       -0.000000     -0.000000     -0.000000
    13   Atom       -0.000000     -0.000000     -0.000000
    14   Atom       -0.000000      0.000000     -0.000000
    15   Atom        0.000000     -0.000000     -0.000000
    16   Atom       -0.000000     -0.000000     -0.000000
    17   Atom        0.000000      0.000000      0.000000
    18   Atom       -0.000000      0.000000     -0.000000
    19   Atom        0.000000      0.000000      0.000000
    20   Atom       -0.000000     -0.000000      0.000000
    21   Atom        0.000000     -0.000000      0.000000
    22   Atom       -0.000000     -0.000000      0.000000
    23   Atom        0.000000      0.000000      0.000000
    24   Atom        0.000000      0.000000      0.000000
    25   Atom       -0.000000      0.000000     -0.000000
    26   Atom        0.000000      0.000000     -0.000000
    27   Atom        0.000000     -0.000000      0.000000
    28   Atom       -0.000000     -0.000000     -0.000000
 --------------------------------------------------------


 ---------------------------------------------------------------------------------
              Anisotropic Spin Dipole Couplings in Principal Axis System
 ---------------------------------------------------------------------------------

       Atom             a.u.   MegaHertz   Gauss  10(-4) cm-1        Axes

              Baa    -0.0000    -0.000    -0.000    -0.000  0.8770 -0.2776  0.3921
     1 C(13)  Bbb     0.0000     0.000     0.000     0.000  0.4066  0.8636 -0.2980
              Bcc     0.0000     0.000     0.000     0.000 -0.2559  0.4208  0.8703
 
              Baa    -0.0000    -0.000    -0.000    -0.000 -0.4352  0.7007  0.5654
     2 C(13)  Bbb    -0.0000    -0.000    -0.000    -0.000  0.2472  0.6968 -0.6733
              Bcc     0.0000     0.000     0.000     0.000  0.8657  0.1533  0.4764
 
              Baa    -0.0000    -0.000    -0.000    -0.000 -0.4030 -0.1906  0.8951
     3 H(1)   Bbb     0.0000     0.000     0.000     0.000 -0.3746  0.9268  0.0287
              Bcc     0.0000     0.000     0.000     0.000  0.8351  0.3237  0.4449
 
              Baa    -0.0000    -0.000    -0.000    -0.000 -0.1025  0.7903 -0.6041
     4 H(1)   Bbb    -0.0000    -0.000    -0.000    -0.000  0.4845  0.5701  0.6635
              Bcc     0.0000     0.000     0.000     0.000  0.8687 -0.2247 -0.4414
 
              Baa    -0.0000    -0.000    -0.000    -0.000 -0.0049  0.9999 -0.0107
     5 C(13)  Bbb    -0.0000    -0.000    -0.000    -0.000  0.9870  0.0031 -0.1608
              Bcc     0.0000     0.000     0.000     0.000  0.1608  0.0113  0.9869
 
              Baa    -0.0000    -0.000    -0.000    -0.000  0.5486  0.1472  0.8230
     6 C(13)  Bbb     0.0000     0.000     0.000     0.000  0.6845  0.4863 -0.5432
              Bcc     0.0000     0.000     0.000     0.000 -0.4801  0.8613  0.1660
 
              Baa    -0.0000    -0.000    -0.000    -0.000  0.5057  0.8383 -0.2037
     7 H(1)   Bbb    -0.0000    -0.000    -0.000    -0.000  0.6762 -0.5318 -0.5098
              Bcc     0.0000     0.000     0.000     0.000  0.5357 -0.1201  0.8358
 
              Baa    -0.0000    -0.000    -0.000    -0.000  0.8362 -0.0235 -0.5479
     8 H(1)   Bbb     0.0000     0.000     0.000     0.000  0.5415  0.1926  0.8183
              Bcc     0.0000     0.000     0.000     0.000 -0.0863  0.9810 -0.1738
 
              Baa    -0.0000    -0.000    -0.000    -0.000  0.7029  0.3692  0.6080
     9 C(13)  Bbb    -0.0000    -0.000    -0.000    -0.000 -0.5490 -0.2621  0.7937
              Bcc     0.0000     0.000     0.000     0.000 -0.4523  0.8917 -0.0185
 
              Baa    -0.0000    -0.000    -0.000    -0.000  0.4327 -0.1240  0.8930
    10 H(1)   Bbb     0.0000     0.000     0.000     0.000 -0.4383  0.8367  0.3285
              Bcc     0.0000     0.000     0.000     0.000  0.7878  0.5335 -0.3077
 
              Baa    -0.0000    -0.000    -0.000    -0.000  0.5314  0.8358  0.1383
    11 H(1)   Bbb     0.0000     0.000     0.000     0.000 -0.3652  0.0787  0.9276
              Bcc     0.0000     0.000     0.000     0.000  0.7644 -0.5434  0.3470
 
              Baa    -0.0000    -0.000    -0.000    -0.000  0.1412  0.0791  0.9868
    12 C(13)  Bbb     0.0000     0.000     0.000     0.000  0.8486  0.5037 -0.1618
              Bcc     0.0000     0.000     0.000     0.000 -0.5099  0.8602  0.0040
 
              Baa    -0.0000    -0.000    -0.000    -0.000  0.5612  0.7358  0.3790
    13 H(1)   Bbb    -0.0000    -0.000    -0.000    -0.000 -0.1195 -0.3810  0.9168
              Bcc     0.0000     0.000     0.000     0.000  0.8190 -0.5598 -0.1259
 
              Baa    -0.0000    -0.000    -0.000    -0.000 -0.2989  0.8486  0.4365
    14 C(13)  Bbb    -0.0000    -0.000    -0.000    -0.000  0.6861  0.5090 -0.5198
              Bcc     0.0000     0.000     0.000     0.000  0.6632 -0.1441  0.7344
 
              Baa    -0.0000    -0.000    -0.000    -0.000 -0.0109  0.9811  0.1932
    15 H(1)   Bbb    -0.0000    -0.000    -0.000    -0.000  0.8041 -0.1063  0.5849
              Bcc     0.0000     0.000     0.000     0.000 -0.5944 -0.1617  0.7878
 
              Baa    -0.0000    -0.000    -0.000    -0.000  0.0471  0.9986  0.0226
    16 C(13)  Bbb    -0.0000    -0.000    -0.000    -0.000  0.6730 -0.0484  0.7381
              Bcc     0.0000     0.000     0.000     0.000  0.7382 -0.0195 -0.6743
 
              Baa    -0.0000    -0.000    -0.000    -0.000 -0.6835  0.7292 -0.0320
    17 H(1)   Bbb    -0.0000    -0.000    -0.000    -0.000  0.6070  0.5436 -0.5797
              Bcc     0.0000     0.000     0.000     0.000  0.4053  0.4157  0.8142
 
              Baa    -0.0000    -0.000    -0.000    -0.000  0.3706  0.6353  0.6775
    18 H(1)   Bbb    -0.0000    -0.000    -0.000    -0.000  0.7155  0.2698 -0.6444
              Bcc     0.0000     0.000     0.000     0.000 -0.5922  0.7236 -0.3546
 
              Baa    -0.0000    -0.000    -0.000    -0.000 -0.2957 -0.1848  0.9372
    19 C(13)  Bbb     0.0000     0.000     0.000     0.000 -0.6481  0.7596 -0.0547
              Bcc     0.0000     0.000     0.000     0.000  0.7018  0.6236  0.3444
 
              Baa    -0.0000    -0.000    -0.000    -0.000  0.0420 -0.2711  0.9616
    20 H(1)   Bbb    -0.0000    -0.000    -0.000    -0.000  0.8584  0.5023  0.1041
              Bcc     0.0000     0.000     0.000     0.000 -0.5112  0.8211  0.2538
 
              Baa    -0.0000    -0.000    -0.000    -0.000  0.8584 -0.3412  0.3831
    21 C(13)  Bbb    -0.0000    -0.000    -0.000    -0.000  0.3887  0.9199 -0.0518
              Bcc     0.0000     0.000     0.000     0.000 -0.3348  0.1934  0.9222
 
              Baa    -0.0000    -0.000    -0.000    -0.000  0.0945  0.9029 -0.4194
    22 H(1)   Bbb     0.0000     0.000     0.000     0.000  0.9535  0.0390  0.2988
              Bcc     0.0000     0.000     0.000     0.000 -0.2862  0.4281  0.8572
 
              Baa    -0.0000    -0.000    -0.000    -0.000 -0.4642  0.8850 -0.0354
    23 C(13)  Bbb     0.0000     0.000     0.000     0.000 -0.4236 -0.1867  0.8864
              Bcc     0.0000     0.000     0.000     0.000  0.7779  0.4265  0.4616
 
              Baa    -0.0000    -0.000    -0.000    -0.000  0.7514 -0.5847  0.3058
    24 H(1)   Bbb    -0.0000    -0.000    -0.000    -0.000 -0.3292  0.0696  0.9417
              Bcc     0.0000     0.000     0.000     0.000  0.5719  0.8082  0.1402
 
              Baa    -0.0000    -0.000    -0.000    -0.000  0.6786 -0.6305 -0.3767
    25 H(1)   Bbb    -0.0000    -0.000    -0.000    -0.000  0.6118  0.7690 -0.1851
              Bcc     0.0000     0.000     0.000     0.000  0.4064 -0.1049  0.9076
 
              Baa    -0.0000    -0.000    -0.000    -0.000  0.7392 -0.0285 -0.6729
    26 C(13)  Bbb     0.0000     0.000     0.000     0.000  0.6708 -0.0581  0.7393
              Bcc     0.0000     0.000     0.000     0.000  0.0601  0.9979  0.0238
 
              Baa    -0.0000    -0.000    -0.000    -0.000  0.6687 -0.6614  0.3398
    27 H(1)   Bbb     0.0000     0.000     0.000     0.000 -0.5002 -0.0621  0.8637
              Bcc     0.0000     0.000     0.000     0.000  0.5501  0.7475  0.3724
 
              Baa    -0.0000    -0.000    -0.000    -0.000  0.3623  0.3522  0.8630
    28 H(1)   Bbb     0.0000     0.000     0.000     0.000  0.9304 -0.1920 -0.3122
              Bcc     0.0000     0.000     0.000     0.000  0.0557  0.9160 -0.3972
 

 ---------------------------------------------------------------------------------

 No NMR shielding tensors so no spin-rotation constants.
 Leave Link  601 at Tue Aug  4 06:37:51 2020, MaxMem=  6442450944 cpu:               7.9 elap:               0.4
 (Enter /scratch/scicomp/CentOS/7.3.1611/Haswell/software/Gaussian/g16/l9999.exe)
 1\1\GINC-ATLAS-205\SP\UwB97XD\def2TZVP\C12H16\BOCHEN\04-Aug-2020\0\\#p
  uwb97xd guess=mix def2tzvp # scrf=(iefpcm,solvent=Cyclohexane,read) n
 osym 6d 10f\\endo-2 xp-pcm for eta=3\\0,1\C,0,-3.1254,-0.440005,0.2520
 83\C,0,-0.65984,-0.233754,-1.126379\H,0,-4.0842,-0.543289,0.746935\H,0
 ,0.308739,-0.142233,-1.599972\C,0,1.122664,1.417123,0.73456\C,0,0.6598
 4,0.233754,1.126379\H,0,0.530286,2.314651,0.862502\H,0,-0.308739,0.142
 233,1.599972\C,0,1.510582,-1.000676,1.048954\H,0,1.998188,-1.106214,2.
 026331\H,0,0.8883,-1.886305,0.92853\C,0,2.436831,1.523333,0.105247\H,0
 ,2.842008,2.510246,-0.084086\C,0,3.1254,0.440005,-0.252083\H,0,4.0842,
 0.543289,-0.746935\C,0,2.585867,-0.948552,-0.042215\H,0,2.191291,-1.31
 8993,-0.996443\H,0,3.399102,-1.62877,0.218906\C,0,-1.122664,-1.417123,
 -0.73456\H,0,-0.530286,-2.314651,-0.862502\C,0,-2.436831,-1.523333,-0.
 105247\H,0,-2.842008,-2.510246,0.084086\C,0,-1.510582,1.000676,-1.0489
 54\H,0,-0.8883,1.886305,-0.92853\H,0,-1.998187,1.106214,-2.026331\C,0,
 -2.585867,0.948552,0.042215\H,0,-3.399102,1.62877,-0.218906\H,0,-2.191
 291,1.318993,0.996443\\Version=ES64L-G16RevB.01\HF=-466.8012132\S2=0.\
 S2-1=0.\S2A=0.\RMSD=3.399e-09\Dipole=0.0000262,-0.0028488,-0.0007031\Q
 uadrupole=0.8778469,2.3454404,-3.2232873,-2.5343395,-2.5907082,-1.2354
 136\PG=CI [X(C12H16)]\\@


 ONLY THE DAY DAWNS TO WHICH YOU ARE AWAKE.

                                 -- THOREAU
 Job cpu time:       0 days  2 hours 14 minutes  7.2 seconds.
 Elapsed time:       0 days  0 hours  5 minutes 38.3 seconds.
 File lengths (MBytes):  RWF=    598 Int=      0 D2E=      0 Chk=     24 Scr=      1
 Normal termination of Gaussian 16 at Tue Aug  4 06:37:52 2020.
