 Entering Gaussian System, Link 0=g16
 Input=meso-TS_46_2_pcm.com
 Output=meso-TS_46_2_pcm.log
 Initial command:
 /scratch/scicomp/CentOS/7.3.1611/Haswell/software/Gaussian/g16/l1.exe "/scratch/bochen/cyclohexadiene-dimerization/wb97xd-def2tzvp/xp-pcm/meso/Gau-27740.inp" -scrdir="/scratch/bochen/cyclohexadiene-dimerization/wb97xd-def2tzvp/xp-pcm/meso/"
 Entering Link 1 = /scratch/scicomp/CentOS/7.3.1611/Haswell/software/Gaussian/g16/l1.exe PID=     27742.
  
 Copyright (c) 1988-2017, Gaussian, Inc.  All Rights Reserved.
  
 This is part of the Gaussian(R) 16 program.  It is based on
 the Gaussian(R) 09 system (copyright 2009, Gaussian, Inc.),
 the Gaussian(R) 03 system (copyright 2003, Gaussian, Inc.),
 the Gaussian(R) 98 system (copyright 1998, Gaussian, Inc.),
 the Gaussian(R) 94 system (copyright 1995, Gaussian, Inc.),
 the Gaussian 92(TM) system (copyright 1992, Gaussian, Inc.),
 the Gaussian 90(TM) system (copyright 1990, Gaussian, Inc.),
 the Gaussian 88(TM) system (copyright 1988, Gaussian, Inc.),
 the Gaussian 86(TM) system (copyright 1986, Carnegie Mellon
 University), and the Gaussian 82(TM) system (copyright 1983,
 Carnegie Mellon University). Gaussian is a federally registered
 trademark of Gaussian, Inc.
  
 This software contains proprietary and confidential information,
 including trade secrets, belonging to Gaussian, Inc.
  
 This software is provided under written license and may be
 used, copied, transmitted, or stored only in accord with that
 written license.
  
 The following legend is applicable only to US Government
 contracts under FAR:
  
                    RESTRICTED RIGHTS LEGEND
  
 Use, reproduction and disclosure by the US Government is
 subject to restrictions as set forth in subparagraphs (a)
 and (c) of the Commercial Computer Software - Restricted
 Rights clause in FAR 52.227-19.
  
 Gaussian, Inc.
 340 Quinnipiac St., Bldg. 40, Wallingford CT 06492
  
  
 ---------------------------------------------------------------
 Warning -- This program may not be used in any manner that
 competes with the business of Gaussian, Inc. or will provide
 assistance to any competitor of Gaussian, Inc.  The licensee
 of this program is prohibited from giving any competitor of
 Gaussian, Inc. access to this program.  By using this program,
 the user acknowledges that Gaussian, Inc. is engaged in the
 business of creating and licensing software in the field of
 computational chemistry and represents and warrants to the
 licensee that it is not a competitor of Gaussian, Inc. and that
 it will not use this program in any manner prohibited above.
 ---------------------------------------------------------------
  

 Cite this work as:
 Gaussian 16, Revision B.01,
 M. J. Frisch, G. W. Trucks, H. B. Schlegel, G. E. Scuseria, 
 M. A. Robb, J. R. Cheeseman, G. Scalmani, V. Barone, 
 G. A. Petersson, H. Nakatsuji, X. Li, M. Caricato, A. V. Marenich, 
 J. Bloino, B. G. Janesko, R. Gomperts, B. Mennucci, H. P. Hratchian, 
 J. V. Ortiz, A. F. Izmaylov, J. L. Sonnenberg, D. Williams-Young, 
 F. Ding, F. Lipparini, F. Egidi, J. Goings, B. Peng, A. Petrone, 
 T. Henderson, D. Ranasinghe, V. G. Zakrzewski, J. Gao, N. Rega, 
 G. Zheng, W. Liang, M. Hada, M. Ehara, K. Toyota, R. Fukuda, 
 J. Hasegawa, M. Ishida, T. Nakajima, Y. Honda, O. Kitao, H. Nakai, 
 T. Vreven, K. Throssell, J. A. Montgomery, Jr., J. E. Peralta, 
 F. Ogliaro, M. J. Bearpark, J. J. Heyd, E. N. Brothers, K. N. Kudin, 
 V. N. Staroverov, T. A. Keith, R. Kobayashi, J. Normand, 
 K. Raghavachari, A. P. Rendell, J. C. Burant, S. S. Iyengar, 
 J. Tomasi, M. Cossi, J. M. Millam, M. Klene, C. Adamo, R. Cammi, 
 J. W. Ochterski, R. L. Martin, K. Morokuma, O. Farkas, 
 J. B. Foresman, and D. J. Fox, Gaussian, Inc., Wallingford CT, 2016.
 
 ******************************************
 Gaussian 16:  ES64L-G16RevB.01 20-Dec-2017
                 3-Aug-2020 
 ******************************************
 %nproc=24
 Will use up to   24 processors via shared memory.
 %mem=48GB
 ----------------------------------------------------------------------
 #p uwb97xd guess=mix def2tzvp # scrf=(iefpcm,solvent=Cyclohexane,read)
  nosym 6d 10f
 ----------------------------------------------------------------------
 1/38=1,40=2,172=1/1;
 2/12=2,15=1,17=6,18=5,40=1/2;
 3/5=44,7=101,8=22,11=2,25=1,30=1,70=2203,72=17,74=-58,116=2/1,2,3;
 4/13=-1/1;
 5/5=2,38=5,53=17/2;
 6/7=2,8=2,9=2,10=2,28=1/1;
 99/5=1,9=1/99;
 Leave Link    1 at Mon Aug  3 14:49:02 2020, MaxMem=  6442450944 cpu:               2.8 elap:               0.1
 (Enter /scratch/scicomp/CentOS/7.3.1611/Haswell/software/Gaussian/g16/l101.exe)
 -----------------------
 endo-2 xp-pcm for eta=3
 -----------------------
 Symbolic Z-matrix:
 Charge =  0 Multiplicity = 1
 6                    -3.12768  -0.44142   0.25896 
 6                    -0.70838  -0.24553  -1.20242 
 1                    -4.07655  -0.53685   0.77411 
 1                     0.24896  -0.16047  -1.70099 
 6                     1.15231   1.4227    0.77243 
 6                     0.70838   0.24553   1.20242 
 1                     0.55899   2.31927   0.90552 
 1                    -0.24896   0.16047   1.70099 
 6                     1.54502  -0.9962    1.09283 
 1                     2.05966  -1.12686   2.05325 
 1                     0.90429  -1.87      0.9742 
 6                     2.45008   1.52831   0.10644 
 1                     2.85095   2.51433  -0.09607 
 6                     3.12768   0.44142  -0.25896 
 1                     4.07655   0.53685  -0.77411 
 6                     2.57933  -0.94193  -0.03718 
 1                     2.13576  -1.29167  -0.97757 
 1                     3.39266  -1.63764   0.17829 
 6                    -1.15231  -1.4227   -0.77243 
 1                    -0.55899  -2.31927  -0.90552 
 6                    -2.45008  -1.52831  -0.10644 
 1                    -2.85095  -2.51433   0.09607 
 6                    -1.54502   0.9962   -1.09283 
 1                    -0.90429   1.87     -0.9742 
 1                    -2.05966   1.12686  -2.05325 
 6                    -2.57933   0.94193   0.03718 
 1                    -3.39266   1.63764  -0.17829 
 1                    -2.13576   1.29167   0.97757 
 
 ITRead=  0  0  0  0  0  0  0  0  0  0  0  0  0  0  0  0  0  0  0  0
 ITRead=  0  0  0  0  0  0  0  0
 MicOpt= -1 -1 -1 -1 -1 -1 -1 -1 -1 -1 -1 -1 -1 -1 -1 -1 -1 -1 -1 -1
 MicOpt= -1 -1 -1 -1 -1 -1 -1 -1
 NAtoms=     28 NQM=       28 NQMF=       0 NMMI=      0 NMMIF=      0
                NMic=       0 NMicF=      0.
                    Isotopes and Nuclear Properties:
 (Nuclear quadrupole moments (NQMom) in fm**2, nuclear magnetic moments (NMagM)
  in nuclear magnetons)

  Atom         1           2           3           4           5           6           7           8           9          10
 IAtWgt=          12          12           1           1          12          12           1           1          12           1
 AtmWgt=  12.0000000  12.0000000   1.0078250   1.0078250  12.0000000  12.0000000   1.0078250   1.0078250  12.0000000   1.0078250
 NucSpn=           0           0           1           1           0           0           1           1           0           1
 AtZEff=  -0.0000000  -0.0000000  -0.0000000  -0.0000000  -0.0000000  -0.0000000  -0.0000000  -0.0000000  -0.0000000  -0.0000000
 NQMom=    0.0000000   0.0000000   0.0000000   0.0000000   0.0000000   0.0000000   0.0000000   0.0000000   0.0000000   0.0000000
 NMagM=    0.0000000   0.0000000   2.7928460   2.7928460   0.0000000   0.0000000   2.7928460   2.7928460   0.0000000   2.7928460
 AtZNuc=   6.0000000   6.0000000   1.0000000   1.0000000   6.0000000   6.0000000   1.0000000   1.0000000   6.0000000   1.0000000

  Atom        11          12          13          14          15          16          17          18          19          20
 IAtWgt=           1          12           1          12           1          12           1           1          12           1
 AtmWgt=   1.0078250  12.0000000   1.0078250  12.0000000   1.0078250  12.0000000   1.0078250   1.0078250  12.0000000   1.0078250
 NucSpn=           1           0           1           0           1           0           1           1           0           1
 AtZEff=  -0.0000000  -0.0000000  -0.0000000  -0.0000000  -0.0000000  -0.0000000  -0.0000000  -0.0000000  -0.0000000  -0.0000000
 NQMom=    0.0000000   0.0000000   0.0000000   0.0000000   0.0000000   0.0000000   0.0000000   0.0000000   0.0000000   0.0000000
 NMagM=    2.7928460   0.0000000   2.7928460   0.0000000   2.7928460   0.0000000   2.7928460   2.7928460   0.0000000   2.7928460
 AtZNuc=   1.0000000   6.0000000   1.0000000   6.0000000   1.0000000   6.0000000   1.0000000   1.0000000   6.0000000   1.0000000

  Atom        21          22          23          24          25          26          27          28
 IAtWgt=          12           1          12           1           1          12           1           1
 AtmWgt=  12.0000000   1.0078250  12.0000000   1.0078250   1.0078250  12.0000000   1.0078250   1.0078250
 NucSpn=           0           1           0           1           1           0           1           1
 AtZEff=  -0.0000000  -0.0000000  -0.0000000  -0.0000000  -0.0000000  -0.0000000  -0.0000000  -0.0000000
 NQMom=    0.0000000   0.0000000   0.0000000   0.0000000   0.0000000   0.0000000   0.0000000   0.0000000
 NMagM=    0.0000000   2.7928460   0.0000000   2.7928460   2.7928460   0.0000000   2.7928460   2.7928460
 AtZNuc=   6.0000000   1.0000000   6.0000000   1.0000000   1.0000000   6.0000000   1.0000000   1.0000000
 Leave Link  101 at Mon Aug  3 14:49:02 2020, MaxMem=  6442450944 cpu:               2.4 elap:               0.1
 (Enter /scratch/scicomp/CentOS/7.3.1611/Haswell/software/Gaussian/g16/l202.exe)
                          Input orientation:                          
 ---------------------------------------------------------------------
 Center     Atomic      Atomic             Coordinates (Angstroms)
 Number     Number       Type             X           Y           Z
 ---------------------------------------------------------------------
      1          6           0       -3.127681   -0.441423    0.258958
      2          6           0       -0.708381   -0.245534   -1.202422
      3          1           0       -4.076548   -0.536846    0.774111
      4          1           0        0.248962   -0.160472   -1.700991
      5          6           0        1.152306    1.422704    0.772430
      6          6           0        0.708381    0.245534    1.202422
      7          1           0        0.558988    2.319273    0.905524
      8          1           0       -0.248962    0.160472    1.700991
      9          6           0        1.545018   -0.996200    1.092829
     10          1           0        2.059657   -1.126856    2.053246
     11          1           0        0.904290   -1.869997    0.974198
     12          6           0        2.450083    1.528310    0.106435
     13          1           0        2.850945    2.514335   -0.096069
     14          6           0        3.127681    0.441423   -0.258958
     15          1           0        4.076548    0.536846   -0.774111
     16          6           0        2.579330   -0.941931   -0.037180
     17          1           0        2.135763   -1.291670   -0.977567
     18          1           0        3.392662   -1.637636    0.178291
     19          6           0       -1.152306   -1.422704   -0.772430
     20          1           0       -0.558988   -2.319273   -0.905524
     21          6           0       -2.450083   -1.528310   -0.106435
     22          1           0       -2.850945   -2.514335    0.096069
     23          6           0       -1.545018    0.996200   -1.092829
     24          1           0       -0.904290    1.869997   -0.974198
     25          1           0       -2.059657    1.126856   -2.053246
     26          6           0       -2.579330    0.941931    0.037180
     27          1           0       -3.392662    1.637636   -0.178291
     28          1           0       -2.135763    1.291670    0.977567
 ---------------------------------------------------------------------
                    Distance matrix (angstroms):
                    1          2          3          4          5
     1  C    0.000000
     2  C    2.833199   0.000000
     3  H    1.083899   3.916133   0.000000
     4  H    3.914339   1.082734   4.997782   0.000000
     5  C    4.696479   3.185155   5.583973   3.072505   0.000000
     6  C    4.009664   2.834014   4.867352   2.967442   1.329546
     7  H    4.650916   3.553575   5.446364   3.610979   1.083317
     8  H    3.275479   2.967442   3.999472   3.453175   2.102143
     9  C    4.778832   3.302951   5.649300   3.191180   2.471432
    10  H    5.531525   4.363271   6.295817   4.278646   2.993999
    11  H    4.336955   3.158680   5.160046   3.241692   3.308187
    12  C    5.917310   3.851691   6.878050   3.311149   1.462507
    13  H    6.678811   4.637855   7.619520   4.062103   2.198027
    14  C    6.338549   4.009664   7.343375   3.275479   2.434909
    15  H    7.343375   4.867352   8.367962   3.999472   3.424577
    16  C    5.736565   3.556937   6.717365   2.968090   2.878083
    17  H    5.473185   3.038769   6.498534   2.315809   3.376019
    18  H    6.629654   4.545643   7.573364   3.949249   3.838994
    19  C    2.434909   1.329546   3.424577   2.102143   3.974189
    20  H    3.388292   2.100205   4.286193   2.438437   4.443698
    21  C    1.331906   2.424918   2.098512   3.420297   4.738997
    22  H    2.097637   3.379958   2.423284   4.287134   5.655419
    23  C    2.529607   1.501291   3.499191   2.219485   3.307061
    24  H    3.436103   2.136806   4.348873   2.445613   2.735026
    25  H    2.991064   2.105541   3.850935   2.666649   4.288202
    26  C    1.504507   2.539121   2.229688   3.497966   3.833646
    27  H    2.141002   3.435191   2.470454   4.337422   4.648312
    28  H    2.122242   3.025354   2.674231   3.869148   3.297067
                    6          7          8          9         10
     6  C    0.000000
     7  H    2.100205   0.000000
     8  H    1.082734   2.438437   0.000000
     9  C    1.501291   3.464058   2.219485   0.000000
    10  H    2.105541   3.930023   2.666649   1.097417   0.000000
    11  H    2.136806   4.204038   2.445613   1.090012   1.746847
    12  C    2.424918   2.200092   3.420297   2.857493   3.315481
    13  H    3.379958   2.508845   4.287134   3.929730   4.301623
    14  C    2.833199   3.388292   3.914339   2.529607   2.991064
    15  H    3.916133   4.286193   4.997782   3.499191   3.850935
    16  C    2.539121   3.950433   3.497966   1.532862   2.161976
    17  H    3.025354   4.367054   3.869148   2.173205   3.036245
    18  H    3.435191   4.920946   4.337422   2.159076   2.356534
    19  C    3.185155   4.443698   3.072505   3.307061   4.288202
    20  H    3.553575   5.103516   3.610979   3.189166   4.127164
    21  C    3.851691   4.988233   3.311149   4.205022   5.016288
    22  H    4.637855   5.970480   4.062103   4.756338   5.465314
    23  C    3.302951   3.189166   3.191180   4.277275   5.234390
    24  H    3.158680   2.424126   3.241692   4.299627   5.189559
    25  H    4.363271   4.127164   4.278646   5.234390   6.237888
    26  C    3.556937   3.535553   2.968090   4.677712   5.464852
    27  H    4.545643   4.153892   3.949249   5.738774   6.507684
    28  H    3.038769   2.884933   2.315809   4.335410   4.960635
                   11         12         13         14         15
    11  H    0.000000
    12  C    3.832881   0.000000
    13  H    4.915008   1.083487   0.000000
    14  C    3.436103   1.331906   2.097637   0.000000
    15  H    4.348873   2.098512   2.423284   1.083899   0.000000
    16  C    2.165629   2.477785   3.467422   1.504507   2.229688
    17  H    2.379154   3.037457   3.971674   2.122242   2.674231
    18  H    2.622871   3.304063   4.196140   2.141002   2.470454
    19  C    2.735026   4.738997   5.655419   4.696479   5.583973
    20  H    2.424126   4.988233   5.970480   4.650916   5.446364
    21  C    3.540669   5.779262   6.666632   5.917310   6.878050
    22  H    3.909996   6.666632   7.604998   6.678811   7.619520
    23  C    4.299627   4.205022   4.756338   4.778832   5.649300
    24  H    4.588547   3.540669   3.909996   4.336955   5.160046
    25  H    5.189559   5.016288   5.465314   5.531525   6.295817
    26  C    4.573899   5.063954   5.654918   5.736565   6.717365
    27  H    5.665291   5.850700   6.305394   6.629654   7.573364
    28  H    4.386123   4.673848   5.245461   5.473185   6.498534
                   16         17         18         19         20
    16  C    0.000000
    17  H    1.096994   0.000000
    18  H    1.091761   1.742267   0.000000
    19  C    3.833646   3.297067   4.648312   0.000000
    20  H    3.535553   2.884933   4.153892   1.083317   0.000000
    21  C    5.063954   4.673848   5.850700   1.462507   2.200092
    22  H    5.654918   5.245461   6.305394   2.198027   2.508845
    23  C    4.677712   4.335410   5.738774   2.471432   3.464058
    24  H    4.573899   4.386123   5.665291   3.308187   4.204038
    25  H    5.464852   4.960635   6.507684   2.993999   3.930023
    26  C    5.492380   5.315147   6.506825   2.878083   3.950433
    27  H    6.506825   6.307389   7.542889   3.838994   4.920946
    28  H    5.315147   5.361169   6.307389   3.376019   4.367054
                   21         22         23         24         25
    21  C    0.000000
    22  H    1.083487   0.000000
    23  C    2.857493   3.929730   0.000000
    24  H    3.832881   4.915008   1.090012   0.000000
    25  H    3.315481   4.301623   1.097417   1.746847   0.000000
    26  C    2.477785   3.467422   1.532862   2.165629   2.161976
    27  H    3.304063   4.196140   2.159076   2.622871   2.356534
    28  H    3.037457   3.971674   2.173205   2.379154   3.036245
                   26         27         28
    26  C    0.000000
    27  H    1.091761   0.000000
    28  H    1.096994   1.742267   0.000000
 Symmetry turned off by external request.
 Stoichiometry    C12H16
 Framework group  CI[X(C12H16)]
 Deg. of freedom    39
 Full point group                 CI      NOp   2
 Rotational constants (GHZ):           1.7818269           0.6001515           0.5384826
 Leave Link  202 at Mon Aug  3 14:49:02 2020, MaxMem=  6442450944 cpu:               0.3 elap:               0.0
 (Enter /scratch/scicomp/CentOS/7.3.1611/Haswell/software/Gaussian/g16/l301.exe)
 Standard basis: def2TZVP (6D, 10F)
 Ernie: Thresh=  0.10000D-02 Tol=  0.10000D-05 Strict=F.
   528 basis functions,   740 primitive gaussians,   528 cartesian basis functions
    44 alpha electrons       44 beta electrons
       nuclear repulsion energy       678.2227150402 Hartrees.
 IExCor= 4639 DFT=T Ex+Corr=wB97XD ExCW=0 ScaHFX=  1.000000
 ScaDFX=  1.000000  1.000000  1.000000  1.000000 ScalE2=  1.000000  1.000000
 IRadAn=      5 IRanWt=     -1 IRanGd=            0 ICorTp=0 IEmpDi=121
 HFx  wShort=  0.000000 wLong=  0.200000 cFull=  0.222036 cShort=  0.000000 cLong=  0.777964
 DFx  wShort=  0.000000 wLong=  0.200000 cFull=  0.000000 cShort=  0.000000 cLong=  1.000000
 NAtoms=   28 NActive=   28 NUniq=   28 SFac= 1.00D+00 NAtFMM=   60 NAOKFM=F Big=F
 Integral buffers will be    131072 words long.
 Raffenetti 2 integral format.
 Two-electron integral symmetry is turned off.
 R6Disp:  Grimme-D2 Dispersion energy=       -0.0224280950 Hartrees.
 Nuclear repulsion after empirical dispersion term =      678.2002869452 Hartrees.
 Using the following non-standard input for PCM:
 norep pcmdoc geomview  nodis nocav g03defaults tsare=0.075
 Warning! Using old PCM defaults because the g03defaults keyword was found.
 These settings can be overridden by following keywords.
 nsfe=28
 NVESolv=36  SolvMW=84.1595   Rsolv=2.815
 eps=2.0165 RhoS=0.7781
 --- end of non-standard input.
 Reading user-defined spheres from input:
 ISph  on   Nord    Re0     Alpha      Xe            Ye            Ze
 --- end of user-defined spheres data.
 ------------------------------------------------------------------------------
 Polarizable Continuum Model (PCM)
 =================================
 Model                : PCM.
 Atomic radii         : UA0 (Simple United Atom Topological Model).
 Polarization charges : Total charges.
 Charge compensation  : None.
 Solution method      : On-the-fly selection.
 Cavity type          : SES (Solvent Excluding Surface) (Alpha=1.000).
 Cavity algorithm     : GePol (RMin=0.200 OFac=0.890).
                        User-defined sphere list used, NSphG=   28.
                        Tesserae with average area of 0.075 Ang**2.
                        Smoothing algorithm: None.
                        Polarization charges: point-like.
                        Self-potential: constant (ISelfS= 1).
                        Self-field    : global E.n sum rule (ISelfD= 3).
 Solvent              : CycloHexane, Eps=   2.016500 Eps(inf)=   2.035188
                        RSolv=   2.815000 Ang.
 ------------------------------------------------------------------------------
 GePol: Number of generator spheres                  =      28
 GePol: Total number of spheres                      =     186
 GePol: Number of exposed spheres                    =     131 ( 70.43%)
 GePol: Number of tesserae                           =    4693
 GePol: Average area of tesserae                     =       0.05 Ang**2
 GePol: Minimum area of tessera                      =   0.10D-02 Ang**2
 GePol: Maximum area of tessera                      =    0.12395 Ang**2
 GePol: Number of small tesserae                     =       0
 GePol: Fraction of small tesserae (<1% of avg)      =       0.00%
 GePol: Total count of vertices                      =   16627
 GePol: Maximum number of vertices in a tessera      =       7
 GePol: Cavity surface area                          =    221.445 Ang**2
 GePol: Cavity volume                                =    251.717 Ang**3
 Leave Link  301 at Mon Aug  3 14:49:02 2020, MaxMem=  6442450944 cpu:               7.9 elap:               0.4
 (Enter /scratch/scicomp/CentOS/7.3.1611/Haswell/software/Gaussian/g16/l302.exe)
 NPDir=0 NMtPBC=     1 NCelOv=     1 NCel=       1 NClECP=     1 NCelD=      1
         NCelK=      1 NCelE2=     1 NClLst=     1 CellRange=     0.0.
 One-electron integrals computed using PRISM.
   1 Symmetry operations used in ECPInt.
 ECPInt:  NShTT=   19306 NPrTT=   56928 LenC2=   18480 LenP2D=   41966.
 LDataN:  DoStor=T MaxTD1= 6 Len=  172
 NBasis=   528 RedAO= T EigKep=  1.82D-05  NBF=   528
 NBsUse=   528 1.00D-06 EigRej= -1.00D+00 NBFU=   528
 Precomputing XC quadrature grid using
 IXCGrd= 4 IRadAn=           5 IRanWt=          -1 IRanGd=           0 AccXCQ= 0.00D+00.
 Generated NRdTot=       0 NPtTot=           0 NUsed=           0 NTot=          32
 NSgBfM=   526   526   526   526   526 MxSgAt=    28 MxSgA2=    28.
 Leave Link  302 at Mon Aug  3 14:49:03 2020, MaxMem=  6442450944 cpu:              12.8 elap:               0.6
 (Enter /scratch/scicomp/CentOS/7.3.1611/Haswell/software/Gaussian/g16/l303.exe)
 DipDrv:  MaxL=1.
 Leave Link  303 at Mon Aug  3 14:49:03 2020, MaxMem=  6442450944 cpu:               1.5 elap:               0.1
 (Enter /scratch/scicomp/CentOS/7.3.1611/Haswell/software/Gaussian/g16/l401.exe)
 ExpMin= 9.52D-02 ExpMax= 1.36D+04 ExpMxC= 4.63D+02 IAcc=3 IRadAn=         5 AccDes= 0.00D+00
 Harris functional with IExCor= 4639 and IRadAn=       5 diagonalized for initial guess.
 HarFok:  IExCor= 4639 AccDes= 0.00D+00 IRadAn=         5 IDoV= 1 UseB2=F ITyADJ=14
 ICtDFT=  3500011 ScaDFX=  1.000000  1.000000  1.000000  1.000000
 FoFCou: FMM=F IPFlag=           0 FMFlag=      100000 FMFlg1=           0
         NFxFlg=           0 DoJE=T BraDBF=F KetDBF=T FulRan=T
         wScrn=  0.000000 ICntrl=       500 IOpCl=  0 I1Cent=   200000004 NGrid=           0
         NMat0=    1 NMatS0=      1 NMatT0=    0 NMatD0=    1 NMtDS0=    0 NMtDT0=    0
 Symmetry not used in FoFCou.
 Harris En= -444.654531435927    
 JPrj=0 DoOrth=F DoCkMO=T.
 Mixing orbitals, IMix= 1 IMixAn=  0 NRI=1 NE=   44 Coef=  7.07106781D-01  7.07106781D-01
 Mixing orbitals, IMix= 1 IMixAn=  0 NRI=1 NE=   44 Coef= -7.07106781D-01  7.07106781D-01
 Initial guess <Sx>= 0.0000 <Sy>= 0.0000 <Sz>= 0.0000 <S**2>= 1.0000 S= 0.6180
 Leave Link  401 at Mon Aug  3 14:49:05 2020, MaxMem=  6442450944 cpu:              49.0 elap:               2.1
 (Enter /scratch/scicomp/CentOS/7.3.1611/Haswell/software/Gaussian/g16/l502.exe)
 Two-electron integral symmetry not used.
 UHF open shell SCF:
 Using DIIS extrapolation, IDIIS=  1040.
 NGot=  6442450944 LenX=  6441877030 LenY=  6441597718
 Requested convergence on RMS density matrix=1.00D-08 within 128 cycles.
 Requested convergence on MAX density matrix=1.00D-06.
 Requested convergence on             energy=1.00D-06.
 No special actions if energy rises.
 Fock matrices will be formed incrementally for  20 cycles.

 Cycle   1  Pass 1  IDiag  1:
 FoFJK:  IHMeth= 1 ICntrl=       0 DoSepK=T KAlg= 0 I1Cent=           0 FoldK=F
 IRaf=         1 NMat=       1 IRICut=       1 DoRegI=T DoRafI=F ISym2E= 0 IDoP0=0 IntGTp=1.
 FoFCou: FMM=F IPFlag=           0 FMFlag=      100000 FMFlg1=           0
         NFxFlg=           0 DoJE=T BraDBF=F KetDBF=F FulRan=T
         wScrn=  0.000000 ICntrl=       500 IOpCl=  0 I1Cent=           0 NGrid=           0
         NMat0=    1 NMatS0=      1 NMatT0=    0 NMatD0=    1 NMtDS0=    0 NMtDT0=    0
 Symmetry not used in FoFCou.
 Inv3:  Mode=1 IEnd=    66072747.
 Iteration    1 A*A^-1 deviation from unit magnitude is 3.33D-15 for      5.
 Iteration    1 A*A^-1 deviation from orthogonality  is 1.94D-15 for   1659     86.
 Iteration    1 A^-1*A deviation from unit magnitude is 3.11D-15 for   4220.
 Iteration    1 A^-1*A deviation from orthogonality  is 2.97D-15 for   2299    962.
 E= -466.580816320800    
 DIIS: error= 4.97D-02 at cycle   1 NSaved=   1.
 NSaved= 1 IEnMin= 1 EnMin= -466.580816320800     IErMin= 1 ErrMin= 4.97D-02
 ErrMax= 4.97D-02  0.00D+00 EMaxC= 1.00D-01 BMatC= 4.11D+00 BMatP= 4.11D+00
 IDIUse=3 WtCom= 5.03D-01 WtEn= 4.97D-01
 Coeff-Com:  0.100D+01
 Coeff-En:   0.100D+01
 Coeff:      0.100D+01
 Gap=     0.182 Goal=   None    Shift=    0.000
 Gap=     0.182 Goal=   None    Shift=    0.000
 GapD=    0.182 DampG=1.000 DampE=0.500 DampFc=0.5000 IDamp=-1.
 Damping current iteration by 5.00D-01
 RMSDP=1.63D-03 MaxDP=9.25D-02              OVMax= 3.42D-01

 Cycle   2  Pass 1  IDiag  1:
 RMSU=  7.86D-04    CP:  9.64D-01
 E= -466.691008234441     Delta-E=       -0.110191913641 Rises=F Damp=T
 DIIS: error= 2.37D-02 at cycle   2 NSaved=   2.
 NSaved= 2 IEnMin= 2 EnMin= -466.691008234441     IErMin= 2 ErrMin= 2.37D-02
 ErrMax= 2.37D-02  0.00D+00 EMaxC= 1.00D-01 BMatC= 9.35D-01 BMatP= 4.11D+00
 IDIUse=3 WtCom= 7.63D-01 WtEn= 2.37D-01
 Coeff-Com: -0.867D+00 0.187D+01
 Coeff-En:   0.000D+00 0.100D+01
 Coeff:     -0.662D+00 0.166D+01
 Gap=     0.275 Goal=   None    Shift=    0.000
 Gap=     0.275 Goal=   None    Shift=    0.000
 RMSDP=1.17D-03 MaxDP=5.33D-02 DE=-1.10D-01 OVMax= 1.40D-01

 Cycle   3  Pass 1  IDiag  1:
 RMSU=  6.26D-04    CP:  9.11D-01  2.18D+00
 E= -466.834409743595     Delta-E=       -0.143401509154 Rises=F Damp=F
 DIIS: error= 7.76D-03 at cycle   3 NSaved=   3.
 NSaved= 3 IEnMin= 3 EnMin= -466.834409743595     IErMin= 3 ErrMin= 7.76D-03
 ErrMax= 7.76D-03  0.00D+00 EMaxC= 1.00D-01 BMatC= 2.50D-02 BMatP= 9.35D-01
 IDIUse=3 WtCom= 9.22D-01 WtEn= 7.76D-02
 Coeff-Com: -0.320D+00 0.686D+00 0.634D+00
 Coeff-En:   0.000D+00 0.000D+00 0.100D+01
 Coeff:     -0.295D+00 0.632D+00 0.663D+00
 Gap=     0.296 Goal=   None    Shift=    0.000
 Gap=     0.296 Goal=   None    Shift=    0.000
 RMSDP=2.27D-04 MaxDP=1.15D-02 DE=-1.43D-01 OVMax= 6.48D-02

 Cycle   4  Pass 1  IDiag  1:
 RMSU=  2.07D-04    CP:  9.04D-01  2.28D+00  9.88D-01
 E= -466.845507712711     Delta-E=       -0.011097969116 Rises=F Damp=F
 DIIS: error= 5.18D-03 at cycle   4 NSaved=   4.
 NSaved= 4 IEnMin= 4 EnMin= -466.845507712711     IErMin= 4 ErrMin= 5.18D-03
 ErrMax= 5.18D-03  0.00D+00 EMaxC= 1.00D-01 BMatC= 2.14D-03 BMatP= 2.50D-02
 IDIUse=3 WtCom= 9.48D-01 WtEn= 5.18D-02
 Coeff-Com:  0.140D+00-0.300D+00-0.670D-01 0.123D+01
 Coeff-En:   0.000D+00 0.000D+00 0.000D+00 0.100D+01
 Coeff:      0.133D+00-0.285D+00-0.636D-01 0.122D+01
 Gap=     0.308 Goal=   None    Shift=    0.000
 Gap=     0.308 Goal=   None    Shift=    0.000
 RMSDP=2.22D-04 MaxDP=1.33D-02 DE=-1.11D-02 OVMax= 7.89D-02

 Cycle   5  Pass 1  IDiag  1:
 RMSU=  9.03D-05    CP:  8.97D-01  2.34D+00  1.21D+00  1.63D+00
 E= -466.850342395414     Delta-E=       -0.004834682703 Rises=F Damp=F
 DIIS: error= 2.43D-03 at cycle   5 NSaved=   5.
 NSaved= 5 IEnMin= 5 EnMin= -466.850342395414     IErMin= 5 ErrMin= 2.43D-03
 ErrMax= 2.43D-03  0.00D+00 EMaxC= 1.00D-01 BMatC= 9.23D-04 BMatP= 2.14D-03
 IDIUse=3 WtCom= 9.76D-01 WtEn= 2.43D-02
 Coeff-Com:  0.737D-01-0.158D+00-0.792D-01 0.416D+00 0.748D+00
 Coeff-En:   0.000D+00 0.000D+00 0.000D+00 0.000D+00 0.100D+01
 Coeff:      0.719D-01-0.154D+00-0.773D-01 0.406D+00 0.754D+00
 Gap=     0.310 Goal=   None    Shift=    0.000
 Gap=     0.310 Goal=   None    Shift=    0.000
 RMSDP=7.98D-05 MaxDP=3.66D-03 DE=-4.83D-03 OVMax= 2.91D-02

 Cycle   6  Pass 1  IDiag  1:
 RMSU=  3.29D-05    CP:  8.95D-01  2.34D+00  1.25D+00  1.91D+00  1.37D+00
 E= -466.851755591400     Delta-E=       -0.001413195987 Rises=F Damp=F
 DIIS: error= 1.78D-03 at cycle   6 NSaved=   6.
 NSaved= 6 IEnMin= 6 EnMin= -466.851755591400     IErMin= 6 ErrMin= 1.78D-03
 ErrMax= 1.78D-03  0.00D+00 EMaxC= 1.00D-01 BMatC= 5.41D-04 BMatP= 9.23D-04
 IDIUse=3 WtCom= 9.82D-01 WtEn= 1.78D-02
 Coeff-Com: -0.772D-01 0.166D+00 0.566D-01-0.563D+00 0.259D-01 0.139D+01
 Coeff-En:   0.000D+00 0.000D+00 0.000D+00 0.000D+00 0.000D+00 0.100D+01
 Coeff:     -0.758D-01 0.163D+00 0.556D-01-0.553D+00 0.254D-01 0.139D+01
 Gap=     0.306 Goal=   None    Shift=    0.000
 Gap=     0.306 Goal=   None    Shift=    0.000
 RMSDP=1.03D-04 MaxDP=4.11D-03 DE=-1.41D-03 OVMax= 3.88D-02

 Cycle   7  Pass 1  IDiag  1:
 RMSU=  3.23D-05    CP:  8.93D-01  2.35D+00  1.29D+00  2.20D+00  2.05D+00
                    CP:  2.18D+00
 E= -466.853418900362     Delta-E=       -0.001663308961 Rises=F Damp=F
 DIIS: error= 1.15D-03 at cycle   7 NSaved=   7.
 NSaved= 7 IEnMin= 7 EnMin= -466.853418900362     IErMin= 7 ErrMin= 1.15D-03
 ErrMax= 1.15D-03  0.00D+00 EMaxC= 1.00D-01 BMatC= 2.84D-04 BMatP= 5.41D-04
 IDIUse=3 WtCom= 9.88D-01 WtEn= 1.15D-02
 Coeff-Com: -0.265D-01 0.575D-01 0.449D-01 0.783D-03-0.651D+00-0.642D+00
 Coeff-Com:  0.222D+01
 Coeff-En:   0.000D+00 0.000D+00 0.000D+00 0.000D+00 0.000D+00 0.000D+00
 Coeff-En:   0.100D+01
 Coeff:     -0.262D-01 0.568D-01 0.444D-01 0.774D-03-0.643D+00-0.634D+00
 Coeff:      0.220D+01
 Gap=     0.306 Goal=   None    Shift=    0.000
 Gap=     0.306 Goal=   None    Shift=    0.000
 RMSDP=1.44D-04 MaxDP=6.93D-03 DE=-1.66D-03 OVMax= 5.46D-02

 Cycle   8  Pass 1  IDiag  1:
 RMSU=  5.14D-05    CP:  8.90D-01  2.34D+00  1.33D+00  2.53D+00  2.93D+00
                    CP:  3.00D+00  2.77D+00
 E= -466.854943965574     Delta-E=       -0.001525065213 Rises=F Damp=F
 DIIS: error= 4.24D-04 at cycle   8 NSaved=   8.
 NSaved= 8 IEnMin= 8 EnMin= -466.854943965574     IErMin= 8 ErrMin= 4.24D-04
 ErrMax= 4.24D-04  0.00D+00 EMaxC= 1.00D-01 BMatC= 7.56D-05 BMatP= 2.84D-04
 IDIUse=3 WtCom= 9.96D-01 WtEn= 4.24D-03
 Coeff-Com:  0.259D-01-0.556D-01-0.805D-02 0.276D+00-0.206D+00-0.836D+00
 Coeff-Com:  0.676D+00 0.113D+01
 Coeff-En:   0.000D+00 0.000D+00 0.000D+00 0.000D+00 0.000D+00 0.000D+00
 Coeff-En:   0.000D+00 0.100D+01
 Coeff:      0.258D-01-0.553D-01-0.801D-02 0.275D+00-0.205D+00-0.833D+00
 Coeff:      0.674D+00 0.113D+01
 Gap=     0.308 Goal=   None    Shift=    0.000
 Gap=     0.308 Goal=   None    Shift=    0.000
 RMSDP=7.27D-05 MaxDP=3.59D-03 DE=-1.53D-03 OVMax= 2.70D-02

 Cycle   9  Pass 1  IDiag  1:
 RMSU=  4.19D-05    CP:  8.89D-01  2.34D+00  1.35D+00  2.65D+00  3.00D+00
                    CP:  3.00D+00  3.00D+00  1.83D+00
 E= -466.855250731341     Delta-E=       -0.000306765767 Rises=F Damp=F
 DIIS: error= 1.43D-04 at cycle   9 NSaved=   9.
 NSaved= 9 IEnMin= 9 EnMin= -466.855250731341     IErMin= 9 ErrMin= 1.43D-04
 ErrMax= 1.43D-04  0.00D+00 EMaxC= 1.00D-01 BMatC= 1.40D-05 BMatP= 7.56D-05
 IDIUse=3 WtCom= 9.99D-01 WtEn= 1.43D-03
 Coeff-Com:  0.156D-01-0.336D-01-0.109D-01 0.112D+00 0.339D-01-0.217D+00
 Coeff-Com: -0.120D+00 0.378D+00 0.843D+00
 Coeff-En:   0.000D+00 0.000D+00 0.000D+00 0.000D+00 0.000D+00 0.000D+00
 Coeff-En:   0.000D+00 0.000D+00 0.100D+01
 Coeff:      0.156D-01-0.335D-01-0.109D-01 0.112D+00 0.338D-01-0.217D+00
 Coeff:     -0.120D+00 0.377D+00 0.843D+00
 Gap=     0.308 Goal=   None    Shift=    0.000
 Gap=     0.308 Goal=   None    Shift=    0.000
 RMSDP=1.94D-05 MaxDP=9.73D-04 DE=-3.07D-04 OVMax= 7.13D-03

 Cycle  10  Pass 1  IDiag  1:
 RMSU=  5.21D-06    CP:  8.89D-01  2.34D+00  1.35D+00  2.67D+00  3.00D+00
                    CP:  3.00D+00  3.00D+00  2.05D+00  1.32D+00
 E= -466.855277754828     Delta-E=       -0.000027023487 Rises=F Damp=F
 DIIS: error= 6.57D-05 at cycle  10 NSaved=  10.
 NSaved=10 IEnMin=10 EnMin= -466.855277754828     IErMin=10 ErrMin= 6.57D-05
 ErrMax= 6.57D-05  0.00D+00 EMaxC= 1.00D-01 BMatC= 2.29D-06 BMatP= 1.40D-05
 IDIUse=1 WtCom= 1.00D+00 WtEn= 0.00D+00
 Coeff-Com: -0.130D-02 0.283D-02-0.809D-03-0.293D-01 0.420D-01 0.108D+00
 Coeff-Com: -0.135D+00-0.188D+00 0.165D+00 0.104D+01
 Coeff:     -0.130D-02 0.283D-02-0.809D-03-0.293D-01 0.420D-01 0.108D+00
 Coeff:     -0.135D+00-0.188D+00 0.165D+00 0.104D+01
 Gap=     0.307 Goal=   None    Shift=    0.000
 Gap=     0.307 Goal=   None    Shift=    0.000
 RMSDP=9.25D-06 MaxDP=4.39D-04 DE=-2.70D-05 OVMax= 3.54D-03

 Cycle  11  Pass 1  IDiag  1:
 RMSU=  2.80D-06    CP:  8.89D-01  2.34D+00  1.36D+00  2.68D+00  3.00D+00
                    CP:  3.00D+00  3.00D+00  2.14D+00  1.47D+00  1.45D+00
 E= -466.855282058769     Delta-E=       -0.000004303942 Rises=F Damp=F
 DIIS: error= 2.43D-05 at cycle  11 NSaved=  11.
 NSaved=11 IEnMin=11 EnMin= -466.855282058769     IErMin=11 ErrMin= 2.43D-05
 ErrMax= 2.43D-05  0.00D+00 EMaxC= 1.00D-01 BMatC= 5.20D-07 BMatP= 2.29D-06
 IDIUse=1 WtCom= 1.00D+00 WtEn= 0.00D+00
 Coeff-Com: -0.175D-02 0.378D-02 0.592D-03-0.201D-01 0.117D-01 0.555D-01
 Coeff-Com: -0.329D-01-0.107D+00-0.219D-01 0.413D+00 0.699D+00
 Coeff:     -0.175D-02 0.378D-02 0.592D-03-0.201D-01 0.117D-01 0.555D-01
 Coeff:     -0.329D-01-0.107D+00-0.219D-01 0.413D+00 0.699D+00
 Gap=     0.307 Goal=   None    Shift=    0.000
 Gap=     0.307 Goal=   None    Shift=    0.000
 RMSDP=1.56D-06 MaxDP=8.53D-05 DE=-4.30D-06 OVMax= 5.13D-04

 Cycle  12  Pass 1  IDiag  1:
 RMSU=  9.22D-07    CP:  8.89D-01  2.34D+00  1.36D+00  2.68D+00  3.00D+00
                    CP:  3.00D+00  3.00D+00  2.15D+00  1.49D+00  1.53D+00
                    CP:  1.21D+00
 E= -466.855282378559     Delta-E=       -0.000000319790 Rises=F Damp=F
 DIIS: error= 1.55D-05 at cycle  12 NSaved=  12.
 NSaved=12 IEnMin=12 EnMin= -466.855282378559     IErMin=12 ErrMin= 1.55D-05
 ErrMax= 1.55D-05  0.00D+00 EMaxC= 1.00D-01 BMatC= 8.30D-08 BMatP= 5.20D-07
 IDIUse=1 WtCom= 1.00D+00 WtEn= 0.00D+00
 Coeff-Com:  0.635D-03-0.138D-02-0.119D-03 0.909D-02-0.760D-02-0.294D-01
 Coeff-Com:  0.281D-01 0.508D-01-0.253D-01-0.259D+00-0.288D-01 0.126D+01
 Coeff:      0.635D-03-0.138D-02-0.119D-03 0.909D-02-0.760D-02-0.294D-01
 Coeff:      0.281D-01 0.508D-01-0.253D-01-0.259D+00-0.288D-01 0.126D+01
 Gap=     0.307 Goal=   None    Shift=    0.000
 Gap=     0.307 Goal=   None    Shift=    0.000
 RMSDP=1.03D-06 MaxDP=5.11D-05 DE=-3.20D-07 OVMax= 1.80D-04

 Cycle  13  Pass 1  IDiag  1:
 RMSU=  5.43D-07    CP:  8.89D-01  2.34D+00  1.36D+00  2.68D+00  3.00D+00
                    CP:  3.00D+00  3.00D+00  2.15D+00  1.49D+00  1.55D+00
                    CP:  1.42D+00  1.66D+00
 E= -466.855282510188     Delta-E=       -0.000000131629 Rises=F Damp=F
 DIIS: error= 8.11D-06 at cycle  13 NSaved=  13.
 NSaved=13 IEnMin=13 EnMin= -466.855282510188     IErMin=13 ErrMin= 8.11D-06
 ErrMax= 8.11D-06  0.00D+00 EMaxC= 1.00D-01 BMatC= 2.07D-08 BMatP= 8.30D-08
 IDIUse=1 WtCom= 1.00D+00 WtEn= 0.00D+00
 Coeff-Com: -0.773D-04 0.170D-03 0.959D-04-0.381D-03-0.253D-03 0.712D-03
 Coeff-Com: -0.647D-03 0.195D-02 0.116D-02-0.113D-01-0.965D-01-0.222D+00
 Coeff-Com:  0.133D+01
 Coeff:     -0.773D-04 0.170D-03 0.959D-04-0.381D-03-0.253D-03 0.712D-03
 Coeff:     -0.647D-03 0.195D-02 0.116D-02-0.113D-01-0.965D-01-0.222D+00
 Coeff:      0.133D+01
 Gap=     0.307 Goal=   None    Shift=    0.000
 Gap=     0.307 Goal=   None    Shift=    0.000
 RMSDP=4.69D-07 MaxDP=2.73D-05 DE=-1.32D-07 OVMax= 1.17D-04

 Cycle  14  Pass 1  IDiag  1:
 RMSU=  3.07D-07    CP:  8.89D-01  2.34D+00  1.36D+00  2.68D+00  3.00D+00
                    CP:  3.00D+00  3.00D+00  2.15D+00  1.49D+00  1.57D+00
                    CP:  1.47D+00  1.85D+00  1.46D+00
 E= -466.855282554201     Delta-E=       -0.000000044013 Rises=F Damp=F
 DIIS: error= 4.42D-06 at cycle  14 NSaved=  14.
 NSaved=14 IEnMin=14 EnMin= -466.855282554201     IErMin=14 ErrMin= 4.42D-06
 ErrMax= 4.42D-06  0.00D+00 EMaxC= 1.00D-01 BMatC= 6.40D-09 BMatP= 2.07D-08
 IDIUse=1 WtCom= 1.00D+00 WtEn= 0.00D+00
 Coeff-Com: -0.271D-03 0.587D-03 0.128D-03-0.314D-02 0.200D-02 0.951D-02
 Coeff-Com: -0.855D-02-0.157D-01 0.838D-02 0.838D-01-0.629D-02-0.458D+00
 Coeff-Com:  0.114D+00 0.127D+01
 Coeff:     -0.271D-03 0.587D-03 0.128D-03-0.314D-02 0.200D-02 0.951D-02
 Coeff:     -0.855D-02-0.157D-01 0.838D-02 0.838D-01-0.629D-02-0.458D+00
 Coeff:      0.114D+00 0.127D+01
 Gap=     0.307 Goal=   None    Shift=    0.000
 Gap=     0.307 Goal=   None    Shift=    0.000
 RMSDP=3.57D-07 MaxDP=1.67D-05 DE=-4.40D-08 OVMax= 8.53D-05

 Cycle  15  Pass 1  IDiag  1:
 RMSU=  1.35D-07    CP:  8.89D-01  2.34D+00  1.36D+00  2.68D+00  3.00D+00
                    CP:  3.00D+00  3.00D+00  2.15D+00  1.49D+00  1.58D+00
                    CP:  1.48D+00  1.94D+00  1.81D+00  1.81D+00
 E= -466.855282568801     Delta-E=       -0.000000014601 Rises=F Damp=F
 DIIS: error= 1.43D-06 at cycle  15 NSaved=  15.
 NSaved=15 IEnMin=15 EnMin= -466.855282568801     IErMin=15 ErrMin= 1.43D-06
 ErrMax= 1.43D-06  0.00D+00 EMaxC= 1.00D-01 BMatC= 8.83D-10 BMatP= 6.40D-09
 IDIUse=1 WtCom= 1.00D+00 WtEn= 0.00D+00
 Coeff-Com:  0.761D-05-0.169D-04-0.278D-04-0.119D-03 0.343D-03 0.707D-03
 Coeff-Com: -0.131D-02-0.159D-02 0.298D-02 0.141D-01 0.136D-01-0.360D-01
 Coeff-Com: -0.244D+00 0.212D+00 0.104D+01
 Coeff:      0.761D-05-0.169D-04-0.278D-04-0.119D-03 0.343D-03 0.707D-03
 Coeff:     -0.131D-02-0.159D-02 0.298D-02 0.141D-01 0.136D-01-0.360D-01
 Coeff:     -0.244D+00 0.212D+00 0.104D+01
 Gap=     0.307 Goal=   None    Shift=    0.000
 Gap=     0.307 Goal=   None    Shift=    0.000
 RMSDP=1.51D-07 MaxDP=7.25D-06 DE=-1.46D-08 OVMax= 3.24D-05

 Cycle  16  Pass 1  IDiag  1:
 RMSU=  5.81D-08    CP:  8.89D-01  2.34D+00  1.36D+00  2.68D+00  3.00D+00
                    CP:  3.00D+00  3.00D+00  2.15D+00  1.49D+00  1.57D+00
                    CP:  1.48D+00  1.96D+00  1.93D+00  2.09D+00  1.49D+00
 E= -466.855282570230     Delta-E=       -0.000000001428 Rises=F Damp=F
 DIIS: error= 3.10D-07 at cycle  16 NSaved=  16.
 NSaved=16 IEnMin=16 EnMin= -466.855282570230     IErMin=16 ErrMin= 3.10D-07
 ErrMax= 3.10D-07  0.00D+00 EMaxC= 1.00D-01 BMatC= 8.76D-11 BMatP= 8.83D-10
 IDIUse=1 WtCom= 1.00D+00 WtEn= 0.00D+00
 Coeff-Com:  0.125D-04-0.271D-04-0.109D-04 0.141D-03-0.504D-04-0.363D-03
 Coeff-Com:  0.216D-03 0.663D-03-0.613D-04-0.337D-02 0.430D-02 0.302D-01
 Coeff-Com: -0.630D-01-0.739D-01 0.237D+00 0.868D+00
 Coeff:      0.125D-04-0.271D-04-0.109D-04 0.141D-03-0.504D-04-0.363D-03
 Coeff:      0.216D-03 0.663D-03-0.613D-04-0.337D-02 0.430D-02 0.302D-01
 Coeff:     -0.630D-01-0.739D-01 0.237D+00 0.868D+00
 Gap=     0.307 Goal=   None    Shift=    0.000
 Gap=     0.307 Goal=   None    Shift=    0.000
 RMSDP=3.55D-08 MaxDP=2.14D-06 DE=-1.43D-09 OVMax= 5.27D-06

 Cycle  17  Pass 1  IDiag  1:
 RMSU=  1.46D-08    CP:  8.89D-01  2.34D+00  1.36D+00  2.68D+00  3.00D+00
                    CP:  3.00D+00  3.00D+00  2.15D+00  1.49D+00  1.58D+00
                    CP:  1.48D+00  1.97D+00  1.94D+00  2.13D+00  1.62D+00
                    CP:  1.33D+00
 E= -466.855282570295     Delta-E=       -0.000000000066 Rises=F Damp=F
 DIIS: error= 8.09D-08 at cycle  17 NSaved=  17.
 NSaved=17 IEnMin=17 EnMin= -466.855282570295     IErMin=17 ErrMin= 8.09D-08
 ErrMax= 8.09D-08  0.00D+00 EMaxC= 1.00D-01 BMatC= 1.03D-11 BMatP= 8.76D-11
 IDIUse=1 WtCom= 1.00D+00 WtEn= 0.00D+00
 Coeff-Com:  0.367D-06-0.739D-06 0.553D-06 0.175D-04-0.341D-04-0.533D-04
 Coeff-Com:  0.968D-04 0.199D-03-0.358D-03-0.188D-02-0.482D-03 0.854D-02
 Coeff-Com:  0.175D-01-0.372D-01-0.838D-01 0.164D+00 0.933D+00
 Coeff:      0.367D-06-0.739D-06 0.553D-06 0.175D-04-0.341D-04-0.533D-04
 Coeff:      0.968D-04 0.199D-03-0.358D-03-0.188D-02-0.482D-03 0.854D-02
 Coeff:      0.175D-01-0.372D-01-0.838D-01 0.164D+00 0.933D+00
 Gap=     0.307 Goal=   None    Shift=    0.000
 Gap=     0.307 Goal=   None    Shift=    0.000
 RMSDP=1.19D-08 MaxDP=5.42D-07 DE=-6.56D-11 OVMax= 1.76D-06

 Cycle  18  Pass 1  IDiag  1:
 RMSU=  5.83D-09    CP:  8.89D-01  2.34D+00  1.36D+00  2.68D+00  3.00D+00
                    CP:  3.00D+00  3.00D+00  2.15D+00  1.49D+00  1.58D+00
                    CP:  1.48D+00  1.97D+00  1.94D+00  2.13D+00  1.67D+00
                    CP:  1.43D+00  1.21D+00
 E= -466.855282570301     Delta-E=       -0.000000000006 Rises=F Damp=F
 DIIS: error= 2.83D-08 at cycle  18 NSaved=  18.
 NSaved=18 IEnMin=18 EnMin= -466.855282570301     IErMin=18 ErrMin= 2.83D-08
 ErrMax= 2.83D-08  0.00D+00 EMaxC= 1.00D-01 BMatC= 9.84D-13 BMatP= 1.03D-11
 IDIUse=1 WtCom= 1.00D+00 WtEn= 0.00D+00
 Coeff-Com:  0.659D-06-0.143D-05 0.441D-06 0.751D-05-0.170D-04-0.203D-04
 Coeff-Com:  0.335D-04 0.459D-04-0.628D-04-0.254D-03-0.471D-03-0.485D-03
 Coeff-Com:  0.790D-02 0.808D-04-0.332D-01-0.626D-01 0.132D+00 0.957D+00
 Coeff:      0.659D-06-0.143D-05 0.441D-06 0.751D-05-0.170D-04-0.203D-04
 Coeff:      0.335D-04 0.459D-04-0.628D-04-0.254D-03-0.471D-03-0.485D-03
 Coeff:      0.790D-02 0.808D-04-0.332D-01-0.626D-01 0.132D+00 0.957D+00
 Gap=     0.307 Goal=   None    Shift=    0.000
 Gap=     0.307 Goal=   None    Shift=    0.000
 RMSDP=3.67D-09 MaxDP=1.70D-07 DE=-6.03D-12 OVMax= 4.61D-07

 Error on total polarization charges =  0.01181
 SCF Done:  E(UwB97XD) =  -466.855282570     A.U. after   18 cycles
            NFock= 18  Conv=0.37D-08     -V/T= 2.0057
 <Sx>= 0.0000 <Sy>= 0.0000 <Sz>= 0.0000 <S**2>= 0.0000 S= 0.0000
 <L.S>=  0.00000000000    
 KE= 4.641927276585D+02 PE=-2.438165860329D+03 EE= 8.289175631552D+02
 --------------------------------------------------------------------
 Variational PCM results
 =======================
 <psi(f)|   H    |psi(f)>                     (a.u.) =    -466.853743
 <psi(f)|H+V(f)/2|psi(f)>                     (a.u.) =    -466.855283
 (Polarized solute)-Solvent               (kcal/mol) =      -0.97
 --------------------------------------------------------------------
 Partition over spheres:
 Sphere  on Atom  Surface  Charge   GEl     GCav    GDR
    1      C1       6.21   0.010   -0.05    0.00    0.00
    2      C2       3.94   0.006   -0.04    0.00    0.00
    3      H3       7.52  -0.010   -0.04    0.00    0.00
    4      H4       3.08  -0.004   -0.01    0.00    0.00
    5      C5       5.31   0.009   -0.06    0.00    0.00
    6      C6       4.77   0.007   -0.04    0.00    0.00
    7      H7       4.65  -0.006   -0.03    0.00    0.00
    8      H8       3.52  -0.004   -0.01    0.00    0.00
    9      C9       3.14   0.002    0.00    0.00    0.00
   10      H10      6.91  -0.007   -0.01    0.00    0.00
   11      H11      2.58  -0.002   -0.01    0.00    0.00
   12      C12      6.75   0.010   -0.06    0.00    0.00
   13      H13      7.51  -0.010   -0.03    0.00    0.00
   14      C14      7.33   0.011   -0.05    0.00    0.00
   15      H15      7.52  -0.010   -0.04    0.00    0.00
   16      C16      3.73   0.001    0.00    0.00    0.00
   17      H17      3.41  -0.003   -0.01    0.00    0.00
   18      H18      6.95  -0.008   -0.03    0.00    0.00
   19      C19      5.10   0.010   -0.06    0.00    0.00
   20      H20      5.15  -0.007   -0.03    0.00    0.00
   21      C21      6.28   0.010   -0.06    0.00    0.00
   22      H22      7.51  -0.010   -0.03    0.00    0.00
   23      C23      3.58   0.002    0.00    0.00    0.00
   24      H24      3.93  -0.003   -0.01    0.00    0.00
   25      H25      6.88  -0.007   -0.01    0.00    0.00
   26      C26      2.95   0.001    0.00    0.00    0.00
   27      H27      7.05  -0.008   -0.03    0.00    0.00
   28      H28      3.41  -0.003   -0.01    0.00    0.00
 Added spheres:    74.77   0.011   -0.21    0.00    0.00
 --------------------------------------------------------------------
 After PCM corrections, the energy is  -466.855282570     a.u.
 --------------------------------------------------------------------
 Annihilation of the first spin contaminant:
 S**2 before annihilation     0.0000,   after    -0.0000
 Leave Link  502 at Mon Aug  3 14:54:21 2020, MaxMem=  6442450944 cpu:            7507.7 elap:             315.6
 (Enter /scratch/scicomp/CentOS/7.3.1611/Haswell/software/Gaussian/g16/l601.exe)
 Copying SCF densities to generalized density rwf, IOpCl= 1 IROHF=0.

 **********************************************************************

            Population analysis using the SCF Density.

 **********************************************************************

 Alpha  occ. eigenvalues --  -10.28569 -10.28568 -10.28301 -10.28300 -10.28290
 Alpha  occ. eigenvalues --  -10.28289 -10.28212 -10.28211 -10.28019 -10.28019
 Alpha  occ. eigenvalues --  -10.27542 -10.27541  -0.94296  -0.93610  -0.84412
 Alpha  occ. eigenvalues --   -0.84266  -0.83814  -0.83737  -0.71569  -0.71214
 Alpha  occ. eigenvalues --   -0.68104  -0.67965  -0.59839  -0.59695  -0.57459
 Alpha  occ. eigenvalues --   -0.56656  -0.53745  -0.52865  -0.51031  -0.51009
 Alpha  occ. eigenvalues --   -0.49927  -0.49387  -0.47482  -0.46933  -0.45390
 Alpha  occ. eigenvalues --   -0.45069  -0.41394  -0.41047  -0.39834  -0.39335
 Alpha  occ. eigenvalues --   -0.39264  -0.38970  -0.29918  -0.27455
 Alpha virt. eigenvalues --    0.03277   0.05148   0.10518   0.12296   0.13372
 Alpha virt. eigenvalues --    0.14504   0.14872   0.15686   0.15704   0.15849
 Alpha virt. eigenvalues --    0.16730   0.16925   0.17222   0.18211   0.19966
 Alpha virt. eigenvalues --    0.21193   0.21387   0.22871   0.23548   0.23849
 Alpha virt. eigenvalues --    0.24646   0.25427   0.25758   0.26701   0.27969
 Alpha virt. eigenvalues --    0.28231   0.29059   0.29338   0.30114   0.30580
 Alpha virt. eigenvalues --    0.31371   0.31518   0.32335   0.32591   0.33487
 Alpha virt. eigenvalues --    0.33825   0.34329   0.35641   0.36088   0.37294
 Alpha virt. eigenvalues --    0.37921   0.38809   0.40373   0.41227   0.41543
 Alpha virt. eigenvalues --    0.41688   0.43748   0.44026   0.45075   0.45750
 Alpha virt. eigenvalues --    0.46472   0.46866   0.47771   0.47832   0.48427
 Alpha virt. eigenvalues --    0.48695   0.48859   0.49154   0.49574   0.49998
 Alpha virt. eigenvalues --    0.50360   0.50393   0.51890   0.52038   0.52624
 Alpha virt. eigenvalues --    0.53143   0.54094   0.54155   0.54898   0.55062
 Alpha virt. eigenvalues --    0.56858   0.57444   0.57610   0.58891   0.59957
 Alpha virt. eigenvalues --    0.60247   0.60732   0.61955   0.62871   0.64856
 Alpha virt. eigenvalues --    0.65714   0.66818   0.67915   0.68178   0.68488
 Alpha virt. eigenvalues --    0.69576   0.72277   0.72983   0.73796   0.74754
 Alpha virt. eigenvalues --    0.77529   0.78129   0.78396   0.79997   0.80079
 Alpha virt. eigenvalues --    0.81450   0.82446   0.83361   0.87136   0.87469
 Alpha virt. eigenvalues --    0.89535   0.90001   0.90158   0.91804   0.92924
 Alpha virt. eigenvalues --    0.93936   0.95060   0.96354   0.98243   0.98793
 Alpha virt. eigenvalues --    1.00763   1.03516   1.04630   1.04932   1.04953
 Alpha virt. eigenvalues --    1.06559   1.07510   1.07907   1.09238   1.11174
 Alpha virt. eigenvalues --    1.12638   1.13520   1.13971   1.14796   1.15755
 Alpha virt. eigenvalues --    1.16298   1.17096   1.17842   1.18747   1.19942
 Alpha virt. eigenvalues --    1.20406   1.21151   1.23804   1.24541   1.24863
 Alpha virt. eigenvalues --    1.25593   1.26101   1.27571   1.28251   1.28613
 Alpha virt. eigenvalues --    1.29339   1.31206   1.31396   1.32484   1.32523
 Alpha virt. eigenvalues --    1.34017   1.34705   1.37177   1.37435   1.37511
 Alpha virt. eigenvalues --    1.38597   1.38801   1.40697   1.41019   1.41948
 Alpha virt. eigenvalues --    1.42879   1.43311   1.43344   1.43776   1.44840
 Alpha virt. eigenvalues --    1.45883   1.45901   1.47082   1.47915   1.48978
 Alpha virt. eigenvalues --    1.49084   1.50950   1.52324   1.54190   1.55959
 Alpha virt. eigenvalues --    1.57686   1.58121   1.58860   1.60043   1.61312
 Alpha virt. eigenvalues --    1.62046   1.63561   1.63573   1.65956   1.67356
 Alpha virt. eigenvalues --    1.68328   1.70575   1.73490   1.74326   1.78451
 Alpha virt. eigenvalues --    1.79254   1.80728   1.81398   1.83405   1.85007
 Alpha virt. eigenvalues --    1.87157   1.87218   1.90367   1.91281   1.92154
 Alpha virt. eigenvalues --    1.92911   1.97643   1.97771   2.00459   2.00481
 Alpha virt. eigenvalues --    2.02965   2.03534   2.07925   2.08852   2.09210
 Alpha virt. eigenvalues --    2.10769   2.11992   2.12651   2.14441   2.15464
 Alpha virt. eigenvalues --    2.17595   2.20252   2.20644   2.21144   2.22667
 Alpha virt. eigenvalues --    2.23323   2.24842   2.25280   2.27290   2.27705
 Alpha virt. eigenvalues --    2.32502   2.35688   2.37692   2.39311   2.41663
 Alpha virt. eigenvalues --    2.43575   2.45084   2.45382   2.49132   2.49576
 Alpha virt. eigenvalues --    2.50138   2.50616   2.53113   2.55082   2.55258
 Alpha virt. eigenvalues --    2.56475   2.57643   2.58936   2.61441   2.62017
 Alpha virt. eigenvalues --    2.62544   2.64715   2.65015   2.65417   2.66026
 Alpha virt. eigenvalues --    2.66598   2.67576   2.71008   2.72286   2.72807
 Alpha virt. eigenvalues --    2.73031   2.74107   2.74894   2.75829   2.76852
 Alpha virt. eigenvalues --    2.77553   2.78778   2.79998   2.80616   2.81210
 Alpha virt. eigenvalues --    2.81440   2.82940   2.82963   2.84189   2.85356
 Alpha virt. eigenvalues --    2.86127   2.87076   2.87147   2.87579   2.90073
 Alpha virt. eigenvalues --    2.91220   2.91679   2.92548   2.92819   2.94416
 Alpha virt. eigenvalues --    2.95435   2.95720   2.96071   2.97125   3.01027
 Alpha virt. eigenvalues --    3.01145   3.02325   3.03301   3.04976   3.05756
 Alpha virt. eigenvalues --    3.07447   3.09119   3.09784   3.10485   3.10493
 Alpha virt. eigenvalues --    3.11663   3.13052   3.13513   3.14600   3.15357
 Alpha virt. eigenvalues --    3.15537   3.16575   3.17051   3.18617   3.19176
 Alpha virt. eigenvalues --    3.19907   3.20529   3.20578   3.21009   3.21494
 Alpha virt. eigenvalues --    3.21946   3.22819   3.23219   3.23912   3.24568
 Alpha virt. eigenvalues --    3.25674   3.26217   3.26735   3.26910   3.27704
 Alpha virt. eigenvalues --    3.28232   3.30389   3.30834   3.31805   3.31810
 Alpha virt. eigenvalues --    3.32184   3.32821   3.33616   3.34666   3.35170
 Alpha virt. eigenvalues --    3.35951   3.36550   3.36814   3.37811   3.38932
 Alpha virt. eigenvalues --    3.40945   3.42285   3.42976   3.43495   3.44208
 Alpha virt. eigenvalues --    3.45490   3.45555   3.46625   3.47191   3.47229
 Alpha virt. eigenvalues --    3.48111   3.49382   3.49780   3.50933   3.52093
 Alpha virt. eigenvalues --    3.52717   3.53322   3.54262   3.54842   3.54899
 Alpha virt. eigenvalues --    3.57377   3.58298   3.58326   3.60905   3.65488
 Alpha virt. eigenvalues --    3.65568   3.66182   3.66256   3.68150   3.68997
 Alpha virt. eigenvalues --    3.69813   3.69841   3.71913   3.72275   3.73948
 Alpha virt. eigenvalues --    3.77346   3.77528   3.79064   3.81139   3.83234
 Alpha virt. eigenvalues --    3.85177   3.85448   3.85629   3.86653   3.87581
 Alpha virt. eigenvalues --    3.89393   3.91415   3.92613   3.94115   3.95498
 Alpha virt. eigenvalues --    3.97853   3.99519   4.01491   4.02124   4.04576
 Alpha virt. eigenvalues --    4.06300   4.08146   4.09091   4.09153   4.10718
 Alpha virt. eigenvalues --    4.12122   4.12925   4.14798   4.14984   4.18464
 Alpha virt. eigenvalues --    4.18665   4.20937   4.21060   4.23072   4.24952
 Alpha virt. eigenvalues --    4.26085   4.26746   4.31018   4.31088   4.35178
 Alpha virt. eigenvalues --    4.35323   4.38181   4.38787   4.40117   4.41863
 Alpha virt. eigenvalues --    4.44407   4.45235   4.48086   4.49311   4.52277
 Alpha virt. eigenvalues --    4.54096   4.59214   4.61331   4.64598   4.67543
 Alpha virt. eigenvalues --    4.68132   4.69090   4.73232   4.73808   4.76137
 Alpha virt. eigenvalues --    4.77501   4.79936   4.81185   4.84312   4.84582
 Alpha virt. eigenvalues --    4.85413   4.86933   4.92114   4.94186   4.95128
 Alpha virt. eigenvalues --    4.97760   4.98870   5.00274   5.06875   5.07719
 Alpha virt. eigenvalues --    5.14009   5.15437   5.19183   5.21175   5.22587
 Alpha virt. eigenvalues --    5.23387   5.33104   5.33225   5.41313   5.42458
 Alpha virt. eigenvalues --    5.44251   5.44547   5.50357   5.52145   5.69872
 Alpha virt. eigenvalues --    5.71197   5.76687   5.79142   5.95324   6.02427
 Alpha virt. eigenvalues --    7.94116   7.95311   8.00854   8.04482   8.05159
 Alpha virt. eigenvalues --    8.08769   8.09517   8.12528   8.17227   8.18883
 Alpha virt. eigenvalues --    8.35583   8.35697  34.76174  34.77632  34.81071
 Alpha virt. eigenvalues --   34.81657  34.85056  34.89415  34.96100  34.99228
 Alpha virt. eigenvalues --   35.01463  35.01639  35.16726  35.18344
  Beta  occ. eigenvalues --  -10.28569 -10.28568 -10.28301 -10.28300 -10.28290
  Beta  occ. eigenvalues --  -10.28289 -10.28212 -10.28211 -10.28019 -10.28019
  Beta  occ. eigenvalues --  -10.27542 -10.27541  -0.94296  -0.93610  -0.84412
  Beta  occ. eigenvalues --   -0.84266  -0.83814  -0.83737  -0.71569  -0.71214
  Beta  occ. eigenvalues --   -0.68104  -0.67965  -0.59839  -0.59695  -0.57459
  Beta  occ. eigenvalues --   -0.56656  -0.53745  -0.52865  -0.51031  -0.51009
  Beta  occ. eigenvalues --   -0.49927  -0.49387  -0.47482  -0.46933  -0.45390
  Beta  occ. eigenvalues --   -0.45069  -0.41394  -0.41047  -0.39834  -0.39335
  Beta  occ. eigenvalues --   -0.39264  -0.38970  -0.29918  -0.27455
  Beta virt. eigenvalues --    0.03277   0.05148   0.10518   0.12296   0.13372
  Beta virt. eigenvalues --    0.14504   0.14872   0.15686   0.15704   0.15849
  Beta virt. eigenvalues --    0.16730   0.16925   0.17222   0.18211   0.19966
  Beta virt. eigenvalues --    0.21193   0.21387   0.22871   0.23548   0.23849
  Beta virt. eigenvalues --    0.24646   0.25427   0.25758   0.26701   0.27969
  Beta virt. eigenvalues --    0.28231   0.29059   0.29338   0.30114   0.30580
  Beta virt. eigenvalues --    0.31371   0.31518   0.32335   0.32591   0.33487
  Beta virt. eigenvalues --    0.33825   0.34329   0.35641   0.36088   0.37294
  Beta virt. eigenvalues --    0.37921   0.38809   0.40373   0.41227   0.41543
  Beta virt. eigenvalues --    0.41688   0.43748   0.44026   0.45075   0.45750
  Beta virt. eigenvalues --    0.46472   0.46866   0.47771   0.47832   0.48427
  Beta virt. eigenvalues --    0.48695   0.48859   0.49154   0.49574   0.49998
  Beta virt. eigenvalues --    0.50360   0.50393   0.51890   0.52038   0.52624
  Beta virt. eigenvalues --    0.53143   0.54094   0.54155   0.54898   0.55062
  Beta virt. eigenvalues --    0.56858   0.57444   0.57610   0.58891   0.59957
  Beta virt. eigenvalues --    0.60247   0.60732   0.61955   0.62871   0.64856
  Beta virt. eigenvalues --    0.65714   0.66818   0.67915   0.68178   0.68488
  Beta virt. eigenvalues --    0.69576   0.72277   0.72983   0.73796   0.74754
  Beta virt. eigenvalues --    0.77529   0.78129   0.78396   0.79997   0.80079
  Beta virt. eigenvalues --    0.81450   0.82446   0.83361   0.87136   0.87469
  Beta virt. eigenvalues --    0.89535   0.90001   0.90158   0.91804   0.92924
  Beta virt. eigenvalues --    0.93936   0.95060   0.96354   0.98243   0.98793
  Beta virt. eigenvalues --    1.00763   1.03516   1.04630   1.04932   1.04953
  Beta virt. eigenvalues --    1.06559   1.07510   1.07907   1.09238   1.11174
  Beta virt. eigenvalues --    1.12638   1.13520   1.13971   1.14796   1.15755
  Beta virt. eigenvalues --    1.16298   1.17096   1.17842   1.18747   1.19942
  Beta virt. eigenvalues --    1.20406   1.21151   1.23804   1.24541   1.24863
  Beta virt. eigenvalues --    1.25593   1.26101   1.27571   1.28251   1.28613
  Beta virt. eigenvalues --    1.29339   1.31206   1.31396   1.32484   1.32523
  Beta virt. eigenvalues --    1.34017   1.34705   1.37177   1.37435   1.37511
  Beta virt. eigenvalues --    1.38597   1.38801   1.40697   1.41019   1.41948
  Beta virt. eigenvalues --    1.42879   1.43311   1.43344   1.43776   1.44840
  Beta virt. eigenvalues --    1.45883   1.45901   1.47082   1.47915   1.48978
  Beta virt. eigenvalues --    1.49084   1.50950   1.52324   1.54190   1.55959
  Beta virt. eigenvalues --    1.57686   1.58121   1.58860   1.60043   1.61312
  Beta virt. eigenvalues --    1.62046   1.63561   1.63573   1.65956   1.67356
  Beta virt. eigenvalues --    1.68328   1.70575   1.73490   1.74326   1.78451
  Beta virt. eigenvalues --    1.79254   1.80728   1.81398   1.83405   1.85007
  Beta virt. eigenvalues --    1.87157   1.87218   1.90367   1.91281   1.92154
  Beta virt. eigenvalues --    1.92911   1.97643   1.97771   2.00459   2.00481
  Beta virt. eigenvalues --    2.02965   2.03534   2.07925   2.08852   2.09210
  Beta virt. eigenvalues --    2.10769   2.11992   2.12651   2.14441   2.15464
  Beta virt. eigenvalues --    2.17595   2.20252   2.20644   2.21144   2.22667
  Beta virt. eigenvalues --    2.23323   2.24842   2.25280   2.27290   2.27705
  Beta virt. eigenvalues --    2.32502   2.35688   2.37692   2.39311   2.41663
  Beta virt. eigenvalues --    2.43575   2.45084   2.45382   2.49132   2.49576
  Beta virt. eigenvalues --    2.50138   2.50616   2.53113   2.55082   2.55258
  Beta virt. eigenvalues --    2.56475   2.57643   2.58936   2.61441   2.62017
  Beta virt. eigenvalues --    2.62544   2.64715   2.65015   2.65417   2.66026
  Beta virt. eigenvalues --    2.66598   2.67576   2.71008   2.72286   2.72807
  Beta virt. eigenvalues --    2.73031   2.74107   2.74894   2.75829   2.76852
  Beta virt. eigenvalues --    2.77553   2.78778   2.79998   2.80616   2.81210
  Beta virt. eigenvalues --    2.81440   2.82940   2.82963   2.84189   2.85356
  Beta virt. eigenvalues --    2.86127   2.87076   2.87147   2.87579   2.90073
  Beta virt. eigenvalues --    2.91220   2.91679   2.92548   2.92819   2.94416
  Beta virt. eigenvalues --    2.95435   2.95720   2.96071   2.97125   3.01027
  Beta virt. eigenvalues --    3.01145   3.02325   3.03301   3.04976   3.05756
  Beta virt. eigenvalues --    3.07447   3.09119   3.09784   3.10485   3.10493
  Beta virt. eigenvalues --    3.11663   3.13052   3.13513   3.14600   3.15357
  Beta virt. eigenvalues --    3.15537   3.16575   3.17051   3.18617   3.19176
  Beta virt. eigenvalues --    3.19907   3.20529   3.20578   3.21009   3.21494
  Beta virt. eigenvalues --    3.21946   3.22819   3.23219   3.23912   3.24568
  Beta virt. eigenvalues --    3.25674   3.26217   3.26735   3.26910   3.27704
  Beta virt. eigenvalues --    3.28232   3.30389   3.30834   3.31805   3.31810
  Beta virt. eigenvalues --    3.32184   3.32821   3.33616   3.34666   3.35170
  Beta virt. eigenvalues --    3.35951   3.36550   3.36814   3.37811   3.38932
  Beta virt. eigenvalues --    3.40945   3.42285   3.42976   3.43495   3.44208
  Beta virt. eigenvalues --    3.45490   3.45555   3.46625   3.47191   3.47229
  Beta virt. eigenvalues --    3.48111   3.49382   3.49780   3.50933   3.52093
  Beta virt. eigenvalues --    3.52717   3.53322   3.54262   3.54842   3.54899
  Beta virt. eigenvalues --    3.57377   3.58298   3.58326   3.60905   3.65488
  Beta virt. eigenvalues --    3.65568   3.66182   3.66256   3.68150   3.68997
  Beta virt. eigenvalues --    3.69813   3.69841   3.71913   3.72275   3.73948
  Beta virt. eigenvalues --    3.77346   3.77528   3.79064   3.81139   3.83234
  Beta virt. eigenvalues --    3.85177   3.85448   3.85629   3.86653   3.87581
  Beta virt. eigenvalues --    3.89393   3.91415   3.92613   3.94115   3.95498
  Beta virt. eigenvalues --    3.97853   3.99519   4.01491   4.02124   4.04576
  Beta virt. eigenvalues --    4.06300   4.08146   4.09091   4.09153   4.10718
  Beta virt. eigenvalues --    4.12122   4.12925   4.14798   4.14984   4.18464
  Beta virt. eigenvalues --    4.18665   4.20937   4.21060   4.23072   4.24952
  Beta virt. eigenvalues --    4.26085   4.26746   4.31018   4.31088   4.35178
  Beta virt. eigenvalues --    4.35323   4.38181   4.38787   4.40117   4.41863
  Beta virt. eigenvalues --    4.44407   4.45235   4.48086   4.49311   4.52277
  Beta virt. eigenvalues --    4.54096   4.59214   4.61331   4.64598   4.67543
  Beta virt. eigenvalues --    4.68132   4.69090   4.73232   4.73808   4.76137
  Beta virt. eigenvalues --    4.77501   4.79936   4.81185   4.84312   4.84582
  Beta virt. eigenvalues --    4.85413   4.86933   4.92114   4.94186   4.95128
  Beta virt. eigenvalues --    4.97760   4.98870   5.00274   5.06875   5.07719
  Beta virt. eigenvalues --    5.14009   5.15437   5.19183   5.21175   5.22587
  Beta virt. eigenvalues --    5.23387   5.33104   5.33225   5.41313   5.42458
  Beta virt. eigenvalues --    5.44251   5.44547   5.50357   5.52145   5.69872
  Beta virt. eigenvalues --    5.71197   5.76687   5.79142   5.95324   6.02427
  Beta virt. eigenvalues --    7.94116   7.95311   8.00854   8.04482   8.05159
  Beta virt. eigenvalues --    8.08769   8.09517   8.12528   8.17227   8.18883
  Beta virt. eigenvalues --    8.35583   8.35697  34.76174  34.77632  34.81071
  Beta virt. eigenvalues --   34.81657  34.85056  34.89415  34.96100  34.99228
  Beta virt. eigenvalues --   35.01463  35.01639  35.16726  35.18344
          Condensed to atoms (all electrons):
               1          2          3          4          5          6
     1  C    5.123131   0.003915   0.425270  -0.001780   0.001067  -0.005348
     2  C    0.003915   5.327823  -0.002434   0.425891  -0.036522  -0.045679
     3  H    0.425270  -0.002434   0.498349   0.000034  -0.000047   0.000011
     4  H   -0.001780   0.425891   0.000034   0.472442  -0.004976   0.003949
     5  C    0.001067  -0.036522  -0.000047  -0.004976   5.160543   0.518384
     6  C   -0.005348  -0.045679   0.000011   0.003949   0.518384   5.327637
     7  H    0.000331  -0.001889   0.000001  -0.000101   0.425780  -0.028043
     8  H   -0.001661   0.003948  -0.000030   0.000045  -0.041505   0.425888
     9  C    0.002078  -0.005119  -0.000006  -0.001432  -0.062279   0.232040
    10  H   -0.000043   0.000481  -0.000001  -0.000142  -0.005309  -0.034391
    11  H    0.000136  -0.005163   0.000001   0.000171   0.008333  -0.058292
    12  C   -0.000167   0.010526   0.000002   0.002339   0.297097  -0.076537
    13  H   -0.000001   0.000020   0.000000   0.000027  -0.040457   0.005753
    14  C    0.000152  -0.005342  -0.000000  -0.001666  -0.055372   0.003888
    15  H   -0.000000   0.000011  -0.000000  -0.000030   0.007881  -0.002430
    16  C   -0.000611   0.011833   0.000000   0.000283  -0.003455  -0.065441
    17  H   -0.000039  -0.000337  -0.000001  -0.001697   0.010010  -0.000607
    18  H    0.000003   0.000492   0.000000   0.000227  -0.002601   0.011150
    19  C   -0.055319   0.518330   0.007886  -0.041522  -0.012233  -0.036525
    20  H    0.004150  -0.027926  -0.000105  -0.005085   0.000368  -0.001892
    21  C    0.596967  -0.076541  -0.034208   0.005343   0.001443   0.010529
    22  H   -0.029148   0.005762  -0.006689  -0.000069   0.000026   0.000020
    23  C   -0.088173   0.232063   0.005877  -0.014780   0.007530  -0.005124
    24  H    0.013018  -0.058305  -0.000124  -0.004003   0.000834  -0.005167
    25  H    0.004841  -0.034369  -0.000045  -0.000322   0.000627   0.000480
    26  C    0.285969  -0.065445  -0.032573   0.004092  -0.005781   0.011830
    27  H   -0.035608   0.011149  -0.004441  -0.000122   0.000278   0.000491
    28  H   -0.033614  -0.000601   0.001440  -0.000158  -0.003749  -0.000347
               7          8          9         10         11         12
     1  C    0.000331  -0.001661   0.002078  -0.000043   0.000136  -0.000167
     2  C   -0.001889   0.003948  -0.005119   0.000481  -0.005163   0.010526
     3  H    0.000001  -0.000030  -0.000006  -0.000001   0.000001   0.000002
     4  H   -0.000101   0.000045  -0.001432  -0.000142   0.000171   0.002339
     5  C    0.425780  -0.041505  -0.062279  -0.005309   0.008333   0.297097
     6  C   -0.028043   0.425888   0.232040  -0.034391  -0.058292  -0.076537
     7  H    0.482709  -0.005089   0.003501  -0.000302  -0.000051  -0.032336
     8  H   -0.005089   0.472581  -0.014812  -0.000322  -0.004003   0.005344
     9  C    0.003501  -0.014812   4.963701   0.380539   0.458447   0.036219
    10  H   -0.000302  -0.000322   0.380539   0.580501  -0.022347   0.001806
    11  H   -0.000051  -0.004003   0.458447  -0.022347   0.540096  -0.004073
    12  C   -0.032336   0.005344   0.036219   0.001806  -0.004073   4.995625
    13  H   -0.003627  -0.000070  -0.000577  -0.000050   0.000036   0.428373
    14  C    0.004149  -0.001779  -0.088142   0.004842   0.013017   0.597029
    15  H   -0.000105   0.000034   0.005875  -0.000044  -0.000124  -0.034198
    16  C   -0.000982   0.004093   0.360880  -0.022790  -0.054433  -0.058566
    17  H    0.000013  -0.000158  -0.033396   0.007358  -0.009078  -0.015538
    18  H    0.000038  -0.000122  -0.041637  -0.009717  -0.000610   0.005474
    19  C    0.000368  -0.004978   0.007530   0.000627   0.000833   0.001444
    20  H    0.000010  -0.000101   0.002640   0.000243  -0.001235  -0.000182
    21  C   -0.000182   0.002339  -0.001860  -0.000020  -0.000020  -0.000252
    22  H   -0.000001   0.000027  -0.000069  -0.000001   0.000010   0.000000
    23  C    0.002633  -0.001428   0.001381  -0.000043   0.000268  -0.001855
    24  H   -0.001232   0.000170   0.000269  -0.000009  -0.000021  -0.000021
    25  H    0.000243  -0.000142  -0.000044   0.000004  -0.000009  -0.000020
    26  C   -0.001944   0.000281  -0.001042   0.000083  -0.000134   0.000886
    27  H   -0.000027   0.000227  -0.000026   0.000001  -0.000001  -0.000045
    28  H    0.001792  -0.001700   0.000473  -0.000008   0.000009   0.000454
              13         14         15         16         17         18
     1  C   -0.000001   0.000152  -0.000000  -0.000611  -0.000039   0.000003
     2  C    0.000020  -0.005342   0.000011   0.011833  -0.000337   0.000492
     3  H    0.000000  -0.000000  -0.000000   0.000000  -0.000001   0.000000
     4  H    0.000027  -0.001666  -0.000030   0.000283  -0.001697   0.000227
     5  C   -0.040457  -0.055372   0.007881  -0.003455   0.010010  -0.002601
     6  C    0.005753   0.003888  -0.002430  -0.065441  -0.000607   0.011150
     7  H   -0.003627   0.004149  -0.000105  -0.000982   0.000013   0.000038
     8  H   -0.000070  -0.001779   0.000034   0.004093  -0.000158  -0.000122
     9  C   -0.000577  -0.088142   0.005875   0.360880  -0.033396  -0.041637
    10  H   -0.000050   0.004842  -0.000044  -0.022790   0.007358  -0.009717
    11  H    0.000036   0.013017  -0.000124  -0.054433  -0.009078  -0.000610
    12  C    0.428373   0.597029  -0.034198  -0.058566  -0.015538   0.005474
    13  H    0.496206  -0.029171  -0.006687   0.005428  -0.000425  -0.000137
    14  C   -0.029171   5.123094   0.425260   0.285945  -0.033608  -0.035614
    15  H   -0.006687   0.425260   0.498351  -0.032571   0.001442  -0.004442
    16  C    0.005428   0.285945  -0.032571   4.925612   0.396980   0.428487
    17  H   -0.000425  -0.033608   0.001442   0.396980   0.591401  -0.023032
    18  H   -0.000137  -0.035614  -0.004442   0.428487  -0.023032   0.546110
    19  C    0.000026   0.001064  -0.000047  -0.005781  -0.003756   0.000278
    20  H   -0.000001   0.000331   0.000001  -0.001947   0.001791  -0.000027
    21  C    0.000000  -0.000167   0.000002   0.000886   0.000454  -0.000045
    22  H    0.000000  -0.000001   0.000000   0.000016  -0.000002  -0.000001
    23  C   -0.000069   0.002078  -0.000006  -0.001041   0.000474  -0.000026
    24  H    0.000010   0.000137   0.000001  -0.000134   0.000009  -0.000001
    25  H   -0.000001  -0.000043  -0.000001   0.000083  -0.000008   0.000001
    26  C    0.000016  -0.000610   0.000000   0.000854   0.000071  -0.000004
    27  H   -0.000001   0.000003   0.000000  -0.000004   0.000002  -0.000000
    28  H   -0.000002  -0.000039  -0.000001   0.000071  -0.000020   0.000002
              19         20         21         22         23         24
     1  C   -0.055319   0.004150   0.596967  -0.029148  -0.088173   0.013018
     2  C    0.518330  -0.027926  -0.076541   0.005762   0.232063  -0.058305
     3  H    0.007886  -0.000105  -0.034208  -0.006689   0.005877  -0.000124
     4  H   -0.041522  -0.005085   0.005343  -0.000069  -0.014780  -0.004003
     5  C   -0.012233   0.000368   0.001443   0.000026   0.007530   0.000834
     6  C   -0.036525  -0.001892   0.010529   0.000020  -0.005124  -0.005167
     7  H    0.000368   0.000010  -0.000182  -0.000001   0.002633  -0.001232
     8  H   -0.004978  -0.000101   0.002339   0.000027  -0.001428   0.000170
     9  C    0.007530   0.002640  -0.001860  -0.000069   0.001381   0.000269
    10  H    0.000627   0.000243  -0.000020  -0.000001  -0.000043  -0.000009
    11  H    0.000833  -0.001235  -0.000020   0.000010   0.000268  -0.000021
    12  C    0.001444  -0.000182  -0.000252   0.000000  -0.001855  -0.000021
    13  H    0.000026  -0.000001   0.000000   0.000000  -0.000069   0.000010
    14  C    0.001064   0.000331  -0.000167  -0.000001   0.002078   0.000137
    15  H   -0.000047   0.000001   0.000002   0.000000  -0.000006   0.000001
    16  C   -0.005781  -0.001947   0.000886   0.000016  -0.001041  -0.000134
    17  H   -0.003756   0.001791   0.000454  -0.000002   0.000474   0.000009
    18  H    0.000278  -0.000027  -0.000045  -0.000001  -0.000026  -0.000001
    19  C    5.160703   0.425714   0.296969  -0.040499  -0.062321   0.008343
    20  H    0.425714   0.482628  -0.032380  -0.003626   0.003500  -0.000051
    21  C    0.296969  -0.032380   4.995639   0.428373   0.036245  -0.004074
    22  H   -0.040499  -0.003626   0.428373   0.496247  -0.000578   0.000036
    23  C   -0.062321   0.003500   0.036245  -0.000578   4.963794   0.458472
    24  H    0.008343  -0.000051  -0.004074   0.000036   0.458472   0.540007
    25  H   -0.005322  -0.000302   0.001815  -0.000050   0.380494  -0.022337
    26  C   -0.003480  -0.000983  -0.058557   0.005431   0.360886  -0.054442
    27  H   -0.002597   0.000038   0.005464  -0.000138  -0.041646  -0.000610
    28  H    0.010005   0.000013  -0.015523  -0.000424  -0.033405  -0.009077
              25         26         27         28
     1  C    0.004841   0.285969  -0.035608  -0.033614
     2  C   -0.034369  -0.065445   0.011149  -0.000601
     3  H   -0.000045  -0.032573  -0.004441   0.001440
     4  H   -0.000322   0.004092  -0.000122  -0.000158
     5  C    0.000627  -0.005781   0.000278  -0.003749
     6  C    0.000480   0.011830   0.000491  -0.000347
     7  H    0.000243  -0.001944  -0.000027   0.001792
     8  H   -0.000142   0.000281   0.000227  -0.001700
     9  C   -0.000044  -0.001042  -0.000026   0.000473
    10  H    0.000004   0.000083   0.000001  -0.000008
    11  H   -0.000009  -0.000134  -0.000001   0.000009
    12  C   -0.000020   0.000886  -0.000045   0.000454
    13  H   -0.000001   0.000016  -0.000001  -0.000002
    14  C   -0.000043  -0.000610   0.000003  -0.000039
    15  H   -0.000001   0.000000   0.000000  -0.000001
    16  C    0.000083   0.000854  -0.000004   0.000071
    17  H   -0.000008   0.000071   0.000002  -0.000020
    18  H    0.000001  -0.000004  -0.000000   0.000002
    19  C   -0.005322  -0.003480  -0.002597   0.010005
    20  H   -0.000302  -0.000983   0.000038   0.000013
    21  C    0.001815  -0.058557   0.005464  -0.015523
    22  H   -0.000050   0.005431  -0.000138  -0.000424
    23  C    0.380494   0.360886  -0.041646  -0.033405
    24  H   -0.022337  -0.054442  -0.000610  -0.009077
    25  H    0.580546  -0.022784  -0.009718   0.007360
    26  C   -0.022784   4.925673   0.428500   0.396967
    27  H   -0.009718   0.428500   0.546087  -0.023030
    28  H    0.007360   0.396967  -0.023030   0.591414
          Atomic-Atomic Spin Densities.
               1          2          3          4          5          6
     1  C    0.000001   0.000000  -0.000000  -0.000000  -0.000000  -0.000000
     2  C    0.000000  -0.000001  -0.000000  -0.000000   0.000000   0.000000
     3  H   -0.000000  -0.000000  -0.000000   0.000000   0.000000  -0.000000
     4  H   -0.000000  -0.000000   0.000000   0.000000   0.000000  -0.000000
     5  C   -0.000000   0.000000   0.000000   0.000000   0.000000  -0.000000
     6  C   -0.000000   0.000000  -0.000000  -0.000000  -0.000000  -0.000000
     7  H    0.000000  -0.000000  -0.000000   0.000000   0.000000   0.000000
     8  H   -0.000000   0.000000   0.000000   0.000000  -0.000000   0.000000
     9  C    0.000000  -0.000000   0.000000   0.000000  -0.000000  -0.000000
    10  H    0.000000   0.000000   0.000000  -0.000000   0.000000   0.000000
    11  H   -0.000000   0.000000  -0.000000  -0.000000  -0.000000   0.000000
    12  C    0.000000  -0.000000  -0.000000   0.000000   0.000000  -0.000000
    13  H   -0.000000  -0.000000  -0.000000  -0.000000  -0.000000   0.000000
    14  C    0.000000   0.000000   0.000000   0.000000  -0.000000  -0.000000
    15  H   -0.000000   0.000000   0.000000  -0.000000   0.000000   0.000000
    16  C    0.000000  -0.000000  -0.000000  -0.000000   0.000000   0.000000
    17  H    0.000000   0.000000   0.000000  -0.000000  -0.000000   0.000000
    18  H    0.000000  -0.000000   0.000000  -0.000000   0.000000   0.000000
    19  C   -0.000000   0.000000  -0.000000   0.000000  -0.000000  -0.000000
    20  H    0.000000  -0.000000  -0.000000  -0.000000   0.000000   0.000000
    21  C   -0.000000   0.000000  -0.000000   0.000000  -0.000000   0.000000
    22  H    0.000000  -0.000000   0.000000   0.000000  -0.000000   0.000000
    23  C    0.000000   0.000000  -0.000000   0.000000   0.000000   0.000000
    24  H    0.000000  -0.000000   0.000000  -0.000000  -0.000000  -0.000000
    25  H    0.000000  -0.000000  -0.000000  -0.000000  -0.000000  -0.000000
    26  C   -0.000000  -0.000000   0.000000   0.000000  -0.000000   0.000000
    27  H   -0.000000  -0.000000   0.000000  -0.000000  -0.000000  -0.000000
    28  H   -0.000000  -0.000000  -0.000000  -0.000000   0.000000  -0.000000
               7          8          9         10         11         12
     1  C    0.000000  -0.000000   0.000000   0.000000  -0.000000   0.000000
     2  C   -0.000000   0.000000  -0.000000   0.000000   0.000000  -0.000000
     3  H   -0.000000   0.000000   0.000000   0.000000  -0.000000  -0.000000
     4  H    0.000000   0.000000   0.000000  -0.000000  -0.000000   0.000000
     5  C    0.000000  -0.000000  -0.000000   0.000000  -0.000000   0.000000
     6  C    0.000000   0.000000  -0.000000   0.000000   0.000000  -0.000000
     7  H   -0.000000   0.000000  -0.000000   0.000000   0.000000   0.000000
     8  H    0.000000  -0.000000  -0.000000   0.000000  -0.000000  -0.000000
     9  C   -0.000000  -0.000000   0.000001   0.000000  -0.000000   0.000000
    10  H    0.000000   0.000000   0.000000  -0.000000   0.000000  -0.000000
    11  H    0.000000  -0.000000  -0.000000   0.000000  -0.000000   0.000000
    12  C    0.000000  -0.000000   0.000000  -0.000000   0.000000  -0.000000
    13  H   -0.000000  -0.000000  -0.000000   0.000000   0.000000   0.000000
    14  C   -0.000000   0.000000  -0.000000  -0.000000  -0.000000   0.000000
    15  H    0.000000  -0.000000   0.000000   0.000000   0.000000   0.000000
    16  C    0.000000  -0.000000  -0.000000   0.000000   0.000000  -0.000000
    17  H    0.000000   0.000000  -0.000000  -0.000000   0.000000  -0.000000
    18  H   -0.000000   0.000000  -0.000000   0.000000   0.000000   0.000000
    19  C   -0.000000  -0.000000  -0.000000   0.000000   0.000000   0.000000
    20  H   -0.000000  -0.000000  -0.000000   0.000000  -0.000000  -0.000000
    21  C    0.000000   0.000000   0.000000  -0.000000  -0.000000   0.000000
    22  H    0.000000   0.000000   0.000000  -0.000000   0.000000  -0.000000
    23  C    0.000000  -0.000000   0.000000   0.000000  -0.000000  -0.000000
    24  H    0.000000  -0.000000   0.000000  -0.000000  -0.000000   0.000000
    25  H   -0.000000   0.000000  -0.000000   0.000000   0.000000   0.000000
    26  C    0.000000   0.000000  -0.000000  -0.000000   0.000000   0.000000
    27  H    0.000000   0.000000   0.000000  -0.000000  -0.000000   0.000000
    28  H   -0.000000   0.000000  -0.000000   0.000000   0.000000   0.000000
              13         14         15         16         17         18
     1  C   -0.000000   0.000000  -0.000000   0.000000   0.000000   0.000000
     2  C   -0.000000   0.000000   0.000000  -0.000000   0.000000  -0.000000
     3  H   -0.000000   0.000000   0.000000  -0.000000   0.000000   0.000000
     4  H   -0.000000   0.000000  -0.000000  -0.000000  -0.000000  -0.000000
     5  C   -0.000000  -0.000000   0.000000   0.000000  -0.000000   0.000000
     6  C    0.000000  -0.000000   0.000000   0.000000   0.000000   0.000000
     7  H   -0.000000  -0.000000   0.000000   0.000000   0.000000  -0.000000
     8  H   -0.000000   0.000000  -0.000000  -0.000000   0.000000   0.000000
     9  C   -0.000000  -0.000000   0.000000  -0.000000  -0.000000  -0.000000
    10  H    0.000000  -0.000000   0.000000   0.000000  -0.000000   0.000000
    11  H    0.000000  -0.000000   0.000000   0.000000   0.000000   0.000000
    12  C    0.000000   0.000000   0.000000  -0.000000  -0.000000   0.000000
    13  H    0.000000  -0.000000  -0.000000   0.000000   0.000000  -0.000000
    14  C   -0.000000  -0.000000  -0.000000   0.000000  -0.000000   0.000000
    15  H   -0.000000  -0.000000   0.000000  -0.000000  -0.000000  -0.000000
    16  C    0.000000   0.000000  -0.000000  -0.000000   0.000000   0.000000
    17  H    0.000000  -0.000000  -0.000000   0.000000   0.000000  -0.000000
    18  H   -0.000000   0.000000  -0.000000   0.000000  -0.000000   0.000000
    19  C   -0.000000   0.000000  -0.000000   0.000000  -0.000000   0.000000
    20  H   -0.000000  -0.000000   0.000000  -0.000000   0.000000  -0.000000
    21  C    0.000000  -0.000000   0.000000  -0.000000  -0.000000  -0.000000
    22  H    0.000000   0.000000   0.000000  -0.000000   0.000000  -0.000000
    23  C   -0.000000  -0.000000  -0.000000   0.000000   0.000000  -0.000000
    24  H   -0.000000   0.000000   0.000000  -0.000000  -0.000000   0.000000
    25  H    0.000000  -0.000000  -0.000000   0.000000  -0.000000   0.000000
    26  C    0.000000  -0.000000   0.000000   0.000000  -0.000000  -0.000000
    27  H    0.000000  -0.000000   0.000000   0.000000  -0.000000  -0.000000
    28  H   -0.000000  -0.000000  -0.000000   0.000000   0.000000   0.000000
              19         20         21         22         23         24
     1  C   -0.000000   0.000000  -0.000000   0.000000   0.000000   0.000000
     2  C    0.000000  -0.000000   0.000000  -0.000000   0.000000  -0.000000
     3  H   -0.000000  -0.000000  -0.000000   0.000000  -0.000000   0.000000
     4  H    0.000000  -0.000000   0.000000   0.000000   0.000000  -0.000000
[...]
     2  C   -0.000000  -0.000000  -0.000000  -0.000000
     3  H   -0.000000   0.000000   0.000000  -0.000000
     4  H   -0.000000   0.000000  -0.000000  -0.000000
     5  C   -0.000000  -0.000000  -0.000000   0.000000
     6  C   -0.000000   0.000000  -0.000000  -0.000000
     7  H   -0.000000   0.000000   0.000000  -0.000000
     8  H    0.000000   0.000000   0.000000   0.000000
     9  C   -0.000000  -0.000000   0.000000  -0.000000
    10  H    0.000000  -0.000000  -0.000000   0.000000
    11  H    0.000000   0.000000  -0.000000   0.000000
    12  C    0.000000   0.000000   0.000000   0.000000
    13  H    0.000000   0.000000   0.000000  -0.000000
    14  C   -0.000000  -0.000000  -0.000000  -0.000000
    15  H   -0.000000   0.000000   0.000000  -0.000000
    16  C    0.000000   0.000000   0.000000   0.000000
    17  H   -0.000000  -0.000000  -0.000000   0.000000
    18  H    0.000000  -0.000000  -0.000000   0.000000
    19  C   -0.000000  -0.000000  -0.000000   0.000000
    20  H   -0.000000  -0.000000   0.000000  -0.000000
    21  C   -0.000000   0.000000  -0.000000   0.000000
    22  H   -0.000000  -0.000000   0.000000  -0.000000
    23  C   -0.000000   0.000000   0.000000   0.000000
    24  H   -0.000000  -0.000000  -0.000000  -0.000000
    25  H    0.000000  -0.000000  -0.000000   0.000000
    26  C   -0.000000   0.000000  -0.000000  -0.000000
    27  H   -0.000000  -0.000000  -0.000000   0.000000
    28  H    0.000000  -0.000000   0.000000  -0.000000
 Mulliken charges and spin densities:
               1          2
     1  C   -0.209517   0.000001
     2  C   -0.186571  -0.000000
     3  H    0.141832  -0.000000
     4  H    0.163043   0.000000
     5  C   -0.165917   0.000000
     6  C   -0.186227  -0.000000
     7  H    0.154342  -0.000000
     8  H    0.162924  -0.000000
     9  C   -0.205132   0.000001
    10  H    0.119056  -0.000000
    11  H    0.138236  -0.000000
    12  C   -0.158829  -0.000000
    13  H    0.145382   0.000000
    14  C   -0.209434  -0.000000
    15  H    0.141829   0.000000
    16  C   -0.173694  -0.000000
    17  H    0.111697   0.000000
    18  H    0.125756   0.000000
    19  C   -0.165741   0.000000
    20  H    0.154417   0.000000
    21  C   -0.158637  -0.000000
    22  H    0.145348  -0.000000
    23  C   -0.205201  -0.000001
    24  H    0.138302   0.000000
    25  H    0.119022   0.000000
    26  C   -0.173761   0.000000
    27  H    0.125776  -0.000000
    28  H    0.111699  -0.000000
 Sum of Mulliken charges =  -0.00000   0.00000
 Mulliken charges and spin densities with hydrogens summed into heavy atoms:
               1          2
     1  C   -0.067685   0.000000
     2  C   -0.023528  -0.000000
     5  C   -0.011575   0.000000
     6  C   -0.023302  -0.000000
     9  C    0.052160   0.000000
    12  C   -0.013448  -0.000000
    14  C   -0.067605   0.000000
    16  C    0.063760  -0.000000
    19  C   -0.011324   0.000000
    21  C   -0.013289  -0.000000
    23  C    0.052123  -0.000000
    26  C    0.063714   0.000000
 Electronic spatial extent (au):  <R**2>=           2281.6947
 Charge=             -0.0000 electrons
 Dipole moment (field-independent basis, Debye):
    X=              0.0001    Y=              0.0001    Z=             -0.0000  Tot=              0.0001
 Quadrupole moment (field-independent basis, Debye-Ang):
   XX=            -72.3304   YY=            -69.8217   ZZ=            -77.0220
   XY=             -3.3142   XZ=             -3.6723   YZ=             -1.7151
 Traceless Quadrupole moment (field-independent basis, Debye-Ang):
   XX=              0.7276   YY=              3.2363   ZZ=             -3.9640
   XY=             -3.3142   XZ=             -3.6723   YZ=             -1.7151
 Octapole moment (field-independent basis, Debye-Ang**2):
  XXX=             -0.0035  YYY=              0.0031  ZZZ=             -0.0003  XYY=              0.0026
  XXY=              0.0007  XXZ=              0.0022  XZZ=              0.0004  YZZ=             -0.0013
  YYZ=             -0.0004  XYZ=              0.0006
 Hexadecapole moment (field-independent basis, Debye-Ang**3):
 XXXX=          -2084.7161 YYYY=           -630.1994 ZZZZ=           -399.2219 XXXY=           -112.1117
 XXXZ=           -145.9632 YYYX=            -64.5020 YYYZ=             -5.3661 ZZZX=            -92.5602
 ZZZY=            -17.0337 XXYY=           -449.8635 XXZZ=           -436.3154 YYZZ=           -186.7636
 XXYZ=            -23.8937 YYXZ=            -33.7903 ZZXY=            -45.7729
 N-N= 6.782002869452D+02 E-N=-2.438165862056D+03  KE= 4.641927276585D+02
                          Isotropic Fermi Contact Couplings
        Atom                 a.u.       MegaHertz       Gauss      10(-4) cm-1
     1  C(13)              0.00000       0.00004       0.00001       0.00001
     2  C(13)              0.00000       0.00000       0.00000       0.00000
     3  H(1)              -0.00000      -0.00003      -0.00001      -0.00001
     4  H(1)               0.00000       0.00000       0.00000       0.00000
     5  C(13)              0.00000       0.00005       0.00002       0.00002
     6  C(13)             -0.00000      -0.00004      -0.00001      -0.00001
     7  H(1)              -0.00000      -0.00008      -0.00003      -0.00003
     8  H(1)               0.00000       0.00002       0.00001       0.00001
     9  C(13)              0.00000       0.00018       0.00007       0.00006
    10  H(1)              -0.00000      -0.00011      -0.00004      -0.00004
    11  H(1)              -0.00000      -0.00012      -0.00004      -0.00004
    12  C(13)             -0.00000      -0.00004      -0.00002      -0.00001
    13  H(1)               0.00000       0.00006       0.00002       0.00002
    14  C(13)             -0.00000      -0.00000      -0.00000      -0.00000
    15  H(1)               0.00000       0.00001       0.00000       0.00000
    16  C(13)             -0.00000      -0.00010      -0.00003      -0.00003
    17  H(1)               0.00000       0.00003       0.00001       0.00001
    18  H(1)               0.00000       0.00002       0.00001       0.00001
    19  C(13)             -0.00000      -0.00002      -0.00001      -0.00001
    20  H(1)               0.00000       0.00007       0.00002       0.00002
    21  C(13)              0.00000       0.00001       0.00000       0.00000
    22  H(1)              -0.00000      -0.00004      -0.00002      -0.00001
    23  C(13)             -0.00000      -0.00017      -0.00006      -0.00006
    24  H(1)               0.00000       0.00011       0.00004       0.00004
    25  H(1)               0.00000       0.00008       0.00003       0.00003
    26  C(13)              0.00000       0.00008       0.00003       0.00003
    27  H(1)              -0.00000      -0.00001      -0.00000      -0.00000
    28  H(1)              -0.00000      -0.00001      -0.00000      -0.00000
 --------------------------------------------------------
       Center         ----  Spin Dipole Couplings  ----
                      3XX-RR        3YY-RR        3ZZ-RR
 --------------------------------------------------------
     1   Atom        0.000000     -0.000000      0.000000
     2   Atom       -0.000000      0.000000     -0.000000
     3   Atom        0.000000     -0.000000      0.000000
     4   Atom       -0.000000      0.000000     -0.000000
     5   Atom        0.000000      0.000000     -0.000000
     6   Atom        0.000000     -0.000000     -0.000000
     7   Atom       -0.000000      0.000000     -0.000000
     8   Atom       -0.000000      0.000000      0.000000
     9   Atom        0.000000     -0.000000      0.000000
    10   Atom       -0.000000     -0.000000      0.000000
    11   Atom        0.000000      0.000000     -0.000000
    12   Atom       -0.000000     -0.000000      0.000000
    13   Atom        0.000000     -0.000000      0.000000
    14   Atom       -0.000000      0.000000      0.000000
    15   Atom        0.000000      0.000000     -0.000000
    16   Atom       -0.000000      0.000000     -0.000000
    17   Atom        0.000000      0.000000     -0.000000
    18   Atom       -0.000000     -0.000000      0.000000
    19   Atom       -0.000000     -0.000000      0.000000
    20   Atom        0.000000     -0.000000      0.000000
    21   Atom        0.000000      0.000000     -0.000000
    22   Atom        0.000000      0.000000     -0.000000
    23   Atom       -0.000000      0.000000     -0.000000
    24   Atom        0.000000     -0.000000      0.000000
    25   Atom        0.000000      0.000000     -0.000000
    26   Atom        0.000000     -0.000000      0.000000
    27   Atom        0.000000      0.000000     -0.000000
    28   Atom       -0.000000     -0.000000      0.000000
 --------------------------------------------------------
                        XY            XZ            YZ
 --------------------------------------------------------
     1   Atom       -0.000000      0.000000     -0.000000
     2   Atom       -0.000000     -0.000000     -0.000000
     3   Atom        0.000000     -0.000000     -0.000000
     4   Atom       -0.000000      0.000000     -0.000000
     5   Atom       -0.000000      0.000000      0.000000
     6   Atom        0.000000      0.000000     -0.000000
     7   Atom       -0.000000     -0.000000      0.000000
     8   Atom       -0.000000     -0.000000      0.000000
     9   Atom        0.000000      0.000000      0.000000
    10   Atom       -0.000000      0.000000     -0.000000
    11   Atom        0.000000      0.000000      0.000000
    12   Atom        0.000000     -0.000000      0.000000
    13   Atom       -0.000000     -0.000000      0.000000
    14   Atom        0.000000     -0.000000      0.000000
    15   Atom        0.000000      0.000000      0.000000
    16   Atom        0.000000      0.000000      0.000000
    17   Atom       -0.000000     -0.000000     -0.000000
    18   Atom        0.000000     -0.000000      0.000000
    19   Atom        0.000000      0.000000      0.000000
    20   Atom        0.000000      0.000000     -0.000000
    21   Atom       -0.000000     -0.000000     -0.000000
    22   Atom       -0.000000     -0.000000     -0.000000
    23   Atom       -0.000000     -0.000000     -0.000000
    24   Atom       -0.000000     -0.000000     -0.000000
    25   Atom        0.000000     -0.000000      0.000000
    26   Atom       -0.000000     -0.000000     -0.000000
    27   Atom       -0.000000      0.000000     -0.000000
    28   Atom        0.000000      0.000000      0.000000
 --------------------------------------------------------


 ---------------------------------------------------------------------------------
              Anisotropic Spin Dipole Couplings in Principal Axis System
 ---------------------------------------------------------------------------------

       Atom             a.u.   MegaHertz   Gauss  10(-4) cm-1        Axes

              Baa    -0.0000    -0.000    -0.000    -0.000 -0.3416  0.8265  0.4475
     1 C(13)  Bbb    -0.0000    -0.000    -0.000    -0.000  0.6704  0.5479 -0.5003
              Bcc     0.0000     0.000     0.000     0.000  0.6587 -0.1291  0.7413
 
              Baa    -0.0000    -0.000    -0.000    -0.000  0.5971  0.1672  0.7846
     2 C(13)  Bbb     0.0000     0.000     0.000     0.000  0.5874  0.5749 -0.5695
              Bcc     0.0000     0.000     0.000     0.000 -0.5463  0.8010  0.2451
 
              Baa    -0.0000    -0.000    -0.000    -0.000 -0.0418  0.9853  0.1659
     3 H(1)   Bbb    -0.0000    -0.000    -0.000    -0.000  0.8054 -0.0650  0.5892
              Bcc     0.0000     0.000     0.000     0.000 -0.5913 -0.1582  0.7908
 
              Baa    -0.0000    -0.000    -0.000    -0.000 -0.6292  0.0794  0.7732
     4 H(1)   Bbb     0.0000     0.000     0.000     0.000  0.7729  0.1690  0.6116
              Bcc     0.0000     0.000     0.000     0.000 -0.0821  0.9824 -0.1677
 
              Baa    -0.0000    -0.000    -0.000    -0.000 -0.3016 -0.1870  0.9349
     5 C(13)  Bbb     0.0000     0.000     0.000     0.000  0.2403  0.9340  0.2643
              Bcc     0.0000     0.000     0.000     0.000  0.9227 -0.3044  0.2367
 
              Baa    -0.0000    -0.000    -0.000    -0.000 -0.2898  0.4416  0.8491
     6 C(13)  Bbb     0.0000     0.000     0.000     0.000 -0.1144  0.8648 -0.4889
              Bcc     0.0000     0.000     0.000     0.000  0.9502  0.2389  0.2001
 
              Baa    -0.0000    -0.000    -0.000    -0.000 -0.1227 -0.3477  0.9295
     7 H(1)   Bbb    -0.0000    -0.000    -0.000    -0.000  0.8562  0.4365  0.2763
              Bcc     0.0000     0.000     0.000     0.000 -0.5018  0.8298  0.2442
 
              Baa    -0.0000    -0.000    -0.000    -0.000  0.9534  0.2658  0.1426
     8 H(1)   Bbb     0.0000     0.000     0.000     0.000 -0.1534  0.8345 -0.5293
              Bcc     0.0000     0.000     0.000     0.000 -0.2596  0.4828  0.8364
 
              Baa    -0.0000    -0.000    -0.000    -0.000 -0.4548  0.8900 -0.0326
     9 C(13)  Bbb     0.0000     0.000     0.000     0.000 -0.1055 -0.0175  0.9943
              Bcc     0.0000     0.000     0.000     0.000  0.8843  0.4556  0.1019
 
              Baa    -0.0000    -0.000    -0.000    -0.000 -0.5632  0.7410  0.3656
    10 H(1)   Bbb    -0.0000    -0.000    -0.000    -0.000  0.7078  0.6610 -0.2493
              Bcc     0.0000     0.000     0.000     0.000  0.4264 -0.1184  0.8967
 
              Baa    -0.0000    -0.000    -0.000    -0.000  0.7533 -0.6038  0.2607
    11 H(1)   Bbb    -0.0000    -0.000    -0.000    -0.000 -0.2941  0.0453  0.9547
              Bcc     0.0000     0.000     0.000     0.000  0.5882  0.7959  0.1435
 
              Baa    -0.0000    -0.000    -0.000    -0.000  0.8670 -0.3568  0.3477
    12 C(13)  Bbb    -0.0000    -0.000    -0.000    -0.000  0.4176  0.9012 -0.1164
              Bcc     0.0000     0.000     0.000     0.000 -0.2719  0.2461  0.9303
 
              Baa    -0.0000    -0.000    -0.000    -0.000  0.2880  0.9185 -0.2711
    13 H(1)   Bbb     0.0000     0.000     0.000     0.000  0.9101 -0.1744  0.3760
              Bcc     0.0000     0.000     0.000     0.000 -0.2980  0.3550  0.8861
 
              Baa    -0.0000    -0.000    -0.000    -0.000  0.8935 -0.2916  0.3414
    14 C(13)  Bbb     0.0000     0.000     0.000     0.000  0.3797  0.8966 -0.2278
              Bcc     0.0000     0.000     0.000     0.000 -0.2397  0.3332  0.9119
 
              Baa    -0.0000    -0.000    -0.000    -0.000 -0.3130 -0.2124  0.9257
    15 H(1)   Bbb     0.0000     0.000     0.000     0.000 -0.3214  0.9408  0.1072
              Bcc     0.0000     0.000     0.000     0.000  0.8937  0.2640  0.3628
 
              Baa    -0.0000    -0.000    -0.000    -0.000  0.7357 -0.0122 -0.6772
    16 C(13)  Bbb     0.0000     0.000     0.000     0.000  0.6658 -0.1704  0.7264
              Bcc     0.0000     0.000     0.000     0.000  0.1243  0.9853  0.1173
 
              Baa    -0.0000    -0.000    -0.000    -0.000  0.4058  0.3322  0.8515
    17 H(1)   Bbb     0.0000     0.000     0.000     0.000  0.9034 -0.2872 -0.3184
              Bcc     0.0000     0.000     0.000     0.000  0.1388  0.8984 -0.4166
 
              Baa    -0.0000    -0.000    -0.000    -0.000 -0.6746  0.6768 -0.2948
    18 H(1)   Bbb     0.0000     0.000     0.000     0.000 -0.4662 -0.0810  0.8810
              Bcc     0.0000     0.000     0.000     0.000  0.5723  0.7317  0.3701
 
              Baa    -0.0000    -0.000    -0.000    -0.000 -0.4347  0.9002  0.0265
    19 C(13)  Bbb    -0.0000    -0.000    -0.000    -0.000  0.8745  0.4290 -0.2263
              Bcc     0.0000     0.000     0.000     0.000  0.2151  0.0752  0.9737
 
              Baa    -0.0000    -0.000    -0.000    -0.000 -0.2752  0.9412  0.1960
    20 H(1)   Bbb    -0.0000    -0.000    -0.000    -0.000  0.8040  0.3371 -0.4899
              Bcc     0.0000     0.000     0.000     0.000  0.5272 -0.0227  0.8495
 
              Baa    -0.0000    -0.000    -0.000    -0.000  0.2090  0.0870  0.9740
    21 C(13)  Bbb     0.0000     0.000     0.000     0.000  0.9627  0.1568 -0.2205
              Bcc     0.0000     0.000     0.000     0.000 -0.1719  0.9838 -0.0510
 
              Baa    -0.0000    -0.000    -0.000    -0.000  0.3827  0.2294  0.8950
    22 H(1)   Bbb     0.0000     0.000     0.000     0.000  0.6068  0.6680 -0.4307
              Bcc     0.0000     0.000     0.000     0.000 -0.6966  0.7079  0.1165
 
              Baa    -0.0000    -0.000    -0.000    -0.000  0.8487  0.4220  0.3186
    23 C(13)  Bbb    -0.0000    -0.000    -0.000    -0.000 -0.2912 -0.1300  0.9478
              Bcc     0.0000     0.000     0.000     0.000 -0.4414  0.8972 -0.0125
 
              Baa    -0.0000    -0.000    -0.000    -0.000  0.5384  0.8307  0.1417
    24 H(1)   Bbb     0.0000     0.000     0.000     0.000 -0.4469  0.1388  0.8838
              Bcc     0.0000     0.000     0.000     0.000  0.7145 -0.5391  0.4459
 
              Baa    -0.0000    -0.000    -0.000    -0.000  0.4602 -0.1452  0.8759
    25 H(1)   Bbb     0.0000     0.000     0.000     0.000 -0.4140  0.8376  0.3563
              Bcc     0.0000     0.000     0.000     0.000  0.7854  0.5266 -0.3254
 
              Baa    -0.0000    -0.000    -0.000    -0.000  0.1004  0.9891  0.1074
    26 C(13)  Bbb    -0.0000    -0.000    -0.000    -0.000  0.6697 -0.1471  0.7280
              Bcc     0.0000     0.000     0.000     0.000  0.7358 -0.0012 -0.6772
 
              Baa    -0.0000    -0.000    -0.000    -0.000  0.3175  0.5629  0.7632
    27 H(1)   Bbb    -0.0000    -0.000    -0.000    -0.000  0.7540  0.3383 -0.5631
              Bcc     0.0000     0.000     0.000     0.000 -0.5751  0.7542 -0.3170
 
              Baa    -0.0000    -0.000    -0.000    -0.000  0.7523 -0.6530 -0.0872
    28 H(1)   Bbb    -0.0000    -0.000    -0.000    -0.000 -0.4690 -0.6238  0.6252
              Bcc     0.0000     0.000     0.000     0.000  0.4626  0.4294  0.7756
 

 ---------------------------------------------------------------------------------

 No NMR shielding tensors so no spin-rotation constants.
 Leave Link  601 at Mon Aug  3 14:54:22 2020, MaxMem=  6442450944 cpu:               8.0 elap:               0.4
 (Enter /scratch/scicomp/CentOS/7.3.1611/Haswell/software/Gaussian/g16/l9999.exe)
 1\1\GINC-ATLAS-205\SP\UwB97XD\def2TZVP\C12H16\BOCHEN\03-Aug-2020\0\\#p
  uwb97xd guess=mix def2tzvp # scrf=(iefpcm,solvent=Cyclohexane,read) n
 osym 6d 10f\\endo-2 xp-pcm for eta=3\\0,1\C,0,-3.127681,-0.441423,0.25
 8958\C,0,-0.708381,-0.245534,-1.202422\H,0,-4.076548,-0.536846,0.77411
 1\H,0,0.248962,-0.160472,-1.700991\C,0,1.152306,1.422704,0.77243\C,0,0
 .708381,0.245534,1.202422\H,0,0.558988,2.319273,0.905524\H,0,-0.248962
 ,0.160472,1.700991\C,0,1.545018,-0.9962,1.092829\H,0,2.059657,-1.12685
 6,2.053246\H,0,0.90429,-1.869997,0.974198\C,0,2.450083,1.52831,0.10643
 5\H,0,2.850945,2.514335,-0.096069\C,0,3.127681,0.441423,-0.258958\H,0,
 4.076548,0.536846,-0.774111\C,0,2.57933,-0.941931,-0.03718\H,0,2.13576
 3,-1.29167,-0.977567\H,0,3.392662,-1.637636,0.178291\C,0,-1.152306,-1.
 422704,-0.77243\H,0,-0.558988,-2.319273,-0.905524\C,0,-2.450083,-1.528
 31,-0.106435\H,0,-2.850945,-2.514335,0.096069\C,0,-1.545018,0.9962,-1.
 092829\H,0,-0.90429,1.869997,-0.974198\H,0,-2.059657,1.126856,-2.05324
 6\C,0,-2.57933,0.941931,0.03718\H,0,-3.392662,1.637636,-0.178291\H,0,-
 2.135763,1.29167,0.977567\\Version=ES64L-G16RevB.01\HF=-466.8552826\S2
 =0.\S2-1=0.\S2A=0.\RMSD=3.665e-09\Dipole=0.0000285,0.000028,-0.0000149
 \Quadrupole=0.540959,2.4061416,-2.9471006,-2.464006,-2.7302565,-1.2751
 043\PG=CI [X(C12H16)]\\@


 BE NOT THE FIRST BY WHOM THE NEW ARE TRIED,
 NOR YET THE THE LAST TO LAY THE OLD ASIDE.

                          -- ALEXANDER POPE
 Job cpu time:       0 days  2 hours  6 minutes 34.3 seconds.
 Elapsed time:       0 days  0 hours  5 minutes 19.6 seconds.
 File lengths (MBytes):  RWF=    638 Int=      0 D2E=      0 Chk=     23 Scr=      1
 Normal termination of Gaussian 16 at Mon Aug  3 14:54:22 2020.
