 Entering Gaussian System, Link 0=g16
 Input=meso-TS_28_1_xp-Vc.com
 Output=meso-TS_28_1_xp-Vc.log
 Initial command:
 /scratch/scicomp/CentOS/7.3.1611/Haswell/software/Gaussian/g16/l1.exe "/scratch/bochen/cyclohexadiene-dimerization/wb97xd-def2tzvp/xp-pcm/meso/Gau-118581.inp" -scrdir="/scratch/bochen/cyclohexadiene-dimerization/wb97xd-def2tzvp/xp-pcm/meso/"
 Entering Link 1 = /scratch/scicomp/CentOS/7.3.1611/Haswell/software/Gaussian/g16/l1.exe PID=    118582.
  
 Copyright (c) 1988-2017, Gaussian, Inc.  All Rights Reserved.
  
 This is part of the Gaussian(R) 16 program.  It is based on
 the Gaussian(R) 09 system (copyright 2009, Gaussian, Inc.),
 the Gaussian(R) 03 system (copyright 2003, Gaussian, Inc.),
 the Gaussian(R) 98 system (copyright 1998, Gaussian, Inc.),
 the Gaussian(R) 94 system (copyright 1995, Gaussian, Inc.),
 the Gaussian 92(TM) system (copyright 1992, Gaussian, Inc.),
 the Gaussian 90(TM) system (copyright 1990, Gaussian, Inc.),
 the Gaussian 88(TM) system (copyright 1988, Gaussian, Inc.),
 the Gaussian 86(TM) system (copyright 1986, Carnegie Mellon
 University), and the Gaussian 82(TM) system (copyright 1983,
 Carnegie Mellon University). Gaussian is a federally registered
 trademark of Gaussian, Inc.
  
 This software contains proprietary and confidential information,
 including trade secrets, belonging to Gaussian, Inc.
  
 This software is provided under written license and may be
 used, copied, transmitted, or stored only in accord with that
 written license.
  
 The following legend is applicable only to US Government
 contracts under FAR:
  
                    RESTRICTED RIGHTS LEGEND
  
 Use, reproduction and disclosure by the US Government is
 subject to restrictions as set forth in subparagraphs (a)
 and (c) of the Commercial Computer Software - Restricted
 Rights clause in FAR 52.227-19.
  
 Gaussian, Inc.
 340 Quinnipiac St., Bldg. 40, Wallingford CT 06492
  
  
 ---------------------------------------------------------------
 Warning -- This program may not be used in any manner that
 competes with the business of Gaussian, Inc. or will provide
 assistance to any competitor of Gaussian, Inc.  The licensee
 of this program is prohibited from giving any competitor of
 Gaussian, Inc. access to this program.  By using this program,
 the user acknowledges that Gaussian, Inc. is engaged in the
 business of creating and licensing software in the field of
 computational chemistry and represents and warrants to the
 licensee that it is not a competitor of Gaussian, Inc. and that
 it will not use this program in any manner prohibited above.
 ---------------------------------------------------------------
  

 Cite this work as:
 Gaussian 16, Revision B.01,
 M. J. Frisch, G. W. Trucks, H. B. Schlegel, G. E. Scuseria, 
 M. A. Robb, J. R. Cheeseman, G. Scalmani, V. Barone, 
 G. A. Petersson, H. Nakatsuji, X. Li, M. Caricato, A. V. Marenich, 
 J. Bloino, B. G. Janesko, R. Gomperts, B. Mennucci, H. P. Hratchian, 
 J. V. Ortiz, A. F. Izmaylov, J. L. Sonnenberg, D. Williams-Young, 
 F. Ding, F. Lipparini, F. Egidi, J. Goings, B. Peng, A. Petrone, 
 T. Henderson, D. Ranasinghe, V. G. Zakrzewski, J. Gao, N. Rega, 
 G. Zheng, W. Liang, M. Hada, M. Ehara, K. Toyota, R. Fukuda, 
 J. Hasegawa, M. Ishida, T. Nakajima, Y. Honda, O. Kitao, H. Nakai, 
 T. Vreven, K. Throssell, J. A. Montgomery, Jr., J. E. Peralta, 
 F. Ogliaro, M. J. Bearpark, J. J. Heyd, E. N. Brothers, K. N. Kudin, 
 V. N. Staroverov, T. A. Keith, R. Kobayashi, J. Normand, 
 K. Raghavachari, A. P. Rendell, J. C. Burant, S. S. Iyengar, 
 J. Tomasi, M. Cossi, J. M. Millam, M. Klene, C. Adamo, R. Cammi, 
 J. W. Ochterski, R. L. Martin, K. Morokuma, O. Farkas, 
 J. B. Foresman, and D. J. Fox, Gaussian, Inc., Wallingford CT, 2016.
 
 ******************************************
 Gaussian 16:  ES64L-G16RevB.01 20-Dec-2017
                 3-Aug-2020 
 ******************************************
 %chk=meso-TS_28_1_xp-12.chk
 %nproc=24
 Will use up to   24 processors via shared memory.
 %mem=48GB
 ----------------------------------------------------------------------
 #p uwb97xd guess=mix def2tzvp # scrf=(iefpcm,solvent=Cyclohexane,read)
  nosym guess=only pop=none
 ----------------------------------------------------------------------
 1/38=1,40=2,172=1/1;
 2/12=2,15=1,17=6,18=5,40=1/2;
 3/5=44,7=101,11=2,25=1,30=1,70=2203,72=17,74=-58,89=1,116=2/1,2;
 4/13=-1/1;
 99/5=2/99;
 Leave Link    1 at Mon Aug  3 17:35:56 2020, MaxMem=  6442450944 cpu:               1.5 elap:               0.1
 (Enter /scratch/scicomp/CentOS/7.3.1611/Haswell/software/Gaussian/g16/l101.exe)
 -----------------------
 endo-2 xp-pcm for eta=3
 -----------------------
 Symbolic Z-matrix:
 Charge =  0 Multiplicity = 1
 6                    -3.13093  -0.42393   0.23061 
 6                    -0.40267  -0.12519  -0.66171 
 1                    -4.12172  -0.5441    0.65102 
 1                     0.32493  -0.12603  -1.47787 
 6                     1.1047    1.44386   0.61466 
 6                     0.40267   0.12519   0.66171 
 1                     0.57031   2.34209   0.89702 
 1                    -0.32493   0.12603   1.47787 
 6                     1.42607  -0.98372   0.93657 
 1                     1.82768  -0.8303    1.94152 
 1                     0.94004  -1.96043   0.93466 
 6                     2.40205   1.5339    0.1426 
 1                     2.86056   2.51289   0.05474 
 6                     3.13093   0.42393  -0.23061 
 1                     4.12172   0.5441   -0.65102 
 6                     2.58456  -0.95794  -0.06035 
 1                     2.25812  -1.34829  -1.03374 
 1                     3.377    -1.63473   0.27045 
 6                    -1.1047   -1.44386  -0.61466 
 1                    -0.57031  -2.34209  -0.89702 
 6                    -2.40205  -1.5339   -0.1426 
 1                    -2.86056  -2.51289  -0.05474 
 6                    -1.42607   0.98372  -0.93657 
 1                    -0.94004   1.96043  -0.93466 
 1                    -1.82768   0.8303   -1.94152 
 6                    -2.58456   0.95794   0.06035 
 1                    -3.377     1.63473  -0.27045 
 1                    -2.25812   1.34829   1.03374 
 
 ITRead=  0  0  0  0  0  0  0  0  0  0  0  0  0  0  0  0  0  0  0  0
 ITRead=  0  0  0  0  0  0  0  0
 MicOpt= -1 -1 -1 -1 -1 -1 -1 -1 -1 -1 -1 -1 -1 -1 -1 -1 -1 -1 -1 -1
 MicOpt= -1 -1 -1 -1 -1 -1 -1 -1
 NAtoms=     28 NQM=       28 NQMF=       0 NMMI=      0 NMMIF=      0
                NMic=       0 NMicF=      0.
                    Isotopes and Nuclear Properties:
 (Nuclear quadrupole moments (NQMom) in fm**2, nuclear magnetic moments (NMagM)
  in nuclear magnetons)

  Atom         1           2           3           4           5           6           7           8           9          10
 IAtWgt=          12          12           1           1          12          12           1           1          12           1
 AtmWgt=  12.0000000  12.0000000   1.0078250   1.0078250  12.0000000  12.0000000   1.0078250   1.0078250  12.0000000   1.0078250
 NucSpn=           0           0           1           1           0           0           1           1           0           1
 AtZEff=  -0.0000000  -0.0000000  -0.0000000  -0.0000000  -0.0000000  -0.0000000  -0.0000000  -0.0000000  -0.0000000  -0.0000000
 NQMom=    0.0000000   0.0000000   0.0000000   0.0000000   0.0000000   0.0000000   0.0000000   0.0000000   0.0000000   0.0000000
 NMagM=    0.0000000   0.0000000   2.7928460   2.7928460   0.0000000   0.0000000   2.7928460   2.7928460   0.0000000   2.7928460
 AtZNuc=   6.0000000   6.0000000   1.0000000   1.0000000   6.0000000   6.0000000   1.0000000   1.0000000   6.0000000   1.0000000

  Atom        11          12          13          14          15          16          17          18          19          20
 IAtWgt=           1          12           1          12           1          12           1           1          12           1
 AtmWgt=   1.0078250  12.0000000   1.0078250  12.0000000   1.0078250  12.0000000   1.0078250   1.0078250  12.0000000   1.0078250
 NucSpn=           1           0           1           0           1           0           1           1           0           1
 AtZEff=  -0.0000000  -0.0000000  -0.0000000  -0.0000000  -0.0000000  -0.0000000  -0.0000000  -0.0000000  -0.0000000  -0.0000000
 NQMom=    0.0000000   0.0000000   0.0000000   0.0000000   0.0000000   0.0000000   0.0000000   0.0000000   0.0000000   0.0000000
 NMagM=    2.7928460   0.0000000   2.7928460   0.0000000   2.7928460   0.0000000   2.7928460   2.7928460   0.0000000   2.7928460
 AtZNuc=   1.0000000   6.0000000   1.0000000   6.0000000   1.0000000   6.0000000   1.0000000   1.0000000   6.0000000   1.0000000

  Atom        21          22          23          24          25          26          27          28
 IAtWgt=          12           1          12           1           1          12           1           1
 AtmWgt=  12.0000000   1.0078250  12.0000000   1.0078250   1.0078250  12.0000000   1.0078250   1.0078250
 NucSpn=           0           1           0           1           1           0           1           1
 AtZEff=  -0.0000000  -0.0000000  -0.0000000  -0.0000000  -0.0000000  -0.0000000  -0.0000000  -0.0000000
 NQMom=    0.0000000   0.0000000   0.0000000   0.0000000   0.0000000   0.0000000   0.0000000   0.0000000
 NMagM=    0.0000000   2.7928460   0.0000000   2.7928460   2.7928460   0.0000000   2.7928460   2.7928460
 AtZNuc=   6.0000000   1.0000000   6.0000000   1.0000000   1.0000000   6.0000000   1.0000000   1.0000000
 Leave Link  101 at Mon Aug  3 17:35:57 2020, MaxMem=  6442450944 cpu:               2.4 elap:               0.1
 (Enter /scratch/scicomp/CentOS/7.3.1611/Haswell/software/Gaussian/g16/l202.exe)
                          Input orientation:                          
 ---------------------------------------------------------------------
 Center     Atomic      Atomic             Coordinates (Angstroms)
 Number     Number       Type             X           Y           Z
 ---------------------------------------------------------------------
      1          6           0       -3.130926   -0.423925    0.230614
      2          6           0       -0.402668   -0.125188   -0.661714
      3          1           0       -4.121721   -0.544101    0.651020
      4          1           0        0.324925   -0.126026   -1.477873
      5          6           0        1.104701    1.443859    0.614659
      6          6           0        0.402668    0.125188    0.661714
      7          1           0        0.570306    2.342088    0.897018
      8          1           0       -0.324925    0.126026    1.477873
      9          6           0        1.426074   -0.983719    0.936566
     10          1           0        1.827679   -0.830304    1.941515
     11          1           0        0.940037   -1.960429    0.934664
     12          6           0        2.402045    1.533898    0.142597
     13          1           0        2.860563    2.512891    0.054740
     14          6           0        3.130926    0.423925   -0.230614
     15          1           0        4.121721    0.544101   -0.651020
     16          6           0        2.584558   -0.957939   -0.060346
     17          1           0        2.258123   -1.348285   -1.033742
     18          1           0        3.376997   -1.634728    0.270453
     19          6           0       -1.104701   -1.443859   -0.614659
     20          1           0       -0.570306   -2.342088   -0.897018
     21          6           0       -2.402045   -1.533898   -0.142597
     22          1           0       -2.860563   -2.512891   -0.054740
     23          6           0       -1.426074    0.983719   -0.936566
     24          1           0       -0.940037    1.960429   -0.934664
     25          1           0       -1.827679    0.830304   -1.941515
     26          6           0       -2.584558    0.957939    0.060346
     27          1           0       -3.376997    1.634728   -0.270453
     28          1           0       -2.258122    1.348285    1.033742
 ---------------------------------------------------------------------
                    Distance matrix (angstroms):
                    1          2          3          4          5
     1  C    0.000000
     2  C    2.885981   0.000000
     3  H    1.082986   3.966121   0.000000
     4  H    3.866598   1.093393   4.947690   0.000000
     5  C    4.645067   2.522538   5.591851   2.729703   0.000000
     6  C    3.601897   1.569304   4.573637   2.155687   1.494643
     7  H    4.668409   3.076325   5.514138   3.433934   1.082645
     8  H    3.119574   2.155687   3.943148   3.036819   2.127358
     9  C    4.645211   2.576019   5.572507   2.788850   2.469826
    10  H    5.261187   3.499777   6.094477   3.800854   2.730396
    11  H    4.407865   2.778379   5.263823   3.092528   3.423258
    12  C    5.869803   3.356471   6.865573   3.113792   1.383492
    13  H    6.674860   4.256929   7.645459   3.967650   2.130584
    14  C    6.335801   3.601897   7.369887   3.119574   2.420814
    15  H    7.369887   4.573637   8.416283   3.943148   3.393216
    16  C    5.747746   3.158898   6.756588   2.794173   2.900731
    17  H    5.612031   2.951979   6.647371   2.329898   3.441464
    18  H    6.619720   4.175346   7.587165   3.827267   3.841810
    19  C    2.420814   1.494643   3.393216   2.127358   3.838176
    20  H    3.392297   2.235647   4.271034   2.459626   4.407291
    21  C    1.379346   2.500291   2.137010   3.346854   4.662375
    22  H    2.125630   3.480056   2.442284   4.227265   5.641568
    23  C    2.500058   1.533812   3.481548   2.142556   3.003806
    24  H    3.441368   2.170960   4.348583   2.499700   2.616907
    25  H    2.826604   2.140447   3.724628   2.400674   3.938188
    26  C    1.495680   2.540704   2.228876   3.464995   3.762182
    27  H    2.132996   3.478077   2.480125   4.273446   4.572250
    28  H    2.132494   2.913486   2.683394   3.892805   3.390183
                    6          7          8          9         10
     6  C    0.000000
     7  H    2.235647   0.000000
     8  H    1.093393   2.459626   0.000000
     9  C    1.533812   3.434370   2.142556   0.000000
    10  H    2.140447   3.568758   2.400674   1.093044   0.000000
    11  H    2.170960   4.318538   2.499700   1.090962   1.754662
    12  C    2.500291   2.139530   3.346854   2.814481   3.025798
    13  H    3.480056   2.446198   4.227265   3.880935   3.975390
    14  C    2.885981   3.392297   3.866598   2.500058   2.826604
    15  H    3.966121   4.271034   4.947690   3.481548   3.724628
    16  C    2.540704   3.982956   3.464995   1.528589   2.143969
    17  H    2.913487   4.493931   3.892806   2.169638   3.050531
    18  H    3.478077   4.907664   4.273446   2.161856   2.416595
    19  C    2.522538   4.407291   2.729703   3.003806   3.938188
    20  H    3.076325   5.144032   3.433934   3.031951   4.011620
    21  C    3.356471   4.993890   3.113792   4.015194   4.767508
    22  H    4.256929   6.020592   3.967650   4.657930   5.366167
    23  C    2.576019   3.031951   2.788850   3.938805   4.707541
    24  H    2.778379   2.404550   3.092528   4.215209   4.870405
    25  H    3.499777   4.011620   3.800854   4.707541   5.585444
    26  C    3.158898   3.545286   2.794173   4.541252   5.119028
    27  H    4.175346   4.176667   3.827267   5.602022   6.169103
    28  H    2.951978   3.001057   2.329897   4.361306   4.718482
                   11         12         13         14         15
    11  H    0.000000
    12  C    3.869775   0.000000
    13  H    4.947047   1.084613   0.000000
    14  C    3.441368   1.379346   2.125630   0.000000
    15  H    4.348583   2.137010   2.442284   1.082986   0.000000
    16  C    2.167829   2.506741   3.483688   1.495680   2.228876
    17  H    2.446772   3.116322   4.056650   2.132493   2.683393
    18  H    2.546769   3.317690   4.185210   2.132996   2.480125
    19  C    2.616907   4.662375   5.641568   4.645067   5.591851
    20  H    2.404550   4.993890   6.020592   4.668409   5.514138
    21  C    3.537221   5.707187   6.641573   5.869803   6.865573
    22  H    3.965942   6.641573   7.615888   6.674860   7.645459
    23  C    4.215209   4.015194   4.657930   4.645211   5.572507
    24  H    4.733095   3.537221   3.965942   4.407865   5.263823
    25  H    4.870405   4.767508   5.366167   5.261187   6.094477
    26  C    4.658763   5.020429   5.662795   5.747746   6.756588
    27  H    5.745802   5.794662   6.307462   6.619720   7.587165
    28  H    4.602785   4.748236   5.340008   5.612030   6.647370
                   16         17         18         19         20
    16  C    0.000000
    17  H    1.098376   0.000000
    18  H    1.093358   1.742083   0.000000
    19  C    3.762182   3.390184   4.572250   0.000000
    20  H    3.545286   3.001058   4.176667   1.082645   0.000000
    21  C    5.020429   4.748237   5.794662   1.383492   2.139530
    22  H    5.662795   5.340009   6.307462   2.130584   2.446198
    23  C    4.541252   4.361306   5.602022   2.469826   3.434370
    24  H    4.658763   4.602785   5.745802   3.423258   4.318538
    25  H    5.119028   4.718483   6.169103   2.730396   3.568758
    26  C    5.514065   5.474236   6.504322   2.900731   3.982956
    27  H    6.504322   6.421492   7.523188   3.841810   4.907664
    28  H    5.474235   5.651765   6.421491   3.441464   4.493930
                   21         22         23         24         25
    21  C    0.000000
    22  H    1.084613   0.000000
    23  C    2.814481   3.880935   0.000000
    24  H    3.869775   4.947047   1.090962   0.000000
    25  H    3.025798   3.975390   1.093044   1.754662   0.000000
    26  C    2.506741   3.483688   1.528589   2.167829   2.143969
    27  H    3.317690   4.185210   2.161856   2.546769   2.416595
    28  H    3.116323   4.056650   2.169637   2.446771   3.050531
                   26         27         28
    26  C    0.000000
    27  H    1.093358   0.000000
    28  H    1.098376   1.742084   0.000000
 Symmetry turned off by external request.
 Stoichiometry    C12H16
 Framework group  CI[X(C12H16)]
 Deg. of freedom    39
 Full point group                 CI      NOp   2
 Rotational constants (GHZ):           2.0274357           0.6492368           0.5545682
 Leave Link  202 at Mon Aug  3 17:35:57 2020, MaxMem=  6442450944 cpu:               0.3 elap:               0.0
 (Enter /scratch/scicomp/CentOS/7.3.1611/Haswell/software/Gaussian/g16/l301.exe)
 Standard basis: def2TZVP (5D, 7F)
 Ernie: Thresh=  0.10000D-02 Tol=  0.10000D-05 Strict=F.
   468 basis functions,   740 primitive gaussians,   528 cartesian basis functions
    44 alpha electrons       44 beta electrons
       nuclear repulsion energy       697.6336556829 Hartrees.
 IExCor= 4639 DFT=T Ex+Corr=wB97XD ExCW=0 ScaHFX=  1.000000
 ScaDFX=  1.000000  1.000000  1.000000  1.000000 ScalE2=  1.000000  1.000000
 IRadAn=      5 IRanWt=     -1 IRanGd=            0 ICorTp=0 IEmpDi=121
 HFx  wShort=  0.000000 wLong=  0.200000 cFull=  0.222036 cShort=  0.000000 cLong=  0.777964
 DFx  wShort=  0.000000 wLong=  0.200000 cFull=  0.000000 cShort=  0.000000 cLong=  1.000000
 NAtoms=   28 NActive=   28 NUniq=   28 SFac= 1.00D+00 NAtFMM=   60 NAOKFM=F Big=F
 Integral buffers will be    131072 words long.
 Raffenetti 2 integral format.
 Two-electron integral symmetry is turned off.
 R6Disp:  Grimme-D2 Dispersion energy=       -0.0228815295 Hartrees.
 Nuclear repulsion after empirical dispersion term =      697.6107741534 Hartrees.
 Using the following non-standard input for PCM:
 qrep pcmdoc geomview  nodis nocav g03defaults tsare=0.075
 Warning! Using old PCM defaults because the g03defaults keyword was found.
 These settings can be overridden by following keywords.
 nsfe=28
 NVESolv=36  SolvMW=84.1595   Rsolv=2.815
 eps=2.0165 RhoS=0.7781
 --- end of non-standard input.
 Reading user-defined spheres from input:
 ISph  on   Nord    Re0     Alpha      Xe            Ye            Ze
 --- end of user-defined spheres data.
 ------------------------------------------------------------------------------
 Polarizable Continuum Model (PCM)
 =================================
 Model                : PCM.
 Atomic radii         : UA0 (Simple United Atom Topological Model).
 Polarization charges : Total charges.
 Charge compensation  : None.
 Solution method      : On-the-fly selection.
 Cavity type          : SES (Solvent Excluding Surface) (Alpha=1.000).
 Cavity algorithm     : GePol (RMin=0.200 OFac=0.890).
                        User-defined sphere list used, NSphG=   28.
                        Tesserae with average area of 0.075 Ang**2.
                        Smoothing algorithm: None.
                        Polarization charges: point-like.
                        Self-potential: constant (ISelfS= 1).
                        Self-field    : global E.n sum rule (ISelfD= 3).
 Solvent              : CycloHexane, Eps=   2.016500 Eps(inf)=   2.035188
                        RSolv=   2.815000 Ang.
 ------------------------------------------------------------------------------
 GePol: Number of generator spheres                  =      28
 GePol: Total number of spheres                      =     159
 GePol: Number of exposed spheres                    =     116 ( 72.96%)
 GePol: Number of tesserae                           =    4590
 GePol: Average area of tesserae                     =       0.05 Ang**2
 GePol: Minimum area of tessera                      =   0.10D-02 Ang**2
 GePol: Maximum area of tessera                      =    0.12395 Ang**2
 GePol: Number of small tesserae                     =       0
 GePol: Fraction of small tesserae (<1% of avg)      =       0.00%
 GePol: Total count of vertices                      =   16199
 GePol: Maximum number of vertices in a tessera      =       7
 GePol: Cavity surface area                          =    218.134 Ang**2
 GePol: Cavity volume                                =    243.088 Ang**3
 Leave Link  301 at Mon Aug  3 17:35:57 2020, MaxMem=  6442450944 cpu:               7.1 elap:               0.3
 (Enter /scratch/scicomp/CentOS/7.3.1611/Haswell/software/Gaussian/g16/l302.exe)
 NPDir=0 NMtPBC=     1 NCelOv=     1 NCel=       1 NClECP=     1 NCelD=      1
         NCelK=      1 NCelE2=     1 NClLst=     1 CellRange=     0.0.
 One-electron integrals computed using PRISM.
   1 Symmetry operations used in ECPInt.
 ECPInt:  NShTT=   19306 NPrTT=   56928 LenC2=   18548 LenP2D=   42366.
 LDataN:  DoStor=T MaxTD1= 6 Len=  172
 NBasis=   468 RedAO= T EigKep=  3.19D-05  NBF=   468
 NBsUse=   468 1.00D-06 EigRej= -1.00D+00 NBFU=   468
 Precomputing XC quadrature grid using
 IXCGrd= 4 IRadAn=           5 IRanWt=          -1 IRanGd=           0 AccXCQ= 0.00D+00.
 Generated NRdTot=       0 NPtTot=           0 NUsed=           0 NTot=          32
 NSgBfM=   526   526   526   526   526 MxSgAt=    28 MxSgA2=    28.
 Leave Link  302 at Mon Aug  3 17:35:58 2020, MaxMem=  6442450944 cpu:              11.8 elap:               0.5
 (Enter /scratch/scicomp/CentOS/7.3.1611/Haswell/software/Gaussian/g16/l401.exe)
 ExpMin= 9.52D-02 ExpMax= 1.36D+04 ExpMxC= 4.63D+02 IAcc=3 IRadAn=         5 AccDes= 0.00D+00
 Harris functional with IExCor= 4639 and IRadAn=       5 diagonalized for initial guess.
 HarFok:  IExCor= 4639 AccDes= 0.00D+00 IRadAn=         5 IDoV= 1 UseB2=F ITyADJ=14
 ICtDFT=  3500011 ScaDFX=  1.000000  1.000000  1.000000  1.000000
 FoFCou: FMM=F IPFlag=           0 FMFlag=      100000 FMFlg1=           0
         NFxFlg=           0 DoJE=T BraDBF=F KetDBF=T FulRan=T
         wScrn=  0.000000 ICntrl=       500 IOpCl=  0 I1Cent=   200000004 NGrid=           0
         NMat0=    1 NMatS0=      1 NMatT0=    0 NMatD0=    1 NMtDS0=    0 NMtDT0=    0
 Symmetry not used in FoFCou.
 Harris En= -444.576446354024    
 JPrj=0 DoOrth=F DoCkMO=T.
 Mixing orbitals, IMix= 1 IMixAn=  0 NRI=1 NE=   44 Coef=  7.07106781D-01  7.07106781D-01
 Mixing orbitals, IMix= 1 IMixAn=  0 NRI=1 NE=   44 Coef= -7.07106781D-01  7.07106781D-01
 Initial guess <Sx>= 0.0000 <Sy>= 0.0000 <Sz>= 0.0000 <S**2>= 1.0000 S= 0.6180
 Leave Link  401 at Mon Aug  3 17:36:00 2020, MaxMem=  6442450944 cpu:              47.9 elap:               2.1
 (Enter /scratch/scicomp/CentOS/7.3.1611/Haswell/software/Gaussian/g16/l9999.exe)

 This type of calculation cannot be archived.


 FROM AN ANONYMOUS WRITER, ON PERSPECTIVE:

 MAN, DESPITE HIS ARTISTIC PRETENSIONS, HIS SOPHISTICATION AND MANY 
 ACCOMPLISHMENTS, OWES THE FACT OF HIS EXISTENCE TO A SIX-INCH LAYER OF 
 TOPSOIL AND THE FACT THAT IT RAINS.
 Job cpu time:       0 days  0 hours  1 minutes 11.9 seconds.
 Elapsed time:       0 days  0 hours  0 minutes  3.3 seconds.
 File lengths (MBytes):  RWF=    387 Int=      0 D2E=      0 Chk=      1 Scr=      1
 Normal termination of Gaussian 16 at Mon Aug  3 17:36:00 2020.
 Initial command:
 /scratch/scicomp/CentOS/7.3.1611/Haswell/software/Gaussian/g16/l1.exe "/scratch/bochen/cyclohexadiene-dimerization/wb97xd-def2tzvp/xp-pcm/meso/Gau-118581.inp" -scrdir="/scratch/bochen/cyclohexadiene-dimerization/wb97xd-def2tzvp/xp-pcm/meso/"
 Entering Link 1 = /scratch/scicomp/CentOS/7.3.1611/Haswell/software/Gaussian/g16/l1.exe PID=    118744.
  
 Copyright (c) 1988-2017, Gaussian, Inc.  All Rights Reserved.
  
 This is part of the Gaussian(R) 16 program.  It is based on
 the Gaussian(R) 09 system (copyright 2009, Gaussian, Inc.),
 the Gaussian(R) 03 system (copyright 2003, Gaussian, Inc.),
 the Gaussian(R) 98 system (copyright 1998, Gaussian, Inc.),
 the Gaussian(R) 94 system (copyright 1995, Gaussian, Inc.),
 the Gaussian 92(TM) system (copyright 1992, Gaussian, Inc.),
 the Gaussian 90(TM) system (copyright 1990, Gaussian, Inc.),
 the Gaussian 88(TM) system (copyright 1988, Gaussian, Inc.),
 the Gaussian 86(TM) system (copyright 1986, Carnegie Mellon
 University), and the Gaussian 82(TM) system (copyright 1983,
 Carnegie Mellon University). Gaussian is a federally registered
 trademark of Gaussian, Inc.
  
 This software contains proprietary and confidential information,
 including trade secrets, belonging to Gaussian, Inc.
  
 This software is provided under written license and may be
 used, copied, transmitted, or stored only in accord with that
 written license.
  
 The following legend is applicable only to US Government
 contracts under FAR:
  
                    RESTRICTED RIGHTS LEGEND
  
 Use, reproduction and disclosure by the US Government is
 subject to restrictions as set forth in subparagraphs (a)
 and (c) of the Commercial Computer Software - Restricted
 Rights clause in FAR 52.227-19.
  
 Gaussian, Inc.
 340 Quinnipiac St., Bldg. 40, Wallingford CT 06492
  
  
 ---------------------------------------------------------------
 Warning -- This program may not be used in any manner that
 competes with the business of Gaussian, Inc. or will provide
 assistance to any competitor of Gaussian, Inc.  The licensee
 of this program is prohibited from giving any competitor of
 Gaussian, Inc. access to this program.  By using this program,
 the user acknowledges that Gaussian, Inc. is engaged in the
 business of creating and licensing software in the field of
 computational chemistry and represents and warrants to the
 licensee that it is not a competitor of Gaussian, Inc. and that
 it will not use this program in any manner prohibited above.
 ---------------------------------------------------------------
  

 Cite this work as:
 Gaussian 16, Revision B.01,
 M. J. Frisch, G. W. Trucks, H. B. Schlegel, G. E. Scuseria, 
 M. A. Robb, J. R. Cheeseman, G. Scalmani, V. Barone, 
 G. A. Petersson, H. Nakatsuji, X. Li, M. Caricato, A. V. Marenich, 
 J. Bloino, B. G. Janesko, R. Gomperts, B. Mennucci, H. P. Hratchian, 
 J. V. Ortiz, A. F. Izmaylov, J. L. Sonnenberg, D. Williams-Young, 
 F. Ding, F. Lipparini, F. Egidi, J. Goings, B. Peng, A. Petrone, 
 T. Henderson, D. Ranasinghe, V. G. Zakrzewski, J. Gao, N. Rega, 
 G. Zheng, W. Liang, M. Hada, M. Ehara, K. Toyota, R. Fukuda, 
 J. Hasegawa, M. Ishida, T. Nakajima, Y. Honda, O. Kitao, H. Nakai, 
 T. Vreven, K. Throssell, J. A. Montgomery, Jr., J. E. Peralta, 
 F. Ogliaro, M. J. Bearpark, J. J. Heyd, E. N. Brothers, K. N. Kudin, 
 V. N. Staroverov, T. A. Keith, R. Kobayashi, J. Normand, 
 K. Raghavachari, A. P. Rendell, J. C. Burant, S. S. Iyengar, 
 J. Tomasi, M. Cossi, J. M. Millam, M. Klene, C. Adamo, R. Cammi, 
 J. W. Ochterski, R. L. Martin, K. Morokuma, O. Farkas, 
 J. B. Foresman, and D. J. Fox, Gaussian, Inc., Wallingford CT, 2016.
 
 ******************************************
 Gaussian 16:  ES64L-G16RevB.01 20-Dec-2017
                 3-Aug-2020 
 ******************************************
 %chk=meso-TS_28_1_xp-115.chk
 %nproc=24
 Will use up to   24 processors via shared memory.
 %mem=48GB
 ----------------------------------------------------------------------
 #p uwb97xd guess=mix def2tzvp # scrf=(iefpcm,solvent=Cyclohexane,read)
  nosym guess=only pop=none
 ----------------------------------------------------------------------
 1/38=1,40=2,172=1/1;
 2/12=2,15=1,17=6,18=5,40=1/2;
 3/5=44,7=101,11=2,25=1,30=1,70=2203,72=17,74=-58,89=1,116=2/1,2;
 4/13=-1/1;
 99/5=2/99;
 Leave Link    1 at Mon Aug  3 17:36:00 2020, MaxMem=  6442450944 cpu:               1.5 elap:               0.1
 (Enter /scratch/scicomp/CentOS/7.3.1611/Haswell/software/Gaussian/g16/l101.exe)
 -----------------------
 endo-2 xp-pcm for eta=3
 -----------------------
 Symbolic Z-matrix:
 Charge =  0 Multiplicity = 1
 6                    -3.13093  -0.42393   0.23061 
 6                    -0.40267  -0.12519  -0.66171 
 1                    -4.12172  -0.5441    0.65102 
 1                     0.32493  -0.12603  -1.47787 
 6                     1.1047    1.44386   0.61466 
 6                     0.40267   0.12519   0.66171 
 1                     0.57031   2.34209   0.89702 
 1                    -0.32493   0.12603   1.47787 
 6                     1.42607  -0.98372   0.93657 
 1                     1.82768  -0.8303    1.94152 
 1                     0.94004  -1.96043   0.93466 
 6                     2.40205   1.5339    0.1426 
 1                     2.86056   2.51289   0.05474 
 6                     3.13093   0.42393  -0.23061 
 1                     4.12172   0.5441   -0.65102 
 6                     2.58456  -0.95794  -0.06035 
 1                     2.25812  -1.34829  -1.03374 
 1                     3.377    -1.63473   0.27045 
 6                    -1.1047   -1.44386  -0.61466 
 1                    -0.57031  -2.34209  -0.89702 
 6                    -2.40205  -1.5339   -0.1426 
 1                    -2.86056  -2.51289  -0.05474 
 6                    -1.42607   0.98372  -0.93657 
 1                    -0.94004   1.96043  -0.93466 
 1                    -1.82768   0.8303   -1.94152 
 6                    -2.58456   0.95794   0.06035 
 1                    -3.377     1.63473  -0.27045 
 1                    -2.25812   1.34829   1.03374 
 
 ITRead=  0  0  0  0  0  0  0  0  0  0  0  0  0  0  0  0  0  0  0  0
 ITRead=  0  0  0  0  0  0  0  0
 MicOpt= -1 -1 -1 -1 -1 -1 -1 -1 -1 -1 -1 -1 -1 -1 -1 -1 -1 -1 -1 -1
 MicOpt= -1 -1 -1 -1 -1 -1 -1 -1
 NAtoms=     28 NQM=       28 NQMF=       0 NMMI=      0 NMMIF=      0
                NMic=       0 NMicF=      0.
                    Isotopes and Nuclear Properties:
 (Nuclear quadrupole moments (NQMom) in fm**2, nuclear magnetic moments (NMagM)
  in nuclear magnetons)

  Atom         1           2           3           4           5           6           7           8           9          10
 IAtWgt=          12          12           1           1          12          12           1           1          12           1
 AtmWgt=  12.0000000  12.0000000   1.0078250   1.0078250  12.0000000  12.0000000   1.0078250   1.0078250  12.0000000   1.0078250
 NucSpn=           0           0           1           1           0           0           1           1           0           1
 AtZEff=  -0.0000000  -0.0000000  -0.0000000  -0.0000000  -0.0000000  -0.0000000  -0.0000000  -0.0000000  -0.0000000  -0.0000000
 NQMom=    0.0000000   0.0000000   0.0000000   0.0000000   0.0000000   0.0000000   0.0000000   0.0000000   0.0000000   0.0000000
 NMagM=    0.0000000   0.0000000   2.7928460   2.7928460   0.0000000   0.0000000   2.7928460   2.7928460   0.0000000   2.7928460
 AtZNuc=   6.0000000   6.0000000   1.0000000   1.0000000   6.0000000   6.0000000   1.0000000   1.0000000   6.0000000   1.0000000

  Atom        11          12          13          14          15          16          17          18          19          20
 IAtWgt=           1          12           1          12           1          12           1           1          12           1
 AtmWgt=   1.0078250  12.0000000   1.0078250  12.0000000   1.0078250  12.0000000   1.0078250   1.0078250  12.0000000   1.0078250
 NucSpn=           1           0           1           0           1           0           1           1           0           1
 AtZEff=  -0.0000000  -0.0000000  -0.0000000  -0.0000000  -0.0000000  -0.0000000  -0.0000000  -0.0000000  -0.0000000  -0.0000000
 NQMom=    0.0000000   0.0000000   0.0000000   0.0000000   0.0000000   0.0000000   0.0000000   0.0000000   0.0000000   0.0000000
 NMagM=    2.7928460   0.0000000   2.7928460   0.0000000   2.7928460   0.0000000   2.7928460   2.7928460   0.0000000   2.7928460
 AtZNuc=   1.0000000   6.0000000   1.0000000   6.0000000   1.0000000   6.0000000   1.0000000   1.0000000   6.0000000   1.0000000

  Atom        21          22          23          24          25          26          27          28
 IAtWgt=          12           1          12           1           1          12           1           1
 AtmWgt=  12.0000000   1.0078250  12.0000000   1.0078250   1.0078250  12.0000000   1.0078250   1.0078250
 NucSpn=           0           1           0           1           1           0           1           1
 AtZEff=  -0.0000000  -0.0000000  -0.0000000  -0.0000000  -0.0000000  -0.0000000  -0.0000000  -0.0000000
 NQMom=    0.0000000   0.0000000   0.0000000   0.0000000   0.0000000   0.0000000   0.0000000   0.0000000
 NMagM=    0.0000000   2.7928460   0.0000000   2.7928460   2.7928460   0.0000000   2.7928460   2.7928460
 AtZNuc=   6.0000000   1.0000000   6.0000000   1.0000000   1.0000000   6.0000000   1.0000000   1.0000000
 Leave Link  101 at Mon Aug  3 17:36:00 2020, MaxMem=  6442450944 cpu:               2.4 elap:               0.1
 (Enter /scratch/scicomp/CentOS/7.3.1611/Haswell/software/Gaussian/g16/l202.exe)
                          Input orientation:                          
 ---------------------------------------------------------------------
 Center     Atomic      Atomic             Coordinates (Angstroms)
 Number     Number       Type             X           Y           Z
 ---------------------------------------------------------------------
      1          6           0       -3.130926   -0.423925    0.230614
      2          6           0       -0.402668   -0.125188   -0.661714
      3          1           0       -4.121721   -0.544101    0.651020
      4          1           0        0.324925   -0.126026   -1.477873
      5          6           0        1.104701    1.443859    0.614659
      6          6           0        0.402668    0.125188    0.661714
      7          1           0        0.570306    2.342088    0.897018
      8          1           0       -0.324925    0.126026    1.477873
      9          6           0        1.426074   -0.983719    0.936566
     10          1           0        1.827679   -0.830304    1.941515
     11          1           0        0.940037   -1.960429    0.934664
     12          6           0        2.402045    1.533898    0.142597
     13          1           0        2.860563    2.512891    0.054740
     14          6           0        3.130926    0.423925   -0.230614
     15          1           0        4.121721    0.544101   -0.651020
     16          6           0        2.584558   -0.957939   -0.060346
     17          1           0        2.258123   -1.348285   -1.033742
     18          1           0        3.376997   -1.634728    0.270453
     19          6           0       -1.104701   -1.443859   -0.614659
     20          1           0       -0.570306   -2.342088   -0.897018
     21          6           0       -2.402045   -1.533898   -0.142597
     22          1           0       -2.860563   -2.512891   -0.054740
     23          6           0       -1.426074    0.983719   -0.936566
     24          1           0       -0.940037    1.960429   -0.934664
     25          1           0       -1.827679    0.830304   -1.941515
     26          6           0       -2.584558    0.957939    0.060346
     27          1           0       -3.376997    1.634728   -0.270453
     28          1           0       -2.258122    1.348285    1.033742
 ---------------------------------------------------------------------
                    Distance matrix (angstroms):
                    1          2          3          4          5
     1  C    0.000000
     2  C    2.885981   0.000000
     3  H    1.082986   3.966121   0.000000
     4  H    3.866598   1.093393   4.947690   0.000000
     5  C    4.645067   2.522538   5.591851   2.729703   0.000000
     6  C    3.601897   1.569304   4.573637   2.155687   1.494643
     7  H    4.668409   3.076325   5.514138   3.433934   1.082645
     8  H    3.119574   2.155687   3.943148   3.036819   2.127358
     9  C    4.645211   2.576019   5.572507   2.788850   2.469826
    10  H    5.261187   3.499777   6.094477   3.800854   2.730396
    11  H    4.407865   2.778379   5.263823   3.092528   3.423258
    12  C    5.869803   3.356471   6.865573   3.113792   1.383492
    13  H    6.674860   4.256929   7.645459   3.967650   2.130584
    14  C    6.335801   3.601897   7.369887   3.119574   2.420814
    15  H    7.369887   4.573637   8.416283   3.943148   3.393216
    16  C    5.747746   3.158898   6.756588   2.794173   2.900731
    17  H    5.612031   2.951979   6.647371   2.329898   3.441464
    18  H    6.619720   4.175346   7.587165   3.827267   3.841810
    19  C    2.420814   1.494643   3.393216   2.127358   3.838176
    20  H    3.392297   2.235647   4.271034   2.459626   4.407291
    21  C    1.379346   2.500291   2.137010   3.346854   4.662375
    22  H    2.125630   3.480056   2.442284   4.227265   5.641568
    23  C    2.500058   1.533812   3.481548   2.142556   3.003806
    24  H    3.441368   2.170960   4.348583   2.499700   2.616907
    25  H    2.826604   2.140447   3.724628   2.400674   3.938188
    26  C    1.495680   2.540704   2.228876   3.464995   3.762182
    27  H    2.132996   3.478077   2.480125   4.273446   4.572250
    28  H    2.132494   2.913486   2.683394   3.892805   3.390183
                    6          7          8          9         10
     6  C    0.000000
     7  H    2.235647   0.000000
     8  H    1.093393   2.459626   0.000000
     9  C    1.533812   3.434370   2.142556   0.000000
    10  H    2.140447   3.568758   2.400674   1.093044   0.000000
    11  H    2.170960   4.318538   2.499700   1.090962   1.754662
    12  C    2.500291   2.139530   3.346854   2.814481   3.025798
    13  H    3.480056   2.446198   4.227265   3.880935   3.975390
    14  C    2.885981   3.392297   3.866598   2.500058   2.826604
    15  H    3.966121   4.271034   4.947690   3.481548   3.724628
    16  C    2.540704   3.982956   3.464995   1.528589   2.143969
    17  H    2.913487   4.493931   3.892806   2.169638   3.050531
    18  H    3.478077   4.907664   4.273446   2.161856   2.416595
    19  C    2.522538   4.407291   2.729703   3.003806   3.938188
    20  H    3.076325   5.144032   3.433934   3.031951   4.011620
    21  C    3.356471   4.993890   3.113792   4.015194   4.767508
    22  H    4.256929   6.020592   3.967650   4.657930   5.366167
    23  C    2.576019   3.031951   2.788850   3.938805   4.707541
    24  H    2.778379   2.404550   3.092528   4.215209   4.870405
    25  H    3.499777   4.011620   3.800854   4.707541   5.585444
    26  C    3.158898   3.545286   2.794173   4.541252   5.119028
    27  H    4.175346   4.176667   3.827267   5.602022   6.169103
    28  H    2.951978   3.001057   2.329897   4.361306   4.718482
                   11         12         13         14         15
    11  H    0.000000
    12  C    3.869775   0.000000
    13  H    4.947047   1.084613   0.000000
    14  C    3.441368   1.379346   2.125630   0.000000
    15  H    4.348583   2.137010   2.442284   1.082986   0.000000
    16  C    2.167829   2.506741   3.483688   1.495680   2.228876
    17  H    2.446772   3.116322   4.056650   2.132493   2.683393
    18  H    2.546769   3.317690   4.185210   2.132996   2.480125
    19  C    2.616907   4.662375   5.641568   4.645067   5.591851
    20  H    2.404550   4.993890   6.020592   4.668409   5.514138
    21  C    3.537221   5.707187   6.641573   5.869803   6.865573
    22  H    3.965942   6.641573   7.615888   6.674860   7.645459
    23  C    4.215209   4.015194   4.657930   4.645211   5.572507
    24  H    4.733095   3.537221   3.965942   4.407865   5.263823
    25  H    4.870405   4.767508   5.366167   5.261187   6.094477
    26  C    4.658763   5.020429   5.662795   5.747746   6.756588
    27  H    5.745802   5.794662   6.307462   6.619720   7.587165
    28  H    4.602785   4.748236   5.340008   5.612030   6.647370
                   16         17         18         19         20
    16  C    0.000000
    17  H    1.098376   0.000000
    18  H    1.093358   1.742083   0.000000
    19  C    3.762182   3.390184   4.572250   0.000000
    20  H    3.545286   3.001058   4.176667   1.082645   0.000000
    21  C    5.020429   4.748237   5.794662   1.383492   2.139530
    22  H    5.662795   5.340009   6.307462   2.130584   2.446198
    23  C    4.541252   4.361306   5.602022   2.469826   3.434370
    24  H    4.658763   4.602785   5.745802   3.423258   4.318538
    25  H    5.119028   4.718483   6.169103   2.730396   3.568758
    26  C    5.514065   5.474236   6.504322   2.900731   3.982956
    27  H    6.504322   6.421492   7.523188   3.841810   4.907664
    28  H    5.474235   5.651765   6.421491   3.441464   4.493930
                   21         22         23         24         25
    21  C    0.000000
    22  H    1.084613   0.000000
    23  C    2.814481   3.880935   0.000000
    24  H    3.869775   4.947047   1.090962   0.000000
    25  H    3.025798   3.975390   1.093044   1.754662   0.000000
    26  C    2.506741   3.483688   1.528589   2.167829   2.143969
    27  H    3.317690   4.185210   2.161856   2.546769   2.416595
    28  H    3.116323   4.056650   2.169637   2.446771   3.050531
                   26         27         28
    26  C    0.000000
    27  H    1.093358   0.000000
    28  H    1.098376   1.742084   0.000000
 Symmetry turned off by external request.
 Stoichiometry    C12H16
 Framework group  CI[X(C12H16)]
 Deg. of freedom    39
 Full point group                 CI      NOp   2
 Rotational constants (GHZ):           2.0274357           0.6492368           0.5545682
 Leave Link  202 at Mon Aug  3 17:36:00 2020, MaxMem=  6442450944 cpu:               0.3 elap:               0.0
 (Enter /scratch/scicomp/CentOS/7.3.1611/Haswell/software/Gaussian/g16/l301.exe)
 Standard basis: def2TZVP (5D, 7F)
 Ernie: Thresh=  0.10000D-02 Tol=  0.10000D-05 Strict=F.
   468 basis functions,   740 primitive gaussians,   528 cartesian basis functions
    44 alpha electrons       44 beta electrons
       nuclear repulsion energy       697.6336556829 Hartrees.
 IExCor= 4639 DFT=T Ex+Corr=wB97XD ExCW=0 ScaHFX=  1.000000
 ScaDFX=  1.000000  1.000000  1.000000  1.000000 ScalE2=  1.000000  1.000000
 IRadAn=      5 IRanWt=     -1 IRanGd=            0 ICorTp=0 IEmpDi=121
 HFx  wShort=  0.000000 wLong=  0.200000 cFull=  0.222036 cShort=  0.000000 cLong=  0.777964
 DFx  wShort=  0.000000 wLong=  0.200000 cFull=  0.000000 cShort=  0.000000 cLong=  1.000000
 NAtoms=   28 NActive=   28 NUniq=   28 SFac= 1.00D+00 NAtFMM=   60 NAOKFM=F Big=F
 Integral buffers will be    131072 words long.
 Raffenetti 2 integral format.
 Two-electron integral symmetry is turned off.
 R6Disp:  Grimme-D2 Dispersion energy=       -0.0228815295 Hartrees.
 Nuclear repulsion after empirical dispersion term =      697.6107741534 Hartrees.
 Using the following non-standard input for PCM:
 qrep pcmdoc geomview  nodis nocav g03defaults tsare=0.075
 Warning! Using old PCM defaults because the g03defaults keyword was found.
 These settings can be overridden by following keywords.
 nsfe=28
 NVESolv=36  SolvMW=84.1595   Rsolv=2.815
 eps=2.0165 RhoS=0.7781
 --- end of non-standard input.
 Reading user-defined spheres from input:
 ISph  on   Nord    Re0     Alpha      Xe            Ye            Ze
 --- end of user-defined spheres data.
 ------------------------------------------------------------------------------
 Polarizable Continuum Model (PCM)
 =================================
 Model                : PCM.
 Atomic radii         : UA0 (Simple United Atom Topological Model).
 Polarization charges : Total charges.
 Charge compensation  : None.
 Solution method      : On-the-fly selection.
 Cavity type          : SES (Solvent Excluding Surface) (Alpha=1.000).
 Cavity algorithm     : GePol (RMin=0.200 OFac=0.890).
                        User-defined sphere list used, NSphG=   28.
                        Tesserae with average area of 0.075 Ang**2.
                        Smoothing algorithm: None.
                        Polarization charges: point-like.
                        Self-potential: constant (ISelfS= 1).
                        Self-field    : global E.n sum rule (ISelfD= 3).
 Solvent              : CycloHexane, Eps=   2.016500 Eps(inf)=   2.035188
                        RSolv=   2.815000 Ang.
 ------------------------------------------------------------------------------
 GePol: Number of generator spheres                  =      28
 GePol: Total number of spheres                      =     181
 GePol: Number of exposed spheres                    =     138 ( 76.24%)
 GePol: Number of tesserae                           =    4711
 GePol: Average area of tesserae                     =       0.04 Ang**2
 GePol: Minimum area of tessera                      =   0.10D-02 Ang**2
 GePol: Maximum area of tessera                      =    0.10589 Ang**2
 GePol: Number of small tesserae                     =       0
 GePol: Fraction of small tesserae (<1% of avg)      =       0.00%
 GePol: Total count of vertices                      =   16671
 GePol: Maximum number of vertices in a tessera      =       7
 GePol: Cavity surface area                          =    210.543 Ang**2
 GePol: Cavity volume                                =    229.273 Ang**3
 Leave Link  301 at Mon Aug  3 17:36:01 2020, MaxMem=  6442450944 cpu:               7.5 elap:               0.4
 (Enter /scratch/scicomp/CentOS/7.3.1611/Haswell/software/Gaussian/g16/l302.exe)
 NPDir=0 NMtPBC=     1 NCelOv=     1 NCel=       1 NClECP=     1 NCelD=      1
         NCelK=      1 NCelE2=     1 NClLst=     1 CellRange=     0.0.
 One-electron integrals computed using PRISM.
   1 Symmetry operations used in ECPInt.
 ECPInt:  NShTT=   19306 NPrTT=   56928 LenC2=   18548 LenP2D=   42366.
 LDataN:  DoStor=T MaxTD1= 6 Len=  172
 NBasis=   468 RedAO= T EigKep=  3.19D-05  NBF=   468
 NBsUse=   468 1.00D-06 EigRej= -1.00D+00 NBFU=   468
 Precomputing XC quadrature grid using
 IXCGrd= 4 IRadAn=           5 IRanWt=          -1 IRanGd=           0 AccXCQ= 0.00D+00.
 Generated NRdTot=       0 NPtTot=           0 NUsed=           0 NTot=          32
 NSgBfM=   526   526   526   526   526 MxSgAt=    28 MxSgA2=    28.
 Leave Link  302 at Mon Aug  3 17:36:01 2020, MaxMem=  6442450944 cpu:              11.8 elap:               0.5
 (Enter /scratch/scicomp/CentOS/7.3.1611/Haswell/software/Gaussian/g16/l401.exe)
 ExpMin= 9.52D-02 ExpMax= 1.36D+04 ExpMxC= 4.63D+02 IAcc=3 IRadAn=         5 AccDes= 0.00D+00
 Harris functional with IExCor= 4639 and IRadAn=       5 diagonalized for initial guess.
 HarFok:  IExCor= 4639 AccDes= 0.00D+00 IRadAn=         5 IDoV= 1 UseB2=F ITyADJ=14
 ICtDFT=  3500011 ScaDFX=  1.000000  1.000000  1.000000  1.000000
 FoFCou: FMM=F IPFlag=           0 FMFlag=      100000 FMFlg1=           0
         NFxFlg=           0 DoJE=T BraDBF=F KetDBF=T FulRan=T
         wScrn=  0.000000 ICntrl=       500 IOpCl=  0 I1Cent=   200000004 NGrid=           0
         NMat0=    1 NMatS0=      1 NMatT0=    0 NMatD0=    1 NMtDS0=    0 NMtDT0=    0
 Symmetry not used in FoFCou.
 Harris En= -444.576446354024    
 JPrj=0 DoOrth=F DoCkMO=T.
 Mixing orbitals, IMix= 1 IMixAn=  0 NRI=1 NE=   44 Coef=  7.07106781D-01  7.07106781D-01
 Mixing orbitals, IMix= 1 IMixAn=  0 NRI=1 NE=   44 Coef= -7.07106781D-01  7.07106781D-01
 Initial guess <Sx>= 0.0000 <Sy>= 0.0000 <Sz>= 0.0000 <S**2>= 1.0000 S= 0.6180
 Leave Link  401 at Mon Aug  3 17:36:04 2020, MaxMem=  6442450944 cpu:              48.1 elap:               2.1
 (Enter /scratch/scicomp/CentOS/7.3.1611/Haswell/software/Gaussian/g16/l9999.exe)

 This type of calculation cannot be archived.


 KNOWING HOW CONTENTED, FREE, AND JOYFUL IS LIFE IN
 THE REALMS OF SCIENCE, ONE FERVENTLY WISHES THAT
 MANY WOULD ENTER HER PORTALS.
   --  DMITRI IVANOVICH MENDELEEV
 "FIRST PRINCIPLES OF CHEMISTRY", LONGMANS, GREEN,
 AND CO.  LONDON, 1891
 Job cpu time:       0 days  0 hours  1 minutes 12.6 seconds.
 Elapsed time:       0 days  0 hours  0 minutes  3.3 seconds.
 File lengths (MBytes):  RWF=    406 Int=      0 D2E=      0 Chk=      1 Scr=      1
 Normal termination of Gaussian 16 at Mon Aug  3 17:36:04 2020.
 Initial command:
 /scratch/scicomp/CentOS/7.3.1611/Haswell/software/Gaussian/g16/l1.exe "/scratch/bochen/cyclohexadiene-dimerization/wb97xd-def2tzvp/xp-pcm/meso/Gau-118581.inp" -scrdir="/scratch/bochen/cyclohexadiene-dimerization/wb97xd-def2tzvp/xp-pcm/meso/"
 Entering Link 1 = /scratch/scicomp/CentOS/7.3.1611/Haswell/software/Gaussian/g16/l1.exe PID=    118907.
  
 Copyright (c) 1988-2017, Gaussian, Inc.  All Rights Reserved.
  
 This is part of the Gaussian(R) 16 program.  It is based on
 the Gaussian(R) 09 system (copyright 2009, Gaussian, Inc.),
 the Gaussian(R) 03 system (copyright 2003, Gaussian, Inc.),
 the Gaussian(R) 98 system (copyright 1998, Gaussian, Inc.),
 the Gaussian(R) 94 system (copyright 1995, Gaussian, Inc.),
 the Gaussian 92(TM) system (copyright 1992, Gaussian, Inc.),
 the Gaussian 90(TM) system (copyright 1990, Gaussian, Inc.),
 the Gaussian 88(TM) system (copyright 1988, Gaussian, Inc.),
 the Gaussian 86(TM) system (copyright 1986, Carnegie Mellon
 University), and the Gaussian 82(TM) system (copyright 1983,
 Carnegie Mellon University). Gaussian is a federally registered
 trademark of Gaussian, Inc.
  
 This software contains proprietary and confidential information,
 including trade secrets, belonging to Gaussian, Inc.
  
 This software is provided under written license and may be
 used, copied, transmitted, or stored only in accord with that
 written license.
  
 The following legend is applicable only to US Government
 contracts under FAR:
  
                    RESTRICTED RIGHTS LEGEND
  
 Use, reproduction and disclosure by the US Government is
 subject to restrictions as set forth in subparagraphs (a)
 and (c) of the Commercial Computer Software - Restricted
 Rights clause in FAR 52.227-19.
  
 Gaussian, Inc.
 340 Quinnipiac St., Bldg. 40, Wallingford CT 06492
  
  
 ---------------------------------------------------------------
 Warning -- This program may not be used in any manner that
 competes with the business of Gaussian, Inc. or will provide
 assistance to any competitor of Gaussian, Inc.  The licensee
 of this program is prohibited from giving any competitor of
 Gaussian, Inc. access to this program.  By using this program,
 the user acknowledges that Gaussian, Inc. is engaged in the
 business of creating and licensing software in the field of
 computational chemistry and represents and warrants to the
 licensee that it is not a competitor of Gaussian, Inc. and that
 it will not use this program in any manner prohibited above.
 ---------------------------------------------------------------
  

 Cite this work as:
 Gaussian 16, Revision B.01,
 M. J. Frisch, G. W. Trucks, H. B. Schlegel, G. E. Scuseria, 
 M. A. Robb, J. R. Cheeseman, G. Scalmani, V. Barone, 
 G. A. Petersson, H. Nakatsuji, X. Li, M. Caricato, A. V. Marenich, 
 J. Bloino, B. G. Janesko, R. Gomperts, B. Mennucci, H. P. Hratchian, 
 J. V. Ortiz, A. F. Izmaylov, J. L. Sonnenberg, D. Williams-Young, 
 F. Ding, F. Lipparini, F. Egidi, J. Goings, B. Peng, A. Petrone, 
 T. Henderson, D. Ranasinghe, V. G. Zakrzewski, J. Gao, N. Rega, 
 G. Zheng, W. Liang, M. Hada, M. Ehara, K. Toyota, R. Fukuda, 
 J. Hasegawa, M. Ishida, T. Nakajima, Y. Honda, O. Kitao, H. Nakai, 
 T. Vreven, K. Throssell, J. A. Montgomery, Jr., J. E. Peralta, 
 F. Ogliaro, M. J. Bearpark, J. J. Heyd, E. N. Brothers, K. N. Kudin, 
 V. N. Staroverov, T. A. Keith, R. Kobayashi, J. Normand, 
 K. Raghavachari, A. P. Rendell, J. C. Burant, S. S. Iyengar, 
 J. Tomasi, M. Cossi, J. M. Millam, M. Klene, C. Adamo, R. Cammi, 
 J. W. Ochterski, R. L. Martin, K. Morokuma, O. Farkas, 
 J. B. Foresman, and D. J. Fox, Gaussian, Inc., Wallingford CT, 2016.
 
 ******************************************
 Gaussian 16:  ES64L-G16RevB.01 20-Dec-2017
                 3-Aug-2020 
 ******************************************
 %chk=meso-TS_28_1_xp-110.chk
 %nproc=24
 Will use up to   24 processors via shared memory.
 %mem=48GB
 ----------------------------------------------------------------------
 #p uwb97xd guess=mix def2tzvp # scrf=(iefpcm,solvent=Cyclohexane,read)
  nosym guess=only pop=none
 ----------------------------------------------------------------------
 1/38=1,40=2,172=1/1;
 2/12=2,15=1,17=6,18=5,40=1/2;
 3/5=44,7=101,11=2,25=1,30=1,70=2203,72=17,74=-58,89=1,116=2/1,2;
 4/13=-1/1;
 99/5=2/99;
 Leave Link    1 at Mon Aug  3 17:36:04 2020, MaxMem=  6442450944 cpu:               1.5 elap:               0.1
 (Enter /scratch/scicomp/CentOS/7.3.1611/Haswell/software/Gaussian/g16/l101.exe)
 -----------------------
 endo-2 xp-pcm for eta=3
 -----------------------
 Symbolic Z-matrix:
 Charge =  0 Multiplicity = 1
 6                    -3.13093  -0.42393   0.23061 
 6                    -0.40267  -0.12519  -0.66171 
 1                    -4.12172  -0.5441    0.65102 
 1                     0.32493  -0.12603  -1.47787 
 6                     1.1047    1.44386   0.61466 
 6                     0.40267   0.12519   0.66171 
 1                     0.57031   2.34209   0.89702 
 1                    -0.32493   0.12603   1.47787 
 6                     1.42607  -0.98372   0.93657 
 1                     1.82768  -0.8303    1.94152 
 1                     0.94004  -1.96043   0.93466 
 6                     2.40205   1.5339    0.1426 
 1                     2.86056   2.51289   0.05474 
 6                     3.13093   0.42393  -0.23061 
 1                     4.12172   0.5441   -0.65102 
 6                     2.58456  -0.95794  -0.06035 
 1                     2.25812  -1.34829  -1.03374 
 1                     3.377    -1.63473   0.27045 
 6                    -1.1047   -1.44386  -0.61466 
 1                    -0.57031  -2.34209  -0.89702 
 6                    -2.40205  -1.5339   -0.1426 
 1                    -2.86056  -2.51289  -0.05474 
 6                    -1.42607   0.98372  -0.93657 
 1                    -0.94004   1.96043  -0.93466 
 1                    -1.82768   0.8303   -1.94152 
 6                    -2.58456   0.95794   0.06035 
 1                    -3.377     1.63473  -0.27045 
 1                    -2.25812   1.34829   1.03374 
 
 ITRead=  0  0  0  0  0  0  0  0  0  0  0  0  0  0  0  0  0  0  0  0
 ITRead=  0  0  0  0  0  0  0  0
 MicOpt= -1 -1 -1 -1 -1 -1 -1 -1 -1 -1 -1 -1 -1 -1 -1 -1 -1 -1 -1 -1
 MicOpt= -1 -1 -1 -1 -1 -1 -1 -1
 NAtoms=     28 NQM=       28 NQMF=       0 NMMI=      0 NMMIF=      0
                NMic=       0 NMicF=      0.
                    Isotopes and Nuclear Properties:
 (Nuclear quadrupole moments (NQMom) in fm**2, nuclear magnetic moments (NMagM)
  in nuclear magnetons)

  Atom         1           2           3           4           5           6           7           8           9          10
 IAtWgt=          12          12           1           1          12          12           1           1          12           1
 AtmWgt=  12.0000000  12.0000000   1.0078250   1.0078250  12.0000000  12.0000000   1.0078250   1.0078250  12.0000000   1.0078250
 NucSpn=           0           0           1           1           0           0           1           1           0           1
 AtZEff=  -0.0000000  -0.0000000  -0.0000000  -0.0000000  -0.0000000  -0.0000000  -0.0000000  -0.0000000  -0.0000000  -0.0000000
 NQMom=    0.0000000   0.0000000   0.0000000   0.0000000   0.0000000   0.0000000   0.0000000   0.0000000   0.0000000   0.0000000
 NMagM=    0.0000000   0.0000000   2.7928460   2.7928460   0.0000000   0.0000000   2.7928460   2.7928460   0.0000000   2.7928460
 AtZNuc=   6.0000000   6.0000000   1.0000000   1.0000000   6.0000000   6.0000000   1.0000000   1.0000000   6.0000000   1.0000000

  Atom        11          12          13          14          15          16          17          18          19          20
 IAtWgt=           1          12           1          12           1          12           1           1          12           1
 AtmWgt=   1.0078250  12.0000000   1.0078250  12.0000000   1.0078250  12.0000000   1.0078250   1.0078250  12.0000000   1.0078250
 NucSpn=           1           0           1           0           1           0           1           1           0           1
 AtZEff=  -0.0000000  -0.0000000  -0.0000000  -0.0000000  -0.0000000  -0.0000000  -0.0000000  -0.0000000  -0.0000000  -0.0000000
 NQMom=    0.0000000   0.0000000   0.0000000   0.0000000   0.0000000   0.0000000   0.0000000   0.0000000   0.0000000   0.0000000
 NMagM=    2.7928460   0.0000000   2.7928460   0.0000000   2.7928460   0.0000000   2.7928460   2.7928460   0.0000000   2.7928460
 AtZNuc=   1.0000000   6.0000000   1.0000000   6.0000000   1.0000000   6.0000000   1.0000000   1.0000000   6.0000000   1.0000000

  Atom        21          22          23          24          25          26          27          28
 IAtWgt=          12           1          12           1           1          12           1           1
 AtmWgt=  12.0000000   1.0078250  12.0000000   1.0078250   1.0078250  12.0000000   1.0078250   1.0078250
 NucSpn=           0           1           0           1           1           0           1           1
 AtZEff=  -0.0000000  -0.0000000  -0.0000000  -0.0000000  -0.0000000  -0.0000000  -0.0000000  -0.0000000
 NQMom=    0.0000000   0.0000000   0.0000000   0.0000000   0.0000000   0.0000000   0.0000000   0.0000000
 NMagM=    0.0000000   2.7928460   0.0000000   2.7928460   2.7928460   0.0000000   2.7928460   2.7928460
 AtZNuc=   6.0000000   1.0000000   6.0000000   1.0000000   1.0000000   6.0000000   1.0000000   1.0000000
 Leave Link  101 at Mon Aug  3 17:36:04 2020, MaxMem=  6442450944 cpu:               2.4 elap:               0.1
 (Enter /scratch/scicomp/CentOS/7.3.1611/Haswell/software/Gaussian/g16/l202.exe)
                          Input orientation:                          
 ---------------------------------------------------------------------
 Center     Atomic      Atomic             Coordinates (Angstroms)
 Number     Number       Type             X           Y           Z
 ---------------------------------------------------------------------
      1          6           0       -3.130926   -0.423925    0.230614
      2          6           0       -0.402668   -0.125188   -0.661714
      3          1           0       -4.121721   -0.544101    0.651020
      4          1           0        0.324925   -0.126026   -1.477873
      5          6           0        1.104701    1.443859    0.614659
      6          6           0        0.402668    0.125188    0.661714
      7          1           0        0.570306    2.342088    0.897018
      8          1           0       -0.324925    0.126026    1.477873
      9          6           0        1.426074   -0.983719    0.936566
     10          1           0        1.827679   -0.830304    1.941515
     11          1           0        0.940037   -1.960429    0.934664
     12          6           0        2.402045    1.533898    0.142597
     13          1           0        2.860563    2.512891    0.054740
     14          6           0        3.130926    0.423925   -0.230614
     15          1           0        4.121721    0.544101   -0.651020
     16          6           0        2.584558   -0.957939   -0.060346
     17          1           0        2.258123   -1.348285   -1.033742
     18          1           0        3.376997   -1.634728    0.270453
     19          6           0       -1.104701   -1.443859   -0.614659
     20          1           0       -0.570306   -2.342088   -0.897018
     21          6           0       -2.402045   -1.533898   -0.142597
     22          1           0       -2.860563   -2.512891   -0.054740
     23          6           0       -1.426074    0.983719   -0.936566
     24          1           0       -0.940037    1.960429   -0.934664
     25          1           0       -1.827679    0.830304   -1.941515
     26          6           0       -2.584558    0.957939    0.060346
     27          1           0       -3.376997    1.634728   -0.270453
     28          1           0       -2.258122    1.348285    1.033742
 ---------------------------------------------------------------------
                    Distance matrix (angstroms):
                    1          2          3          4          5
     1  C    0.000000
     2  C    2.885981   0.000000
     3  H    1.082986   3.966121   0.000000
     4  H    3.866598   1.093393   4.947690   0.000000
     5  C    4.645067   2.522538   5.591851   2.729703   0.000000
     6  C    3.601897   1.569304   4.573637   2.155687   1.494643
     7  H    4.668409   3.076325   5.514138   3.433934   1.082645
     8  H    3.119574   2.155687   3.943148   3.036819   2.127358
     9  C    4.645211   2.576019   5.572507   2.788850   2.469826
    10  H    5.261187   3.499777   6.094477   3.800854   2.730396
    11  H    4.407865   2.778379   5.263823   3.092528   3.423258
    12  C    5.869803   3.356471   6.865573   3.113792   1.383492
    13  H    6.674860   4.256929   7.645459   3.967650   2.130584
    14  C    6.335801   3.601897   7.369887   3.119574   2.420814
    15  H    7.369887   4.573637   8.416283   3.943148   3.393216
    16  C    5.747746   3.158898   6.756588   2.794173   2.900731
    17  H    5.612031   2.951979   6.647371   2.329898   3.441464
    18  H    6.619720   4.175346   7.587165   3.827267   3.841810
    19  C    2.420814   1.494643   3.393216   2.127358   3.838176
    20  H    3.392297   2.235647   4.271034   2.459626   4.407291
    21  C    1.379346   2.500291   2.137010   3.346854   4.662375
    22  H    2.125630   3.480056   2.442284   4.227265   5.641568
    23  C    2.500058   1.533812   3.481548   2.142556   3.003806
    24  H    3.441368   2.170960   4.348583   2.499700   2.616907
    25  H    2.826604   2.140447   3.724628   2.400674   3.938188
    26  C    1.495680   2.540704   2.228876   3.464995   3.762182
    27  H    2.132996   3.478077   2.480125   4.273446   4.572250
    28  H    2.132494   2.913486   2.683394   3.892805   3.390183
                    6          7          8          9         10
     6  C    0.000000
     7  H    2.235647   0.000000
     8  H    1.093393   2.459626   0.000000
     9  C    1.533812   3.434370   2.142556   0.000000
    10  H    2.140447   3.568758   2.400674   1.093044   0.000000
    11  H    2.170960   4.318538   2.499700   1.090962   1.754662
    12  C    2.500291   2.139530   3.346854   2.814481   3.025798
    13  H    3.480056   2.446198   4.227265   3.880935   3.975390
    14  C    2.885981   3.392297   3.866598   2.500058   2.826604
    15  H    3.966121   4.271034   4.947690   3.481548   3.724628
    16  C    2.540704   3.982956   3.464995   1.528589   2.143969
    17  H    2.913487   4.493931   3.892806   2.169638   3.050531
    18  H    3.478077   4.907664   4.273446   2.161856   2.416595
    19  C    2.522538   4.407291   2.729703   3.003806   3.938188
    20  H    3.076325   5.144032   3.433934   3.031951   4.011620
    21  C    3.356471   4.993890   3.113792   4.015194   4.767508
    22  H    4.256929   6.020592   3.967650   4.657930   5.366167
    23  C    2.576019   3.031951   2.788850   3.938805   4.707541
    24  H    2.778379   2.404550   3.092528   4.215209   4.870405
    25  H    3.499777   4.011620   3.800854   4.707541   5.585444
    26  C    3.158898   3.545286   2.794173   4.541252   5.119028
    27  H    4.175346   4.176667   3.827267   5.602022   6.169103
    28  H    2.951978   3.001057   2.329897   4.361306   4.718482
                   11         12         13         14         15
    11  H    0.000000
    12  C    3.869775   0.000000
    13  H    4.947047   1.084613   0.000000
    14  C    3.441368   1.379346   2.125630   0.000000
    15  H    4.348583   2.137010   2.442284   1.082986   0.000000
    16  C    2.167829   2.506741   3.483688   1.495680   2.228876
    17  H    2.446772   3.116322   4.056650   2.132493   2.683393
    18  H    2.546769   3.317690   4.185210   2.132996   2.480125
    19  C    2.616907   4.662375   5.641568   4.645067   5.591851
    20  H    2.404550   4.993890   6.020592   4.668409   5.514138
    21  C    3.537221   5.707187   6.641573   5.869803   6.865573
    22  H    3.965942   6.641573   7.615888   6.674860   7.645459
    23  C    4.215209   4.015194   4.657930   4.645211   5.572507
    24  H    4.733095   3.537221   3.965942   4.407865   5.263823
    25  H    4.870405   4.767508   5.366167   5.261187   6.094477
    26  C    4.658763   5.020429   5.662795   5.747746   6.756588
    27  H    5.745802   5.794662   6.307462   6.619720   7.587165
    28  H    4.602785   4.748236   5.340008   5.612030   6.647370
                   16         17         18         19         20
    16  C    0.000000
    17  H    1.098376   0.000000
    18  H    1.093358   1.742083   0.000000
    19  C    3.762182   3.390184   4.572250   0.000000
    20  H    3.545286   3.001058   4.176667   1.082645   0.000000
    21  C    5.020429   4.748237   5.794662   1.383492   2.139530
    22  H    5.662795   5.340009   6.307462   2.130584   2.446198
    23  C    4.541252   4.361306   5.602022   2.469826   3.434370
    24  H    4.658763   4.602785   5.745802   3.423258   4.318538
    25  H    5.119028   4.718483   6.169103   2.730396   3.568758
    26  C    5.514065   5.474236   6.504322   2.900731   3.982956
    27  H    6.504322   6.421492   7.523188   3.841810   4.907664
    28  H    5.474235   5.651765   6.421491   3.441464   4.493930
                   21         22         23         24         25
    21  C    0.000000
    22  H    1.084613   0.000000
    23  C    2.814481   3.880935   0.000000
    24  H    3.869775   4.947047   1.090962   0.000000
    25  H    3.025798   3.975390   1.093044   1.754662   0.000000
    26  C    2.506741   3.483688   1.528589   2.167829   2.143969
    27  H    3.317690   4.185210   2.161856   2.546769   2.416595
    28  H    3.116323   4.056650   2.169637   2.446771   3.050531
                   26         27         28
    26  C    0.000000
    27  H    1.093358   0.000000
    28  H    1.098376   1.742084   0.000000
 Symmetry turned off by external request.
 Stoichiometry    C12H16
 Framework group  CI[X(C12H16)]
 Deg. of freedom    39
 Full point group                 CI      NOp   2
 Rotational constants (GHZ):           2.0274357           0.6492368           0.5545682
 Leave Link  202 at Mon Aug  3 17:36:04 2020, MaxMem=  6442450944 cpu:               0.3 elap:               0.0
 (Enter /scratch/scicomp/CentOS/7.3.1611/Haswell/software/Gaussian/g16/l301.exe)
 Standard basis: def2TZVP (5D, 7F)
 Ernie: Thresh=  0.10000D-02 Tol=  0.10000D-05 Strict=F.
   468 basis functions,   740 primitive gaussians,   528 cartesian basis functions
    44 alpha electrons       44 beta electrons
       nuclear repulsion energy       697.6336556829 Hartrees.
 IExCor= 4639 DFT=T Ex+Corr=wB97XD ExCW=0 ScaHFX=  1.000000
 ScaDFX=  1.000000  1.000000  1.000000  1.000000 ScalE2=  1.000000  1.000000
 IRadAn=      5 IRanWt=     -1 IRanGd=            0 ICorTp=0 IEmpDi=121
 HFx  wShort=  0.000000 wLong=  0.200000 cFull=  0.222036 cShort=  0.000000 cLong=  0.777964
 DFx  wShort=  0.000000 wLong=  0.200000 cFull=  0.000000 cShort=  0.000000 cLong=  1.000000
 NAtoms=   28 NActive=   28 NUniq=   28 SFac= 1.00D+00 NAtFMM=   60 NAOKFM=F Big=F
 Integral buffers will be    131072 words long.
 Raffenetti 2 integral format.
 Two-electron integral symmetry is turned off.
 R6Disp:  Grimme-D2 Dispersion energy=       -0.0228815295 Hartrees.
 Nuclear repulsion after empirical dispersion term =      697.6107741534 Hartrees.
 Using the following non-standard input for PCM:
 qrep pcmdoc geomview  nodis nocav g03defaults tsare=0.075
 Warning! Using old PCM defaults because the g03defaults keyword was found.
 These settings can be overridden by following keywords.
 nsfe=28
 NVESolv=36  SolvMW=84.1595   Rsolv=2.815
 eps=2.0165 RhoS=0.7781
 --- end of non-standard input.
 Reading user-defined spheres from input:
 ISph  on   Nord    Re0     Alpha      Xe            Ye            Ze
 --- end of user-defined spheres data.
 ------------------------------------------------------------------------------
 Polarizable Continuum Model (PCM)
 =================================
 Model                : PCM.
 Atomic radii         : UA0 (Simple United Atom Topological Model).
 Polarization charges : Total charges.
 Charge compensation  : None.
 Solution method      : On-the-fly selection.
 Cavity type          : SES (Solvent Excluding Surface) (Alpha=1.000).
 Cavity algorithm     : GePol (RMin=0.200 OFac=0.890).
                        User-defined sphere list used, NSphG=   28.
                        Tesserae with average area of 0.075 Ang**2.
                        Smoothing algorithm: None.
                        Polarization charges: point-like.
                        Self-potential: constant (ISelfS= 1).
                        Self-field    : global E.n sum rule (ISelfD= 3).
 Solvent              : CycloHexane, Eps=   2.016500 Eps(inf)=   2.035188
                        RSolv=   2.815000 Ang.
 ------------------------------------------------------------------------------
 GePol: Number of generator spheres                  =      28
 GePol: Total number of spheres                      =     236
 GePol: Number of exposed spheres                    =     170 ( 72.03%)
 GePol: Number of tesserae                           =    4588
 GePol: Average area of tesserae                     =       0.04 Ang**2
 GePol: Minimum area of tessera                      =   0.10D-02 Ang**2
 GePol: Maximum area of tessera                      =    0.11641 Ang**2
 GePol: Number of small tesserae                     =       0
 GePol: Fraction of small tesserae (<1% of avg)      =       0.00%
 GePol: Total count of vertices                      =   16465
 GePol: Maximum number of vertices in a tessera      =       7
 GePol: Cavity surface area                          =    203.620 Ang**2
 GePol: Cavity volume                                =    215.631 Ang**3
 Leave Link  301 at Mon Aug  3 17:36:05 2020, MaxMem=  6442450944 cpu:               8.2 elap:               0.4
 (Enter /scratch/scicomp/CentOS/7.3.1611/Haswell/software/Gaussian/g16/l302.exe)
 NPDir=0 NMtPBC=     1 NCelOv=     1 NCel=       1 NClECP=     1 NCelD=      1
         NCelK=      1 NCelE2=     1 NClLst=     1 CellRange=     0.0.
 One-electron integrals computed using PRISM.
   1 Symmetry operations used in ECPInt.
 ECPInt:  NShTT=   19306 NPrTT=   56928 LenC2=   18548 LenP2D=   42366.
 LDataN:  DoStor=T MaxTD1= 6 Len=  172
 NBasis=   468 RedAO= T EigKep=  3.19D-05  NBF=   468
 NBsUse=   468 1.00D-06 EigRej= -1.00D+00 NBFU=   468
 Precomputing XC quadrature grid using
 IXCGrd= 4 IRadAn=           5 IRanWt=          -1 IRanGd=           0 AccXCQ= 0.00D+00.
 Generated NRdTot=       0 NPtTot=           0 NUsed=           0 NTot=          32
 NSgBfM=   526   526   526   526   526 MxSgAt=    28 MxSgA2=    28.
 Leave Link  302 at Mon Aug  3 17:36:05 2020, MaxMem=  6442450944 cpu:              12.6 elap:               0.6
 (Enter /scratch/scicomp/CentOS/7.3.1611/Haswell/software/Gaussian/g16/l401.exe)
 ExpMin= 9.52D-02 ExpMax= 1.36D+04 ExpMxC= 4.63D+02 IAcc=3 IRadAn=         5 AccDes= 0.00D+00
 Harris functional with IExCor= 4639 and IRadAn=       5 diagonalized for initial guess.
 HarFok:  IExCor= 4639 AccDes= 0.00D+00 IRadAn=         5 IDoV= 1 UseB2=F ITyADJ=14
 ICtDFT=  3500011 ScaDFX=  1.000000  1.000000  1.000000  1.000000
 FoFCou: FMM=F IPFlag=           0 FMFlag=      100000 FMFlg1=           0
         NFxFlg=           0 DoJE=T BraDBF=F KetDBF=T FulRan=T
         wScrn=  0.000000 ICntrl=       500 IOpCl=  0 I1Cent=   200000004 NGrid=           0
         NMat0=    1 NMatS0=      1 NMatT0=    0 NMatD0=    1 NMtDS0=    0 NMtDT0=    0
 Symmetry not used in FoFCou.
 Harris En= -444.576446354024    
 JPrj=0 DoOrth=F DoCkMO=T.
 Mixing orbitals, IMix= 1 IMixAn=  0 NRI=1 NE=   44 Coef=  7.07106781D-01  7.07106781D-01
 Mixing orbitals, IMix= 1 IMixAn=  0 NRI=1 NE=   44 Coef= -7.07106781D-01  7.07106781D-01
 Initial guess <Sx>= 0.0000 <Sy>= 0.0000 <Sz>= 0.0000 <S**2>= 1.0000 S= 0.6180
 Leave Link  401 at Mon Aug  3 17:36:07 2020, MaxMem=  6442450944 cpu:              48.2 elap:               2.1
 (Enter /scratch/scicomp/CentOS/7.3.1611/Haswell/software/Gaussian/g16/l9999.exe)

 This type of calculation cannot be archived.


 OF ALL THE WONDERS OF THE UNIVERSE, THE GREATEST IS MAN.

                                    -- ARISTOTLE
 Job cpu time:       0 days  0 hours  1 minutes 14.2 seconds.
 Elapsed time:       0 days  0 hours  0 minutes  3.4 seconds.
 File lengths (MBytes):  RWF=    386 Int=      0 D2E=      0 Chk=      1 Scr=      1
 Normal termination of Gaussian 16 at Mon Aug  3 17:36:07 2020.
 Initial command:
 /scratch/scicomp/CentOS/7.3.1611/Haswell/software/Gaussian/g16/l1.exe "/scratch/bochen/cyclohexadiene-dimerization/wb97xd-def2tzvp/xp-pcm/meso/Gau-118581.inp" -scrdir="/scratch/bochen/cyclohexadiene-dimerization/wb97xd-def2tzvp/xp-pcm/meso/"
 Entering Link 1 = /scratch/scicomp/CentOS/7.3.1611/Haswell/software/Gaussian/g16/l1.exe PID=    119072.
  
 Copyright (c) 1988-2017, Gaussian, Inc.  All Rights Reserved.
  
 This is part of the Gaussian(R) 16 program.  It is based on
 the Gaussian(R) 09 system (copyright 2009, Gaussian, Inc.),
 the Gaussian(R) 03 system (copyright 2003, Gaussian, Inc.),
 the Gaussian(R) 98 system (copyright 1998, Gaussian, Inc.),
 the Gaussian(R) 94 system (copyright 1995, Gaussian, Inc.),
 the Gaussian 92(TM) system (copyright 1992, Gaussian, Inc.),
 the Gaussian 90(TM) system (copyright 1990, Gaussian, Inc.),
 the Gaussian 88(TM) system (copyright 1988, Gaussian, Inc.),
 the Gaussian 86(TM) system (copyright 1986, Carnegie Mellon
 University), and the Gaussian 82(TM) system (copyright 1983,
 Carnegie Mellon University). Gaussian is a federally registered
 trademark of Gaussian, Inc.
  
 This software contains proprietary and confidential information,
 including trade secrets, belonging to Gaussian, Inc.
  
 This software is provided under written license and may be
 used, copied, transmitted, or stored only in accord with that
 written license.
  
 The following legend is applicable only to US Government
 contracts under FAR:
  
                    RESTRICTED RIGHTS LEGEND
  
 Use, reproduction and disclosure by the US Government is
 subject to restrictions as set forth in subparagraphs (a)
 and (c) of the Commercial Computer Software - Restricted
 Rights clause in FAR 52.227-19.
  
 Gaussian, Inc.
 340 Quinnipiac St., Bldg. 40, Wallingford CT 06492
  
  
 ---------------------------------------------------------------
 Warning -- This program may not be used in any manner that
 competes with the business of Gaussian, Inc. or will provide
 assistance to any competitor of Gaussian, Inc.  The licensee
 of this program is prohibited from giving any competitor of
 Gaussian, Inc. access to this program.  By using this program,
 the user acknowledges that Gaussian, Inc. is engaged in the
 business of creating and licensing software in the field of
 computational chemistry and represents and warrants to the
 licensee that it is not a competitor of Gaussian, Inc. and that
 it will not use this program in any manner prohibited above.
 ---------------------------------------------------------------
  

 Cite this work as:
 Gaussian 16, Revision B.01,
 M. J. Frisch, G. W. Trucks, H. B. Schlegel, G. E. Scuseria, 
 M. A. Robb, J. R. Cheeseman, G. Scalmani, V. Barone, 
 G. A. Petersson, H. Nakatsuji, X. Li, M. Caricato, A. V. Marenich, 
 J. Bloino, B. G. Janesko, R. Gomperts, B. Mennucci, H. P. Hratchian, 
 J. V. Ortiz, A. F. Izmaylov, J. L. Sonnenberg, D. Williams-Young, 
 F. Ding, F. Lipparini, F. Egidi, J. Goings, B. Peng, A. Petrone, 
 T. Henderson, D. Ranasinghe, V. G. Zakrzewski, J. Gao, N. Rega, 
 G. Zheng, W. Liang, M. Hada, M. Ehara, K. Toyota, R. Fukuda, 
 J. Hasegawa, M. Ishida, T. Nakajima, Y. Honda, O. Kitao, H. Nakai, 
 T. Vreven, K. Throssell, J. A. Montgomery, Jr., J. E. Peralta, 
 F. Ogliaro, M. J. Bearpark, J. J. Heyd, E. N. Brothers, K. N. Kudin, 
 V. N. Staroverov, T. A. Keith, R. Kobayashi, J. Normand, 
 K. Raghavachari, A. P. Rendell, J. C. Burant, S. S. Iyengar, 
 J. Tomasi, M. Cossi, J. M. Millam, M. Klene, C. Adamo, R. Cammi, 
 J. W. Ochterski, R. L. Martin, K. Morokuma, O. Farkas, 
 J. B. Foresman, and D. J. Fox, Gaussian, Inc., Wallingford CT, 2016.
 
 ******************************************
 Gaussian 16:  ES64L-G16RevB.01 20-Dec-2017
                 3-Aug-2020 
 ******************************************
 %chk=meso-TS_28_1_xp-105.chk
 %nproc=24
 Will use up to   24 processors via shared memory.
 %mem=48GB
 ----------------------------------------------------------------------
 #p uwb97xd guess=mix def2tzvp # scrf=(iefpcm,solvent=Cyclohexane,read)
  nosym guess=only pop=none
 ----------------------------------------------------------------------
 1/38=1,40=2,172=1/1;
 2/12=2,15=1,17=6,18=5,40=1/2;
 3/5=44,7=101,11=2,25=1,30=1,70=2203,72=17,74=-58,89=1,116=2/1,2;
 4/13=-1/1;
 99/5=2/99;
 Leave Link    1 at Mon Aug  3 17:36:08 2020, MaxMem=  6442450944 cpu:               1.5 elap:               0.1
 (Enter /scratch/scicomp/CentOS/7.3.1611/Haswell/software/Gaussian/g16/l101.exe)
 -----------------------
 endo-2 xp-pcm for eta=3
 -----------------------
 Symbolic Z-matrix:
 Charge =  0 Multiplicity = 1
 6                    -3.13093  -0.42393   0.23061 
 6                    -0.40267  -0.12519  -0.66171 
 1                    -4.12172  -0.5441    0.65102 
 1                     0.32493  -0.12603  -1.47787 
 6                     1.1047    1.44386   0.61466 
 6                     0.40267   0.12519   0.66171 
 1                     0.57031   2.34209   0.89702 
 1                    -0.32493   0.12603   1.47787 
 6                     1.42607  -0.98372   0.93657 
 1                     1.82768  -0.8303    1.94152 
 1                     0.94004  -1.96043   0.93466 
 6                     2.40205   1.5339    0.1426 
 1                     2.86056   2.51289   0.05474 
 6                     3.13093   0.42393  -0.23061 
 1                     4.12172   0.5441   -0.65102 
 6                     2.58456  -0.95794  -0.06035 
 1                     2.25812  -1.34829  -1.03374 
 1                     3.377    -1.63473   0.27045 
[...]
 1                    -4.12172  -0.5441    0.65102 
 1                     0.32493  -0.12603  -1.47787 
 6                     1.1047    1.44386   0.61466 
 6                     0.40267   0.12519   0.66171 
 1                     0.57031   2.34209   0.89702 
 1                    -0.32493   0.12603   1.47787 
 6                     1.42607  -0.98372   0.93657 
 1                     1.82768  -0.8303    1.94152 
 1                     0.94004  -1.96043   0.93466 
 6                     2.40205   1.5339    0.1426 
 1                     2.86056   2.51289   0.05474 
 6                     3.13093   0.42393  -0.23061 
 1                     4.12172   0.5441   -0.65102 
 6                     2.58456  -0.95794  -0.06035 
 1                     2.25812  -1.34829  -1.03374 
 1                     3.377    -1.63473   0.27045 
 6                    -1.1047   -1.44386  -0.61466 
 1                    -0.57031  -2.34209  -0.89702 
 6                    -2.40205  -1.5339   -0.1426 
 1                    -2.86056  -2.51289  -0.05474 
 6                    -1.42607   0.98372  -0.93657 
 1                    -0.94004   1.96043  -0.93466 
 1                    -1.82768   0.8303   -1.94152 
 6                    -2.58456   0.95794   0.06035 
 1                    -3.377     1.63473  -0.27045 
 1                    -2.25812   1.34829   1.03374 
 
 ITRead=  0  0  0  0  0  0  0  0  0  0  0  0  0  0  0  0  0  0  0  0
 ITRead=  0  0  0  0  0  0  0  0
 MicOpt= -1 -1 -1 -1 -1 -1 -1 -1 -1 -1 -1 -1 -1 -1 -1 -1 -1 -1 -1 -1
 MicOpt= -1 -1 -1 -1 -1 -1 -1 -1
 NAtoms=     28 NQM=       28 NQMF=       0 NMMI=      0 NMMIF=      0
                NMic=       0 NMicF=      0.
                    Isotopes and Nuclear Properties:
 (Nuclear quadrupole moments (NQMom) in fm**2, nuclear magnetic moments (NMagM)
  in nuclear magnetons)

  Atom         1           2           3           4           5           6           7           8           9          10
 IAtWgt=          12          12           1           1          12          12           1           1          12           1
 AtmWgt=  12.0000000  12.0000000   1.0078250   1.0078250  12.0000000  12.0000000   1.0078250   1.0078250  12.0000000   1.0078250
 NucSpn=           0           0           1           1           0           0           1           1           0           1
 AtZEff=  -0.0000000  -0.0000000  -0.0000000  -0.0000000  -0.0000000  -0.0000000  -0.0000000  -0.0000000  -0.0000000  -0.0000000
 NQMom=    0.0000000   0.0000000   0.0000000   0.0000000   0.0000000   0.0000000   0.0000000   0.0000000   0.0000000   0.0000000
 NMagM=    0.0000000   0.0000000   2.7928460   2.7928460   0.0000000   0.0000000   2.7928460   2.7928460   0.0000000   2.7928460
 AtZNuc=   6.0000000   6.0000000   1.0000000   1.0000000   6.0000000   6.0000000   1.0000000   1.0000000   6.0000000   1.0000000

  Atom        11          12          13          14          15          16          17          18          19          20
 IAtWgt=           1          12           1          12           1          12           1           1          12           1
 AtmWgt=   1.0078250  12.0000000   1.0078250  12.0000000   1.0078250  12.0000000   1.0078250   1.0078250  12.0000000   1.0078250
 NucSpn=           1           0           1           0           1           0           1           1           0           1
 AtZEff=  -0.0000000  -0.0000000  -0.0000000  -0.0000000  -0.0000000  -0.0000000  -0.0000000  -0.0000000  -0.0000000  -0.0000000
 NQMom=    0.0000000   0.0000000   0.0000000   0.0000000   0.0000000   0.0000000   0.0000000   0.0000000   0.0000000   0.0000000
 NMagM=    2.7928460   0.0000000   2.7928460   0.0000000   2.7928460   0.0000000   2.7928460   2.7928460   0.0000000   2.7928460
 AtZNuc=   1.0000000   6.0000000   1.0000000   6.0000000   1.0000000   6.0000000   1.0000000   1.0000000   6.0000000   1.0000000

  Atom        21          22          23          24          25          26          27          28
 IAtWgt=          12           1          12           1           1          12           1           1
 AtmWgt=  12.0000000   1.0078250  12.0000000   1.0078250   1.0078250  12.0000000   1.0078250   1.0078250
 NucSpn=           0           1           0           1           1           0           1           1
 AtZEff=  -0.0000000  -0.0000000  -0.0000000  -0.0000000  -0.0000000  -0.0000000  -0.0000000  -0.0000000
 NQMom=    0.0000000   0.0000000   0.0000000   0.0000000   0.0000000   0.0000000   0.0000000   0.0000000
 NMagM=    0.0000000   2.7928460   0.0000000   2.7928460   2.7928460   0.0000000   2.7928460   2.7928460
 AtZNuc=   6.0000000   1.0000000   6.0000000   1.0000000   1.0000000   6.0000000   1.0000000   1.0000000
 Leave Link  101 at Mon Aug  3 17:36:19 2020, MaxMem=  6442450944 cpu:               2.4 elap:               0.1
 (Enter /scratch/scicomp/CentOS/7.3.1611/Haswell/software/Gaussian/g16/l202.exe)
                          Input orientation:                          
 ---------------------------------------------------------------------
 Center     Atomic      Atomic             Coordinates (Angstroms)
 Number     Number       Type             X           Y           Z
 ---------------------------------------------------------------------
      1          6           0       -3.130926   -0.423925    0.230614
      2          6           0       -0.402668   -0.125188   -0.661714
      3          1           0       -4.121721   -0.544101    0.651020
      4          1           0        0.324925   -0.126026   -1.477873
      5          6           0        1.104701    1.443859    0.614659
      6          6           0        0.402668    0.125188    0.661714
      7          1           0        0.570306    2.342088    0.897018
      8          1           0       -0.324925    0.126026    1.477873
      9          6           0        1.426074   -0.983719    0.936566
     10          1           0        1.827679   -0.830304    1.941515
     11          1           0        0.940037   -1.960429    0.934664
     12          6           0        2.402045    1.533898    0.142597
     13          1           0        2.860563    2.512891    0.054740
     14          6           0        3.130926    0.423925   -0.230614
     15          1           0        4.121721    0.544101   -0.651020
     16          6           0        2.584558   -0.957939   -0.060346
     17          1           0        2.258123   -1.348285   -1.033742
     18          1           0        3.376997   -1.634728    0.270453
     19          6           0       -1.104701   -1.443859   -0.614659
     20          1           0       -0.570306   -2.342088   -0.897018
     21          6           0       -2.402045   -1.533898   -0.142597
     22          1           0       -2.860563   -2.512891   -0.054740
     23          6           0       -1.426074    0.983719   -0.936566
     24          1           0       -0.940037    1.960429   -0.934664
     25          1           0       -1.827679    0.830304   -1.941515
     26          6           0       -2.584558    0.957939    0.060346
     27          1           0       -3.376997    1.634728   -0.270453
     28          1           0       -2.258122    1.348285    1.033742
 ---------------------------------------------------------------------
                    Distance matrix (angstroms):
                    1          2          3          4          5
     1  C    0.000000
     2  C    2.885981   0.000000
     3  H    1.082986   3.966121   0.000000
     4  H    3.866598   1.093393   4.947690   0.000000
     5  C    4.645067   2.522538   5.591851   2.729703   0.000000
     6  C    3.601897   1.569304   4.573637   2.155687   1.494643
     7  H    4.668409   3.076325   5.514138   3.433934   1.082645
     8  H    3.119574   2.155687   3.943148   3.036819   2.127358
     9  C    4.645211   2.576019   5.572507   2.788850   2.469826
    10  H    5.261187   3.499777   6.094477   3.800854   2.730396
    11  H    4.407865   2.778379   5.263823   3.092528   3.423258
    12  C    5.869803   3.356471   6.865573   3.113792   1.383492
    13  H    6.674860   4.256929   7.645459   3.967650   2.130584
    14  C    6.335801   3.601897   7.369887   3.119574   2.420814
    15  H    7.369887   4.573637   8.416283   3.943148   3.393216
    16  C    5.747746   3.158898   6.756588   2.794173   2.900731
    17  H    5.612031   2.951979   6.647371   2.329898   3.441464
    18  H    6.619720   4.175346   7.587165   3.827267   3.841810
    19  C    2.420814   1.494643   3.393216   2.127358   3.838176
    20  H    3.392297   2.235647   4.271034   2.459626   4.407291
    21  C    1.379346   2.500291   2.137010   3.346854   4.662375
    22  H    2.125630   3.480056   2.442284   4.227265   5.641568
    23  C    2.500058   1.533812   3.481548   2.142556   3.003806
    24  H    3.441368   2.170960   4.348583   2.499700   2.616907
    25  H    2.826604   2.140447   3.724628   2.400674   3.938188
    26  C    1.495680   2.540704   2.228876   3.464995   3.762182
    27  H    2.132996   3.478077   2.480125   4.273446   4.572250
    28  H    2.132494   2.913486   2.683394   3.892805   3.390183
                    6          7          8          9         10
     6  C    0.000000
     7  H    2.235647   0.000000
     8  H    1.093393   2.459626   0.000000
     9  C    1.533812   3.434370   2.142556   0.000000
    10  H    2.140447   3.568758   2.400674   1.093044   0.000000
    11  H    2.170960   4.318538   2.499700   1.090962   1.754662
    12  C    2.500291   2.139530   3.346854   2.814481   3.025798
    13  H    3.480056   2.446198   4.227265   3.880935   3.975390
    14  C    2.885981   3.392297   3.866598   2.500058   2.826604
    15  H    3.966121   4.271034   4.947690   3.481548   3.724628
    16  C    2.540704   3.982956   3.464995   1.528589   2.143969
    17  H    2.913487   4.493931   3.892806   2.169638   3.050531
    18  H    3.478077   4.907664   4.273446   2.161856   2.416595
    19  C    2.522538   4.407291   2.729703   3.003806   3.938188
    20  H    3.076325   5.144032   3.433934   3.031951   4.011620
    21  C    3.356471   4.993890   3.113792   4.015194   4.767508
    22  H    4.256929   6.020592   3.967650   4.657930   5.366167
    23  C    2.576019   3.031951   2.788850   3.938805   4.707541
    24  H    2.778379   2.404550   3.092528   4.215209   4.870405
    25  H    3.499777   4.011620   3.800854   4.707541   5.585444
    26  C    3.158898   3.545286   2.794173   4.541252   5.119028
    27  H    4.175346   4.176667   3.827267   5.602022   6.169103
    28  H    2.951978   3.001057   2.329897   4.361306   4.718482
                   11         12         13         14         15
    11  H    0.000000
    12  C    3.869775   0.000000
    13  H    4.947047   1.084613   0.000000
    14  C    3.441368   1.379346   2.125630   0.000000
    15  H    4.348583   2.137010   2.442284   1.082986   0.000000
    16  C    2.167829   2.506741   3.483688   1.495680   2.228876
    17  H    2.446772   3.116322   4.056650   2.132493   2.683393
    18  H    2.546769   3.317690   4.185210   2.132996   2.480125
    19  C    2.616907   4.662375   5.641568   4.645067   5.591851
    20  H    2.404550   4.993890   6.020592   4.668409   5.514138
    21  C    3.537221   5.707187   6.641573   5.869803   6.865573
    22  H    3.965942   6.641573   7.615888   6.674860   7.645459
    23  C    4.215209   4.015194   4.657930   4.645211   5.572507
    24  H    4.733095   3.537221   3.965942   4.407865   5.263823
    25  H    4.870405   4.767508   5.366167   5.261187   6.094477
    26  C    4.658763   5.020429   5.662795   5.747746   6.756588
    27  H    5.745802   5.794662   6.307462   6.619720   7.587165
    28  H    4.602785   4.748236   5.340008   5.612030   6.647370
                   16         17         18         19         20
    16  C    0.000000
    17  H    1.098376   0.000000
    18  H    1.093358   1.742083   0.000000
    19  C    3.762182   3.390184   4.572250   0.000000
    20  H    3.545286   3.001058   4.176667   1.082645   0.000000
    21  C    5.020429   4.748237   5.794662   1.383492   2.139530
    22  H    5.662795   5.340009   6.307462   2.130584   2.446198
    23  C    4.541252   4.361306   5.602022   2.469826   3.434370
    24  H    4.658763   4.602785   5.745802   3.423258   4.318538
    25  H    5.119028   4.718483   6.169103   2.730396   3.568758
    26  C    5.514065   5.474236   6.504322   2.900731   3.982956
    27  H    6.504322   6.421492   7.523188   3.841810   4.907664
    28  H    5.474235   5.651765   6.421491   3.441464   4.493930
                   21         22         23         24         25
    21  C    0.000000
    22  H    1.084613   0.000000
    23  C    2.814481   3.880935   0.000000
    24  H    3.869775   4.947047   1.090962   0.000000
    25  H    3.025798   3.975390   1.093044   1.754662   0.000000
    26  C    2.506741   3.483688   1.528589   2.167829   2.143969
    27  H    3.317690   4.185210   2.161856   2.546769   2.416595
    28  H    3.116323   4.056650   2.169637   2.446771   3.050531
                   26         27         28
    26  C    0.000000
    27  H    1.093358   0.000000
    28  H    1.098376   1.742084   0.000000
 Symmetry turned off by external request.
 Stoichiometry    C12H16
 Framework group  CI[X(C12H16)]
 Deg. of freedom    39
 Full point group                 CI      NOp   2
 Rotational constants (GHZ):           2.0274357           0.6492368           0.5545682
 Leave Link  202 at Mon Aug  3 17:36:19 2020, MaxMem=  6442450944 cpu:               0.3 elap:               0.0
 (Enter /scratch/scicomp/CentOS/7.3.1611/Haswell/software/Gaussian/g16/l301.exe)
 Standard basis: def2TZVP (5D, 7F)
 Ernie: Thresh=  0.10000D-02 Tol=  0.10000D-05 Strict=F.
   468 basis functions,   740 primitive gaussians,   528 cartesian basis functions
    44 alpha electrons       44 beta electrons
       nuclear repulsion energy       697.6336556829 Hartrees.
 IExCor= 4639 DFT=T Ex+Corr=wB97XD ExCW=0 ScaHFX=  1.000000
 ScaDFX=  1.000000  1.000000  1.000000  1.000000 ScalE2=  1.000000  1.000000
 IRadAn=      5 IRanWt=     -1 IRanGd=            0 ICorTp=0 IEmpDi=121
 HFx  wShort=  0.000000 wLong=  0.200000 cFull=  0.222036 cShort=  0.000000 cLong=  0.777964
 DFx  wShort=  0.000000 wLong=  0.200000 cFull=  0.000000 cShort=  0.000000 cLong=  1.000000
 NAtoms=   28 NActive=   28 NUniq=   28 SFac= 1.00D+00 NAtFMM=   60 NAOKFM=F Big=F
 Integral buffers will be    131072 words long.
 Raffenetti 2 integral format.
 Two-electron integral symmetry is turned off.
 R6Disp:  Grimme-D2 Dispersion energy=       -0.0228815295 Hartrees.
 Nuclear repulsion after empirical dispersion term =      697.6107741534 Hartrees.
 Using the following non-standard input for PCM:
 qrep pcmdoc geomview  nodis nocav g03defaults tsare=0.075
 Warning! Using old PCM defaults because the g03defaults keyword was found.
 These settings can be overridden by following keywords.
 nsfe=28
 NVESolv=36  SolvMW=84.1595   Rsolv=2.815
 eps=2.0165 RhoS=0.7781
 --- end of non-standard input.
 Reading user-defined spheres from input:
 ISph  on   Nord    Re0     Alpha      Xe            Ye            Ze
 --- end of user-defined spheres data.
 ------------------------------------------------------------------------------
 Polarizable Continuum Model (PCM)
 =================================
 Model                : PCM.
 Atomic radii         : UA0 (Simple United Atom Topological Model).
 Polarization charges : Total charges.
 Charge compensation  : None.
 Solution method      : On-the-fly selection.
 Cavity type          : SES (Solvent Excluding Surface) (Alpha=1.000).
 Cavity algorithm     : GePol (RMin=0.200 OFac=0.890).
                        User-defined sphere list used, NSphG=   28.
                        Tesserae with average area of 0.075 Ang**2.
                        Smoothing algorithm: None.
                        Polarization charges: point-like.
                        Self-potential: constant (ISelfS= 1).
                        Self-field    : global E.n sum rule (ISelfD= 3).
 Solvent              : CycloHexane, Eps=   2.016500 Eps(inf)=   2.035188
                        RSolv=   2.815000 Ang.
 ------------------------------------------------------------------------------
 GePol: Number of generator spheres                  =      28
 GePol: Total number of spheres                      =     465
 GePol: Number of exposed spheres                    =     301 ( 64.73%)
 GePol: Number of tesserae                           =    4609
 GePol: Average area of tesserae                     =       0.04 Ang**2
 GePol: Minimum area of tessera                      =   0.10D-02 Ang**2
 GePol: Maximum area of tessera                      =    0.12548 Ang**2
 GePol: Number of small tesserae                     =       0
 GePol: Fraction of small tesserae (<1% of avg)      =       0.00%
 GePol: Total count of vertices                      =   17414
 GePol: Maximum number of vertices in a tessera      =       8
 GePol: Cavity surface area                          =    183.018 Ang**2
 GePol: Cavity volume                                =    178.144 Ang**3
 Leave Link  301 at Mon Aug  3 17:36:20 2020, MaxMem=  6442450944 cpu:              11.9 elap:               0.5
 (Enter /scratch/scicomp/CentOS/7.3.1611/Haswell/software/Gaussian/g16/l302.exe)
 NPDir=0 NMtPBC=     1 NCelOv=     1 NCel=       1 NClECP=     1 NCelD=      1
         NCelK=      1 NCelE2=     1 NClLst=     1 CellRange=     0.0.
 One-electron integrals computed using PRISM.
   1 Symmetry operations used in ECPInt.
 ECPInt:  NShTT=   19306 NPrTT=   56928 LenC2=   18548 LenP2D=   42366.
 LDataN:  DoStor=T MaxTD1= 6 Len=  172
 NBasis=   468 RedAO= T EigKep=  3.19D-05  NBF=   468
 NBsUse=   468 1.00D-06 EigRej= -1.00D+00 NBFU=   468
 Precomputing XC quadrature grid using
 IXCGrd= 4 IRadAn=           5 IRanWt=          -1 IRanGd=           0 AccXCQ= 0.00D+00.
 Generated NRdTot=       0 NPtTot=           0 NUsed=           0 NTot=          32
 NSgBfM=   526   526   526   526   526 MxSgAt=    28 MxSgA2=    28.
 Leave Link  302 at Mon Aug  3 17:36:21 2020, MaxMem=  6442450944 cpu:              11.8 elap:               0.5
 (Enter /scratch/scicomp/CentOS/7.3.1611/Haswell/software/Gaussian/g16/l401.exe)
 ExpMin= 9.52D-02 ExpMax= 1.36D+04 ExpMxC= 4.63D+02 IAcc=3 IRadAn=         5 AccDes= 0.00D+00
 Harris functional with IExCor= 4639 and IRadAn=       5 diagonalized for initial guess.
 HarFok:  IExCor= 4639 AccDes= 0.00D+00 IRadAn=         5 IDoV= 1 UseB2=F ITyADJ=14
 ICtDFT=  3500011 ScaDFX=  1.000000  1.000000  1.000000  1.000000
 FoFCou: FMM=F IPFlag=           0 FMFlag=      100000 FMFlg1=           0
         NFxFlg=           0 DoJE=T BraDBF=F KetDBF=T FulRan=T
         wScrn=  0.000000 ICntrl=       500 IOpCl=  0 I1Cent=   200000004 NGrid=           0
         NMat0=    1 NMatS0=      1 NMatT0=    0 NMatD0=    1 NMtDS0=    0 NMtDT0=    0
 Symmetry not used in FoFCou.
 Harris En= -444.576446354024    
 JPrj=0 DoOrth=F DoCkMO=T.
 Mixing orbitals, IMix= 1 IMixAn=  0 NRI=1 NE=   44 Coef=  7.07106781D-01  7.07106781D-01
 Mixing orbitals, IMix= 1 IMixAn=  0 NRI=1 NE=   44 Coef= -7.07106781D-01  7.07106781D-01
 Initial guess <Sx>= 0.0000 <Sy>= 0.0000 <Sz>= 0.0000 <S**2>= 1.0000 S= 0.6180
 Leave Link  401 at Mon Aug  3 17:36:23 2020, MaxMem=  6442450944 cpu:              48.0 elap:               2.1
 (Enter /scratch/scicomp/CentOS/7.3.1611/Haswell/software/Gaussian/g16/l9999.exe)

 This type of calculation cannot be archived.


 FORGIVE MY NONSENSE AS I ALSO FORGIVE THOSE WHO THINK THEY TALK SENSE

                                                       -- ROBERT FROST
 Job cpu time:       0 days  0 hours  1 minutes 16.8 seconds.
 Elapsed time:       0 days  0 hours  0 minutes  3.5 seconds.
 File lengths (MBytes):  RWF=    390 Int=      0 D2E=      0 Chk=      1 Scr=      1
 Normal termination of Gaussian 16 at Mon Aug  3 17:36:23 2020.
