 Entering Gaussian System, Link 0=g16
 Input=meso-TS_22_2_xp-Gcav.com
 Output=meso-TS_22_2_xp-Gcav.log
 Initial command:
 /scratch/scicomp/CentOS/7.3.1611/Haswell/software/Gaussian/g16/l1.exe "/scratch/bochen/cyclohexadiene-dimerization/wb97xd-def2tzvp/xp-pcm/meso/Gau-82873.inp" -scrdir="/scratch/bochen/cyclohexadiene-dimerization/wb97xd-def2tzvp/xp-pcm/meso/"
 Entering Link 1 = /scratch/scicomp/CentOS/7.3.1611/Haswell/software/Gaussian/g16/l1.exe PID=     82874.
  
 Copyright (c) 1988-2017, Gaussian, Inc.  All Rights Reserved.
  
 This is part of the Gaussian(R) 16 program.  It is based on
 the Gaussian(R) 09 system (copyright 2009, Gaussian, Inc.),
 the Gaussian(R) 03 system (copyright 2003, Gaussian, Inc.),
 the Gaussian(R) 98 system (copyright 1998, Gaussian, Inc.),
 the Gaussian(R) 94 system (copyright 1995, Gaussian, Inc.),
 the Gaussian 92(TM) system (copyright 1992, Gaussian, Inc.),
 the Gaussian 90(TM) system (copyright 1990, Gaussian, Inc.),
 the Gaussian 88(TM) system (copyright 1988, Gaussian, Inc.),
 the Gaussian 86(TM) system (copyright 1986, Carnegie Mellon
 University), and the Gaussian 82(TM) system (copyright 1983,
 Carnegie Mellon University). Gaussian is a federally registered
 trademark of Gaussian, Inc.
  
 This software contains proprietary and confidential information,
 including trade secrets, belonging to Gaussian, Inc.
  
 This software is provided under written license and may be
 used, copied, transmitted, or stored only in accord with that
 written license.
  
 The following legend is applicable only to US Government
 contracts under FAR:
  
                    RESTRICTED RIGHTS LEGEND
  
 Use, reproduction and disclosure by the US Government is
 subject to restrictions as set forth in subparagraphs (a)
 and (c) of the Commercial Computer Software - Restricted
 Rights clause in FAR 52.227-19.
  
 Gaussian, Inc.
 340 Quinnipiac St., Bldg. 40, Wallingford CT 06492
  
  
 ---------------------------------------------------------------
 Warning -- This program may not be used in any manner that
 competes with the business of Gaussian, Inc. or will provide
 assistance to any competitor of Gaussian, Inc.  The licensee
 of this program is prohibited from giving any competitor of
 Gaussian, Inc. access to this program.  By using this program,
 the user acknowledges that Gaussian, Inc. is engaged in the
 business of creating and licensing software in the field of
 computational chemistry and represents and warrants to the
 licensee that it is not a competitor of Gaussian, Inc. and that
 it will not use this program in any manner prohibited above.
 ---------------------------------------------------------------
  

 Cite this work as:
 Gaussian 16, Revision B.01,
 M. J. Frisch, G. W. Trucks, H. B. Schlegel, G. E. Scuseria, 
 M. A. Robb, J. R. Cheeseman, G. Scalmani, V. Barone, 
 G. A. Petersson, H. Nakatsuji, X. Li, M. Caricato, A. V. Marenich, 
 J. Bloino, B. G. Janesko, R. Gomperts, B. Mennucci, H. P. Hratchian, 
 J. V. Ortiz, A. F. Izmaylov, J. L. Sonnenberg, D. Williams-Young, 
 F. Ding, F. Lipparini, F. Egidi, J. Goings, B. Peng, A. Petrone, 
 T. Henderson, D. Ranasinghe, V. G. Zakrzewski, J. Gao, N. Rega, 
 G. Zheng, W. Liang, M. Hada, M. Ehara, K. Toyota, R. Fukuda, 
 J. Hasegawa, M. Ishida, T. Nakajima, Y. Honda, O. Kitao, H. Nakai, 
 T. Vreven, K. Throssell, J. A. Montgomery, Jr., J. E. Peralta, 
 F. Ogliaro, M. J. Bearpark, J. J. Heyd, E. N. Brothers, K. N. Kudin, 
 V. N. Staroverov, T. A. Keith, R. Kobayashi, J. Normand, 
 K. Raghavachari, A. P. Rendell, J. C. Burant, S. S. Iyengar, 
 J. Tomasi, M. Cossi, J. M. Millam, M. Klene, C. Adamo, R. Cammi, 
 J. W. Ochterski, R. L. Martin, K. Morokuma, O. Farkas, 
 J. B. Foresman, and D. J. Fox, Gaussian, Inc., Wallingford CT, 2016.
 
 ******************************************
 Gaussian 16:  ES64L-G16RevB.01 20-Dec-2017
                 4-Aug-2020 
 ******************************************
 %chk=scr.chk
 %nproc=24
 Will use up to   24 processors via shared memory.
 %mem=48GB
 ----------------------------------------------------------------------
 #p uwb97xd guess=mix def2tzvp # scrf=(iefpcm,solvent=Cyclohexane,read)
  nosym guess=only pop=none
 ----------------------------------------------------------------------
 1/38=1,40=2,172=1/1;
 2/12=2,15=1,17=6,18=5,40=1/2;
 3/5=44,7=101,11=2,25=1,30=1,70=2203,72=17,74=-58,89=1,116=2/1,2;
 4/13=-1/1;
 99/5=2/99;
 Leave Link    1 at Tue Aug  4 21:40:56 2020, MaxMem=  6442450944 cpu:               1.4 elap:               0.1
 (Enter /scratch/scicomp/CentOS/7.3.1611/Haswell/software/Gaussian/g16/l101.exe)
 -------------------------------------------------
 endo-2 xp-pcm with Vmol=108.160262177098 cm^3/mol
 -------------------------------------------------
 Symbolic Z-matrix:
 Charge =  0 Multiplicity = 1
 6                    -3.12169  -0.43794   0.24848 
 6                    -0.60889  -0.21827  -1.03699 
 1                    -4.08505  -0.54816   0.73279 
 1                     0.36031  -0.12471  -1.50659 
 6                     1.0996    1.41098   0.7054 
 6                     0.60889   0.21827   1.03699 
 1                     0.51411   2.31109   0.84333 
 1                    -0.36031   0.12471   1.50659 
 6                     1.48341  -1.00069   1.0115 
 1                     1.95092  -1.04772   2.0031 
 1                     0.89193  -1.90928   0.91402 
 6                     2.4259    1.51795   0.10904 
 1                     2.8341    2.50596  -0.06791 
 6                     3.12169   0.43794  -0.24848 
 1                     4.08505   0.54816  -0.73279 
 6                     2.59025  -0.95486  -0.04578 
 1                     2.23599  -1.34484  -1.00803 
 1                     3.40096  -1.62171   0.25523 
 6                    -1.0996   -1.41098  -0.7054 
 1                    -0.51411  -2.31109  -0.84333 
 6                    -2.4259   -1.51795  -0.10904 
 1                    -2.8341   -2.50596   0.06791 
 6                    -1.48341   1.00069  -1.0115 
 1                    -0.89193   1.90928  -0.91402 
 1                    -1.95092   1.04772  -2.0031 
 6                    -2.59025   0.95486   0.04578 
 1                    -3.40096   1.62171  -0.25523 
 1                    -2.23599   1.34484   1.00803 
 
 ITRead=  0  0  0  0  0  0  0  0  0  0  0  0  0  0  0  0  0  0  0  0
 ITRead=  0  0  0  0  0  0  0  0
 MicOpt= -1 -1 -1 -1 -1 -1 -1 -1 -1 -1 -1 -1 -1 -1 -1 -1 -1 -1 -1 -1
 MicOpt= -1 -1 -1 -1 -1 -1 -1 -1
 NAtoms=     28 NQM=       28 NQMF=       0 NMMI=      0 NMMIF=      0
                NMic=       0 NMicF=      0.
                    Isotopes and Nuclear Properties:
 (Nuclear quadrupole moments (NQMom) in fm**2, nuclear magnetic moments (NMagM)
  in nuclear magnetons)

  Atom         1           2           3           4           5           6           7           8           9          10
 IAtWgt=          12          12           1           1          12          12           1           1          12           1
 AtmWgt=  12.0000000  12.0000000   1.0078250   1.0078250  12.0000000  12.0000000   1.0078250   1.0078250  12.0000000   1.0078250
 NucSpn=           0           0           1           1           0           0           1           1           0           1
 AtZEff=  -0.0000000  -0.0000000  -0.0000000  -0.0000000  -0.0000000  -0.0000000  -0.0000000  -0.0000000  -0.0000000  -0.0000000
 NQMom=    0.0000000   0.0000000   0.0000000   0.0000000   0.0000000   0.0000000   0.0000000   0.0000000   0.0000000   0.0000000
 NMagM=    0.0000000   0.0000000   2.7928460   2.7928460   0.0000000   0.0000000   2.7928460   2.7928460   0.0000000   2.7928460
 AtZNuc=   6.0000000   6.0000000   1.0000000   1.0000000   6.0000000   6.0000000   1.0000000   1.0000000   6.0000000   1.0000000

  Atom        11          12          13          14          15          16          17          18          19          20
 IAtWgt=           1          12           1          12           1          12           1           1          12           1
 AtmWgt=   1.0078250  12.0000000   1.0078250  12.0000000   1.0078250  12.0000000   1.0078250   1.0078250  12.0000000   1.0078250
 NucSpn=           1           0           1           0           1           0           1           1           0           1
 AtZEff=  -0.0000000  -0.0000000  -0.0000000  -0.0000000  -0.0000000  -0.0000000  -0.0000000  -0.0000000  -0.0000000  -0.0000000
 NQMom=    0.0000000   0.0000000   0.0000000   0.0000000   0.0000000   0.0000000   0.0000000   0.0000000   0.0000000   0.0000000
 NMagM=    2.7928460   0.0000000   2.7928460   0.0000000   2.7928460   0.0000000   2.7928460   2.7928460   0.0000000   2.7928460
 AtZNuc=   1.0000000   6.0000000   1.0000000   6.0000000   1.0000000   6.0000000   1.0000000   1.0000000   6.0000000   1.0000000

  Atom        21          22          23          24          25          26          27          28
 IAtWgt=          12           1          12           1           1          12           1           1
 AtmWgt=  12.0000000   1.0078250  12.0000000   1.0078250   1.0078250  12.0000000   1.0078250   1.0078250
 NucSpn=           0           1           0           1           1           0           1           1
 AtZEff=  -0.0000000  -0.0000000  -0.0000000  -0.0000000  -0.0000000  -0.0000000  -0.0000000  -0.0000000
 NQMom=    0.0000000   0.0000000   0.0000000   0.0000000   0.0000000   0.0000000   0.0000000   0.0000000
 NMagM=    0.0000000   2.7928460   0.0000000   2.7928460   2.7928460   0.0000000   2.7928460   2.7928460
 AtZNuc=   6.0000000   1.0000000   6.0000000   1.0000000   1.0000000   6.0000000   1.0000000   1.0000000
 Leave Link  101 at Tue Aug  4 21:40:56 2020, MaxMem=  6442450944 cpu:               2.4 elap:               0.1
 (Enter /scratch/scicomp/CentOS/7.3.1611/Haswell/software/Gaussian/g16/l202.exe)
                          Input orientation:                          
 ---------------------------------------------------------------------
 Center     Atomic      Atomic             Coordinates (Angstroms)
 Number     Number       Type             X           Y           Z
 ---------------------------------------------------------------------
      1          6           0       -3.121693   -0.437935    0.248475
      2          6           0       -0.608894   -0.218266   -1.036985
      3          1           0       -4.085054   -0.548156    0.732789
      4          1           0        0.360308   -0.124712   -1.506593
      5          6           0        1.099596    1.410984    0.705395
      6          6           0        0.608894    0.218266    1.036985
      7          1           0        0.514105    2.311092    0.843328
      8          1           0       -0.360308    0.124712    1.506593
      9          6           0        1.483411   -1.000688    1.011498
     10          1           0        1.950917   -1.047718    2.003099
     11          1           0        0.891930   -1.909281    0.914020
     12          6           0        2.425900    1.517947    0.109041
     13          1           0        2.834101    2.505963   -0.067907
     14          6           0        3.121693    0.437935   -0.248475
     15          1           0        4.085054    0.548156   -0.732789
     16          6           0        2.590248   -0.954860   -0.045775
     17          1           0        2.235992   -1.344838   -1.008028
     18          1           0        3.400959   -1.621706    0.255233
     19          6           0       -1.099596   -1.410984   -0.705395
     20          1           0       -0.514105   -2.311092   -0.843328
     21          6           0       -2.425900   -1.517947   -0.109041
     22          1           0       -2.834101   -2.505963    0.067907
     23          6           0       -1.483411    1.000688   -1.011498
     24          1           0       -0.891929    1.909281   -0.914020
     25          1           0       -1.950917    1.047718   -2.003099
     26          6           0       -2.590248    0.954860    0.045775
     27          1           0       -3.400959    1.621706   -0.255234
     28          1           0       -2.235992    1.344838    1.008028
 ---------------------------------------------------------------------
                    Distance matrix (angstroms):
                    1          2          3          4          5
     1  C    0.000000
     2  C    2.831046   0.000000
     3  H    1.083870   3.914667   0.000000
     4  H    3.911867   1.081035   4.995536   0.000000
     5  C    4.631043   2.934158   5.542524   2.792454   0.000000
     6  C    3.869060   2.444365   4.765825   2.578608   1.331659
     7  H    4.596741   3.345797   5.416621   3.388056   1.082599
     8  H    3.086208   2.578608   3.863322   3.108181   2.104218
     9  C    4.701689   3.030876   5.593770   2.893005   2.461133
    10  H    5.402029   4.059893   6.188392   3.962312   2.907576
    11  H    4.326312   2.986373   5.162933   3.053961   3.333288
    12  C    5.883936   3.679373   6.859327   3.094394   1.458136
    13  H    6.651174   4.496082   7.605489   3.887148   2.192141
    14  C    6.324079   3.869060   7.339786   3.086208   2.438354
    15  H    7.339786   4.765825   8.372603   3.863322   3.424296
    16  C    5.742827   3.429224   6.732847   2.792090   2.895430
    17  H    5.577281   3.059964   6.604602   2.292480   3.438280
    18  H    6.629204   4.440540   7.577662   3.819762   3.833553
    19  C    2.438354   1.331659   3.424296   2.104218   3.845813
    20  H    3.391204   2.103903   4.282962   2.446380   4.342398
    21  C    1.333556   2.419041   2.098086   3.414266   4.655219
    22  H    2.095723   3.377261   2.416601   4.284117   5.587740
    23  C    2.518161   1.500426   3.494281   2.216065   3.128576
    24  H    3.439864   2.149811   4.352818   2.460969   2.614761
    25  H    2.940658   2.082575   3.819220   2.638725   4.095550
    26  C    1.504460   2.544476   2.228338   3.504440   3.775989
    27  H    2.138652   3.433986   2.480419   4.331628   4.606757
    28  H    2.130649   3.045131   2.660491   3.901752   3.349942
                    6          7          8          9         10
     6  C    0.000000
     7  H    2.103903   0.000000
     8  H    1.081035   2.446380   0.000000
     9  C    1.500426   3.454811   2.216065   0.000000
    10  H    2.082575   3.832897   2.638725   1.097290   0.000000
    11  H    2.149811   4.237841   2.460969   1.088528   1.746378
    12  C    2.419041   2.196182   3.414266   2.836589   3.224237
    13  H    3.377261   2.500141   4.284117   3.909742   4.206867
    14  C    2.831046   3.391204   3.911867   2.518161   2.940658
    15  H    3.914667   4.282962   4.995536   3.494281   3.819220
    16  C    2.544476   3.970808   3.504440   1.531344   2.148314
    17  H    3.045131   4.445024   3.901752   2.182499   3.039150
    18  H    3.433986   4.913927   4.331629   2.152810   2.342460
    19  C    2.934158   4.342398   2.792454   3.128576   4.095550
    20  H    3.345797   5.026590   3.388056   3.024501   3.971724
    21  C    3.679373   4.920587   3.094394   4.099497   4.882497
    22  H    4.496082   5.917413   3.887148   4.668739   5.363566
    23  C    3.030876   3.024501   2.893005   4.110967   5.007831
    24  H    2.986373   2.286188   3.053960   4.221111   5.033408
    25  H    4.059893   3.971724   3.962312   5.007831   5.972000
    26  C    3.429224   3.480296   2.792090   4.620767   5.335130
    27  H    4.440540   4.124296   3.819762   5.686706   6.392845
    28  H    3.059964   2.919556   2.292480   4.397211   4.923890
                   11         12         13         14         15
    11  H    0.000000
    12  C    3.840175   0.000000
    13  H    4.922458   1.083566   0.000000
    14  C    3.439863   1.333556   2.095723   0.000000
    15  H    4.352817   2.098086   2.416601   1.083870   0.000000
    16  C    2.171730   2.483093   3.469474   1.504460   2.228338
    17  H    2.412336   3.078871   4.008769   2.130649   2.660491
    18  H    2.609967   3.290826   4.178923   2.138652   2.480418
    19  C    2.614762   4.655219   5.587740   4.631043   5.542524
    20  H    2.286189   4.920587   5.917413   4.596741   5.416621
    21  C    3.493965   5.727493   6.622775   5.883936   6.859327
    22  H    3.867201   6.622775   7.567454   6.651174   7.605489
    23  C    4.221112   4.099497   4.668739   4.701689   5.593770
    24  H    4.594050   3.493964   3.867200   4.326311   5.162932
    25  H    5.033409   4.882497   5.363566   5.402029   6.188392
    26  C    4.591592   5.048050   5.642908   5.742827   6.732847
    27  H    5.680134   5.839156   6.300236   6.629204   7.577662
    28  H    4.514646   4.750935   5.311468   5.577281   6.604602
                   16         17         18         19         20
    16  C    0.000000
    17  H    1.097046   0.000000
    18  H    1.092036   1.740584   0.000000
    19  C    3.775989   3.349942   4.606756   0.000000
    20  H    3.480296   2.919556   4.124296   1.082599   0.000000
    21  C    5.048050   4.750935   5.839156   1.458136   2.196182
    22  H    5.642908   5.311468   6.300236   2.192141   2.500141
    23  C    4.620767   4.397211   5.686706   2.461133   3.454811
    24  H    4.591591   4.514645   5.680133   3.333288   4.237841
    25  H    5.335130   4.923890   6.392845   2.907576   3.832897
    26  C    5.522042   5.449009   6.525115   2.895430   3.970808
    27  H    6.525115   6.414226   7.552906   3.833553   4.913927
    28  H    5.449009   5.594415   6.414226   3.438280   4.445024
                   21         22         23         24         25
    21  C    0.000000
    22  H    1.083566   0.000000
    23  C    2.836589   3.909742   0.000000
    24  H    3.840176   4.922458   1.088528   0.000000
    25  H    3.224237   4.206867   1.097290   1.746379   0.000000
    26  C    2.483093   3.469474   1.531344   2.171730   2.148314
    27  H    3.290826   4.178923   2.152810   2.609967   2.342459
    28  H    3.078871   4.008769   2.182499   2.412337   3.039150
                   26         27         28
    26  C    0.000000
    27  H    1.092036   0.000000
    28  H    1.097046   1.740585   0.000000
 Symmetry turned off by external request.
 Stoichiometry    C12H16
 Framework group  CI[X(C12H16)]
 Deg. of freedom    39
 Full point group                 CI      NOp   2
 Rotational constants (GHZ):           1.8833190           0.6233103           0.5480463
 Leave Link  202 at Tue Aug  4 21:40:56 2020, MaxMem=  6442450944 cpu:               0.3 elap:               0.0
 (Enter /scratch/scicomp/CentOS/7.3.1611/Haswell/software/Gaussian/g16/l301.exe)
 Standard basis: def2TZVP (5D, 7F)
 Ernie: Thresh=  0.10000D-02 Tol=  0.10000D-05 Strict=F.
   468 basis functions,   740 primitive gaussians,   528 cartesian basis functions
    44 alpha electrons       44 beta electrons
       nuclear repulsion energy       687.0344264793 Hartrees.
 IExCor= 4639 DFT=T Ex+Corr=wB97XD ExCW=0 ScaHFX=  1.000000
 ScaDFX=  1.000000  1.000000  1.000000  1.000000 ScalE2=  1.000000  1.000000
 IRadAn=      5 IRanWt=     -1 IRanGd=            0 ICorTp=0 IEmpDi=121
 HFx  wShort=  0.000000 wLong=  0.200000 cFull=  0.222036 cShort=  0.000000 cLong=  0.777964
 DFx  wShort=  0.000000 wLong=  0.200000 cFull=  0.000000 cShort=  0.000000 cLong=  1.000000
 NAtoms=   28 NActive=   28 NUniq=   28 SFac= 1.00D+00 NAtFMM=   60 NAOKFM=F Big=F
 Integral buffers will be    131072 words long.
 Raffenetti 2 integral format.
 Two-electron integral symmetry is turned off.
 R6Disp:  Grimme-D2 Dispersion energy=       -0.0229525597 Hartrees.
 Nuclear repulsion after empirical dispersion term =      687.0114739197 Hartrees.
 Using the following non-standard input for PCM:
 norep  pcmdoc geomview  nodis cav g03defaults noaddsph  tsare=0.075
 Warning! Using old PCM defaults because the g03defaults keyword was found.
 These settings can be overridden by following keywords.
 nsfe=28
 Vmol=108.160262177098 Rsolv=2.815
 --- end of non-standard input.
 Reading user-defined spheres from input:
 ISph  on   Nord    Re0     Alpha      Xe            Ye            Ze
 --- end of user-defined spheres data.
 ------------------------------------------------------------------------------
 Polarizable Continuum Model (PCM)
 =================================
 Model                : PCM.
 Atomic radii         : UA0 (Simple United Atom Topological Model).
 Polarization charges : Total charges.
 Charge compensation  : None.
 Solution method      : On-the-fly selection.
 Cavity type          : VdW (van der Waals Surface) (Alpha=1.000).
 Cavity algorithm     : GePol (No added spheres)
                        User-defined sphere list used, NSphG=   28.
                        Tesserae with average area of 0.075 Ang**2.
                        Smoothing algorithm: None.
                        Polarization charges: point-like.
                        Self-potential: constant (ISelfS= 1).
                        Self-field    : global E.n sum rule (ISelfD= 3).
 Solvent              : CycloHexane, Eps=   2.016500 Eps(inf)=   2.035188
 ------------------------------------------------------------------------------
 GePol: Number of generator spheres                  =      28
 GePol: Total number of spheres                      =      28
 GePol: Number of exposed spheres                    =      28 (100.00%)
 GePol: Number of tesserae                           =    3810
 GePol: Average area of tesserae                     =       0.06 Ang**2
 GePol: Minimum area of tessera                      =   0.10D-02 Ang**2
 GePol: Maximum area of tessera                      =    0.12395 Ang**2
 GePol: Number of small tesserae                     =       0
 GePol: Fraction of small tesserae (<1% of avg)      =       0.00%
 GePol: Total count of vertices                      =   12625
 GePol: Maximum number of vertices in a tessera      =       6
 GePol: Cavity surface area                          =    230.757 Ang**2
 GePol: Cavity volume                                =    238.023 Ang**3
 PCM non-electrostatic energy =         0.0356380760 Hartrees.
 Nuclear repulsion after PCM non-electrostatic terms =      687.0471119957 Hartrees.
 Leave Link  301 at Tue Aug  4 21:40:56 2020, MaxMem=  6442450944 cpu:               3.2 elap:               0.2
 (Enter /scratch/scicomp/CentOS/7.3.1611/Haswell/software/Gaussian/g16/l302.exe)
 NPDir=0 NMtPBC=     1 NCelOv=     1 NCel=       1 NClECP=     1 NCelD=      1
         NCelK=      1 NCelE2=     1 NClLst=     1 CellRange=     0.0.
 One-electron integrals computed using PRISM.
   1 Symmetry operations used in ECPInt.
 ECPInt:  NShTT=   19306 NPrTT=   56928 LenC2=   18510 LenP2D=   42170.
 LDataN:  DoStor=T MaxTD1= 6 Len=  172
 NBasis=   468 RedAO= T EigKep=  2.36D-05  NBF=   468
 NBsUse=   468 1.00D-06 EigRej= -1.00D+00 NBFU=   468
 Precomputing XC quadrature grid using
 IXCGrd= 4 IRadAn=           5 IRanWt=          -1 IRanGd=           0 AccXCQ= 0.00D+00.
 Generated NRdTot=       0 NPtTot=           0 NUsed=           0 NTot=          32
 NSgBfM=   526   526   526   526   526 MxSgAt=    28 MxSgA2=    28.
 Leave Link  302 at Tue Aug  4 21:40:57 2020, MaxMem=  6442450944 cpu:              11.8 elap:               0.5
 (Enter /scratch/scicomp/CentOS/7.3.1611/Haswell/software/Gaussian/g16/l401.exe)
 ExpMin= 9.52D-02 ExpMax= 1.36D+04 ExpMxC= 4.63D+02 IAcc=3 IRadAn=         5 AccDes= 0.00D+00
 Harris functional with IExCor= 4639 and IRadAn=       5 diagonalized for initial guess.
 HarFok:  IExCor= 4639 AccDes= 0.00D+00 IRadAn=         5 IDoV= 1 UseB2=F ITyADJ=14
 ICtDFT=  3500011 ScaDFX=  1.000000  1.000000  1.000000  1.000000
 FoFCou: FMM=F IPFlag=           0 FMFlag=      100000 FMFlg1=           0
         NFxFlg=           0 DoJE=T BraDBF=F KetDBF=T FulRan=T
         wScrn=  0.000000 ICntrl=       500 IOpCl=  0 I1Cent=   200000004 NGrid=           0
         NMat0=    1 NMatS0=      1 NMatT0=    0 NMatD0=    1 NMtDS0=    0 NMtDT0=    0
 Symmetry not used in FoFCou.
 Harris En= -444.579836227623    
 JPrj=0 DoOrth=F DoCkMO=T.
 Mixing orbitals, IMix= 1 IMixAn=  0 NRI=1 NE=   44 Coef=  7.07106781D-01  7.07106781D-01
 Mixing orbitals, IMix= 1 IMixAn=  0 NRI=1 NE=   44 Coef= -7.07106781D-01  7.07106781D-01
 Initial guess <Sx>= 0.0000 <Sy>= 0.0000 <Sz>= 0.0000 <S**2>= 1.0000 S= 0.6180
 Leave Link  401 at Tue Aug  4 21:40:59 2020, MaxMem=  6442450944 cpu:              47.4 elap:               2.0
 (Enter /scratch/scicomp/CentOS/7.3.1611/Haswell/software/Gaussian/g16/l9999.exe)

 This type of calculation cannot be archived.


 IT IS UNWORTHY OF EXCELLENT MEN TO LOSE HOURS LIKE SLAVES IN THE LABOR
 OF CALCULATION WHICH COULD BE SAFELY RELEGATED TO ANYONE ELSE
 IF A MACHINE WERE USED.
    -- G.W. VON LEIBNIZ
 Job cpu time:       0 days  0 hours  1 minutes  7.3 seconds.
 Elapsed time:       0 days  0 hours  0 minutes  3.1 seconds.
 File lengths (MBytes):  RWF=    275 Int=      0 D2E=      0 Chk=      1 Scr=      1
 Normal termination of Gaussian 16 at Tue Aug  4 21:40:59 2020.
 Initial command:
 /scratch/scicomp/CentOS/7.3.1611/Haswell/software/Gaussian/g16/l1.exe "/scratch/bochen/cyclohexadiene-dimerization/wb97xd-def2tzvp/xp-pcm/meso/Gau-82873.inp" -scrdir="/scratch/bochen/cyclohexadiene-dimerization/wb97xd-def2tzvp/xp-pcm/meso/"
 Entering Link 1 = /scratch/scicomp/CentOS/7.3.1611/Haswell/software/Gaussian/g16/l1.exe PID=     83036.
  
 Copyright (c) 1988-2017, Gaussian, Inc.  All Rights Reserved.
  
 This is part of the Gaussian(R) 16 program.  It is based on
 the Gaussian(R) 09 system (copyright 2009, Gaussian, Inc.),
 the Gaussian(R) 03 system (copyright 2003, Gaussian, Inc.),
 the Gaussian(R) 98 system (copyright 1998, Gaussian, Inc.),
 the Gaussian(R) 94 system (copyright 1995, Gaussian, Inc.),
 the Gaussian 92(TM) system (copyright 1992, Gaussian, Inc.),
 the Gaussian 90(TM) system (copyright 1990, Gaussian, Inc.),
 the Gaussian 88(TM) system (copyright 1988, Gaussian, Inc.),
 the Gaussian 86(TM) system (copyright 1986, Carnegie Mellon
 University), and the Gaussian 82(TM) system (copyright 1983,
 Carnegie Mellon University). Gaussian is a federally registered
 trademark of Gaussian, Inc.
  
 This software contains proprietary and confidential information,
 including trade secrets, belonging to Gaussian, Inc.
  
 This software is provided under written license and may be
 used, copied, transmitted, or stored only in accord with that
 written license.
  
 The following legend is applicable only to US Government
 contracts under FAR:
  
                    RESTRICTED RIGHTS LEGEND
  
 Use, reproduction and disclosure by the US Government is
 subject to restrictions as set forth in subparagraphs (a)
 and (c) of the Commercial Computer Software - Restricted
 Rights clause in FAR 52.227-19.
  
 Gaussian, Inc.
 340 Quinnipiac St., Bldg. 40, Wallingford CT 06492
  
  
 ---------------------------------------------------------------
 Warning -- This program may not be used in any manner that
 competes with the business of Gaussian, Inc. or will provide
 assistance to any competitor of Gaussian, Inc.  The licensee
 of this program is prohibited from giving any competitor of
 Gaussian, Inc. access to this program.  By using this program,
 the user acknowledges that Gaussian, Inc. is engaged in the
 business of creating and licensing software in the field of
 computational chemistry and represents and warrants to the
 licensee that it is not a competitor of Gaussian, Inc. and that
 it will not use this program in any manner prohibited above.
 ---------------------------------------------------------------
  

 Cite this work as:
 Gaussian 16, Revision B.01,
 M. J. Frisch, G. W. Trucks, H. B. Schlegel, G. E. Scuseria, 
 M. A. Robb, J. R. Cheeseman, G. Scalmani, V. Barone, 
 G. A. Petersson, H. Nakatsuji, X. Li, M. Caricato, A. V. Marenich, 
 J. Bloino, B. G. Janesko, R. Gomperts, B. Mennucci, H. P. Hratchian, 
 J. V. Ortiz, A. F. Izmaylov, J. L. Sonnenberg, D. Williams-Young, 
 F. Ding, F. Lipparini, F. Egidi, J. Goings, B. Peng, A. Petrone, 
 T. Henderson, D. Ranasinghe, V. G. Zakrzewski, J. Gao, N. Rega, 
 G. Zheng, W. Liang, M. Hada, M. Ehara, K. Toyota, R. Fukuda, 
 J. Hasegawa, M. Ishida, T. Nakajima, Y. Honda, O. Kitao, H. Nakai, 
 T. Vreven, K. Throssell, J. A. Montgomery, Jr., J. E. Peralta, 
 F. Ogliaro, M. J. Bearpark, J. J. Heyd, E. N. Brothers, K. N. Kudin, 
 V. N. Staroverov, T. A. Keith, R. Kobayashi, J. Normand, 
 K. Raghavachari, A. P. Rendell, J. C. Burant, S. S. Iyengar, 
 J. Tomasi, M. Cossi, J. M. Millam, M. Klene, C. Adamo, R. Cammi, 
 J. W. Ochterski, R. L. Martin, K. Morokuma, O. Farkas, 
 J. B. Foresman, and D. J. Fox, Gaussian, Inc., Wallingford CT, 2016.
 
 ******************************************
 Gaussian 16:  ES64L-G16RevB.01 20-Dec-2017
                 4-Aug-2020 
 ******************************************
 %chk=scr.chk
 %nproc=24
 Will use up to   24 processors via shared memory.
 %mem=48GB
 ----------------------------------------------------------------------
 #p uwb97xd guess=mix def2tzvp # scrf=(iefpcm,solvent=Cyclohexane,read)
  nosym guess=only pop=none
 ----------------------------------------------------------------------
 1/38=1,40=2,172=1/1;
 2/12=2,15=1,17=6,18=5,40=1/2;
 3/5=44,7=101,11=2,25=1,30=1,70=2203,72=17,74=-58,89=1,116=2/1,2;
 4/13=-1/1;
 99/5=2/99;
 Leave Link    1 at Tue Aug  4 21:40:59 2020, MaxMem=  6442450944 cpu:               1.4 elap:               0.1
 (Enter /scratch/scicomp/CentOS/7.3.1611/Haswell/software/Gaussian/g16/l101.exe)
 -------------------------------------------------
 endo-2 xp-pcm with Vmol=101.730197792279 cm^3/mol
 -------------------------------------------------
 Symbolic Z-matrix:
 Charge =  0 Multiplicity = 1
 6                    -3.12169  -0.43794   0.24848 
 6                    -0.60889  -0.21827  -1.03699 
 1                    -4.08505  -0.54816   0.73279 
 1                     0.36031  -0.12471  -1.50659 
 6                     1.0996    1.41098   0.7054 
 6                     0.60889   0.21827   1.03699 
 1                     0.51411   2.31109   0.84333 
 1                    -0.36031   0.12471   1.50659 
 6                     1.48341  -1.00069   1.0115 
 1                     1.95092  -1.04772   2.0031 
 1                     0.89193  -1.90928   0.91402 
 6                     2.4259    1.51795   0.10904 
 1                     2.8341    2.50596  -0.06791 
 6                     3.12169   0.43794  -0.24848 
 1                     4.08505   0.54816  -0.73279 
 6                     2.59025  -0.95486  -0.04578 
 1                     2.23599  -1.34484  -1.00803 
 1                     3.40096  -1.62171   0.25523 
 6                    -1.0996   -1.41098  -0.7054 
 1                    -0.51411  -2.31109  -0.84333 
 6                    -2.4259   -1.51795  -0.10904 
 1                    -2.8341   -2.50596   0.06791 
 6                    -1.48341   1.00069  -1.0115 
 1                    -0.89193   1.90928  -0.91402 
 1                    -1.95092   1.04772  -2.0031 
 6                    -2.59025   0.95486   0.04578 
 1                    -3.40096   1.62171  -0.25523 
 1                    -2.23599   1.34484   1.00803 
 
 ITRead=  0  0  0  0  0  0  0  0  0  0  0  0  0  0  0  0  0  0  0  0
 ITRead=  0  0  0  0  0  0  0  0
 MicOpt= -1 -1 -1 -1 -1 -1 -1 -1 -1 -1 -1 -1 -1 -1 -1 -1 -1 -1 -1 -1
 MicOpt= -1 -1 -1 -1 -1 -1 -1 -1
 NAtoms=     28 NQM=       28 NQMF=       0 NMMI=      0 NMMIF=      0
                NMic=       0 NMicF=      0.
                    Isotopes and Nuclear Properties:
 (Nuclear quadrupole moments (NQMom) in fm**2, nuclear magnetic moments (NMagM)
  in nuclear magnetons)

  Atom         1           2           3           4           5           6           7           8           9          10
 IAtWgt=          12          12           1           1          12          12           1           1          12           1
 AtmWgt=  12.0000000  12.0000000   1.0078250   1.0078250  12.0000000  12.0000000   1.0078250   1.0078250  12.0000000   1.0078250
 NucSpn=           0           0           1           1           0           0           1           1           0           1
 AtZEff=  -0.0000000  -0.0000000  -0.0000000  -0.0000000  -0.0000000  -0.0000000  -0.0000000  -0.0000000  -0.0000000  -0.0000000
 NQMom=    0.0000000   0.0000000   0.0000000   0.0000000   0.0000000   0.0000000   0.0000000   0.0000000   0.0000000   0.0000000
 NMagM=    0.0000000   0.0000000   2.7928460   2.7928460   0.0000000   0.0000000   2.7928460   2.7928460   0.0000000   2.7928460
 AtZNuc=   6.0000000   6.0000000   1.0000000   1.0000000   6.0000000   6.0000000   1.0000000   1.0000000   6.0000000   1.0000000

  Atom        11          12          13          14          15          16          17          18          19          20
 IAtWgt=           1          12           1          12           1          12           1           1          12           1
 AtmWgt=   1.0078250  12.0000000   1.0078250  12.0000000   1.0078250  12.0000000   1.0078250   1.0078250  12.0000000   1.0078250
 NucSpn=           1           0           1           0           1           0           1           1           0           1
 AtZEff=  -0.0000000  -0.0000000  -0.0000000  -0.0000000  -0.0000000  -0.0000000  -0.0000000  -0.0000000  -0.0000000  -0.0000000
 NQMom=    0.0000000   0.0000000   0.0000000   0.0000000   0.0000000   0.0000000   0.0000000   0.0000000   0.0000000   0.0000000
 NMagM=    2.7928460   0.0000000   2.7928460   0.0000000   2.7928460   0.0000000   2.7928460   2.7928460   0.0000000   2.7928460
 AtZNuc=   1.0000000   6.0000000   1.0000000   6.0000000   1.0000000   6.0000000   1.0000000   1.0000000   6.0000000   1.0000000

  Atom        21          22          23          24          25          26          27          28
 IAtWgt=          12           1          12           1           1          12           1           1
 AtmWgt=  12.0000000   1.0078250  12.0000000   1.0078250   1.0078250  12.0000000   1.0078250   1.0078250
 NucSpn=           0           1           0           1           1           0           1           1
 AtZEff=  -0.0000000  -0.0000000  -0.0000000  -0.0000000  -0.0000000  -0.0000000  -0.0000000  -0.0000000
 NQMom=    0.0000000   0.0000000   0.0000000   0.0000000   0.0000000   0.0000000   0.0000000   0.0000000
 NMagM=    0.0000000   2.7928460   0.0000000   2.7928460   2.7928460   0.0000000   2.7928460   2.7928460
 AtZNuc=   6.0000000   1.0000000   6.0000000   1.0000000   1.0000000   6.0000000   1.0000000   1.0000000
 Leave Link  101 at Tue Aug  4 21:40:59 2020, MaxMem=  6442450944 cpu:               2.4 elap:               0.1
 (Enter /scratch/scicomp/CentOS/7.3.1611/Haswell/software/Gaussian/g16/l202.exe)
                          Input orientation:                          
 ---------------------------------------------------------------------
 Center     Atomic      Atomic             Coordinates (Angstroms)
 Number     Number       Type             X           Y           Z
 ---------------------------------------------------------------------
      1          6           0       -3.121693   -0.437935    0.248475
      2          6           0       -0.608894   -0.218266   -1.036985
      3          1           0       -4.085054   -0.548156    0.732789
      4          1           0        0.360308   -0.124712   -1.506593
      5          6           0        1.099596    1.410984    0.705395
      6          6           0        0.608894    0.218266    1.036985
      7          1           0        0.514105    2.311092    0.843328
      8          1           0       -0.360308    0.124712    1.506593
      9          6           0        1.483411   -1.000688    1.011498
     10          1           0        1.950917   -1.047718    2.003099
     11          1           0        0.891930   -1.909281    0.914020
     12          6           0        2.425900    1.517947    0.109041
     13          1           0        2.834101    2.505963   -0.067907
     14          6           0        3.121693    0.437935   -0.248475
     15          1           0        4.085054    0.548156   -0.732789
     16          6           0        2.590248   -0.954860   -0.045775
     17          1           0        2.235992   -1.344838   -1.008028
     18          1           0        3.400959   -1.621706    0.255233
     19          6           0       -1.099596   -1.410984   -0.705395
     20          1           0       -0.514105   -2.311092   -0.843328
     21          6           0       -2.425900   -1.517947   -0.109041
     22          1           0       -2.834101   -2.505963    0.067907
     23          6           0       -1.483411    1.000688   -1.011498
     24          1           0       -0.891929    1.909281   -0.914020
     25          1           0       -1.950917    1.047718   -2.003099
     26          6           0       -2.590248    0.954860    0.045775
     27          1           0       -3.400959    1.621706   -0.255234
     28          1           0       -2.235992    1.344838    1.008028
 ---------------------------------------------------------------------
                    Distance matrix (angstroms):
                    1          2          3          4          5
     1  C    0.000000
     2  C    2.831046   0.000000
     3  H    1.083870   3.914667   0.000000
     4  H    3.911867   1.081035   4.995536   0.000000
     5  C    4.631043   2.934158   5.542524   2.792454   0.000000
     6  C    3.869060   2.444365   4.765825   2.578608   1.331659
     7  H    4.596741   3.345797   5.416621   3.388056   1.082599
     8  H    3.086208   2.578608   3.863322   3.108181   2.104218
     9  C    4.701689   3.030876   5.593770   2.893005   2.461133
    10  H    5.402029   4.059893   6.188392   3.962312   2.907576
    11  H    4.326312   2.986373   5.162933   3.053961   3.333288
    12  C    5.883936   3.679373   6.859327   3.094394   1.458136
    13  H    6.651174   4.496082   7.605489   3.887148   2.192141
    14  C    6.324079   3.869060   7.339786   3.086208   2.438354
    15  H    7.339786   4.765825   8.372603   3.863322   3.424296
    16  C    5.742827   3.429224   6.732847   2.792090   2.895430
    17  H    5.577281   3.059964   6.604602   2.292480   3.438280
    18  H    6.629204   4.440540   7.577662   3.819762   3.833553
    19  C    2.438354   1.331659   3.424296   2.104218   3.845813
    20  H    3.391204   2.103903   4.282962   2.446380   4.342398
    21  C    1.333556   2.419041   2.098086   3.414266   4.655219
    22  H    2.095723   3.377261   2.416601   4.284117   5.587740
    23  C    2.518161   1.500426   3.494281   2.216065   3.128576
    24  H    3.439864   2.149811   4.352818   2.460969   2.614761
    25  H    2.940658   2.082575   3.819220   2.638725   4.095550
    26  C    1.504460   2.544476   2.228338   3.504440   3.775989
    27  H    2.138652   3.433986   2.480419   4.331628   4.606757
    28  H    2.130649   3.045131   2.660491   3.901752   3.349942
                    6          7          8          9         10
     6  C    0.000000
     7  H    2.103903   0.000000
     8  H    1.081035   2.446380   0.000000
     9  C    1.500426   3.454811   2.216065   0.000000
    10  H    2.082575   3.832897   2.638725   1.097290   0.000000
    11  H    2.149811   4.237841   2.460969   1.088528   1.746378
    12  C    2.419041   2.196182   3.414266   2.836589   3.224237
    13  H    3.377261   2.500141   4.284117   3.909742   4.206867
    14  C    2.831046   3.391204   3.911867   2.518161   2.940658
    15  H    3.914667   4.282962   4.995536   3.494281   3.819220
    16  C    2.544476   3.970808   3.504440   1.531344   2.148314
    17  H    3.045131   4.445024   3.901752   2.182499   3.039150
    18  H    3.433986   4.913927   4.331629   2.152810   2.342460
    19  C    2.934158   4.342398   2.792454   3.128576   4.095550
    20  H    3.345797   5.026590   3.388056   3.024501   3.971724
    21  C    3.679373   4.920587   3.094394   4.099497   4.882497
    22  H    4.496082   5.917413   3.887148   4.668739   5.363566
    23  C    3.030876   3.024501   2.893005   4.110967   5.007831
    24  H    2.986373   2.286188   3.053960   4.221111   5.033408
    25  H    4.059893   3.971724   3.962312   5.007831   5.972000
    26  C    3.429224   3.480296   2.792090   4.620767   5.335130
    27  H    4.440540   4.124296   3.819762   5.686706   6.392845
    28  H    3.059964   2.919556   2.292480   4.397211   4.923890
                   11         12         13         14         15
    11  H    0.000000
    12  C    3.840175   0.000000
    13  H    4.922458   1.083566   0.000000
    14  C    3.439863   1.333556   2.095723   0.000000
    15  H    4.352817   2.098086   2.416601   1.083870   0.000000
    16  C    2.171730   2.483093   3.469474   1.504460   2.228338
    17  H    2.412336   3.078871   4.008769   2.130649   2.660491
    18  H    2.609967   3.290826   4.178923   2.138652   2.480418
    19  C    2.614762   4.655219   5.587740   4.631043   5.542524
    20  H    2.286189   4.920587   5.917413   4.596741   5.416621
    21  C    3.493965   5.727493   6.622775   5.883936   6.859327
    22  H    3.867201   6.622775   7.567454   6.651174   7.605489
    23  C    4.221112   4.099497   4.668739   4.701689   5.593770
    24  H    4.594050   3.493964   3.867200   4.326311   5.162932
    25  H    5.033409   4.882497   5.363566   5.402029   6.188392
    26  C    4.591592   5.048050   5.642908   5.742827   6.732847
    27  H    5.680134   5.839156   6.300236   6.629204   7.577662
    28  H    4.514646   4.750935   5.311468   5.577281   6.604602
                   16         17         18         19         20
    16  C    0.000000
    17  H    1.097046   0.000000
    18  H    1.092036   1.740584   0.000000
    19  C    3.775989   3.349942   4.606756   0.000000
    20  H    3.480296   2.919556   4.124296   1.082599   0.000000
    21  C    5.048050   4.750935   5.839156   1.458136   2.196182
    22  H    5.642908   5.311468   6.300236   2.192141   2.500141
    23  C    4.620767   4.397211   5.686706   2.461133   3.454811
    24  H    4.591591   4.514645   5.680133   3.333288   4.237841
    25  H    5.335130   4.923890   6.392845   2.907576   3.832897
    26  C    5.522042   5.449009   6.525115   2.895430   3.970808
    27  H    6.525115   6.414226   7.552906   3.833553   4.913927
    28  H    5.449009   5.594415   6.414226   3.438280   4.445024
                   21         22         23         24         25
    21  C    0.000000
    22  H    1.083566   0.000000
    23  C    2.836589   3.909742   0.000000
    24  H    3.840176   4.922458   1.088528   0.000000
    25  H    3.224237   4.206867   1.097290   1.746379   0.000000
    26  C    2.483093   3.469474   1.531344   2.171730   2.148314
    27  H    3.290826   4.178923   2.152810   2.609967   2.342459
    28  H    3.078871   4.008769   2.182499   2.412337   3.039150
                   26         27         28
    26  C    0.000000
    27  H    1.092036   0.000000
    28  H    1.097046   1.740585   0.000000
 Symmetry turned off by external request.
 Stoichiometry    C12H16
 Framework group  CI[X(C12H16)]
 Deg. of freedom    39
 Full point group                 CI      NOp   2
 Rotational constants (GHZ):           1.8833190           0.6233103           0.5480463
 Leave Link  202 at Tue Aug  4 21:41:00 2020, MaxMem=  6442450944 cpu:               0.3 elap:               0.0
 (Enter /scratch/scicomp/CentOS/7.3.1611/Haswell/software/Gaussian/g16/l301.exe)
 Standard basis: def2TZVP (5D, 7F)
 Ernie: Thresh=  0.10000D-02 Tol=  0.10000D-05 Strict=F.
   468 basis functions,   740 primitive gaussians,   528 cartesian basis functions
    44 alpha electrons       44 beta electrons
       nuclear repulsion energy       687.0344264793 Hartrees.
 IExCor= 4639 DFT=T Ex+Corr=wB97XD ExCW=0 ScaHFX=  1.000000
 ScaDFX=  1.000000  1.000000  1.000000  1.000000 ScalE2=  1.000000  1.000000
 IRadAn=      5 IRanWt=     -1 IRanGd=            0 ICorTp=0 IEmpDi=121
 HFx  wShort=  0.000000 wLong=  0.200000 cFull=  0.222036 cShort=  0.000000 cLong=  0.777964
 DFx  wShort=  0.000000 wLong=  0.200000 cFull=  0.000000 cShort=  0.000000 cLong=  1.000000
 NAtoms=   28 NActive=   28 NUniq=   28 SFac= 1.00D+00 NAtFMM=   60 NAOKFM=F Big=F
 Integral buffers will be    131072 words long.
 Raffenetti 2 integral format.
 Two-electron integral symmetry is turned off.
 R6Disp:  Grimme-D2 Dispersion energy=       -0.0229525597 Hartrees.
 Nuclear repulsion after empirical dispersion term =      687.0114739197 Hartrees.
 Using the following non-standard input for PCM:
 norep  pcmdoc geomview  nodis cav g03defaults noaddsph  tsare=0.075
 Warning! Using old PCM defaults because the g03defaults keyword was found.
 These settings can be overridden by following keywords.
 nsfe=28
 Vmol=101.730197792279 Rsolv=2.815
 --- end of non-standard input.
 Reading user-defined spheres from input:
 ISph  on   Nord    Re0     Alpha      Xe            Ye            Ze
 --- end of user-defined spheres data.
 ------------------------------------------------------------------------------
 Polarizable Continuum Model (PCM)
 =================================
 Model                : PCM.
 Atomic radii         : UA0 (Simple United Atom Topological Model).
 Polarization charges : Total charges.
 Charge compensation  : None.
 Solution method      : On-the-fly selection.
 Cavity type          : VdW (van der Waals Surface) (Alpha=1.000).
 Cavity algorithm     : GePol (No added spheres)
                        User-defined sphere list used, NSphG=   28.
                        Tesserae with average area of 0.075 Ang**2.
                        Smoothing algorithm: None.
                        Polarization charges: point-like.
                        Self-potential: constant (ISelfS= 1).
                        Self-field    : global E.n sum rule (ISelfD= 3).
 Solvent              : CycloHexane, Eps=   2.016500 Eps(inf)=   2.035188
 ------------------------------------------------------------------------------
 GePol: Number of generator spheres                  =      28
 GePol: Total number of spheres                      =      28
 GePol: Number of exposed spheres                    =      28 (100.00%)
 GePol: Number of tesserae                           =    3810
 GePol: Average area of tesserae                     =       0.06 Ang**2
 GePol: Minimum area of tessera                      =   0.10D-02 Ang**2
 GePol: Maximum area of tessera                      =    0.12395 Ang**2
 GePol: Number of small tesserae                     =       0
 GePol: Fraction of small tesserae (<1% of avg)      =       0.00%
 GePol: Total count of vertices                      =   12625
 GePol: Maximum number of vertices in a tessera      =       6
 GePol: Cavity surface area                          =    230.757 Ang**2
 GePol: Cavity volume                                =    238.023 Ang**3
 PCM non-electrostatic energy =         0.0423340544 Hartrees.
 Nuclear repulsion after PCM non-electrostatic terms =      687.0538079741 Hartrees.
 Leave Link  301 at Tue Aug  4 21:41:00 2020, MaxMem=  6442450944 cpu:               3.1 elap:               0.2
 (Enter /scratch/scicomp/CentOS/7.3.1611/Haswell/software/Gaussian/g16/l302.exe)
 NPDir=0 NMtPBC=     1 NCelOv=     1 NCel=       1 NClECP=     1 NCelD=      1
         NCelK=      1 NCelE2=     1 NClLst=     1 CellRange=     0.0.
 One-electron integrals computed using PRISM.
   1 Symmetry operations used in ECPInt.
 ECPInt:  NShTT=   19306 NPrTT=   56928 LenC2=   18510 LenP2D=   42170.
 LDataN:  DoStor=T MaxTD1= 6 Len=  172
 NBasis=   468 RedAO= T EigKep=  2.36D-05  NBF=   468
 NBsUse=   468 1.00D-06 EigRej= -1.00D+00 NBFU=   468
 Precomputing XC quadrature grid using
 IXCGrd= 4 IRadAn=           5 IRanWt=          -1 IRanGd=           0 AccXCQ= 0.00D+00.
 Generated NRdTot=       0 NPtTot=           0 NUsed=           0 NTot=          32
 NSgBfM=   526   526   526   526   526 MxSgAt=    28 MxSgA2=    28.
 Leave Link  302 at Tue Aug  4 21:41:00 2020, MaxMem=  6442450944 cpu:              11.8 elap:               0.5
 (Enter /scratch/scicomp/CentOS/7.3.1611/Haswell/software/Gaussian/g16/l401.exe)
 ExpMin= 9.52D-02 ExpMax= 1.36D+04 ExpMxC= 4.63D+02 IAcc=3 IRadAn=         5 AccDes= 0.00D+00
 Harris functional with IExCor= 4639 and IRadAn=       5 diagonalized for initial guess.
 HarFok:  IExCor= 4639 AccDes= 0.00D+00 IRadAn=         5 IDoV= 1 UseB2=F ITyADJ=14
 ICtDFT=  3500011 ScaDFX=  1.000000  1.000000  1.000000  1.000000
 FoFCou: FMM=F IPFlag=           0 FMFlag=      100000 FMFlg1=           0
         NFxFlg=           0 DoJE=T BraDBF=F KetDBF=T FulRan=T
         wScrn=  0.000000 ICntrl=       500 IOpCl=  0 I1Cent=   200000004 NGrid=           0
         NMat0=    1 NMatS0=      1 NMatT0=    0 NMatD0=    1 NMtDS0=    0 NMtDT0=    0
 Symmetry not used in FoFCou.
 Harris En= -444.573140249270    
 JPrj=0 DoOrth=F DoCkMO=T.
 Mixing orbitals, IMix= 1 IMixAn=  0 NRI=1 NE=   44 Coef=  7.07106781D-01  7.07106781D-01
 Mixing orbitals, IMix= 1 IMixAn=  0 NRI=1 NE=   44 Coef= -7.07106781D-01  7.07106781D-01
 Initial guess <Sx>= 0.0000 <Sy>= 0.0000 <Sz>= 0.0000 <S**2>= 1.0000 S= 0.6180
 Leave Link  401 at Tue Aug  4 21:41:03 2020, MaxMem=  6442450944 cpu:              47.9 elap:               2.1
 (Enter /scratch/scicomp/CentOS/7.3.1611/Haswell/software/Gaussian/g16/l9999.exe)

 This type of calculation cannot be archived.


 Life may have no meaning.  Or even worse, it may have a
 meaning of which I disapprove.
                                 -- Ashleigh Brilliant
 Job cpu time:       0 days  0 hours  1 minutes  7.8 seconds.
 Elapsed time:       0 days  0 hours  0 minutes  3.1 seconds.
 File lengths (MBytes):  RWF=    275 Int=      0 D2E=      0 Chk=      1 Scr=      1
 Normal termination of Gaussian 16 at Tue Aug  4 21:41:03 2020.
 Initial command:
 /scratch/scicomp/CentOS/7.3.1611/Haswell/software/Gaussian/g16/l1.exe "/scratch/bochen/cyclohexadiene-dimerization/wb97xd-def2tzvp/xp-pcm/meso/Gau-82873.inp" -scrdir="/scratch/bochen/cyclohexadiene-dimerization/wb97xd-def2tzvp/xp-pcm/meso/"
 Entering Link 1 = /scratch/scicomp/CentOS/7.3.1611/Haswell/software/Gaussian/g16/l1.exe PID=     83198.
  
 Copyright (c) 1988-2017, Gaussian, Inc.  All Rights Reserved.
  
 This is part of the Gaussian(R) 16 program.  It is based on
 the Gaussian(R) 09 system (copyright 2009, Gaussian, Inc.),
 the Gaussian(R) 03 system (copyright 2003, Gaussian, Inc.),
 the Gaussian(R) 98 system (copyright 1998, Gaussian, Inc.),
 the Gaussian(R) 94 system (copyright 1995, Gaussian, Inc.),
 the Gaussian 92(TM) system (copyright 1992, Gaussian, Inc.),
 the Gaussian 90(TM) system (copyright 1990, Gaussian, Inc.),
 the Gaussian 88(TM) system (copyright 1988, Gaussian, Inc.),
 the Gaussian 86(TM) system (copyright 1986, Carnegie Mellon
 University), and the Gaussian 82(TM) system (copyright 1983,
 Carnegie Mellon University). Gaussian is a federally registered
 trademark of Gaussian, Inc.
  
 This software contains proprietary and confidential information,
 including trade secrets, belonging to Gaussian, Inc.
  
 This software is provided under written license and may be
 used, copied, transmitted, or stored only in accord with that
 written license.
  
 The following legend is applicable only to US Government
 contracts under FAR:
  
                    RESTRICTED RIGHTS LEGEND
  
 Use, reproduction and disclosure by the US Government is
 subject to restrictions as set forth in subparagraphs (a)
 and (c) of the Commercial Computer Software - Restricted
 Rights clause in FAR 52.227-19.
  
 Gaussian, Inc.
 340 Quinnipiac St., Bldg. 40, Wallingford CT 06492
  
  
 ---------------------------------------------------------------
 Warning -- This program may not be used in any manner that
 competes with the business of Gaussian, Inc. or will provide
 assistance to any competitor of Gaussian, Inc.  The licensee
 of this program is prohibited from giving any competitor of
 Gaussian, Inc. access to this program.  By using this program,
 the user acknowledges that Gaussian, Inc. is engaged in the
 business of creating and licensing software in the field of
 computational chemistry and represents and warrants to the
 licensee that it is not a competitor of Gaussian, Inc. and that
 it will not use this program in any manner prohibited above.
 ---------------------------------------------------------------
  

 Cite this work as:
 Gaussian 16, Revision B.01,
 M. J. Frisch, G. W. Trucks, H. B. Schlegel, G. E. Scuseria, 
 M. A. Robb, J. R. Cheeseman, G. Scalmani, V. Barone, 
 G. A. Petersson, H. Nakatsuji, X. Li, M. Caricato, A. V. Marenich, 
 J. Bloino, B. G. Janesko, R. Gomperts, B. Mennucci, H. P. Hratchian, 
 J. V. Ortiz, A. F. Izmaylov, J. L. Sonnenberg, D. Williams-Young, 
 F. Ding, F. Lipparini, F. Egidi, J. Goings, B. Peng, A. Petrone, 
 T. Henderson, D. Ranasinghe, V. G. Zakrzewski, J. Gao, N. Rega, 
 G. Zheng, W. Liang, M. Hada, M. Ehara, K. Toyota, R. Fukuda, 
 J. Hasegawa, M. Ishida, T. Nakajima, Y. Honda, O. Kitao, H. Nakai, 
 T. Vreven, K. Throssell, J. A. Montgomery, Jr., J. E. Peralta, 
 F. Ogliaro, M. J. Bearpark, J. J. Heyd, E. N. Brothers, K. N. Kudin, 
 V. N. Staroverov, T. A. Keith, R. Kobayashi, J. Normand, 
 K. Raghavachari, A. P. Rendell, J. C. Burant, S. S. Iyengar, 
 J. Tomasi, M. Cossi, J. M. Millam, M. Klene, C. Adamo, R. Cammi, 
 J. W. Ochterski, R. L. Martin, K. Morokuma, O. Farkas, 
 J. B. Foresman, and D. J. Fox, Gaussian, Inc., Wallingford CT, 2016.
 
 ******************************************
 Gaussian 16:  ES64L-G16RevB.01 20-Dec-2017
                 4-Aug-2020 
 ******************************************
 %chk=scr.chk
 %nproc=24
 Will use up to   24 processors via shared memory.
 %mem=48GB
 ----------------------------------------------------------------------
 #p uwb97xd guess=mix def2tzvp # scrf=(iefpcm,solvent=Cyclohexane,read)
  nosym guess=only pop=none
 ----------------------------------------------------------------------
 1/38=1,40=2,172=1/1;
 2/12=2,15=1,17=6,18=5,40=1/2;
 3/5=44,7=101,11=2,25=1,30=1,70=2203,72=17,74=-58,89=1,116=2/1,2;
 4/13=-1/1;
 99/5=2/99;
 Leave Link    1 at Tue Aug  4 21:41:03 2020, MaxMem=  6442450944 cpu:               1.4 elap:               0.1
 (Enter /scratch/scicomp/CentOS/7.3.1611/Haswell/software/Gaussian/g16/l101.exe)
 -------------------------------------------------
 endo-2 xp-pcm with Vmol=95.7726100512575 cm^3/mol
 -------------------------------------------------
 Symbolic Z-matrix:
 Charge =  0 Multiplicity = 1
 6                    -3.12169  -0.43794   0.24848 
 6                    -0.60889  -0.21827  -1.03699 
 1                    -4.08505  -0.54816   0.73279 
 1                     0.36031  -0.12471  -1.50659 
 6                     1.0996    1.41098   0.7054 
 6                     0.60889   0.21827   1.03699 
 1                     0.51411   2.31109   0.84333 
 1                    -0.36031   0.12471   1.50659 
 6                     1.48341  -1.00069   1.0115 
 1                     1.95092  -1.04772   2.0031 
 1                     0.89193  -1.90928   0.91402 
 6                     2.4259    1.51795   0.10904 
 1                     2.8341    2.50596  -0.06791 
 6                     3.12169   0.43794  -0.24848 
 1                     4.08505   0.54816  -0.73279 
 6                     2.59025  -0.95486  -0.04578 
 1                     2.23599  -1.34484  -1.00803 
 1                     3.40096  -1.62171   0.25523 
 6                    -1.0996   -1.41098  -0.7054 
 1                    -0.51411  -2.31109  -0.84333 
 6                    -2.4259   -1.51795  -0.10904 
 1                    -2.8341   -2.50596   0.06791 
 6                    -1.48341   1.00069  -1.0115 
 1                    -0.89193   1.90928  -0.91402 
 1                    -1.95092   1.04772  -2.0031 
 6                    -2.59025   0.95486   0.04578 
 1                    -3.40096   1.62171  -0.25523 
 1                    -2.23599   1.34484   1.00803 
 
 ITRead=  0  0  0  0  0  0  0  0  0  0  0  0  0  0  0  0  0  0  0  0
 ITRead=  0  0  0  0  0  0  0  0
 MicOpt= -1 -1 -1 -1 -1 -1 -1 -1 -1 -1 -1 -1 -1 -1 -1 -1 -1 -1 -1 -1
 MicOpt= -1 -1 -1 -1 -1 -1 -1 -1
 NAtoms=     28 NQM=       28 NQMF=       0 NMMI=      0 NMMIF=      0
                NMic=       0 NMicF=      0.
                    Isotopes and Nuclear Properties:
 (Nuclear quadrupole moments (NQMom) in fm**2, nuclear magnetic moments (NMagM)
  in nuclear magnetons)

  Atom         1           2           3           4           5           6           7           8           9          10
 IAtWgt=          12          12           1           1          12          12           1           1          12           1
 AtmWgt=  12.0000000  12.0000000   1.0078250   1.0078250  12.0000000  12.0000000   1.0078250   1.0078250  12.0000000   1.0078250
 NucSpn=           0           0           1           1           0           0           1           1           0           1
 AtZEff=  -0.0000000  -0.0000000  -0.0000000  -0.0000000  -0.0000000  -0.0000000  -0.0000000  -0.0000000  -0.0000000  -0.0000000
 NQMom=    0.0000000   0.0000000   0.0000000   0.0000000   0.0000000   0.0000000   0.0000000   0.0000000   0.0000000   0.0000000
 NMagM=    0.0000000   0.0000000   2.7928460   2.7928460   0.0000000   0.0000000   2.7928460   2.7928460   0.0000000   2.7928460
 AtZNuc=   6.0000000   6.0000000   1.0000000   1.0000000   6.0000000   6.0000000   1.0000000   1.0000000   6.0000000   1.0000000

  Atom        11          12          13          14          15          16          17          18          19          20
 IAtWgt=           1          12           1          12           1          12           1           1          12           1
 AtmWgt=   1.0078250  12.0000000   1.0078250  12.0000000   1.0078250  12.0000000   1.0078250   1.0078250  12.0000000   1.0078250
 NucSpn=           1           0           1           0           1           0           1           1           0           1
 AtZEff=  -0.0000000  -0.0000000  -0.0000000  -0.0000000  -0.0000000  -0.0000000  -0.0000000  -0.0000000  -0.0000000  -0.0000000
 NQMom=    0.0000000   0.0000000   0.0000000   0.0000000   0.0000000   0.0000000   0.0000000   0.0000000   0.0000000   0.0000000
 NMagM=    2.7928460   0.0000000   2.7928460   0.0000000   2.7928460   0.0000000   2.7928460   2.7928460   0.0000000   2.7928460
 AtZNuc=   1.0000000   6.0000000   1.0000000   6.0000000   1.0000000   6.0000000   1.0000000   1.0000000   6.0000000   1.0000000

  Atom        21          22          23          24          25          26          27          28
 IAtWgt=          12           1          12           1           1          12           1           1
 AtmWgt=  12.0000000   1.0078250  12.0000000   1.0078250   1.0078250  12.0000000   1.0078250   1.0078250
 NucSpn=           0           1           0           1           1           0           1           1
 AtZEff=  -0.0000000  -0.0000000  -0.0000000  -0.0000000  -0.0000000  -0.0000000  -0.0000000  -0.0000000
 NQMom=    0.0000000   0.0000000   0.0000000   0.0000000   0.0000000   0.0000000   0.0000000   0.0000000
 NMagM=    0.0000000   2.7928460   0.0000000   2.7928460   2.7928460   0.0000000   2.7928460   2.7928460
 AtZNuc=   6.0000000   1.0000000   6.0000000   1.0000000   1.0000000   6.0000000   1.0000000   1.0000000
 Leave Link  101 at Tue Aug  4 21:41:03 2020, MaxMem=  6442450944 cpu:               2.4 elap:               0.1
 (Enter /scratch/scicomp/CentOS/7.3.1611/Haswell/software/Gaussian/g16/l202.exe)
                          Input orientation:                          
 ---------------------------------------------------------------------
 Center     Atomic      Atomic             Coordinates (Angstroms)
 Number     Number       Type             X           Y           Z
 ---------------------------------------------------------------------
      1          6           0       -3.121693   -0.437935    0.248475
      2          6           0       -0.608894   -0.218266   -1.036985
      3          1           0       -4.085054   -0.548156    0.732789
      4          1           0        0.360308   -0.124712   -1.506593
      5          6           0        1.099596    1.410984    0.705395
      6          6           0        0.608894    0.218266    1.036985
      7          1           0        0.514105    2.311092    0.843328
      8          1           0       -0.360308    0.124712    1.506593
      9          6           0        1.483411   -1.000688    1.011498
     10          1           0        1.950917   -1.047718    2.003099
     11          1           0        0.891930   -1.909281    0.914020
     12          6           0        2.425900    1.517947    0.109041
     13          1           0        2.834101    2.505963   -0.067907
     14          6           0        3.121693    0.437935   -0.248475
     15          1           0        4.085054    0.548156   -0.732789
     16          6           0        2.590248   -0.954860   -0.045775
     17          1           0        2.235992   -1.344838   -1.008028
     18          1           0        3.400959   -1.621706    0.255233
     19          6           0       -1.099596   -1.410984   -0.705395
     20          1           0       -0.514105   -2.311092   -0.843328
     21          6           0       -2.425900   -1.517947   -0.109041
     22          1           0       -2.834101   -2.505963    0.067907
     23          6           0       -1.483411    1.000688   -1.011498
     24          1           0       -0.891929    1.909281   -0.914020
     25          1           0       -1.950917    1.047718   -2.003099
     26          6           0       -2.590248    0.954860    0.045775
     27          1           0       -3.400959    1.621706   -0.255234
     28          1           0       -2.235992    1.344838    1.008028
 ---------------------------------------------------------------------
                    Distance matrix (angstroms):
                    1          2          3          4          5
     1  C    0.000000
     2  C    2.831046   0.000000
     3  H    1.083870   3.914667   0.000000
     4  H    3.911867   1.081035   4.995536   0.000000
     5  C    4.631043   2.934158   5.542524   2.792454   0.000000
     6  C    3.869060   2.444365   4.765825   2.578608   1.331659
     7  H    4.596741   3.345797   5.416621   3.388056   1.082599
     8  H    3.086208   2.578608   3.863322   3.108181   2.104218
     9  C    4.701689   3.030876   5.593770   2.893005   2.461133
    10  H    5.402029   4.059893   6.188392   3.962312   2.907576
    11  H    4.326312   2.986373   5.162933   3.053961   3.333288
    12  C    5.883936   3.679373   6.859327   3.094394   1.458136
    13  H    6.651174   4.496082   7.605489   3.887148   2.192141
    14  C    6.324079   3.869060   7.339786   3.086208   2.438354
    15  H    7.339786   4.765825   8.372603   3.863322   3.424296
    16  C    5.742827   3.429224   6.732847   2.792090   2.895430
    17  H    5.577281   3.059964   6.604602   2.292480   3.438280
    18  H    6.629204   4.440540   7.577662   3.819762   3.833553
    19  C    2.438354   1.331659   3.424296   2.104218   3.845813
    20  H    3.391204   2.103903   4.282962   2.446380   4.342398
    21  C    1.333556   2.419041   2.098086   3.414266   4.655219
    22  H    2.095723   3.377261   2.416601   4.284117   5.587740
    23  C    2.518161   1.500426   3.494281   2.216065   3.128576
    24  H    3.439864   2.149811   4.352818   2.460969   2.614761
    25  H    2.940658   2.082575   3.819220   2.638725   4.095550
    26  C    1.504460   2.544476   2.228338   3.504440   3.775989
    27  H    2.138652   3.433986   2.480419   4.331628   4.606757
    28  H    2.130649   3.045131   2.660491   3.901752   3.349942
                    6          7          8          9         10
     6  C    0.000000
     7  H    2.103903   0.000000
     8  H    1.081035   2.446380   0.000000
     9  C    1.500426   3.454811   2.216065   0.000000
    10  H    2.082575   3.832897   2.638725   1.097290   0.000000
    11  H    2.149811   4.237841   2.460969   1.088528   1.746378
    12  C    2.419041   2.196182   3.414266   2.836589   3.224237
    13  H    3.377261   2.500141   4.284117   3.909742   4.206867
    14  C    2.831046   3.391204   3.911867   2.518161   2.940658
    15  H    3.914667   4.282962   4.995536   3.494281   3.819220
    16  C    2.544476   3.970808   3.504440   1.531344   2.148314
    17  H    3.045131   4.445024   3.901752   2.182499   3.039150
    18  H    3.433986   4.913927   4.331629   2.152810   2.342460
    19  C    2.934158   4.342398   2.792454   3.128576   4.095550
    20  H    3.345797   5.026590   3.388056   3.024501   3.971724
    21  C    3.679373   4.920587   3.094394   4.099497   4.882497
    22  H    4.496082   5.917413   3.887148   4.668739   5.363566
    23  C    3.030876   3.024501   2.893005   4.110967   5.007831
    24  H    2.986373   2.286188   3.053960   4.221111   5.033408
    25  H    4.059893   3.971724   3.962312   5.007831   5.972000
    26  C    3.429224   3.480296   2.792090   4.620767   5.335130
    27  H    4.440540   4.124296   3.819762   5.686706   6.392845
    28  H    3.059964   2.919556   2.292480   4.397211   4.923890
                   11         12         13         14         15
    11  H    0.000000
    12  C    3.840175   0.000000
    13  H    4.922458   1.083566   0.000000
    14  C    3.439863   1.333556   2.095723   0.000000
    15  H    4.352817   2.098086   2.416601   1.083870   0.000000
    16  C    2.171730   2.483093   3.469474   1.504460   2.228338
    17  H    2.412336   3.078871   4.008769   2.130649   2.660491
    18  H    2.609967   3.290826   4.178923   2.138652   2.480418
    19  C    2.614762   4.655219   5.587740   4.631043   5.542524
    20  H    2.286189   4.920587   5.917413   4.596741   5.416621
    21  C    3.493965   5.727493   6.622775   5.883936   6.859327
    22  H    3.867201   6.622775   7.567454   6.651174   7.605489
    23  C    4.221112   4.099497   4.668739   4.701689   5.593770
    24  H    4.594050   3.493964   3.867200   4.326311   5.162932
    25  H    5.033409   4.882497   5.363566   5.402029   6.188392
    26  C    4.591592   5.048050   5.642908   5.742827   6.732847
    27  H    5.680134   5.839156   6.300236   6.629204   7.577662
    28  H    4.514646   4.750935   5.311468   5.577281   6.604602
                   16         17         18         19         20
    16  C    0.000000
    17  H    1.097046   0.000000
    18  H    1.092036   1.740584   0.000000
    19  C    3.775989   3.349942   4.606756   0.000000
    20  H    3.480296   2.919556   4.124296   1.082599   0.000000
    21  C    5.048050   4.750935   5.839156   1.458136   2.196182
    22  H    5.642908   5.311468   6.300236   2.192141   2.500141
    23  C    4.620767   4.397211   5.686706   2.461133   3.454811
    24  H    4.591591   4.514645   5.680133   3.333288   4.237841
    25  H    5.335130   4.923890   6.392845   2.907576   3.832897
    26  C    5.522042   5.449009   6.525115   2.895430   3.970808
    27  H    6.525115   6.414226   7.552906   3.833553   4.913927
    28  H    5.449009   5.594415   6.414226   3.438280   4.445024
                   21         22         23         24         25
    21  C    0.000000
    22  H    1.083566   0.000000
    23  C    2.836589   3.909742   0.000000
    24  H    3.840176   4.922458   1.088528   0.000000
    25  H    3.224237   4.206867   1.097290   1.746379   0.000000
    26  C    2.483093   3.469474   1.531344   2.171730   2.148314
    27  H    3.290826   4.178923   2.152810   2.609967   2.342459
    28  H    3.078871   4.008769   2.182499   2.412337   3.039150
                   26         27         28
    26  C    0.000000
    27  H    1.092036   0.000000
    28  H    1.097046   1.740585   0.000000
 Symmetry turned off by external request.
 Stoichiometry    C12H16
 Framework group  CI[X(C12H16)]
 Deg. of freedom    39
 Full point group                 CI      NOp   2
 Rotational constants (GHZ):           1.8833190           0.6233103           0.5480463
 Leave Link  202 at Tue Aug  4 21:41:03 2020, MaxMem=  6442450944 cpu:               0.3 elap:               0.0
 (Enter /scratch/scicomp/CentOS/7.3.1611/Haswell/software/Gaussian/g16/l301.exe)
 Standard basis: def2TZVP (5D, 7F)
 Ernie: Thresh=  0.10000D-02 Tol=  0.10000D-05 Strict=F.
   468 basis functions,   740 primitive gaussians,   528 cartesian basis functions
    44 alpha electrons       44 beta electrons
       nuclear repulsion energy       687.0344264793 Hartrees.
 IExCor= 4639 DFT=T Ex+Corr=wB97XD ExCW=0 ScaHFX=  1.000000
 ScaDFX=  1.000000  1.000000  1.000000  1.000000 ScalE2=  1.000000  1.000000
 IRadAn=      5 IRanWt=     -1 IRanGd=            0 ICorTp=0 IEmpDi=121
 HFx  wShort=  0.000000 wLong=  0.200000 cFull=  0.222036 cShort=  0.000000 cLong=  0.777964
 DFx  wShort=  0.000000 wLong=  0.200000 cFull=  0.000000 cShort=  0.000000 cLong=  1.000000
 NAtoms=   28 NActive=   28 NUniq=   28 SFac= 1.00D+00 NAtFMM=   60 NAOKFM=F Big=F
 Integral buffers will be    131072 words long.
 Raffenetti 2 integral format.
 Two-electron integral symmetry is turned off.
 R6Disp:  Grimme-D2 Dispersion energy=       -0.0229525597 Hartrees.
 Nuclear repulsion after empirical dispersion term =      687.0114739197 Hartrees.
 Using the following non-standard input for PCM:
 norep  pcmdoc geomview  nodis cav g03defaults noaddsph  tsare=0.075
 Warning! Using old PCM defaults because the g03defaults keyword was found.
 These settings can be overridden by following keywords.
 nsfe=28
 Vmol=95.7726100512575 Rsolv=2.815
 --- end of non-standard input.
 Reading user-defined spheres from input:
 ISph  on   Nord    Re0     Alpha      Xe            Ye            Ze
 --- end of user-defined spheres data.
 ------------------------------------------------------------------------------
 Polarizable Continuum Model (PCM)
 =================================
 Model                : PCM.
 Atomic radii         : UA0 (Simple United Atom Topological Model).
 Polarization charges : Total charges.
 Charge compensation  : None.
 Solution method      : On-the-fly selection.
 Cavity type          : VdW (van der Waals Surface) (Alpha=1.000).
 Cavity algorithm     : GePol (No added spheres)
                        User-defined sphere list used, NSphG=   28.
                        Tesserae with average area of 0.075 Ang**2.
                        Smoothing algorithm: None.
                        Polarization charges: point-like.
                        Self-potential: constant (ISelfS= 1).
                        Self-field    : global E.n sum rule (ISelfD= 3).
 Solvent              : CycloHexane, Eps=   2.016500 Eps(inf)=   2.035188
 ------------------------------------------------------------------------------
 GePol: Number of generator spheres                  =      28
 GePol: Total number of spheres                      =      28
 GePol: Number of exposed spheres                    =      28 (100.00%)
 GePol: Number of tesserae                           =    3810
 GePol: Average area of tesserae                     =       0.06 Ang**2
 GePol: Minimum area of tessera                      =   0.10D-02 Ang**2
 GePol: Maximum area of tessera                      =    0.12395 Ang**2
 GePol: Number of small tesserae                     =       0
 GePol: Fraction of small tesserae (<1% of avg)      =       0.00%
 GePol: Total count of vertices                      =   12625
 GePol: Maximum number of vertices in a tessera      =       6
 GePol: Cavity surface area                          =    230.757 Ang**2
 GePol: Cavity volume                                =    238.023 Ang**3
 PCM non-electrostatic energy =         0.0510678964 Hartrees.
 Nuclear repulsion after PCM non-electrostatic terms =      687.0625418161 Hartrees.
 Leave Link  301 at Tue Aug  4 21:41:03 2020, MaxMem=  6442450944 cpu:               3.2 elap:               0.2
 (Enter /scratch/scicomp/CentOS/7.3.1611/Haswell/software/Gaussian/g16/l302.exe)
 NPDir=0 NMtPBC=     1 NCelOv=     1 NCel=       1 NClECP=     1 NCelD=      1
         NCelK=      1 NCelE2=     1 NClLst=     1 CellRange=     0.0.
 One-electron integrals computed using PRISM.
   1 Symmetry operations used in ECPInt.
 ECPInt:  NShTT=   19306 NPrTT=   56928 LenC2=   18510 LenP2D=   42170.
 LDataN:  DoStor=T MaxTD1= 6 Len=  172
 NBasis=   468 RedAO= T EigKep=  2.36D-05  NBF=   468
 NBsUse=   468 1.00D-06 EigRej= -1.00D+00 NBFU=   468
 Precomputing XC quadrature grid using
 IXCGrd= 4 IRadAn=           5 IRanWt=          -1 IRanGd=           0 AccXCQ= 0.00D+00.
 Generated NRdTot=       0 NPtTot=           0 NUsed=           0 NTot=          32
 NSgBfM=   526   526   526   526   526 MxSgAt=    28 MxSgA2=    28.
 Leave Link  302 at Tue Aug  4 21:41:04 2020, MaxMem=  6442450944 cpu:              11.8 elap:               0.5
 (Enter /scratch/scicomp/CentOS/7.3.1611/Haswell/software/Gaussian/g16/l401.exe)
 ExpMin= 9.52D-02 ExpMax= 1.36D+04 ExpMxC= 4.63D+02 IAcc=3 IRadAn=         5 AccDes= 0.00D+00
 Harris functional with IExCor= 4639 and IRadAn=       5 diagonalized for initial guess.
 HarFok:  IExCor= 4639 AccDes= 0.00D+00 IRadAn=         5 IDoV= 1 UseB2=F ITyADJ=14
 ICtDFT=  3500011 ScaDFX=  1.000000  1.000000  1.000000  1.000000
 FoFCou: FMM=F IPFlag=           0 FMFlag=      100000 FMFlg1=           0
         NFxFlg=           0 DoJE=T BraDBF=F KetDBF=T FulRan=T
         wScrn=  0.000000 ICntrl=       500 IOpCl=  0 I1Cent=   200000004 NGrid=           0
         NMat0=    1 NMatS0=      1 NMatT0=    0 NMatD0=    1 NMtDS0=    0 NMtDT0=    0
 Symmetry not used in FoFCou.
 Harris En= -444.564406407250    
 JPrj=0 DoOrth=F DoCkMO=T.
 Mixing orbitals, IMix= 1 IMixAn=  0 NRI=1 NE=   44 Coef=  7.07106781D-01  7.07106781D-01
 Mixing orbitals, IMix= 1 IMixAn=  0 NRI=1 NE=   44 Coef= -7.07106781D-01  7.07106781D-01
 Initial guess <Sx>= 0.0000 <Sy>= 0.0000 <Sz>= 0.0000 <S**2>= 1.0000 S= 0.6180
 Leave Link  401 at Tue Aug  4 21:41:06 2020, MaxMem=  6442450944 cpu:              47.8 elap:               2.1
 (Enter /scratch/scicomp/CentOS/7.3.1611/Haswell/software/Gaussian/g16/l9999.exe)

 This type of calculation cannot be archived.


 MICHAEL FARADAY, ASKED BY A POLITICIAN WHAT GOOD
 HIS ELECTRICAL DISCOVERIES WERE, REPLIED 
 "AT PRESENT I DO NOT KNOW, BUT ONE DAY YOU WILL BE
 ABLE TO TAX THEM."
 Job cpu time:       0 days  0 hours  1 minutes  7.8 seconds.
 Elapsed time:       0 days  0 hours  0 minutes  3.1 seconds.
 File lengths (MBytes):  RWF=    275 Int=      0 D2E=      0 Chk=      1 Scr=      1
 Normal termination of Gaussian 16 at Tue Aug  4 21:41:06 2020.
 Initial command:
 /scratch/scicomp/CentOS/7.3.1611/Haswell/software/Gaussian/g16/l1.exe "/scratch/bochen/cyclohexadiene-dimerization/wb97xd-def2tzvp/xp-pcm/meso/Gau-82873.inp" -scrdir="/scratch/bochen/cyclohexadiene-dimerization/wb97xd-def2tzvp/xp-pcm/meso/"
 Entering Link 1 = /scratch/scicomp/CentOS/7.3.1611/Haswell/software/Gaussian/g16/l1.exe PID=     83360.
  
 Copyright (c) 1988-2017, Gaussian, Inc.  All Rights Reserved.
  
 This is part of the Gaussian(R) 16 program.  It is based on
 the Gaussian(R) 09 system (copyright 2009, Gaussian, Inc.),
 the Gaussian(R) 03 system (copyright 2003, Gaussian, Inc.),
 the Gaussian(R) 98 system (copyright 1998, Gaussian, Inc.),
 the Gaussian(R) 94 system (copyright 1995, Gaussian, Inc.),
 the Gaussian 92(TM) system (copyright 1992, Gaussian, Inc.),
 the Gaussian 90(TM) system (copyright 1990, Gaussian, Inc.),
 the Gaussian 88(TM) system (copyright 1988, Gaussian, Inc.),
 the Gaussian 86(TM) system (copyright 1986, Carnegie Mellon
 University), and the Gaussian 82(TM) system (copyright 1983,
 Carnegie Mellon University). Gaussian is a federally registered
 trademark of Gaussian, Inc.
  
 This software contains proprietary and confidential information,
 including trade secrets, belonging to Gaussian, Inc.
  
 This software is provided under written license and may be
 used, copied, transmitted, or stored only in accord with that
 written license.
  
 The following legend is applicable only to US Government
 contracts under FAR:
  
                    RESTRICTED RIGHTS LEGEND
  
 Use, reproduction and disclosure by the US Government is
 subject to restrictions as set forth in subparagraphs (a)
 and (c) of the Commercial Computer Software - Restricted
 Rights clause in FAR 52.227-19.
  
 Gaussian, Inc.
 340 Quinnipiac St., Bldg. 40, Wallingford CT 06492
  
  
 ---------------------------------------------------------------
 Warning -- This program may not be used in any manner that
 competes with the business of Gaussian, Inc. or will provide
 assistance to any competitor of Gaussian, Inc.  The licensee
 of this program is prohibited from giving any competitor of
 Gaussian, Inc. access to this program.  By using this program,
 the user acknowledges that Gaussian, Inc. is engaged in the
 business of creating and licensing software in the field of
 computational chemistry and represents and warrants to the
 licensee that it is not a competitor of Gaussian, Inc. and that
 it will not use this program in any manner prohibited above.
 ---------------------------------------------------------------
  

 Cite this work as:
 Gaussian 16, Revision B.01,
 M. J. Frisch, G. W. Trucks, H. B. Schlegel, G. E. Scuseria, 
 M. A. Robb, J. R. Cheeseman, G. Scalmani, V. Barone, 
 G. A. Petersson, H. Nakatsuji, X. Li, M. Caricato, A. V. Marenich, 
 J. Bloino, B. G. Janesko, R. Gomperts, B. Mennucci, H. P. Hratchian, 
 J. V. Ortiz, A. F. Izmaylov, J. L. Sonnenberg, D. Williams-Young, 
 F. Ding, F. Lipparini, F. Egidi, J. Goings, B. Peng, A. Petrone, 
 T. Henderson, D. Ranasinghe, V. G. Zakrzewski, J. Gao, N. Rega, 
 G. Zheng, W. Liang, M. Hada, M. Ehara, K. Toyota, R. Fukuda, 
 J. Hasegawa, M. Ishida, T. Nakajima, Y. Honda, O. Kitao, H. Nakai, 
 T. Vreven, K. Throssell, J. A. Montgomery, Jr., J. E. Peralta, 
 F. Ogliaro, M. J. Bearpark, J. J. Heyd, E. N. Brothers, K. N. Kudin, 
 V. N. Staroverov, T. A. Keith, R. Kobayashi, J. Normand, 
 K. Raghavachari, A. P. Rendell, J. C. Burant, S. S. Iyengar, 
 J. Tomasi, M. Cossi, J. M. Millam, M. Klene, C. Adamo, R. Cammi, 
 J. W. Ochterski, R. L. Martin, K. Morokuma, O. Farkas, 
 J. B. Foresman, and D. J. Fox, Gaussian, Inc., Wallingford CT, 2016.
 
 ******************************************
 Gaussian 16:  ES64L-G16RevB.01 20-Dec-2017
                 4-Aug-2020 
 ******************************************
 %chk=scr.chk
 %nproc=24
 Will use up to   24 processors via shared memory.
 %mem=48GB
 ----------------------------------------------------------------------
 #p uwb97xd guess=mix def2tzvp # scrf=(iefpcm,solvent=Cyclohexane,read)
  nosym guess=only pop=none
 ----------------------------------------------------------------------
 1/38=1,40=2,172=1/1;
 2/12=2,15=1,17=6,18=5,40=1/2;
 3/5=44,7=101,11=2,25=1,30=1,70=2203,72=17,74=-58,89=1,116=2/1,2;
 4/13=-1/1;
 99/5=2/99;
 Leave Link    1 at Tue Aug  4 21:41:06 2020, MaxMem=  6442450944 cpu:               1.4 elap:               0.1
 (Enter /scratch/scicomp/CentOS/7.3.1611/Haswell/software/Gaussian/g16/l101.exe)
 -----------------------------------------------
 endo-2 xp-pcm with Vmol=89.84123994485 cm^3/mol
 -----------------------------------------------
 Symbolic Z-matrix:
 Charge =  0 Multiplicity = 1
 6                    -3.12169  -0.43794   0.24848 
 6                    -0.60889  -0.21827  -1.03699 
 1                    -4.08505  -0.54816   0.73279 
 1                     0.36031  -0.12471  -1.50659 
 6                     1.0996    1.41098   0.7054 
 6                     0.60889   0.21827   1.03699 
 1                     0.51411   2.31109   0.84333 
 1                    -0.36031   0.12471   1.50659 
 6                     1.48341  -1.00069   1.0115 
 1                     1.95092  -1.04772   2.0031 
 1                     0.89193  -1.90928   0.91402 
[...]
 6                     0.60889   0.21827   1.03699 
 1                     0.51411   2.31109   0.84333 
 1                    -0.36031   0.12471   1.50659 
 6                     1.48341  -1.00069   1.0115 
 1                     1.95092  -1.04772   2.0031 
 1                     0.89193  -1.90928   0.91402 
 6                     2.4259    1.51795   0.10904 
 1                     2.8341    2.50596  -0.06791 
 6                     3.12169   0.43794  -0.24848 
 1                     4.08505   0.54816  -0.73279 
 6                     2.59025  -0.95486  -0.04578 
 1                     2.23599  -1.34484  -1.00803 
 1                     3.40096  -1.62171   0.25523 
 6                    -1.0996   -1.41098  -0.7054 
 1                    -0.51411  -2.31109  -0.84333 
 6                    -2.4259   -1.51795  -0.10904 
 1                    -2.8341   -2.50596   0.06791 
 6                    -1.48341   1.00069  -1.0115 
 1                    -0.89193   1.90928  -0.91402 
 1                    -1.95092   1.04772  -2.0031 
 6                    -2.59025   0.95486   0.04578 
 1                    -3.40096   1.62171  -0.25523 
 1                    -2.23599   1.34484   1.00803 
 
 ITRead=  0  0  0  0  0  0  0  0  0  0  0  0  0  0  0  0  0  0  0  0
 ITRead=  0  0  0  0  0  0  0  0
 MicOpt= -1 -1 -1 -1 -1 -1 -1 -1 -1 -1 -1 -1 -1 -1 -1 -1 -1 -1 -1 -1
 MicOpt= -1 -1 -1 -1 -1 -1 -1 -1
 NAtoms=     28 NQM=       28 NQMF=       0 NMMI=      0 NMMIF=      0
                NMic=       0 NMicF=      0.
                    Isotopes and Nuclear Properties:
 (Nuclear quadrupole moments (NQMom) in fm**2, nuclear magnetic moments (NMagM)
  in nuclear magnetons)

  Atom         1           2           3           4           5           6           7           8           9          10
 IAtWgt=          12          12           1           1          12          12           1           1          12           1
 AtmWgt=  12.0000000  12.0000000   1.0078250   1.0078250  12.0000000  12.0000000   1.0078250   1.0078250  12.0000000   1.0078250
 NucSpn=           0           0           1           1           0           0           1           1           0           1
 AtZEff=  -0.0000000  -0.0000000  -0.0000000  -0.0000000  -0.0000000  -0.0000000  -0.0000000  -0.0000000  -0.0000000  -0.0000000
 NQMom=    0.0000000   0.0000000   0.0000000   0.0000000   0.0000000   0.0000000   0.0000000   0.0000000   0.0000000   0.0000000
 NMagM=    0.0000000   0.0000000   2.7928460   2.7928460   0.0000000   0.0000000   2.7928460   2.7928460   0.0000000   2.7928460
 AtZNuc=   6.0000000   6.0000000   1.0000000   1.0000000   6.0000000   6.0000000   1.0000000   1.0000000   6.0000000   1.0000000

  Atom        11          12          13          14          15          16          17          18          19          20
 IAtWgt=           1          12           1          12           1          12           1           1          12           1
 AtmWgt=   1.0078250  12.0000000   1.0078250  12.0000000   1.0078250  12.0000000   1.0078250   1.0078250  12.0000000   1.0078250
 NucSpn=           1           0           1           0           1           0           1           1           0           1
 AtZEff=  -0.0000000  -0.0000000  -0.0000000  -0.0000000  -0.0000000  -0.0000000  -0.0000000  -0.0000000  -0.0000000  -0.0000000
 NQMom=    0.0000000   0.0000000   0.0000000   0.0000000   0.0000000   0.0000000   0.0000000   0.0000000   0.0000000   0.0000000
 NMagM=    2.7928460   0.0000000   2.7928460   0.0000000   2.7928460   0.0000000   2.7928460   2.7928460   0.0000000   2.7928460
 AtZNuc=   1.0000000   6.0000000   1.0000000   6.0000000   1.0000000   6.0000000   1.0000000   1.0000000   6.0000000   1.0000000

  Atom        21          22          23          24          25          26          27          28
 IAtWgt=          12           1          12           1           1          12           1           1
 AtmWgt=  12.0000000   1.0078250  12.0000000   1.0078250   1.0078250  12.0000000   1.0078250   1.0078250
 NucSpn=           0           1           0           1           1           0           1           1
 AtZEff=  -0.0000000  -0.0000000  -0.0000000  -0.0000000  -0.0000000  -0.0000000  -0.0000000  -0.0000000
 NQMom=    0.0000000   0.0000000   0.0000000   0.0000000   0.0000000   0.0000000   0.0000000   0.0000000
 NMagM=    0.0000000   2.7928460   0.0000000   2.7928460   2.7928460   0.0000000   2.7928460   2.7928460
 AtZNuc=   6.0000000   1.0000000   6.0000000   1.0000000   1.0000000   6.0000000   1.0000000   1.0000000
 Leave Link  101 at Tue Aug  4 21:41:17 2020, MaxMem=  6442450944 cpu:               2.4 elap:               0.1
 (Enter /scratch/scicomp/CentOS/7.3.1611/Haswell/software/Gaussian/g16/l202.exe)
                          Input orientation:                          
 ---------------------------------------------------------------------
 Center     Atomic      Atomic             Coordinates (Angstroms)
 Number     Number       Type             X           Y           Z
 ---------------------------------------------------------------------
      1          6           0       -3.121693   -0.437935    0.248475
      2          6           0       -0.608894   -0.218266   -1.036985
      3          1           0       -4.085054   -0.548156    0.732789
      4          1           0        0.360308   -0.124712   -1.506593
      5          6           0        1.099596    1.410984    0.705395
      6          6           0        0.608894    0.218266    1.036985
      7          1           0        0.514105    2.311092    0.843328
      8          1           0       -0.360308    0.124712    1.506593
      9          6           0        1.483411   -1.000688    1.011498
     10          1           0        1.950917   -1.047718    2.003099
     11          1           0        0.891930   -1.909281    0.914020
     12          6           0        2.425900    1.517947    0.109041
     13          1           0        2.834101    2.505963   -0.067907
     14          6           0        3.121693    0.437935   -0.248475
     15          1           0        4.085054    0.548156   -0.732789
     16          6           0        2.590248   -0.954860   -0.045775
     17          1           0        2.235992   -1.344838   -1.008028
     18          1           0        3.400959   -1.621706    0.255233
     19          6           0       -1.099596   -1.410984   -0.705395
     20          1           0       -0.514105   -2.311092   -0.843328
     21          6           0       -2.425900   -1.517947   -0.109041
     22          1           0       -2.834101   -2.505963    0.067907
     23          6           0       -1.483411    1.000688   -1.011498
     24          1           0       -0.891929    1.909281   -0.914020
     25          1           0       -1.950917    1.047718   -2.003099
     26          6           0       -2.590248    0.954860    0.045775
     27          1           0       -3.400959    1.621706   -0.255234
     28          1           0       -2.235992    1.344838    1.008028
 ---------------------------------------------------------------------
                    Distance matrix (angstroms):
                    1          2          3          4          5
     1  C    0.000000
     2  C    2.831046   0.000000
     3  H    1.083870   3.914667   0.000000
     4  H    3.911867   1.081035   4.995536   0.000000
     5  C    4.631043   2.934158   5.542524   2.792454   0.000000
     6  C    3.869060   2.444365   4.765825   2.578608   1.331659
     7  H    4.596741   3.345797   5.416621   3.388056   1.082599
     8  H    3.086208   2.578608   3.863322   3.108181   2.104218
     9  C    4.701689   3.030876   5.593770   2.893005   2.461133
    10  H    5.402029   4.059893   6.188392   3.962312   2.907576
    11  H    4.326312   2.986373   5.162933   3.053961   3.333288
    12  C    5.883936   3.679373   6.859327   3.094394   1.458136
    13  H    6.651174   4.496082   7.605489   3.887148   2.192141
    14  C    6.324079   3.869060   7.339786   3.086208   2.438354
    15  H    7.339786   4.765825   8.372603   3.863322   3.424296
    16  C    5.742827   3.429224   6.732847   2.792090   2.895430
    17  H    5.577281   3.059964   6.604602   2.292480   3.438280
    18  H    6.629204   4.440540   7.577662   3.819762   3.833553
    19  C    2.438354   1.331659   3.424296   2.104218   3.845813
    20  H    3.391204   2.103903   4.282962   2.446380   4.342398
    21  C    1.333556   2.419041   2.098086   3.414266   4.655219
    22  H    2.095723   3.377261   2.416601   4.284117   5.587740
    23  C    2.518161   1.500426   3.494281   2.216065   3.128576
    24  H    3.439864   2.149811   4.352818   2.460969   2.614761
    25  H    2.940658   2.082575   3.819220   2.638725   4.095550
    26  C    1.504460   2.544476   2.228338   3.504440   3.775989
    27  H    2.138652   3.433986   2.480419   4.331628   4.606757
    28  H    2.130649   3.045131   2.660491   3.901752   3.349942
                    6          7          8          9         10
     6  C    0.000000
     7  H    2.103903   0.000000
     8  H    1.081035   2.446380   0.000000
     9  C    1.500426   3.454811   2.216065   0.000000
    10  H    2.082575   3.832897   2.638725   1.097290   0.000000
    11  H    2.149811   4.237841   2.460969   1.088528   1.746378
    12  C    2.419041   2.196182   3.414266   2.836589   3.224237
    13  H    3.377261   2.500141   4.284117   3.909742   4.206867
    14  C    2.831046   3.391204   3.911867   2.518161   2.940658
    15  H    3.914667   4.282962   4.995536   3.494281   3.819220
    16  C    2.544476   3.970808   3.504440   1.531344   2.148314
    17  H    3.045131   4.445024   3.901752   2.182499   3.039150
    18  H    3.433986   4.913927   4.331629   2.152810   2.342460
    19  C    2.934158   4.342398   2.792454   3.128576   4.095550
    20  H    3.345797   5.026590   3.388056   3.024501   3.971724
    21  C    3.679373   4.920587   3.094394   4.099497   4.882497
    22  H    4.496082   5.917413   3.887148   4.668739   5.363566
    23  C    3.030876   3.024501   2.893005   4.110967   5.007831
    24  H    2.986373   2.286188   3.053960   4.221111   5.033408
    25  H    4.059893   3.971724   3.962312   5.007831   5.972000
    26  C    3.429224   3.480296   2.792090   4.620767   5.335130
    27  H    4.440540   4.124296   3.819762   5.686706   6.392845
    28  H    3.059964   2.919556   2.292480   4.397211   4.923890
                   11         12         13         14         15
    11  H    0.000000
    12  C    3.840175   0.000000
    13  H    4.922458   1.083566   0.000000
    14  C    3.439863   1.333556   2.095723   0.000000
    15  H    4.352817   2.098086   2.416601   1.083870   0.000000
    16  C    2.171730   2.483093   3.469474   1.504460   2.228338
    17  H    2.412336   3.078871   4.008769   2.130649   2.660491
    18  H    2.609967   3.290826   4.178923   2.138652   2.480418
    19  C    2.614762   4.655219   5.587740   4.631043   5.542524
    20  H    2.286189   4.920587   5.917413   4.596741   5.416621
    21  C    3.493965   5.727493   6.622775   5.883936   6.859327
    22  H    3.867201   6.622775   7.567454   6.651174   7.605489
    23  C    4.221112   4.099497   4.668739   4.701689   5.593770
    24  H    4.594050   3.493964   3.867200   4.326311   5.162932
    25  H    5.033409   4.882497   5.363566   5.402029   6.188392
    26  C    4.591592   5.048050   5.642908   5.742827   6.732847
    27  H    5.680134   5.839156   6.300236   6.629204   7.577662
    28  H    4.514646   4.750935   5.311468   5.577281   6.604602
                   16         17         18         19         20
    16  C    0.000000
    17  H    1.097046   0.000000
    18  H    1.092036   1.740584   0.000000
    19  C    3.775989   3.349942   4.606756   0.000000
    20  H    3.480296   2.919556   4.124296   1.082599   0.000000
    21  C    5.048050   4.750935   5.839156   1.458136   2.196182
    22  H    5.642908   5.311468   6.300236   2.192141   2.500141
    23  C    4.620767   4.397211   5.686706   2.461133   3.454811
    24  H    4.591591   4.514645   5.680133   3.333288   4.237841
    25  H    5.335130   4.923890   6.392845   2.907576   3.832897
    26  C    5.522042   5.449009   6.525115   2.895430   3.970808
    27  H    6.525115   6.414226   7.552906   3.833553   4.913927
    28  H    5.449009   5.594415   6.414226   3.438280   4.445024
                   21         22         23         24         25
    21  C    0.000000
    22  H    1.083566   0.000000
    23  C    2.836589   3.909742   0.000000
    24  H    3.840176   4.922458   1.088528   0.000000
    25  H    3.224237   4.206867   1.097290   1.746379   0.000000
    26  C    2.483093   3.469474   1.531344   2.171730   2.148314
    27  H    3.290826   4.178923   2.152810   2.609967   2.342459
    28  H    3.078871   4.008769   2.182499   2.412337   3.039150
                   26         27         28
    26  C    0.000000
    27  H    1.092036   0.000000
    28  H    1.097046   1.740585   0.000000
 Symmetry turned off by external request.
 Stoichiometry    C12H16
 Framework group  CI[X(C12H16)]
 Deg. of freedom    39
 Full point group                 CI      NOp   2
 Rotational constants (GHZ):           1.8833190           0.6233103           0.5480463
 Leave Link  202 at Tue Aug  4 21:41:17 2020, MaxMem=  6442450944 cpu:               0.3 elap:               0.0
 (Enter /scratch/scicomp/CentOS/7.3.1611/Haswell/software/Gaussian/g16/l301.exe)
 Standard basis: def2TZVP (5D, 7F)
 Ernie: Thresh=  0.10000D-02 Tol=  0.10000D-05 Strict=F.
   468 basis functions,   740 primitive gaussians,   528 cartesian basis functions
    44 alpha electrons       44 beta electrons
       nuclear repulsion energy       687.0344264793 Hartrees.
 IExCor= 4639 DFT=T Ex+Corr=wB97XD ExCW=0 ScaHFX=  1.000000
 ScaDFX=  1.000000  1.000000  1.000000  1.000000 ScalE2=  1.000000  1.000000
 IRadAn=      5 IRanWt=     -1 IRanGd=            0 ICorTp=0 IEmpDi=121
 HFx  wShort=  0.000000 wLong=  0.200000 cFull=  0.222036 cShort=  0.000000 cLong=  0.777964
 DFx  wShort=  0.000000 wLong=  0.200000 cFull=  0.000000 cShort=  0.000000 cLong=  1.000000
 NAtoms=   28 NActive=   28 NUniq=   28 SFac= 1.00D+00 NAtFMM=   60 NAOKFM=F Big=F
 Integral buffers will be    131072 words long.
 Raffenetti 2 integral format.
 Two-electron integral symmetry is turned off.
 R6Disp:  Grimme-D2 Dispersion energy=       -0.0229525597 Hartrees.
 Nuclear repulsion after empirical dispersion term =      687.0114739197 Hartrees.
 Using the following non-standard input for PCM:
 norep  pcmdoc geomview  nodis cav g03defaults noaddsph  tsare=0.075
 Warning! Using old PCM defaults because the g03defaults keyword was found.
 These settings can be overridden by following keywords.
 nsfe=28
 Vmol=78.9041178242053 Rsolv=2.815
 --- end of non-standard input.
 Reading user-defined spheres from input:
 ISph  on   Nord    Re0     Alpha      Xe            Ye            Ze
 --- end of user-defined spheres data.
 ------------------------------------------------------------------------------
 Polarizable Continuum Model (PCM)
 =================================
 Model                : PCM.
 Atomic radii         : UA0 (Simple United Atom Topological Model).
 Polarization charges : Total charges.
 Charge compensation  : None.
 Solution method      : On-the-fly selection.
 Cavity type          : VdW (van der Waals Surface) (Alpha=1.000).
 Cavity algorithm     : GePol (No added spheres)
                        User-defined sphere list used, NSphG=   28.
                        Tesserae with average area of 0.075 Ang**2.
                        Smoothing algorithm: None.
                        Polarization charges: point-like.
                        Self-potential: constant (ISelfS= 1).
                        Self-field    : global E.n sum rule (ISelfD= 3).
 Solvent              : CycloHexane, Eps=   2.016500 Eps(inf)=   2.035188
 ------------------------------------------------------------------------------
 GePol: Number of generator spheres                  =      28
 GePol: Total number of spheres                      =      28
 GePol: Number of exposed spheres                    =      28 (100.00%)
 GePol: Number of tesserae                           =    3810
 GePol: Average area of tesserae                     =       0.06 Ang**2
 GePol: Minimum area of tessera                      =   0.10D-02 Ang**2
 GePol: Maximum area of tessera                      =    0.12395 Ang**2
 GePol: Number of small tesserae                     =       0
 GePol: Fraction of small tesserae (<1% of avg)      =       0.00%
 GePol: Total count of vertices                      =   12625
 GePol: Maximum number of vertices in a tessera      =       6
 GePol: Cavity surface area                          =    230.757 Ang**2
 GePol: Cavity volume                                =    238.023 Ang**3
 PCM non-electrostatic energy =         0.1131933867 Hartrees.
 Nuclear repulsion after PCM non-electrostatic terms =      687.1246673064 Hartrees.
 Leave Link  301 at Tue Aug  4 21:41:17 2020, MaxMem=  6442450944 cpu:               3.1 elap:               0.2
 (Enter /scratch/scicomp/CentOS/7.3.1611/Haswell/software/Gaussian/g16/l302.exe)
 NPDir=0 NMtPBC=     1 NCelOv=     1 NCel=       1 NClECP=     1 NCelD=      1
         NCelK=      1 NCelE2=     1 NClLst=     1 CellRange=     0.0.
 One-electron integrals computed using PRISM.
   1 Symmetry operations used in ECPInt.
 ECPInt:  NShTT=   19306 NPrTT=   56928 LenC2=   18510 LenP2D=   42170.
 LDataN:  DoStor=T MaxTD1= 6 Len=  172
 NBasis=   468 RedAO= T EigKep=  2.36D-05  NBF=   468
 NBsUse=   468 1.00D-06 EigRej= -1.00D+00 NBFU=   468
 Precomputing XC quadrature grid using
 IXCGrd= 4 IRadAn=           5 IRanWt=          -1 IRanGd=           0 AccXCQ= 0.00D+00.
 Generated NRdTot=       0 NPtTot=           0 NUsed=           0 NTot=          32
 NSgBfM=   526   526   526   526   526 MxSgAt=    28 MxSgA2=    28.
 Leave Link  302 at Tue Aug  4 21:41:18 2020, MaxMem=  6442450944 cpu:              11.8 elap:               0.5
 (Enter /scratch/scicomp/CentOS/7.3.1611/Haswell/software/Gaussian/g16/l401.exe)
 ExpMin= 9.52D-02 ExpMax= 1.36D+04 ExpMxC= 4.63D+02 IAcc=3 IRadAn=         5 AccDes= 0.00D+00
 Harris functional with IExCor= 4639 and IRadAn=       5 diagonalized for initial guess.
 HarFok:  IExCor= 4639 AccDes= 0.00D+00 IRadAn=         5 IDoV= 1 UseB2=F ITyADJ=14
 ICtDFT=  3500011 ScaDFX=  1.000000  1.000000  1.000000  1.000000
 FoFCou: FMM=F IPFlag=           0 FMFlag=      100000 FMFlg1=           0
         NFxFlg=           0 DoJE=T BraDBF=F KetDBF=T FulRan=T
         wScrn=  0.000000 ICntrl=       500 IOpCl=  0 I1Cent=   200000004 NGrid=           0
         NMat0=    1 NMatS0=      1 NMatT0=    0 NMatD0=    1 NMtDS0=    0 NMtDT0=    0
 Symmetry not used in FoFCou.
 Harris En= -444.502280916973    
 JPrj=0 DoOrth=F DoCkMO=T.
 Mixing orbitals, IMix= 1 IMixAn=  0 NRI=1 NE=   44 Coef=  7.07106781D-01  7.07106781D-01
 Mixing orbitals, IMix= 1 IMixAn=  0 NRI=1 NE=   44 Coef= -7.07106781D-01  7.07106781D-01
 Initial guess <Sx>= 0.0000 <Sy>= 0.0000 <Sz>= 0.0000 <S**2>= 1.0000 S= 0.6180
 Leave Link  401 at Tue Aug  4 21:41:20 2020, MaxMem=  6442450944 cpu:              48.0 elap:               2.1
 (Enter /scratch/scicomp/CentOS/7.3.1611/Haswell/software/Gaussian/g16/l9999.exe)

 This type of calculation cannot be archived.


 SOME PHYSICISTS WOULD PREFER TO COME BACK TO THE IDEA OF AN OBJECTIVE
 REAL WORLD WHOSE SMALLEST PARTS EXIST OBJECTIVELY IN THE SAME SENSE AS
 STONES OR TREES EXIST INDEPENDENTLY OF WHETHER WE OBSERVE THEM.
 THIS, HOWEVER, IS IMPOSSIBLE.  -- WERNER HEISENBERG
 Job cpu time:       0 days  0 hours  1 minutes  7.9 seconds.
 Elapsed time:       0 days  0 hours  0 minutes  3.1 seconds.
 File lengths (MBytes):  RWF=    275 Int=      0 D2E=      0 Chk=      1 Scr=      1
 Normal termination of Gaussian 16 at Tue Aug  4 21:41:20 2020.
