 Entering Gaussian System, Link 0=g16
 Input=meso-TS_13_1_xp-Ger.com
 Output=meso-TS_13_1_xp-Ger.log
 Initial command:
 /scratch/scicomp/CentOS/7.3.1611/Haswell/software/Gaussian/g16/l1.exe "/scratch/bochen/cyclohexadiene-dimerization/wb97xd-def2tzvp/xp-pcm/meso/Gau-458689.inp" -scrdir="/scratch/bochen/cyclohexadiene-dimerization/wb97xd-def2tzvp/xp-pcm/meso/"
 Entering Link 1 = /scratch/scicomp/CentOS/7.3.1611/Haswell/software/Gaussian/g16/l1.exe PID=    458692.
  
 Copyright (c) 1988-2017, Gaussian, Inc.  All Rights Reserved.
  
 This is part of the Gaussian(R) 16 program.  It is based on
 the Gaussian(R) 09 system (copyright 2009, Gaussian, Inc.),
 the Gaussian(R) 03 system (copyright 2003, Gaussian, Inc.),
 the Gaussian(R) 98 system (copyright 1998, Gaussian, Inc.),
 the Gaussian(R) 94 system (copyright 1995, Gaussian, Inc.),
 the Gaussian 92(TM) system (copyright 1992, Gaussian, Inc.),
 the Gaussian 90(TM) system (copyright 1990, Gaussian, Inc.),
 the Gaussian 88(TM) system (copyright 1988, Gaussian, Inc.),
 the Gaussian 86(TM) system (copyright 1986, Carnegie Mellon
 University), and the Gaussian 82(TM) system (copyright 1983,
 Carnegie Mellon University). Gaussian is a federally registered
 trademark of Gaussian, Inc.
  
 This software contains proprietary and confidential information,
 including trade secrets, belonging to Gaussian, Inc.
  
 This software is provided under written license and may be
 used, copied, transmitted, or stored only in accord with that
 written license.
  
 The following legend is applicable only to US Government
 contracts under FAR:
  
                    RESTRICTED RIGHTS LEGEND
  
 Use, reproduction and disclosure by the US Government is
 subject to restrictions as set forth in subparagraphs (a)
 and (c) of the Commercial Computer Software - Restricted
 Rights clause in FAR 52.227-19.
  
 Gaussian, Inc.
 340 Quinnipiac St., Bldg. 40, Wallingford CT 06492
  
  
 ---------------------------------------------------------------
 Warning -- This program may not be used in any manner that
 competes with the business of Gaussian, Inc. or will provide
 assistance to any competitor of Gaussian, Inc.  The licensee
 of this program is prohibited from giving any competitor of
 Gaussian, Inc. access to this program.  By using this program,
 the user acknowledges that Gaussian, Inc. is engaged in the
 business of creating and licensing software in the field of
 computational chemistry and represents and warrants to the
 licensee that it is not a competitor of Gaussian, Inc. and that
 it will not use this program in any manner prohibited above.
 ---------------------------------------------------------------
  

 Cite this work as:
 Gaussian 16, Revision B.01,
 M. J. Frisch, G. W. Trucks, H. B. Schlegel, G. E. Scuseria, 
 M. A. Robb, J. R. Cheeseman, G. Scalmani, V. Barone, 
 G. A. Petersson, H. Nakatsuji, X. Li, M. Caricato, A. V. Marenich, 
 J. Bloino, B. G. Janesko, R. Gomperts, B. Mennucci, H. P. Hratchian, 
 J. V. Ortiz, A. F. Izmaylov, J. L. Sonnenberg, D. Williams-Young, 
 F. Ding, F. Lipparini, F. Egidi, J. Goings, B. Peng, A. Petrone, 
 T. Henderson, D. Ranasinghe, V. G. Zakrzewski, J. Gao, N. Rega, 
 G. Zheng, W. Liang, M. Hada, M. Ehara, K. Toyota, R. Fukuda, 
 J. Hasegawa, M. Ishida, T. Nakajima, Y. Honda, O. Kitao, H. Nakai, 
 T. Vreven, K. Throssell, J. A. Montgomery, Jr., J. E. Peralta, 
 F. Ogliaro, M. J. Bearpark, J. J. Heyd, E. N. Brothers, K. N. Kudin, 
 V. N. Staroverov, T. A. Keith, R. Kobayashi, J. Normand, 
 K. Raghavachari, A. P. Rendell, J. C. Burant, S. S. Iyengar, 
 J. Tomasi, M. Cossi, J. M. Millam, M. Klene, C. Adamo, R. Cammi, 
 J. W. Ochterski, R. L. Martin, K. Morokuma, O. Farkas, 
 J. B. Foresman, and D. J. Fox, Gaussian, Inc., Wallingford CT, 2016.
 
 ******************************************
 Gaussian 16:  ES64L-G16RevB.01 20-Dec-2017
                 4-Aug-2020 
 ******************************************
 %chk=meso-TS_13_1_xp-12.chk
 %nproc=24
 Will use up to   24 processors via shared memory.
 %mem=48GB
 ----------------------------------------------------------------------
 #p uwb97xd guess=mix def2tzvp # scrf=(iefpcm,solvent=Cyclohexane,read)
  nosym 6d 10f
 ----------------------------------------------------------------------
 1/38=1,40=2,172=1/1;
 2/12=2,15=1,17=6,18=5,40=1/2;
 3/5=44,7=101,8=22,11=2,25=1,30=1,70=2203,72=17,74=-58,116=2/1,2,3;
 4/13=-1/1;
 5/5=2,38=5,53=17/2;
 6/7=2,8=2,9=2,10=2,28=1/1;
 99/5=1,9=1/99;
 Leave Link    1 at Tue Aug  4 17:39:04 2020, MaxMem=  6442450944 cpu:               2.8 elap:               0.1
 (Enter /scratch/scicomp/CentOS/7.3.1611/Haswell/software/Gaussian/g16/l101.exe)
 -----------------------
 endo-2 xp-pcm for eta=3
 -----------------------
 Symbolic Z-matrix:
 Charge =  0 Multiplicity = 1
 6                    -3.11969  -0.42583   0.24843 
 6                    -0.43806  -0.12757  -0.74044 
 1                    -4.08679  -0.54686   0.72095 
 1                     0.32983  -0.10973  -1.51528 
 6                     1.11621   1.43259   0.66879 
 6                     0.43806   0.12757   0.74044 
 1                     0.56738   2.33326   0.91353 
 1                    -0.32983   0.10973   1.51528 
 6                     1.45396  -0.99782   0.97882 
 1                     1.87262  -0.88792   1.9834 
 1                     0.9501   -1.96534   0.95 
 6                     2.39583   1.52976   0.12511 
 1                     2.82794   2.51333  -0.02297 
 6                     3.11969   0.42583  -0.24843 
 1                     4.08679   0.54686  -0.72095 
 6                     2.5929   -0.95974  -0.04239 
 1                     2.24694  -1.36016  -1.00466 
 1                     3.4014   -1.625     0.27229 
 6                    -1.11621  -1.43259  -0.66879 
 1                    -0.56738  -2.33326  -0.91353 
 6                    -2.39583  -1.52976  -0.12511 
 1                    -2.82794  -2.51333   0.02297 
 6                    -1.45396   0.99782  -0.97882 
 1                    -0.9501    1.96534  -0.95 
 1                    -1.87262   0.88792  -1.9834 
 6                    -2.5929    0.95974   0.04239 
 1                    -3.4014    1.625    -0.27228 
 1                    -2.24694   1.36016   1.00466 
 
 ITRead=  0  0  0  0  0  0  0  0  0  0  0  0  0  0  0  0  0  0  0  0
 ITRead=  0  0  0  0  0  0  0  0
 MicOpt= -1 -1 -1 -1 -1 -1 -1 -1 -1 -1 -1 -1 -1 -1 -1 -1 -1 -1 -1 -1
 MicOpt= -1 -1 -1 -1 -1 -1 -1 -1
 NAtoms=     28 NQM=       28 NQMF=       0 NMMI=      0 NMMIF=      0
                NMic=       0 NMicF=      0.
                    Isotopes and Nuclear Properties:
 (Nuclear quadrupole moments (NQMom) in fm**2, nuclear magnetic moments (NMagM)
  in nuclear magnetons)

  Atom         1           2           3           4           5           6           7           8           9          10
 IAtWgt=          12          12           1           1          12          12           1           1          12           1
 AtmWgt=  12.0000000  12.0000000   1.0078250   1.0078250  12.0000000  12.0000000   1.0078250   1.0078250  12.0000000   1.0078250
 NucSpn=           0           0           1           1           0           0           1           1           0           1
 AtZEff=  -0.0000000  -0.0000000  -0.0000000  -0.0000000  -0.0000000  -0.0000000  -0.0000000  -0.0000000  -0.0000000  -0.0000000
 NQMom=    0.0000000   0.0000000   0.0000000   0.0000000   0.0000000   0.0000000   0.0000000   0.0000000   0.0000000   0.0000000
 NMagM=    0.0000000   0.0000000   2.7928460   2.7928460   0.0000000   0.0000000   2.7928460   2.7928460   0.0000000   2.7928460
 AtZNuc=   6.0000000   6.0000000   1.0000000   1.0000000   6.0000000   6.0000000   1.0000000   1.0000000   6.0000000   1.0000000

  Atom        11          12          13          14          15          16          17          18          19          20
 IAtWgt=           1          12           1          12           1          12           1           1          12           1
 AtmWgt=   1.0078250  12.0000000   1.0078250  12.0000000   1.0078250  12.0000000   1.0078250   1.0078250  12.0000000   1.0078250
 NucSpn=           1           0           1           0           1           0           1           1           0           1
 AtZEff=  -0.0000000  -0.0000000  -0.0000000  -0.0000000  -0.0000000  -0.0000000  -0.0000000  -0.0000000  -0.0000000  -0.0000000
 NQMom=    0.0000000   0.0000000   0.0000000   0.0000000   0.0000000   0.0000000   0.0000000   0.0000000   0.0000000   0.0000000
 NMagM=    2.7928460   0.0000000   2.7928460   0.0000000   2.7928460   0.0000000   2.7928460   2.7928460   0.0000000   2.7928460
 AtZNuc=   1.0000000   6.0000000   1.0000000   6.0000000   1.0000000   6.0000000   1.0000000   1.0000000   6.0000000   1.0000000

  Atom        21          22          23          24          25          26          27          28
 IAtWgt=          12           1          12           1           1          12           1           1
 AtmWgt=  12.0000000   1.0078250  12.0000000   1.0078250   1.0078250  12.0000000   1.0078250   1.0078250
 NucSpn=           0           1           0           1           1           0           1           1
 AtZEff=  -0.0000000  -0.0000000  -0.0000000  -0.0000000  -0.0000000  -0.0000000  -0.0000000  -0.0000000
 NQMom=    0.0000000   0.0000000   0.0000000   0.0000000   0.0000000   0.0000000   0.0000000   0.0000000
 NMagM=    0.0000000   2.7928460   0.0000000   2.7928460   2.7928460   0.0000000   2.7928460   2.7928460
 AtZNuc=   6.0000000   1.0000000   6.0000000   1.0000000   1.0000000   6.0000000   1.0000000   1.0000000
 Leave Link  101 at Tue Aug  4 17:39:04 2020, MaxMem=  6442450944 cpu:               2.8 elap:               0.2
 (Enter /scratch/scicomp/CentOS/7.3.1611/Haswell/software/Gaussian/g16/l202.exe)
                          Input orientation:                          
 ---------------------------------------------------------------------
 Center     Atomic      Atomic             Coordinates (Angstroms)
 Number     Number       Type             X           Y           Z
 ---------------------------------------------------------------------
      1          6           0       -3.119691   -0.425826    0.248428
      2          6           0       -0.438059   -0.127566   -0.740444
      3          1           0       -4.086791   -0.546863    0.720948
      4          1           0        0.329828   -0.109733   -1.515278
      5          6           0        1.116208    1.432588    0.668787
      6          6           0        0.438059    0.127566    0.740444
      7          1           0        0.567375    2.333262    0.913532
      8          1           0       -0.329828    0.109733    1.515278
      9          6           0        1.453963   -0.997822    0.978822
     10          1           0        1.872621   -0.887919    1.983401
     11          1           0        0.950096   -1.965338    0.950002
     12          6           0        2.395835    1.529761    0.125114
     13          1           0        2.827943    2.513325   -0.022973
     14          6           0        3.119691    0.425826   -0.248428
     15          1           0        4.086791    0.546863   -0.720948
     16          6           0        2.592903   -0.959744   -0.042391
     17          1           0        2.246941   -1.360164   -1.004660
     18          1           0        3.401404   -1.625003    0.272285
     19          6           0       -1.116208   -1.432588   -0.668787
     20          1           0       -0.567375   -2.333262   -0.913532
     21          6           0       -2.395835   -1.529761   -0.125114
     22          1           0       -2.827943   -2.513325    0.022973
     23          6           0       -1.453963    0.997822   -0.978822
     24          1           0       -0.950096    1.965338   -0.950002
     25          1           0       -1.872621    0.887919   -1.983401
     26          6           0       -2.592903    0.959744    0.042391
     27          1           0       -3.401404    1.625003   -0.272284
     28          1           0       -2.246941    1.360164    1.004660
 ---------------------------------------------------------------------
                    Distance matrix (angstroms):
                    1          2          3          4          5
     1  C    0.000000
     2  C    2.873670   0.000000
     3  H    1.083147   3.952812   0.000000
     4  H    3.887127   1.091025   4.969740   0.000000
     5  C    4.644701   2.614528   5.567059   2.786985   0.000000
     6  C    3.633993   1.739455   4.574877   2.270750   1.472448
     7  H    4.652890   3.130848   5.476629   3.453081   1.082743
     8  H    3.110477   2.270750   3.895748   3.109273   2.134833
     9  C    4.666794   2.700550   5.565053   2.876268   2.473276
    10  H    5.305360   3.651946   6.101205   3.902120   2.772205
    11  H    4.407433   2.856919   5.237821   3.147318   3.413587
    12  C    5.853252   3.395126   6.833142   3.105996   1.393725
    13  H    6.639775   4.260967   7.598139   3.917651   2.139290
    14  C    6.316808   3.633993   7.336157   3.110477   2.422560
    15  H    7.336157   4.574877   8.371544   3.895748   3.397092
    16  C    5.744856   3.219709   6.735835   2.830799   2.899940
    17  H    5.589629   2.966198   6.614782   2.345129   3.446512
    18  H    6.630481   4.243750   7.578704   3.863419   3.837733
    19  C    2.422560   1.472448   3.397092   2.134833   3.870661
    20  H    3.391575   2.216253   4.271889   2.472075   4.418123
    21  C    1.371923   2.485492   2.131019   3.373170   4.662643
    22  H    2.119811   3.462109   2.436974   4.256171   5.616372
    23  C    2.511487   1.534726   3.493859   2.167112   3.083734
    24  H    3.443986   2.164796   4.352250   2.502731   2.678416
    25  H    2.874399   2.152701   3.778181   2.462769   4.032848
    26  C    1.496583   2.537405   2.227556   3.480297   3.791234
    27  H    2.134573   3.474491   2.484606   4.298422   4.618599
    28  H    2.126814   2.920750   2.665013   3.892354   3.380655
                    6          7          8          9         10
     6  C    0.000000
     7  H    2.216253   0.000000
     8  H    1.091025   2.472075   0.000000
     9  C    1.534726   3.447669   2.167112   0.000000
    10  H    2.152701   3.636522   2.462769   1.093861   0.000000
    11  H    2.164796   4.315758   2.502731   1.091238   1.754935
    12  C    2.485492   2.147203   3.373170   2.829243   3.093891
    13  H    3.462109   2.453494   4.256171   3.901226   4.062836
    14  C    2.873670   3.391575   3.887127   2.511487   2.874399
    15  H    3.952812   4.271889   4.969740   3.493859   3.778181
    16  C    2.537405   3.982517   3.480297   1.530199   2.151232
    17  H    2.920750   4.487961   3.892354   2.166635   3.048219
    18  H    3.474491   4.910273   4.298422   2.164504   2.410060
    19  C    2.614528   4.418123   2.786985   3.083734   4.032848
    20  H    3.130848   5.138314   3.453081   3.074120   4.053988
    21  C    3.395126   4.978187   3.105996   4.040121   4.803906
    22  H    4.260967   5.984203   3.917651   4.641672   5.346076
    23  C    2.700550   3.074120   2.876268   4.033733   4.837039
    24  H    2.856919   2.431223   3.147318   4.275533   4.971284
    25  H    3.651946   4.053988   3.902120   4.837039   5.737243
    26  C    3.219709   3.554264   2.830799   4.591960   5.207906
    27  H    4.243750   4.202261   3.863418   5.658539   6.262446
    28  H    2.966198   2.979194   2.345129   4.388332   4.794017
                   11         12         13         14         15
    11  H    0.000000
    12  C    3.871217   0.000000
    13  H    4.952920   1.084456   0.000000
    14  C    3.443986   1.371923   2.119811   0.000000
    15  H    4.352250   2.131019   2.436974   1.083147   0.000000
    16  C    2.166767   2.502904   3.481067   1.496583   2.227556
    17  H    2.422549   3.106481   4.037969   2.126814   2.665013
    18  H    2.565938   3.314418   4.188292   2.134573   2.484606
    19  C    2.678416   4.662643   5.616372   4.644701   5.567059
    20  H    2.431223   4.978187   5.984203   4.652890   5.476629
    21  C    3.541307   5.690641   6.606424   5.853252   6.833142
    22  H    3.928518   6.606424   7.566926   6.639775   7.598139
    23  C    4.275533   4.040121   4.641672   4.666794   5.565053
    24  H    4.761403   3.541307   3.928518   4.407433   5.237821
    25  H    4.971284   4.803906   5.346076   5.305360   6.101205
    26  C    4.683237   5.021879   5.639455   5.744856   6.735835
    27  H    5.772355   5.811624   6.297304   6.630481   7.578704
    28  H    4.613350   4.728396   5.304739   5.589629   6.614782
                   16         17         18         19         20
    16  C    0.000000
    17  H    1.098175   0.000000
    18  H    1.093281   1.741698   0.000000
    19  C    3.791234   3.380655   4.618599   0.000000
    20  H    3.554264   2.979194   4.202261   1.082743   0.000000
    21  C    5.021879   4.728396   5.811624   1.393725   2.147203
    22  H    5.639455   5.304739   6.297304   2.139290   2.453494
    23  C    4.591960   4.388332   5.658539   2.473276   3.447669
    24  H    4.683237   4.613350   5.772355   3.413587   4.315758
    25  H    5.207906   4.794017   6.262446   2.772205   3.636522
    26  C    5.530299   5.468307   6.531882   2.899940   3.982517
    27  H    6.531882   6.430505   7.558921   3.837733   4.910273
    28  H    5.468307   5.624280   6.430505   3.446512   4.487961
                   21         22         23         24         25
    21  C    0.000000
    22  H    1.084456   0.000000
    23  C    2.829243   3.901226   0.000000
    24  H    3.871217   4.952920   1.091238   0.000000
    25  H    3.093891   4.062836   1.093861   1.754935   0.000000
    26  C    2.502904   3.481067   1.530199   2.166767   2.151232
    27  H    3.314418   4.188292   2.164504   2.565939   2.410061
    28  H    3.106481   4.037969   2.166635   2.422549   3.048219
                   26         27         28
    26  C    0.000000
    27  H    1.093281   0.000000
    28  H    1.098175   1.741698   0.000000
 Symmetry turned off by external request.
 Stoichiometry    C12H16
 Framework group  CI[X(C12H16)]
 Deg. of freedom    39
 Full point group                 CI      NOp   2
 Rotational constants (GHZ):           1.9718699           0.6426352           0.5533878
 Leave Link  202 at Tue Aug  4 17:39:04 2020, MaxMem=  6442450944 cpu:               0.3 elap:               0.1
 (Enter /scratch/scicomp/CentOS/7.3.1611/Haswell/software/Gaussian/g16/l301.exe)
 Standard basis: def2TZVP (6D, 10F)
 Ernie: Thresh=  0.10000D-02 Tol=  0.10000D-05 Strict=F.
   528 basis functions,   740 primitive gaussians,   528 cartesian basis functions
    44 alpha electrons       44 beta electrons
       nuclear repulsion energy       693.4122594659 Hartrees.
 IExCor= 4639 DFT=T Ex+Corr=wB97XD ExCW=0 ScaHFX=  1.000000
 ScaDFX=  1.000000  1.000000  1.000000  1.000000 ScalE2=  1.000000  1.000000
 IRadAn=      5 IRanWt=     -1 IRanGd=            0 ICorTp=0 IEmpDi=121
 HFx  wShort=  0.000000 wLong=  0.200000 cFull=  0.222036 cShort=  0.000000 cLong=  0.777964
 DFx  wShort=  0.000000 wLong=  0.200000 cFull=  0.000000 cShort=  0.000000 cLong=  1.000000
 NAtoms=   28 NActive=   28 NUniq=   28 SFac= 1.00D+00 NAtFMM=   60 NAOKFM=F Big=F
 Integral buffers will be    131072 words long.
 Raffenetti 2 integral format.
 Two-electron integral symmetry is turned off.
 R6Disp:  Grimme-D2 Dispersion energy=       -0.0228639708 Hartrees.
 Nuclear repulsion after empirical dispersion term =      693.3893954951 Hartrees.
 Using the following non-standard input for PCM:
 qrep pcmdoc geomview  nodis nocav g03defaults tsare=0.075
 Warning! Using old PCM defaults because the g03defaults keyword was found.
 These settings can be overridden by following keywords.
 nsfe=28
 NVESolv=36  SolvMW=84.1595   Rsolv=2.815
 eps=2.0165 RhoS=0.778099999999998
 --- end of non-standard input.
 Reading user-defined spheres from input:
 ISph  on   Nord    Re0     Alpha      Xe            Ye            Ze
 --- end of user-defined spheres data.
 ------------------------------------------------------------------------------
 Polarizable Continuum Model (PCM)
 =================================
 Model                : PCM.
 Atomic radii         : UA0 (Simple United Atom Topological Model).
 Polarization charges : Total charges.
 Charge compensation  : None.
 Solution method      : On-the-fly selection.
 Cavity type          : SES (Solvent Excluding Surface) (Alpha=1.000).
 Cavity algorithm     : GePol (RMin=0.200 OFac=0.890).
                        User-defined sphere list used, NSphG=   28.
                        Tesserae with average area of 0.075 Ang**2.
                        Smoothing algorithm: None.
                        Polarization charges: point-like.
                        Self-potential: constant (ISelfS= 1).
                        Self-field    : global E.n sum rule (ISelfD= 3).
 Solvent              : CycloHexane, Eps=   2.016500 Eps(inf)=   2.035188
                        RSolv=   2.815000 Ang.
 ------------------------------------------------------------------------------
 GePol: Number of generator spheres                  =      28
 GePol: Total number of spheres                      =     171
 GePol: Number of exposed spheres                    =     122 ( 71.35%)
 GePol: Number of tesserae                           =    4613
 GePol: Average area of tesserae                     =       0.05 Ang**2
 GePol: Minimum area of tessera                      =   0.10D-02 Ang**2
 GePol: Maximum area of tessera                      =    0.12547 Ang**2
 GePol: Number of small tesserae                     =       0
 GePol: Fraction of small tesserae (<1% of avg)      =       0.00%
 GePol: Total count of vertices                      =   16292
 GePol: Maximum number of vertices in a tessera      =       7
 GePol: Cavity surface area                          =    219.020 Ang**2
 GePol: Cavity volume                                =    245.653 Ang**3
 Leave Link  301 at Tue Aug  4 17:39:05 2020, MaxMem=  6442450944 cpu:              12.0 elap:               0.6
 (Enter /scratch/scicomp/CentOS/7.3.1611/Haswell/software/Gaussian/g16/l302.exe)
 NPDir=0 NMtPBC=     1 NCelOv=     1 NCel=       1 NClECP=     1 NCelD=      1
         NCelK=      1 NCelE2=     1 NClLst=     1 CellRange=     0.0.
 One-electron integrals computed using PRISM.
   1 Symmetry operations used in ECPInt.
 ECPInt:  NShTT=   19306 NPrTT=   56928 LenC2=   18534 LenP2D=   42296.
 LDataN:  DoStor=T MaxTD1= 6 Len=  172
 NBasis=   528 RedAO= T EigKep=  2.67D-05  NBF=   528
 NBsUse=   528 1.00D-06 EigRej= -1.00D+00 NBFU=   528
 Precomputing XC quadrature grid using
 IXCGrd= 4 IRadAn=           5 IRanWt=          -1 IRanGd=           0 AccXCQ= 0.00D+00.
 Generated NRdTot=       0 NPtTot=           0 NUsed=           0 NTot=          32
 NSgBfM=   526   526   526   526   526 MxSgAt=    28 MxSgA2=    28.
 Leave Link  302 at Tue Aug  4 17:39:06 2020, MaxMem=  6442450944 cpu:              22.4 elap:               1.0
 (Enter /scratch/scicomp/CentOS/7.3.1611/Haswell/software/Gaussian/g16/l303.exe)
 DipDrv:  MaxL=1.
 Leave Link  303 at Tue Aug  4 17:39:06 2020, MaxMem=  6442450944 cpu:               1.6 elap:               0.1
 (Enter /scratch/scicomp/CentOS/7.3.1611/Haswell/software/Gaussian/g16/l401.exe)
 ExpMin= 9.52D-02 ExpMax= 1.36D+04 ExpMxC= 4.63D+02 IAcc=3 IRadAn=         5 AccDes= 0.00D+00
 Harris functional with IExCor= 4639 and IRadAn=       5 diagonalized for initial guess.
 HarFok:  IExCor= 4639 AccDes= 0.00D+00 IRadAn=         5 IDoV= 1 UseB2=F ITyADJ=14
 ICtDFT=  3500011 ScaDFX=  1.000000  1.000000  1.000000  1.000000
 FoFCou: FMM=F IPFlag=           0 FMFlag=      100000 FMFlg1=           0
         NFxFlg=           0 DoJE=T BraDBF=F KetDBF=T FulRan=T
         wScrn=  0.000000 ICntrl=       500 IOpCl=  0 I1Cent=   200000004 NGrid=           0
         NMat0=    1 NMatS0=      1 NMatT0=    0 NMatD0=    1 NMtDS0=    0 NMtDT0=    0
 Symmetry not used in FoFCou.
 Harris En= -444.611108054331    
 JPrj=0 DoOrth=F DoCkMO=T.
 Mixing orbitals, IMix= 1 IMixAn=  0 NRI=1 NE=   44 Coef=  7.07106781D-01  7.07106781D-01
 Mixing orbitals, IMix= 1 IMixAn=  0 NRI=1 NE=   44 Coef= -7.07106781D-01  7.07106781D-01
 Initial guess <Sx>= 0.0000 <Sy>= 0.0000 <Sz>= 0.0000 <S**2>= 1.0000 S= 0.6180
 Leave Link  401 at Tue Aug  4 17:39:09 2020, MaxMem=  6442450944 cpu:              50.9 elap:               2.2
 (Enter /scratch/scicomp/CentOS/7.3.1611/Haswell/software/Gaussian/g16/l502.exe)
 Two-electron integral symmetry not used.
 UHF open shell SCF:
 Using DIIS extrapolation, IDIIS=  1040.
 NGot=  6442450944 LenX=  6441877030 LenY=  6441597718
 Requested convergence on RMS density matrix=1.00D-08 within 128 cycles.
 Requested convergence on MAX density matrix=1.00D-06.
 Requested convergence on             energy=1.00D-06.
 No special actions if energy rises.
 Fock matrices will be formed incrementally for  20 cycles.

 Cycle   1  Pass 1  IDiag  1:
 FoFJK:  IHMeth= 1 ICntrl=       0 DoSepK=T KAlg= 0 I1Cent=           0 FoldK=F
 IRaf=         1 NMat=       1 IRICut=       1 DoRegI=T DoRafI=F ISym2E= 0 IDoP0=0 IntGTp=1.
 FoFCou: FMM=F IPFlag=           0 FMFlag=      100000 FMFlg1=           0
         NFxFlg=           0 DoJE=T BraDBF=F KetDBF=F FulRan=T
         wScrn=  0.000000 ICntrl=       500 IOpCl=  0 I1Cent=           0 NGrid=           0
         NMat0=    1 NMatS0=      1 NMatT0=    0 NMatD0=    1 NMtDS0=    0 NMtDT0=    0
 Symmetry not used in FoFCou.
 Inv3:  Mode=1 IEnd=    63839307.
 Iteration    1 A*A^-1 deviation from unit magnitude is 4.00D-15 for   1483.
 Iteration    1 A*A^-1 deviation from orthogonality  is 2.14D-15 for   3780   3525.
 Iteration    1 A^-1*A deviation from unit magnitude is 4.44D-15 for   1483.
 Iteration    1 A^-1*A deviation from orthogonality  is 2.20D-15 for   3661   3064.
 E= -466.674083384569    
 DIIS: error= 6.10D-02 at cycle   1 NSaved=   1.
 NSaved= 1 IEnMin= 1 EnMin= -466.674083384569     IErMin= 1 ErrMin= 6.10D-02
 ErrMax= 6.10D-02  0.00D+00 EMaxC= 1.00D-01 BMatC= 4.11D+00 BMatP= 4.11D+00
 IDIUse=3 WtCom= 3.90D-01 WtEn= 6.10D-01
 Coeff-Com:  0.100D+01
 Coeff-En:   0.100D+01
 Coeff:      0.100D+01
 Gap=     0.229 Goal=   None    Shift=    0.000
 Gap=     0.229 Goal=   None    Shift=    0.000
 GapD=    0.229 DampG=1.000 DampE=0.500 DampFc=0.5000 IDamp=-1.
 Damping current iteration by 5.00D-01
 RMSDP=1.43D-03 MaxDP=9.25D-02              OVMax= 7.29D-02

 Cycle   2  Pass 1  IDiag  1:
 RMSU=  7.00D-04    CP:  9.76D-01
 E= -466.744951498806     Delta-E=       -0.070868114237 Rises=F Damp=T
 DIIS: error= 2.88D-02 at cycle   2 NSaved=   2.
 NSaved= 2 IEnMin= 2 EnMin= -466.744951498806     IErMin= 2 ErrMin= 2.88D-02
 ErrMax= 2.88D-02  0.00D+00 EMaxC= 1.00D-01 BMatC= 9.20D-01 BMatP= 4.11D+00
 IDIUse=3 WtCom= 7.12D-01 WtEn= 2.88D-01
 Coeff-Com: -0.863D+00 0.186D+01
 Coeff-En:   0.000D+00 0.100D+01
 Coeff:     -0.614D+00 0.161D+01
 Gap=     0.238 Goal=   None    Shift=    0.000
 Gap=     0.238 Goal=   None    Shift=    0.000
 RMSDP=8.79D-04 MaxDP=4.88D-02 DE=-7.09D-02 OVMax= 3.13D-02

 Cycle   3  Pass 1  IDiag  1:
 RMSU=  4.06D-04    CP:  9.47D-01  2.09D+00
 E= -466.814800502854     Delta-E=       -0.069849004049 Rises=F Damp=F
 DIIS: error= 2.46D-03 at cycle   3 NSaved=   3.
 NSaved= 3 IEnMin= 3 EnMin= -466.814800502854     IErMin= 3 ErrMin= 2.46D-03
 ErrMax= 2.46D-03  0.00D+00 EMaxC= 1.00D-01 BMatC= 1.66D-02 BMatP= 9.20D-01
 IDIUse=3 WtCom= 9.75D-01 WtEn= 2.46D-02
 Coeff-Com: -0.304D+00 0.658D+00 0.646D+00
 Coeff-En:   0.000D+00 0.000D+00 0.100D+01
 Coeff:     -0.297D+00 0.642D+00 0.655D+00
 Gap=     0.242 Goal=   None    Shift=    0.000
 Gap=     0.242 Goal=   None    Shift=    0.000
 RMSDP=1.07D-04 MaxDP=4.75D-03 DE=-6.98D-02 OVMax= 1.22D-02

 Cycle   4  Pass 1  IDiag  1:
 RMSU=  8.92D-05    CP:  9.45D-01  2.15D+00  9.24D-01
 E= -466.819124055388     Delta-E=       -0.004323552533 Rises=F Damp=F
 DIIS: error= 9.23D-04 at cycle   4 NSaved=   4.
 NSaved= 4 IEnMin= 4 EnMin= -466.819124055388     IErMin= 4 ErrMin= 9.23D-04
 ErrMax= 9.23D-04  0.00D+00 EMaxC= 1.00D-01 BMatC= 5.40D-04 BMatP= 1.66D-02
 IDIUse=3 WtCom= 9.91D-01 WtEn= 9.23D-03
 Coeff-Com:  0.117D+00-0.252D+00-0.146D+00 0.128D+01
 Coeff-En:   0.000D+00 0.000D+00 0.000D+00 0.100D+01
 Coeff:      0.116D+00-0.250D+00-0.144D+00 0.128D+01
 Gap=     0.247 Goal=   None    Shift=    0.000
 Gap=     0.247 Goal=   None    Shift=    0.000
 RMSDP=8.08D-05 MaxDP=4.62D-03 DE=-4.32D-03 OVMax= 1.19D-02

 Cycle   5  Pass 1  IDiag  1:
 RMSU=  3.33D-05    CP:  9.43D-01  2.20D+00  1.05D+00  1.47D+00
 E= -466.819780224949     Delta-E=       -0.000656169561 Rises=F Damp=F
 DIIS: error= 4.33D-04 at cycle   5 NSaved=   5.
 NSaved= 5 IEnMin= 5 EnMin= -466.819780224949     IErMin= 5 ErrMin= 4.33D-04
 ErrMax= 4.33D-04  0.00D+00 EMaxC= 1.00D-01 BMatC= 1.12D-04 BMatP= 5.40D-04
 IDIUse=3 WtCom= 9.96D-01 WtEn= 4.33D-03
 Coeff-Com:  0.291D-01-0.635D-01-0.653D-01-0.540D-01 0.115D+01
 Coeff-En:   0.000D+00 0.000D+00 0.000D+00 0.000D+00 0.100D+01
 Coeff:      0.290D-01-0.633D-01-0.650D-01-0.537D-01 0.115D+01
 Gap=     0.249 Goal=   None    Shift=    0.000
 Gap=     0.249 Goal=   None    Shift=    0.000
 RMSDP=3.05D-05 MaxDP=1.66D-03 DE=-6.56D-04 OVMax= 6.27D-03

 Cycle   6  Pass 1  IDiag  1:
 RMSU=  1.26D-05    CP:  9.43D-01  2.20D+00  1.08D+00  1.65D+00  1.56D+00
 E= -466.819917616815     Delta-E=       -0.000137391866 Rises=F Damp=F
 DIIS: error= 1.94D-04 at cycle   6 NSaved=   6.
 NSaved= 6 IEnMin= 6 EnMin= -466.819917616815     IErMin= 6 ErrMin= 1.94D-04
 ErrMax= 1.94D-04  0.00D+00 EMaxC= 1.00D-01 BMatC= 3.77D-05 BMatP= 1.12D-04
 IDIUse=3 WtCom= 9.98D-01 WtEn= 1.94D-03
 Coeff-Com: -0.233D-01 0.502D-01 0.176D-01-0.400D+00 0.428D+00 0.927D+00
 Coeff-En:   0.000D+00 0.000D+00 0.000D+00 0.000D+00 0.000D+00 0.100D+01
 Coeff:     -0.232D-01 0.501D-01 0.176D-01-0.399D+00 0.427D+00 0.928D+00
 Gap=     0.251 Goal=   None    Shift=    0.000
 Gap=     0.251 Goal=   None    Shift=    0.000
 RMSDP=1.47D-05 MaxDP=1.08D-03 DE=-1.37D-04 OVMax= 3.94D-03

 Cycle   7  Pass 1  IDiag  1:
 RMSU=  6.67D-06    CP:  9.43D-01  2.20D+00  1.09D+00  1.71D+00  1.89D+00
                    CP:  1.37D+00
 E= -466.819950645085     Delta-E=       -0.000033028271 Rises=F Damp=F
 DIIS: error= 7.06D-05 at cycle   7 NSaved=   7.
 NSaved= 7 IEnMin= 7 EnMin= -466.819950645085     IErMin= 7 ErrMin= 7.06D-05
 ErrMax= 7.06D-05  0.00D+00 EMaxC= 1.00D-01 BMatC= 2.81D-06 BMatP= 3.77D-05
 IDIUse=1 WtCom= 1.00D+00 WtEn= 0.00D+00
 Coeff-Com: -0.764D-02 0.166D-01 0.108D-01-0.595D-01-0.714D-01 0.150D+00
 Coeff-Com:  0.961D+00
 Coeff:     -0.764D-02 0.166D-01 0.108D-01-0.595D-01-0.714D-01 0.150D+00
 Coeff:      0.961D+00
 Gap=     0.251 Goal=   None    Shift=    0.000
 Gap=     0.251 Goal=   None    Shift=    0.000
 RMSDP=5.08D-06 MaxDP=3.49D-04 DE=-3.30D-05 OVMax= 1.10D-03

 Cycle   8  Pass 1  IDiag  1:
 RMSU=  2.38D-06    CP:  9.43D-01  2.20D+00  1.08D+00  1.70D+00  1.95D+00
                    CP:  1.59D+00  1.27D+00
 E= -466.819953396819     Delta-E=       -0.000002751734 Rises=F Damp=F
 DIIS: error= 3.79D-05 at cycle   8 NSaved=   8.
 NSaved= 8 IEnMin= 8 EnMin= -466.819953396819     IErMin= 8 ErrMin= 3.79D-05
 ErrMax= 3.79D-05  0.00D+00 EMaxC= 1.00D-01 BMatC= 4.79D-07 BMatP= 2.81D-06
 IDIUse=1 WtCom= 1.00D+00 WtEn= 0.00D+00
 Coeff-Com:  0.131D-02-0.282D-02 0.260D-03 0.408D-01-0.798D-01-0.938D-01
 Coeff-Com:  0.246D+00 0.888D+00
 Coeff:      0.131D-02-0.282D-02 0.260D-03 0.408D-01-0.798D-01-0.938D-01
 Coeff:      0.246D+00 0.888D+00
 Gap=     0.251 Goal=   None    Shift=    0.000
 Gap=     0.251 Goal=   None    Shift=    0.000
 RMSDP=2.19D-06 MaxDP=1.27D-04 DE=-2.75D-06 OVMax= 5.26D-04

 Cycle   9  Pass 1  IDiag  1:
 RMSU=  1.02D-06    CP:  9.43D-01  2.20D+00  1.08D+00  1.69D+00  1.95D+00
                    CP:  1.66D+00  1.46D+00  1.34D+00
 E= -466.819953805490     Delta-E=       -0.000000408670 Rises=F Damp=F
 DIIS: error= 1.68D-05 at cycle   9 NSaved=   9.
 NSaved= 9 IEnMin= 9 EnMin= -466.819953805490     IErMin= 9 ErrMin= 1.68D-05
 ErrMax= 1.68D-05  0.00D+00 EMaxC= 1.00D-01 BMatC= 7.59D-08 BMatP= 4.79D-07
 IDIUse=1 WtCom= 1.00D+00 WtEn= 0.00D+00
 Coeff-Com:  0.151D-02-0.326D-02-0.151D-02 0.205D-01-0.139D-01-0.491D-01
 Coeff-Com: -0.581D-01 0.272D+00 0.832D+00
 Coeff:      0.151D-02-0.326D-02-0.151D-02 0.205D-01-0.139D-01-0.491D-01
 Coeff:     -0.581D-01 0.272D+00 0.832D+00
 Gap=     0.251 Goal=   None    Shift=    0.000
 Gap=     0.251 Goal=   None    Shift=    0.000
 RMSDP=8.64D-07 MaxDP=4.94D-05 DE=-4.09D-07 OVMax= 2.17D-04

 Cycle  10  Pass 1  IDiag  1:
 RMSU=  3.09D-07    CP:  9.43D-01  2.20D+00  1.08D+00  1.69D+00  1.94D+00
                    CP:  1.67D+00  1.51D+00  1.56D+00  1.29D+00
 E= -466.819953865982     Delta-E=       -0.000000060492 Rises=F Damp=F
 DIIS: error= 6.37D-06 at cycle  10 NSaved=  10.
 NSaved=10 IEnMin=10 EnMin= -466.819953865982     IErMin=10 ErrMin= 6.37D-06
 ErrMax= 6.37D-06  0.00D+00 EMaxC= 1.00D-01 BMatC= 8.20D-09 BMatP= 7.59D-08
 IDIUse=1 WtCom= 1.00D+00 WtEn= 0.00D+00
 Coeff-Com: -0.246D-03 0.532D-03 0.415D-05-0.685D-02 0.119D-01 0.155D-01
 Coeff-Com: -0.313D-01-0.138D+00-0.818D-02 0.116D+01
 Coeff:     -0.246D-03 0.532D-03 0.415D-05-0.685D-02 0.119D-01 0.155D-01
 Coeff:     -0.313D-01-0.138D+00-0.818D-02 0.116D+01
 Gap=     0.251 Goal=   None    Shift=    0.000
 Gap=     0.251 Goal=   None    Shift=    0.000
 RMSDP=4.98D-07 MaxDP=3.89D-05 DE=-6.05D-08 OVMax= 1.17D-04

 Cycle  11  Pass 1  IDiag  1:
 RMSU=  1.48D-07    CP:  9.43D-01  2.20D+00  1.08D+00  1.69D+00  1.93D+00
                    CP:  1.66D+00  1.53D+00  1.66D+00  1.57D+00  1.47D+00
 E= -466.819953876261     Delta-E=       -0.000000010279 Rises=F Damp=F
 DIIS: error= 1.56D-06 at cycle  11 NSaved=  11.
 NSaved=11 IEnMin=11 EnMin= -466.819953876261     IErMin=11 ErrMin= 1.56D-06
 ErrMax= 1.56D-06  0.00D+00 EMaxC= 1.00D-01 BMatC= 1.97D-09 BMatP= 8.20D-09
 IDIUse=1 WtCom= 1.00D+00 WtEn= 0.00D+00
 Coeff-Com: -0.293D-03 0.634D-03 0.196D-03-0.533D-02 0.626D-02 0.125D-01
 Coeff-Com: -0.282D-02-0.875D-01-0.112D+00 0.429D+00 0.760D+00
 Coeff:     -0.293D-03 0.634D-03 0.196D-03-0.533D-02 0.626D-02 0.125D-01
 Coeff:     -0.282D-02-0.875D-01-0.112D+00 0.429D+00 0.760D+00
 Gap=     0.251 Goal=   None    Shift=    0.000
 Gap=     0.251 Goal=   None    Shift=    0.000
 RMSDP=1.28D-07 MaxDP=9.59D-06 DE=-1.03D-08 OVMax= 2.81D-05

 Cycle  12  Pass 1  IDiag  1:
 RMSU=  5.12D-08    CP:  9.43D-01  2.20D+00  1.08D+00  1.69D+00  1.93D+00
                    CP:  1.66D+00  1.53D+00  1.68D+00  1.63D+00  1.65D+00
                    CP:  1.30D+00
 E= -466.819953877458     Delta-E=       -0.000000001197 Rises=F Damp=F
 DIIS: error= 4.15D-07 at cycle  12 NSaved=  12.
 NSaved=12 IEnMin=12 EnMin= -466.819953877458     IErMin=12 ErrMin= 4.15D-07
 ErrMax= 4.15D-07  0.00D+00 EMaxC= 1.00D-01 BMatC= 2.14D-10 BMatP= 1.97D-09
 IDIUse=1 WtCom= 1.00D+00 WtEn= 0.00D+00
 Coeff-Com:  0.916D-05-0.204D-04 0.195D-04 0.534D-03-0.128D-02-0.111D-02
 Coeff-Com:  0.482D-02 0.131D-01-0.776D-02-0.144D+00 0.914D-01 0.104D+01
 Coeff:      0.916D-05-0.204D-04 0.195D-04 0.534D-03-0.128D-02-0.111D-02
 Coeff:      0.482D-02 0.131D-01-0.776D-02-0.144D+00 0.914D-01 0.104D+01
 Gap=     0.251 Goal=   None    Shift=    0.000
 Gap=     0.251 Goal=   None    Shift=    0.000
 RMSDP=6.03D-08 MaxDP=3.84D-06 DE=-1.20D-09 OVMax= 1.12D-05

 Cycle  13  Pass 1  IDiag  1:
 RMSU=  2.24D-08    CP:  9.43D-01  2.20D+00  1.08D+00  1.69D+00  1.93D+00
                    CP:  1.66D+00  1.53D+00  1.68D+00  1.65D+00  1.73D+00
                    CP:  1.57D+00  1.30D+00
 E= -466.819953877668     Delta-E=       -0.000000000209 Rises=F Damp=F
 DIIS: error= 1.60D-07 at cycle  13 NSaved=  13.
 NSaved=13 IEnMin=13 EnMin= -466.819953877668     IErMin=13 ErrMin= 1.60D-07
 ErrMax= 1.60D-07  0.00D+00 EMaxC= 1.00D-01 BMatC= 4.17D-11 BMatP= 2.14D-10
 IDIUse=1 WtCom= 1.00D+00 WtEn= 0.00D+00
 Coeff-Com:  0.487D-04-0.105D-03-0.245D-04 0.980D-03-0.136D-02-0.223D-02
 Coeff-Com:  0.203D-02 0.172D-01 0.157D-01-0.111D+00-0.941D-01 0.281D+00
 Coeff-Com:  0.891D+00
 Coeff:      0.487D-04-0.105D-03-0.245D-04 0.980D-03-0.136D-02-0.223D-02
 Coeff:      0.203D-02 0.172D-01 0.157D-01-0.111D+00-0.941D-01 0.281D+00
 Coeff:      0.891D+00
 Gap=     0.251 Goal=   None    Shift=    0.000
 Gap=     0.251 Goal=   None    Shift=    0.000
 RMSDP=2.01D-08 MaxDP=7.73D-07 DE=-2.09D-10 OVMax= 3.56D-06

 Cycle  14  Pass 1  IDiag  1:
 RMSU=  8.47D-09    CP:  9.43D-01  2.20D+00  1.08D+00  1.69D+00  1.93D+00
                    CP:  1.66D+00  1.53D+00  1.68D+00  1.66D+00  1.74D+00
                    CP:  1.66D+00  1.48D+00  1.20D+00
 E= -466.819953877707     Delta-E=       -0.000000000040 Rises=F Damp=F
 DIIS: error= 8.49D-08 at cycle  14 NSaved=  14.
 NSaved=14 IEnMin=14 EnMin= -466.819953877707     IErMin=14 ErrMin= 8.49D-08
 ErrMax= 8.49D-08  0.00D+00 EMaxC= 1.00D-01 BMatC= 6.66D-12 BMatP= 4.17D-11
 IDIUse=1 WtCom= 1.00D+00 WtEn= 0.00D+00
 Coeff-Com:  0.790D-05-0.170D-04-0.527D-05 0.129D-03-0.116D-03-0.309D-03
 Coeff-Com: -0.224D-03 0.177D-02 0.502D-02-0.499D-02-0.320D-01-0.825D-01
 Coeff-Com:  0.211D+00 0.902D+00
 Coeff:      0.790D-05-0.170D-04-0.527D-05 0.129D-03-0.116D-03-0.309D-03
 Coeff:     -0.224D-03 0.177D-02 0.502D-02-0.499D-02-0.320D-01-0.825D-01
 Coeff:      0.211D+00 0.902D+00
 Gap=     0.251 Goal=   None    Shift=    0.000
 Gap=     0.251 Goal=   None    Shift=    0.000
 RMSDP=6.20D-09 MaxDP=2.64D-07 DE=-3.97D-11 OVMax= 1.44D-06

 Error on total polarization charges =  0.01105
 SCF Done:  E(UwB97XD) =  -466.819953878     A.U. after   14 cycles
            NFock= 14  Conv=0.62D-08     -V/T= 2.0062
 <Sx>= 0.0000 <Sy>= 0.0000 <Sz>= 0.0000 <S**2>= 1.0249 S= 0.6291
 <L.S>=  0.00000000000    
 KE= 4.639637159927D+02 PE=-2.468455316111D+03 EE= 8.442822507458D+02
 --------------------------------------------------------------------
 Variational PCM results
 =======================
 <psi(f)|   H    |psi(f)>                     (a.u.) =    -466.828172
 <psi(f)|H+V(f)/2|psi(f)>                     (a.u.) =    -466.829409
 Total free energy in solution:
 - with all non electrostatic terms           (a.u.) =    -466.819954
 --------------------------------------------------------------------
 (Polarized solute)-Solvent               (kcal/mol) =      -0.78
 --------------------------------------------------------------------
 Quantum repulsion energy                 (kcal/mol) =       5.93
 Total non electrostatic                  (kcal/mol) =       5.93
 --------------------------------------------------------------------
 Partition over spheres:
 Sphere  on Atom  Surface  Charge   GEl     GCav    GDR
    1               7.75   0.011   -0.04    0.00    0.00
    2               0.54   0.000   -0.00    0.00    0.00
    3               7.51  -0.010   -0.04    0.00    0.00
    4               3.87  -0.004   -0.01    0.00    0.00
    5               4.87   0.008   -0.04    0.00    0.00
    6               0.39   0.000   -0.00    0.00    0.00
    7               5.15  -0.007   -0.03    0.00    0.00
    8               3.42  -0.004   -0.01    0.00    0.00
    9               3.63   0.002   -0.00    0.00    0.00
   10               6.43  -0.006   -0.01    0.00    0.00
   11               4.92  -0.003   -0.01    0.00    0.00
   12               6.89   0.011   -0.06    0.00    0.00
   13               7.51  -0.010   -0.03    0.00    0.00
   14               7.40   0.010   -0.04    0.00    0.00
   15               7.51  -0.010   -0.04    0.00    0.00
   16               3.32   0.002    0.00    0.00    0.00
   17               3.86  -0.004   -0.01    0.00    0.00
   18               7.54  -0.008   -0.03    0.00    0.00
   19               4.91   0.008   -0.04    0.00    0.00
   20               5.13  -0.007   -0.03    0.00    0.00
   21               6.67   0.011   -0.06    0.00    0.00
   22               7.51  -0.010   -0.03    0.00    0.00
   23               3.34   0.002   -0.00    0.00    0.00
   24               4.58  -0.003   -0.01    0.00    0.00
   25               6.32  -0.006   -0.01    0.00    0.00
   26               3.75   0.002    0.00    0.00    0.00
   27               7.45  -0.008   -0.03    0.00    0.00
   28               4.12  -0.004   -0.01    0.00    0.00
 Added spheres:    72.74   0.023   -0.17    0.00    0.00
 --------------------------------------------------------------------
 After PCM corrections, the energy is  -466.819953878     a.u.
 --------------------------------------------------------------------
 Annihilation of the first spin contaminant:
 S**2 before annihilation     1.0249,   after     0.5114
 Leave Link  502 at Tue Aug  4 17:43:42 2020, MaxMem=  6442450944 cpu:            6482.0 elap:             272.9
 (Enter /scratch/scicomp/CentOS/7.3.1611/Haswell/software/Gaussian/g16/l601.exe)
 Copying SCF densities to generalized density rwf, IOpCl= 1 IROHF=0.

 **********************************************************************

            Population analysis using the SCF Density.

 **********************************************************************

 Alpha  occ. eigenvalues --  -10.29618 -10.29435 -10.28594 -10.28346 -10.28245
 Alpha  occ. eigenvalues --  -10.28199 -10.27985 -10.27911 -10.27776 -10.27756
 Alpha  occ. eigenvalues --  -10.27667 -10.27621  -0.94846  -0.92616  -0.85152
 Alpha  occ. eigenvalues --   -0.84354  -0.83426  -0.81243  -0.70898  -0.70251
 Alpha  occ. eigenvalues --   -0.69251  -0.67519  -0.59799  -0.58994  -0.58419
 Alpha  occ. eigenvalues --   -0.56158  -0.53339  -0.52601  -0.50543  -0.49125
 Alpha  occ. eigenvalues --   -0.48699  -0.48065  -0.47838  -0.47129  -0.46231
 Alpha  occ. eigenvalues --   -0.44588  -0.41356  -0.40688  -0.39791  -0.39215
 Alpha  occ. eigenvalues --   -0.38071  -0.36961  -0.33815  -0.24845
 Alpha virt. eigenvalues --    0.00250   0.10392   0.11429   0.13447   0.14082
 Alpha virt. eigenvalues --    0.14694   0.15581   0.16432   0.17040   0.17327
 Alpha virt. eigenvalues --    0.17820   0.18107   0.19392   0.20941   0.21320
 Alpha virt. eigenvalues --    0.22255   0.22716   0.23311   0.24191   0.24455
 Alpha virt. eigenvalues --    0.25608   0.25945   0.26993   0.27213   0.27597
 Alpha virt. eigenvalues --    0.29163   0.29589   0.30145   0.31200   0.31923
 Alpha virt. eigenvalues --    0.32077   0.32506   0.32628   0.33000   0.34468
 Alpha virt. eigenvalues --    0.34607   0.36141   0.36696   0.37308   0.37832
 Alpha virt. eigenvalues --    0.38435   0.39044   0.41563   0.41840   0.42500
 Alpha virt. eigenvalues --    0.43956   0.44486   0.45777   0.46138   0.46486
 Alpha virt. eigenvalues --    0.47068   0.47262   0.48624   0.49140   0.49199
 Alpha virt. eigenvalues --    0.49362   0.49820   0.49987   0.50719   0.51120
 Alpha virt. eigenvalues --    0.51437   0.51798   0.51948   0.52970   0.53514
 Alpha virt. eigenvalues --    0.53659   0.54655   0.54854   0.55559   0.56249
 Alpha virt. eigenvalues --    0.56747   0.57139   0.58193   0.58735   0.58991
 Alpha virt. eigenvalues --    0.59137   0.61224   0.61796   0.64191   0.66050
 Alpha virt. eigenvalues --    0.66792   0.68007   0.68201   0.69441   0.69704
 Alpha virt. eigenvalues --    0.71017   0.71860   0.74843   0.75683   0.75827
 Alpha virt. eigenvalues --    0.79328   0.79500   0.79833   0.82187   0.82193
 Alpha virt. eigenvalues --    0.83392   0.84626   0.86940   0.87708   0.88459
 Alpha virt. eigenvalues --    0.89964   0.90407   0.92606   0.94329   0.95137
 Alpha virt. eigenvalues --    0.96568   0.97608   0.98037   0.99284   0.99943
 Alpha virt. eigenvalues --    1.01937   1.02083   1.04304   1.05035   1.05917
 Alpha virt. eigenvalues --    1.07370   1.08792   1.09945   1.10096   1.10679
 Alpha virt. eigenvalues --    1.12207   1.14401   1.15942   1.17103   1.17685
 Alpha virt. eigenvalues --    1.18719   1.19332   1.19827   1.19995   1.20839
 Alpha virt. eigenvalues --    1.21867   1.23513   1.25202   1.25928   1.26669
 Alpha virt. eigenvalues --    1.27252   1.28204   1.28932   1.29393   1.29661
 Alpha virt. eigenvalues --    1.30613   1.31097   1.33478   1.33939   1.34888
 Alpha virt. eigenvalues --    1.35590   1.36552   1.36786   1.38431   1.39056
 Alpha virt. eigenvalues --    1.39265   1.39500   1.40351   1.41439   1.42319
 Alpha virt. eigenvalues --    1.43241   1.43256   1.44583   1.45336   1.46402
 Alpha virt. eigenvalues --    1.46611   1.47627   1.47906   1.50125   1.50923
 Alpha virt. eigenvalues --    1.51424   1.54094   1.54292   1.57625   1.57695
 Alpha virt. eigenvalues --    1.59603   1.60390   1.61173   1.62562   1.63628
 Alpha virt. eigenvalues --    1.66233   1.66939   1.68241   1.69394   1.70001
 Alpha virt. eigenvalues --    1.73648   1.74190   1.77117   1.78123   1.78583
 Alpha virt. eigenvalues --    1.80526   1.81336   1.83012   1.85321   1.87263
 Alpha virt. eigenvalues --    1.88873   1.89422   1.91993   1.92071   1.94412
 Alpha virt. eigenvalues --    1.97410   1.98500   2.01658   2.05030   2.06409
 Alpha virt. eigenvalues --    2.07756   2.08025   2.08490   2.11597   2.11862
 Alpha virt. eigenvalues --    2.13353   2.13637   2.16612   2.18075   2.18246
 Alpha virt. eigenvalues --    2.18745   2.19423   2.20400   2.22064   2.24182
 Alpha virt. eigenvalues --    2.25799   2.26547   2.28905   2.31472   2.32033
 Alpha virt. eigenvalues --    2.34914   2.36890   2.37455   2.40047   2.42916
 Alpha virt. eigenvalues --    2.45915   2.46829   2.47005   2.48432   2.50171
 Alpha virt. eigenvalues --    2.50979   2.54717   2.55316   2.56553   2.57525
 Alpha virt. eigenvalues --    2.57833   2.60363   2.60561   2.63031   2.63425
 Alpha virt. eigenvalues --    2.64237   2.64732   2.67501   2.68014   2.68756
 Alpha virt. eigenvalues --    2.69264   2.70872   2.71966   2.73178   2.73331
 Alpha virt. eigenvalues --    2.74141   2.75157   2.76306   2.77902   2.80020
 Alpha virt. eigenvalues --    2.80128   2.81508   2.82189   2.82420   2.82664
 Alpha virt. eigenvalues --    2.83359   2.85322   2.86406   2.86473   2.87330
 Alpha virt. eigenvalues --    2.87951   2.88474   2.89519   2.89870   2.90859
 Alpha virt. eigenvalues --    2.93282   2.94235   2.94467   2.95946   2.96116
 Alpha virt. eigenvalues --    2.98852   2.99969   3.00911   3.02478   3.03486
 Alpha virt. eigenvalues --    3.05819   3.06236   3.06959   3.07287   3.07866
 Alpha virt. eigenvalues --    3.09951   3.10350   3.11160   3.11812   3.12168
 Alpha virt. eigenvalues --    3.13076   3.13953   3.15030   3.15462   3.15752
 Alpha virt. eigenvalues --    3.16055   3.16898   3.17176   3.19714   3.20259
 Alpha virt. eigenvalues --    3.21049   3.21244   3.21757   3.22970   3.23523
 Alpha virt. eigenvalues --    3.24623   3.24853   3.25732   3.26097   3.26573
 Alpha virt. eigenvalues --    3.27273   3.27749   3.28883   3.31083   3.31329
 Alpha virt. eigenvalues --    3.32183   3.32563   3.32815   3.34279   3.35327
 Alpha virt. eigenvalues --    3.36200   3.36722   3.37711   3.38290   3.39064
 Alpha virt. eigenvalues --    3.39743   3.40650   3.41269   3.41673   3.42950
 Alpha virt. eigenvalues --    3.43415   3.44683   3.45954   3.46750   3.48884
 Alpha virt. eigenvalues --    3.49445   3.50192   3.50875   3.51429   3.51859
 Alpha virt. eigenvalues --    3.53046   3.53295   3.55002   3.56348   3.56877
 Alpha virt. eigenvalues --    3.57508   3.58366   3.59150   3.60575   3.61477
 Alpha virt. eigenvalues --    3.62333   3.63100   3.63419   3.64857   3.65736
 Alpha virt. eigenvalues --    3.68071   3.68968   3.71220   3.72169   3.72973
 Alpha virt. eigenvalues --    3.73498   3.77942   3.79021   3.79479   3.80688
 Alpha virt. eigenvalues --    3.82876   3.83169   3.83435   3.83806   3.85063
 Alpha virt. eigenvalues --    3.88101   3.88657   3.90632   3.90793   3.94283
 Alpha virt. eigenvalues --    3.95151   3.95665   3.95809   3.98379   4.02280
 Alpha virt. eigenvalues --    4.04017   4.05516   4.07202   4.09849   4.10002
 Alpha virt. eigenvalues --    4.11019   4.12609   4.12898   4.15070   4.17173
 Alpha virt. eigenvalues --    4.18748   4.19746   4.22055   4.23183   4.24006
 Alpha virt. eigenvalues --    4.24183   4.26070   4.27555   4.28205   4.28748
 Alpha virt. eigenvalues --    4.29875   4.35541   4.37459   4.37964   4.38617
 Alpha virt. eigenvalues --    4.40905   4.43064   4.44481   4.46454   4.49430
 Alpha virt. eigenvalues --    4.51898   4.53945   4.54982   4.56448   4.56944
 Alpha virt. eigenvalues --    4.57822   4.61380   4.62965   4.64120   4.67599
 Alpha virt. eigenvalues --    4.68537   4.69193   4.73519   4.73925   4.77091
 Alpha virt. eigenvalues --    4.78762   4.81133   4.81572   4.88589   4.89804
 Alpha virt. eigenvalues --    4.91629   4.91926   4.95017   4.95052   4.96949
 Alpha virt. eigenvalues --    4.99279   5.05446   5.06225   5.10774   5.12489
 Alpha virt. eigenvalues --    5.20422   5.20981   5.24868   5.25834   5.27313
 Alpha virt. eigenvalues --    5.32173   5.36345   5.37129   5.37404   5.39224
 Alpha virt. eigenvalues --    5.40835   5.44222   5.51616   5.52563   5.55206
 Alpha virt. eigenvalues --    5.62265   5.72254   5.73317   5.80524   5.82572
 Alpha virt. eigenvalues --    7.94361   7.95219   8.02691   8.04752   8.08040
 Alpha virt. eigenvalues --    8.10403   8.11580   8.15793   8.16447   8.23305
 Alpha virt. eigenvalues --    8.33903   8.37035  34.75426  34.76001  34.81682
 Alpha virt. eigenvalues --   34.82534  34.86061  34.88179  34.98455  34.99762
 Alpha virt. eigenvalues --   35.01620  35.04766  35.17942  35.22541
  Beta  occ. eigenvalues --  -10.29618 -10.29435 -10.28594 -10.28345 -10.28244
  Beta  occ. eigenvalues --  -10.28200 -10.27985 -10.27911 -10.27778 -10.27754
  Beta  occ. eigenvalues --  -10.27667 -10.27621  -0.94847  -0.92615  -0.85152
  Beta  occ. eigenvalues --   -0.84354  -0.83426  -0.81243  -0.70898  -0.70251
  Beta  occ. eigenvalues --   -0.69251  -0.67519  -0.59799  -0.58994  -0.58419
  Beta  occ. eigenvalues --   -0.56158  -0.53339  -0.52600  -0.50543  -0.49125
  Beta  occ. eigenvalues --   -0.48699  -0.48066  -0.47838  -0.47129  -0.46231
  Beta  occ. eigenvalues --   -0.44588  -0.41356  -0.40688  -0.39791  -0.39215
  Beta  occ. eigenvalues --   -0.38071  -0.36961  -0.33815  -0.24845
  Beta virt. eigenvalues --    0.00248   0.10392   0.11429   0.13447   0.14081
  Beta virt. eigenvalues --    0.14695   0.15581   0.16432   0.17040   0.17327
  Beta virt. eigenvalues --    0.17819   0.18108   0.19392   0.20941   0.21321
  Beta virt. eigenvalues --    0.22254   0.22717   0.23312   0.24191   0.24455
  Beta virt. eigenvalues --    0.25608   0.25945   0.26994   0.27213   0.27597
  Beta virt. eigenvalues --    0.29163   0.29589   0.30145   0.31200   0.31923
  Beta virt. eigenvalues --    0.32079   0.32506   0.32628   0.32999   0.34468
  Beta virt. eigenvalues --    0.34607   0.36144   0.36695   0.37306   0.37831
  Beta virt. eigenvalues --    0.38437   0.39044   0.41563   0.41839   0.42500
  Beta virt. eigenvalues --    0.43956   0.44486   0.45777   0.46138   0.46486
  Beta virt. eigenvalues --    0.47068   0.47261   0.48624   0.49140   0.49199
  Beta virt. eigenvalues --    0.49362   0.49820   0.49987   0.50719   0.51119
  Beta virt. eigenvalues --    0.51438   0.51797   0.51948   0.52970   0.53514
  Beta virt. eigenvalues --    0.53659   0.54655   0.54854   0.55559   0.56249
  Beta virt. eigenvalues --    0.56747   0.57139   0.58193   0.58734   0.58992
  Beta virt. eigenvalues --    0.59137   0.61224   0.61796   0.64191   0.66050
  Beta virt. eigenvalues --    0.66793   0.68007   0.68201   0.69441   0.69703
  Beta virt. eigenvalues --    0.71018   0.71860   0.74843   0.75682   0.75829
  Beta virt. eigenvalues --    0.79328   0.79500   0.79833   0.82188   0.82193
  Beta virt. eigenvalues --    0.83391   0.84627   0.86940   0.87708   0.88460
  Beta virt. eigenvalues --    0.89964   0.90408   0.92606   0.94330   0.95137
  Beta virt. eigenvalues --    0.96568   0.97608   0.98037   0.99284   0.99943
  Beta virt. eigenvalues --    1.01938   1.02082   1.04304   1.05034   1.05917
  Beta virt. eigenvalues --    1.07369   1.08793   1.09945   1.10096   1.10679
  Beta virt. eigenvalues --    1.12207   1.14401   1.15942   1.17103   1.17685
  Beta virt. eigenvalues --    1.18719   1.19332   1.19828   1.19994   1.20838
  Beta virt. eigenvalues --    1.21867   1.23513   1.25202   1.25929   1.26668
  Beta virt. eigenvalues --    1.27252   1.28204   1.28932   1.29393   1.29661
  Beta virt. eigenvalues --    1.30613   1.31098   1.33478   1.33938   1.34888
  Beta virt. eigenvalues --    1.35590   1.36552   1.36786   1.38431   1.39055
  Beta virt. eigenvalues --    1.39265   1.39500   1.40351   1.41439   1.42320
  Beta virt. eigenvalues --    1.43241   1.43256   1.44583   1.45336   1.46402
  Beta virt. eigenvalues --    1.46611   1.47627   1.47906   1.50125   1.50923
  Beta virt. eigenvalues --    1.51424   1.54094   1.54292   1.57625   1.57695
  Beta virt. eigenvalues --    1.59603   1.60389   1.61173   1.62562   1.63628
  Beta virt. eigenvalues --    1.66233   1.66939   1.68241   1.69395   1.70001
  Beta virt. eigenvalues --    1.73648   1.74190   1.77117   1.78123   1.78583
  Beta virt. eigenvalues --    1.80526   1.81336   1.83012   1.85321   1.87263
  Beta virt. eigenvalues --    1.88873   1.89422   1.91992   1.92071   1.94412
  Beta virt. eigenvalues --    1.97409   1.98500   2.01658   2.05030   2.06409
  Beta virt. eigenvalues --    2.07756   2.08025   2.08490   2.11597   2.11863
  Beta virt. eigenvalues --    2.13353   2.13637   2.16612   2.18075   2.18246
  Beta virt. eigenvalues --    2.18745   2.19423   2.20400   2.22064   2.24182
  Beta virt. eigenvalues --    2.25800   2.26547   2.28905   2.31472   2.32033
  Beta virt. eigenvalues --    2.34914   2.36890   2.37455   2.40047   2.42916
  Beta virt. eigenvalues --    2.45915   2.46829   2.47004   2.48432   2.50171
  Beta virt. eigenvalues --    2.50979   2.54717   2.55316   2.56553   2.57525
  Beta virt. eigenvalues --    2.57833   2.60363   2.60561   2.63031   2.63425
  Beta virt. eigenvalues --    2.64237   2.64732   2.67501   2.68014   2.68756
  Beta virt. eigenvalues --    2.69264   2.70872   2.71966   2.73178   2.73331
  Beta virt. eigenvalues --    2.74141   2.75157   2.76306   2.77902   2.80020
  Beta virt. eigenvalues --    2.80128   2.81508   2.82189   2.82420   2.82664
  Beta virt. eigenvalues --    2.83359   2.85322   2.86405   2.86473   2.87330
  Beta virt. eigenvalues --    2.87951   2.88474   2.89519   2.89870   2.90859
  Beta virt. eigenvalues --    2.93282   2.94235   2.94467   2.95946   2.96116
  Beta virt. eigenvalues --    2.98852   2.99969   3.00911   3.02478   3.03486
  Beta virt. eigenvalues --    3.05819   3.06236   3.06959   3.07287   3.07866
  Beta virt. eigenvalues --    3.09951   3.10350   3.11160   3.11812   3.12168
  Beta virt. eigenvalues --    3.13076   3.13953   3.15030   3.15462   3.15752
  Beta virt. eigenvalues --    3.16055   3.16898   3.17176   3.19714   3.20260
  Beta virt. eigenvalues --    3.21050   3.21244   3.21757   3.22970   3.23524
  Beta virt. eigenvalues --    3.24623   3.24853   3.25732   3.26097   3.26573
  Beta virt. eigenvalues --    3.27273   3.27749   3.28883   3.31083   3.31329
  Beta virt. eigenvalues --    3.32183   3.32563   3.32815   3.34279   3.35327
  Beta virt. eigenvalues --    3.36200   3.36722   3.37711   3.38290   3.39064
  Beta virt. eigenvalues --    3.39743   3.40649   3.41269   3.41673   3.42950
  Beta virt. eigenvalues --    3.43415   3.44683   3.45954   3.46750   3.48884
  Beta virt. eigenvalues --    3.49445   3.50192   3.50875   3.51429   3.51859
  Beta virt. eigenvalues --    3.53046   3.53295   3.55002   3.56348   3.56877
  Beta virt. eigenvalues --    3.57508   3.58366   3.59150   3.60575   3.61477
  Beta virt. eigenvalues --    3.62333   3.63100   3.63419   3.64857   3.65736
  Beta virt. eigenvalues --    3.68071   3.68968   3.71220   3.72169   3.72973
  Beta virt. eigenvalues --    3.73498   3.77942   3.79022   3.79479   3.80688
  Beta virt. eigenvalues --    3.82876   3.83169   3.83435   3.83806   3.85063
  Beta virt. eigenvalues --    3.88101   3.88657   3.90632   3.90793   3.94283
  Beta virt. eigenvalues --    3.95151   3.95665   3.95809   3.98379   4.02280
  Beta virt. eigenvalues --    4.04017   4.05516   4.07202   4.09849   4.10002
  Beta virt. eigenvalues --    4.11019   4.12609   4.12898   4.15070   4.17173
  Beta virt. eigenvalues --    4.18748   4.19746   4.22054   4.23183   4.24006
  Beta virt. eigenvalues --    4.24183   4.26070   4.27555   4.28205   4.28748
  Beta virt. eigenvalues --    4.29875   4.35541   4.37459   4.37964   4.38617
  Beta virt. eigenvalues --    4.40905   4.43064   4.44481   4.46454   4.49430
  Beta virt. eigenvalues --    4.51898   4.53945   4.54982   4.56449   4.56944
  Beta virt. eigenvalues --    4.57822   4.61380   4.62965   4.64119   4.67599
  Beta virt. eigenvalues --    4.68537   4.69193   4.73519   4.73925   4.77091
  Beta virt. eigenvalues --    4.78762   4.81133   4.81572   4.88589   4.89804
  Beta virt. eigenvalues --    4.91629   4.91926   4.95017   4.95052   4.96949
  Beta virt. eigenvalues --    4.99279   5.05446   5.06225   5.10774   5.12489
  Beta virt. eigenvalues --    5.20422   5.20981   5.24868   5.25834   5.27313
  Beta virt. eigenvalues --    5.32173   5.36345   5.37129   5.37404   5.39224
  Beta virt. eigenvalues --    5.40835   5.44222   5.51616   5.52563   5.55206
  Beta virt. eigenvalues --    5.62265   5.72254   5.73317   5.80524   5.82572
  Beta virt. eigenvalues --    7.94361   7.95219   8.02690   8.04752   8.08039
  Beta virt. eigenvalues --    8.10404   8.11580   8.15793   8.16447   8.23305
  Beta virt. eigenvalues --    8.33903   8.37035  34.75426  34.76001  34.81682
  Beta virt. eigenvalues --   34.82534  34.86061  34.88179  34.98455  34.99762
  Beta virt. eigenvalues --   35.01620  35.04766  35.17942  35.22541
          Condensed to atoms (all electrons):
               1          2          3          4          5          6
     1  C    5.261725   0.021950   0.428173  -0.003051   0.001787  -0.010430
     2  C    0.021950   5.347205  -0.001609   0.430811  -0.108118   0.282049
     3  H    0.428173  -0.001609   0.485122   0.000037  -0.000001   0.000145
     4  H   -0.003051   0.430811   0.000037   0.515253  -0.001808  -0.013629
     5  C    0.001787  -0.108118  -0.000001  -0.001808   5.333406   0.257404
     6  C   -0.010430   0.282049   0.000145  -0.013629   0.257404   5.347266
     7  H    0.000030  -0.000858   0.000003   0.000260   0.432560  -0.032159
     8  H   -0.001191  -0.013609  -0.000092   0.000899  -0.047852   0.430781
     9  C    0.002128  -0.065324  -0.000004  -0.007702  -0.044747   0.233206
    10  H   -0.000025   0.006863  -0.000001  -0.000272  -0.002045  -0.045019
    11  H   -0.000275  -0.006792   0.000003   0.000927   0.011776  -0.053465
    12  C   -0.000214   0.011023  -0.000001   0.003317   0.412745  -0.063460
    13  H   -0.000000  -0.000155   0.000000  -0.000019  -0.025960   0.003143
    14  C    0.000074  -0.010345  -0.000000  -0.001166  -0.053457   0.021942
    15  H   -0.000000   0.000146  -0.000000  -0.000091   0.003876  -0.001609
    16  C   -0.000331   0.021171   0.000000   0.000889  -0.001006  -0.076465
    17  H    0.000043   0.002611  -0.000000  -0.003583   0.006357  -0.012939
    18  H    0.000001  -0.000302   0.000000   0.000396  -0.002280   0.012632
    19  C   -0.053415   0.257473   0.003886  -0.047904   0.006859  -0.108062
    20  H    0.004176  -0.032249  -0.000126  -0.005309  -0.000474  -0.000863
    21  C    0.454673  -0.063527  -0.032068   0.006495  -0.000393   0.011093
    22  H   -0.026211   0.003145  -0.004647  -0.000105   0.000044  -0.000153
    23  C   -0.092453   0.233294   0.004855  -0.021119   0.018822  -0.065318
    24  H    0.013344  -0.053611  -0.000036  -0.003326   0.005581  -0.006813
    25  H   -0.001090  -0.044791  -0.000138  -0.004742  -0.000278   0.006844
    26  C    0.270697  -0.076620  -0.026978   0.008603  -0.011484   0.021294
    27  H   -0.033190   0.012700  -0.004157  -0.000136   0.000138  -0.000310
    28  H   -0.040222  -0.013017   0.000241  -0.000155  -0.001272   0.002646
               7          8          9         10         11         12
     1  C    0.000030  -0.001191   0.002128  -0.000025  -0.000275  -0.000214
     2  C   -0.000858  -0.013609  -0.065324   0.006863  -0.006792   0.011023
     3  H    0.000003  -0.000092  -0.000004  -0.000001   0.000003  -0.000001
     4  H    0.000260   0.000899  -0.007702  -0.000272   0.000927   0.003317
     5  C    0.432560  -0.047852  -0.044747  -0.002045   0.011776   0.412745
     6  C   -0.032159   0.430781   0.233206  -0.045019  -0.053465  -0.063460
     7  H    0.474855  -0.005311   0.003222   0.000167  -0.000027  -0.033111
     8  H   -0.005311   0.515413  -0.021187  -0.004735  -0.003325   0.006482
     9  C    0.003222  -0.021187   5.042671   0.415303   0.455684   0.029754
    10  H    0.000167  -0.004735   0.415303   0.546725  -0.014891   0.001176
    11  H   -0.000027  -0.003325   0.455684  -0.014891   0.521377  -0.005502
    12  C   -0.033111   0.006482   0.029754   0.001176  -0.005502   5.014691
    13  H   -0.004099  -0.000105   0.000539  -0.000124   0.000027   0.417537
    14  C    0.004178  -0.003049  -0.092408  -0.000849   0.013299   0.454946
    15  H   -0.000125   0.000037   0.004852  -0.000135  -0.000037  -0.032041
    16  C   -0.001235   0.008607   0.321996  -0.025978  -0.056194  -0.046630
    17  H   -0.000010  -0.000155  -0.027571   0.004647  -0.004233  -0.006252
    18  H    0.000048  -0.000135  -0.041962  -0.005918  -0.002539   0.004753
    19  C   -0.000476  -0.001879   0.018959  -0.000284   0.005483  -0.000407
    20  H    0.000002   0.000257   0.003021   0.000280  -0.003196  -0.000045
    21  C   -0.000044   0.003382  -0.004339  -0.000069   0.000022   0.000116
    22  H   -0.000001  -0.000018  -0.000063  -0.000003  -0.000018   0.000000
    23  C    0.002991  -0.007710   0.008406  -0.000220   0.000074  -0.004322
    24  H   -0.003194   0.000928   0.000074  -0.000018  -0.000006   0.000015
    25  H    0.000280  -0.000272  -0.000218   0.000013  -0.000018  -0.000072
    26  C   -0.001055   0.000906  -0.001912   0.000050   0.000026   0.001391
    27  H   -0.000027   0.000397   0.000024  -0.000001  -0.000003  -0.000010
    28  H    0.002018  -0.003594   0.000841   0.000007   0.000012   0.000030
              13         14         15         16         17         18
     1  C   -0.000000   0.000074  -0.000000  -0.000331   0.000043   0.000001
     2  C   -0.000155  -0.010345   0.000146   0.021171   0.002611  -0.000302
     3  H    0.000000  -0.000000  -0.000000   0.000000  -0.000000   0.000000
     4  H   -0.000019  -0.001166  -0.000091   0.000889  -0.003583   0.000396
     5  C   -0.025960  -0.053457   0.003876  -0.001006   0.006357  -0.002280
     6  C    0.003143   0.021942  -0.001609  -0.076465  -0.012939   0.012632
     7  H   -0.004099   0.004178  -0.000125  -0.001235  -0.000010   0.000048
     8  H   -0.000105  -0.003049   0.000037   0.008607  -0.000155  -0.000135
     9  C    0.000539  -0.092408   0.004852   0.321996  -0.027571  -0.041962
    10  H   -0.000124  -0.000849  -0.000135  -0.025978   0.004647  -0.005918
    11  H    0.000027   0.013299  -0.000037  -0.056194  -0.004233  -0.002539
    12  C    0.417537   0.454946  -0.032041  -0.046630  -0.006252   0.004753
    13  H    0.491572  -0.026215  -0.004648   0.003494  -0.000340  -0.000110
    14  C   -0.026215   5.261391   0.428143   0.271312  -0.040474  -0.032734
    15  H   -0.004648   0.428143   0.485059  -0.026913   0.000229  -0.004124
    16  C    0.003494   0.271312  -0.026913   4.982900   0.406188   0.423625
    17  H   -0.000340  -0.040474   0.000229   0.406188   0.574570  -0.022160
    18  H   -0.000110  -0.032734  -0.004124   0.423625  -0.022160   0.539958
    19  C    0.000044   0.001793  -0.000001  -0.011495  -0.001251   0.000134
    20  H   -0.000001   0.000032   0.000003  -0.001069   0.002018  -0.000027
    21  C    0.000000  -0.000214  -0.000001   0.001391   0.000030  -0.000010
    22  H    0.000000  -0.000000   0.000000   0.000004  -0.000005  -0.000001
    23  C   -0.000062   0.002115  -0.000004  -0.001908   0.000839   0.000025
    24  H   -0.000018  -0.000277   0.000003   0.000026   0.000012  -0.000003
    25  H   -0.000003  -0.000024  -0.000001   0.000049   0.000007  -0.000001
    26  C    0.000004  -0.000331   0.000000   0.000433  -0.000057  -0.000001
    27  H   -0.000001   0.000001   0.000000  -0.000001   0.000001  -0.000000
    28  H   -0.000005   0.000042  -0.000000  -0.000057  -0.000003   0.000001
              19         20         21         22         23         24
     1  C   -0.053415   0.004176   0.454673  -0.026211  -0.092453   0.013344
     2  C    0.257473  -0.032249  -0.063527   0.003145   0.233294  -0.053611
     3  H    0.003886  -0.000126  -0.032068  -0.004647   0.004855  -0.000036
     4  H   -0.047904  -0.005309   0.006495  -0.000105  -0.021119  -0.003326
     5  C    0.006859  -0.000474  -0.000393   0.000044   0.018822   0.005581
     6  C   -0.108062  -0.000863   0.011093  -0.000153  -0.065318  -0.006813
     7  H   -0.000476   0.000002  -0.000044  -0.000001   0.002991  -0.003194
     8  H   -0.001879   0.000257   0.003382  -0.000018  -0.007710   0.000928
     9  C    0.018959   0.003021  -0.004339  -0.000063   0.008406   0.000074
    10  H   -0.000284   0.000280  -0.000069  -0.000003  -0.000220  -0.000018
    11  H    0.005483  -0.003196   0.000022  -0.000018   0.000074  -0.000006
    12  C   -0.000407  -0.000045   0.000116   0.000000  -0.004322   0.000015
    13  H    0.000044  -0.000001   0.000000   0.000000  -0.000062  -0.000018
    14  C    0.001793   0.000032  -0.000214  -0.000000   0.002115  -0.000277
    15  H   -0.000001   0.000003  -0.000001   0.000000  -0.000004   0.000003
    16  C   -0.011495  -0.001069   0.001391   0.000004  -0.001908   0.000026
    17  H   -0.001251   0.002018   0.000030  -0.000005   0.000839   0.000012
    18  H    0.000134  -0.000027  -0.000010  -0.000001   0.000025  -0.000003
    19  C    5.332642   0.432455   0.412922  -0.025935  -0.044655   0.011798
    20  H    0.432455   0.474995  -0.032927  -0.004099   0.003224  -0.000027
    21  C    0.412922  -0.032927   5.015112   0.417527   0.029773  -0.005524
    22  H   -0.025935  -0.004099   0.417527   0.491552   0.000540   0.000027
    23  C   -0.044655   0.003224   0.029773   0.000540   5.042744   0.455790
    24  H    0.011798  -0.000027  -0.005524   0.000027   0.455790   0.521521
    25  H   -0.002140   0.000165   0.001310  -0.000123   0.415016  -0.014871
    26  C   -0.001053  -0.001227  -0.046473   0.003485   0.322223  -0.056270
    27  H   -0.002333   0.000048   0.004890  -0.000109  -0.042096  -0.002527
    28  H    0.006417  -0.000010  -0.006360  -0.000340  -0.027406  -0.004242
              25         26         27         28
     1  C   -0.001090   0.270697  -0.033190  -0.040222
     2  C   -0.044791  -0.076620   0.012700  -0.013017
     3  H   -0.000138  -0.026978  -0.004157   0.000241
     4  H   -0.004742   0.008603  -0.000136  -0.000155
     5  C   -0.000278  -0.011484   0.000138  -0.001272
     6  C    0.006844   0.021294  -0.000310   0.002646
     7  H    0.000280  -0.001055  -0.000027   0.002018
     8  H   -0.000272   0.000906   0.000397  -0.003594
     9  C   -0.000218  -0.001912   0.000024   0.000841
    10  H    0.000013   0.000050  -0.000001   0.000007
    11  H   -0.000018   0.000026  -0.000003   0.000012
    12  C   -0.000072   0.001391  -0.000010   0.000030
    13  H   -0.000003   0.000004  -0.000001  -0.000005
    14  C   -0.000024  -0.000331   0.000001   0.000042
    15  H   -0.000001   0.000000   0.000000  -0.000000
    16  C    0.000049   0.000433  -0.000001  -0.000057
    17  H    0.000007  -0.000057   0.000001  -0.000003
    18  H   -0.000001  -0.000001  -0.000000   0.000001
    19  C   -0.002140  -0.001053  -0.002333   0.006417
    20  H    0.000165  -0.001227   0.000048  -0.000010
    21  C    0.001310  -0.046473   0.004890  -0.006360
    22  H   -0.000123   0.003485  -0.000109  -0.000340
    23  C    0.415016   0.322223  -0.042096  -0.027406
    24  H   -0.014871  -0.056270  -0.002527  -0.004242
    25  H    0.546465  -0.025711  -0.005938   0.004647
    26  C   -0.025711   4.983638   0.424104   0.405932
    27  H   -0.005938   0.424104   0.539880  -0.022145
    28  H    0.004647   0.405932  -0.022145   0.574444
          Atomic-Atomic Spin Densities.
               1          2          3          4          5          6
     1  C   -0.661401  -0.005565   0.000935  -0.000102   0.000299  -0.004937
     2  C   -0.005565   0.140409  -0.000142  -0.002088  -0.057616   0.000036
     3  H    0.000935  -0.000142   0.023537   0.000001   0.000004   0.000034
     4  H   -0.000102  -0.002088   0.000001  -0.011680   0.002696   0.008494
     5  C    0.000299  -0.057616   0.000004   0.002696   0.775104  -0.042976
     6  C   -0.004937   0.000036   0.000034   0.008494  -0.042976  -0.140272
     7  H    0.000005   0.000578   0.000000  -0.000003  -0.002802   0.000547
     8  H    0.001608  -0.008505   0.000006   0.000001   0.000628   0.002064
     9  C    0.000072  -0.011671   0.000000  -0.001226  -0.002206   0.011721
    10  H   -0.000032   0.000421  -0.000000   0.000009  -0.001381   0.000370
    11  H    0.000227   0.000981  -0.000000  -0.000042  -0.000022   0.001699
    12  C    0.000061   0.008887  -0.000000  -0.001516  -0.013531   0.012370
    13  H    0.000000   0.000167  -0.000000  -0.000023  -0.001686   0.000475
    14  C    0.000000   0.004939  -0.000000  -0.001616  -0.056223   0.005539
    15  H    0.000000  -0.000034  -0.000000  -0.000006  -0.000275   0.000142
    16  C    0.000015  -0.001248   0.000000   0.001106   0.005963  -0.003526
    17  H   -0.000008  -0.002855   0.000000   0.000512   0.004854  -0.004203
    18  H    0.000000   0.000235  -0.000000  -0.000041  -0.000400   0.001105
    19  C    0.056264   0.042740   0.000276  -0.000612  -0.000032   0.057569
    20  H    0.000267  -0.000547  -0.000005  -0.000294  -0.000067  -0.000572
    21  C   -0.007708  -0.012266  -0.000347   0.001202   0.000750  -0.008877
    22  H    0.000822  -0.000472  -0.000223   0.000023   0.000008  -0.000167
    23  C   -0.002463  -0.011719   0.000274  -0.004288   0.001467   0.011705
    24  H   -0.000111  -0.001718  -0.000003   0.000235   0.001919  -0.000991
    25  H    0.000412  -0.000366  -0.000000   0.000118  -0.000360  -0.000421
    26  C    0.031190   0.003522  -0.000886  -0.000098  -0.000181   0.001245
    27  H    0.007287  -0.001107  -0.000175   0.000046   0.000013  -0.000235
    28  H    0.020039   0.004198   0.000049  -0.000203   0.000008   0.002852
               7          8          9         10         11         12
     1  C    0.000005   0.001608   0.000072  -0.000032   0.000227   0.000061
     2  C    0.000578  -0.008505  -0.011671   0.000421   0.000981   0.008887
     3  H    0.000000   0.000006   0.000000  -0.000000  -0.000000  -0.000000
     4  H   -0.000003   0.000001  -0.001226   0.000009  -0.000042  -0.001516
     5  C   -0.002802   0.000628  -0.002206  -0.001381  -0.000022  -0.013531
     6  C    0.000547   0.002064   0.011721   0.000370   0.001699   0.012370
     7  H   -0.025332   0.000293  -0.000349  -0.000016   0.000006   0.001890
     8  H    0.000293   0.011694   0.004284  -0.000118  -0.000233  -0.001204
     9  C   -0.000349   0.004284   0.007365  -0.001260  -0.001203  -0.003254
    10  H   -0.000016  -0.000118  -0.001260  -0.000651   0.000634   0.000902
    11  H    0.000006  -0.000233  -0.001203   0.000634  -0.000828  -0.000047
    12  C    0.001890  -0.001204  -0.003254   0.000902  -0.000047  -0.241628
    13  H    0.000258  -0.000023  -0.000137   0.000016  -0.000001   0.001893
    14  C   -0.000268   0.000103   0.002468  -0.000410   0.000112   0.007665
    15  H    0.000005  -0.000001  -0.000274   0.000000   0.000003   0.000347
    16  C    0.000054   0.000099   0.007083   0.000339  -0.000010   0.003987
    17  H   -0.000022   0.000203  -0.001289   0.000166  -0.000397  -0.001094
    18  H    0.000002  -0.000046   0.002199  -0.000410   0.000219   0.000865
    19  C    0.000066  -0.002685  -0.001524   0.000358  -0.001875  -0.000733
    20  H    0.000000   0.000003   0.000222   0.000012  -0.000176   0.000026
    21  C   -0.000026   0.001521  -0.000182  -0.000044   0.000161  -0.000001
    22  H   -0.000000   0.000023  -0.000006  -0.000000   0.000011  -0.000000
    23  C   -0.000222   0.001224  -0.000004   0.000000  -0.000170   0.000186
    24  H    0.000175   0.000043   0.000171  -0.000002  -0.000000  -0.000164
    25  H   -0.000012  -0.000009  -0.000000  -0.000000   0.000002   0.000044
    26  C    0.000136  -0.001101  -0.000098   0.000012  -0.000031  -0.000171
    27  H    0.000006   0.000041   0.000010  -0.000000   0.000002   0.000007
    28  H   -0.000089  -0.000508  -0.000143   0.000007  -0.000033  -0.000114
              13         14         15         16         17         18
     1  C    0.000000   0.000000   0.000000   0.000015  -0.000008   0.000000
     2  C    0.000167   0.004939  -0.000034  -0.001248  -0.002855   0.000235
     3  H   -0.000000  -0.000000  -0.000000   0.000000   0.000000  -0.000000
     4  H   -0.000023  -0.001616  -0.000006   0.001106   0.000512  -0.000041
     5  C   -0.001686  -0.056223  -0.000275   0.005963   0.004854  -0.000400
     6  C    0.000475   0.005539   0.000142  -0.003526  -0.004203   0.001105
     7  H    0.000258  -0.000268   0.000005   0.000054  -0.000022   0.000002
     8  H   -0.000023   0.000103  -0.000001   0.000099   0.000203  -0.000046
     9  C   -0.000137   0.002468  -0.000274   0.007083  -0.001289   0.002199
    10  H    0.000016  -0.000410   0.000000   0.000339   0.000166  -0.000410
    11  H   -0.000001   0.000112   0.000003  -0.000010  -0.000397   0.000219
    12  C    0.001893   0.007665   0.000347   0.003987  -0.001094   0.000865
    13  H    0.008615  -0.000827   0.000223   0.000095  -0.000050   0.000020
    14  C   -0.000827   0.661399  -0.000935  -0.031144  -0.020045  -0.007292
    15  H    0.000223  -0.000935  -0.023537   0.000886  -0.000049   0.000175
    16  C    0.000095  -0.031144   0.000886  -0.035052   0.011006   0.004839
    17  H   -0.000050  -0.020045  -0.000049   0.011006   0.052751  -0.008238
    18  H    0.000020  -0.007292   0.000175   0.004839  -0.008238   0.020295
    19  C   -0.000008  -0.000305  -0.000004   0.000203  -0.000012  -0.000013
    20  H    0.000000  -0.000005  -0.000000  -0.000136   0.000088  -0.000005
    21  C    0.000000  -0.000060   0.000000   0.000170   0.000115  -0.000007
    22  H   -0.000000  -0.000000   0.000000   0.000002   0.000001  -0.000000
    23  C    0.000007  -0.000072  -0.000000   0.000101   0.000142  -0.000010
    24  H   -0.000011  -0.000230   0.000000   0.000032   0.000034  -0.000002
    25  H    0.000000   0.000032   0.000000  -0.000012  -0.000007   0.000000
    26  C   -0.000002  -0.000016  -0.000000   0.000000   0.000007  -0.000000
    27  H    0.000000  -0.000000   0.000000   0.000000   0.000000  -0.000000
    28  H   -0.000001   0.000008  -0.000000  -0.000007  -0.000000  -0.000000
              19         20         21         22         23         24
     1  C    0.056264   0.000267  -0.007708   0.000822  -0.002463  -0.000111
     2  C    0.042740  -0.000547  -0.012266  -0.000472  -0.011719  -0.001718
     3  H    0.000276  -0.000005  -0.000347  -0.000223   0.000274  -0.000003
     4  H   -0.000612  -0.000294   0.001202   0.000023  -0.004288   0.000235
     5  C   -0.000032  -0.000067   0.000750   0.000008   0.001467   0.001919
     6  C    0.057569  -0.000572  -0.008877  -0.000167   0.011705  -0.000991
     7  H    0.000066   0.000000  -0.000026  -0.000000  -0.000222   0.000175
     8  H   -0.002685   0.000003   0.001521   0.000023   0.001224   0.000043
     9  C   -0.001524   0.000222  -0.000182  -0.000006  -0.000004   0.000171
    10  H    0.000358   0.000012  -0.000044  -0.000000   0.000000  -0.000002
    11  H   -0.001875  -0.000176   0.000161   0.000011  -0.000170  -0.000000
    12  C   -0.000733   0.000026  -0.000001  -0.000000   0.000186  -0.000164
    13  H   -0.000008   0.000000   0.000000  -0.000000   0.000007  -0.000011
    14  C   -0.000305  -0.000005  -0.000060  -0.000000  -0.000072  -0.000230
    15  H   -0.000004  -0.000000   0.000000   0.000000  -0.000000   0.000000
    16  C    0.000203  -0.000136   0.000170   0.000002   0.000101   0.000032
    17  H   -0.000012   0.000088   0.000115   0.000001   0.000142   0.000034
    18  H   -0.000013  -0.000005  -0.000007  -0.000000  -0.000010  -0.000002
    19  C   -0.774674   0.002784   0.013329   0.001675   0.002257   0.000023
    20  H    0.002784   0.025341  -0.001875  -0.000257   0.000347  -0.000006
    21  C    0.013329  -0.001875   0.241762  -0.001883   0.003230   0.000047
    22  H    0.001675  -0.000257  -0.001883  -0.008612   0.000137   0.000001
    23  C    0.002257   0.000347   0.003230   0.000137  -0.007378   0.001206
    24  H    0.000023  -0.000006   0.000047   0.000001   0.001206   0.000829
    25  H    0.001378   0.000016  -0.000902  -0.000016   0.001258  -0.000636
    26  C   -0.005987  -0.000053  -0.003980  -0.000095  -0.007082   0.000008
    27  H    0.000399  -0.000002  -0.000863  -0.000020  -0.002191  -0.000219
    28  H   -0.004838   0.000022   0.001082   0.000050   0.001278   0.000396
              25         26         27         28
     1  C    0.000412   0.031190   0.007287   0.020039
     2  C   -0.000366   0.003522  -0.001107   0.004198
     3  H   -0.000000  -0.000886  -0.000175   0.000049
     4  H    0.000118  -0.000098   0.000046  -0.000203
     5  C   -0.000360  -0.000181   0.000013   0.000008
     6  C   -0.000421   0.001245  -0.000235   0.002852
     7  H   -0.000012   0.000136   0.000006  -0.000089
     8  H   -0.000009  -0.001101   0.000041  -0.000508
     9  C   -0.000000  -0.000098   0.000010  -0.000143
    10  H   -0.000000   0.000012  -0.000000   0.000007
    11  H    0.000002  -0.000031   0.000002  -0.000033
    12  C    0.000044  -0.000171   0.000007  -0.000114
    13  H    0.000000  -0.000002   0.000000  -0.000001
    14  C    0.000032  -0.000016  -0.000000   0.000008
    15  H    0.000000  -0.000000   0.000000  -0.000000
    16  C   -0.000012   0.000000   0.000000  -0.000007
    17  H   -0.000007   0.000007   0.000000  -0.000000
    18  H    0.000000  -0.000000  -0.000000  -0.000000
    19  C    0.001378  -0.005987   0.000399  -0.004838
    20  H    0.000016  -0.000053  -0.000002   0.000022
    21  C   -0.000902  -0.003980  -0.000863   0.001082
    22  H   -0.000016  -0.000095  -0.000020   0.000050
    23  C    0.001258  -0.007082  -0.002191   0.001278
    24  H   -0.000636   0.000008  -0.000219   0.000396
    25  H    0.000651  -0.000339   0.000409  -0.000165
    26  C   -0.000339   0.035020  -0.004842  -0.011021
    27  H    0.000409  -0.004842  -0.020281   0.008228
    28  H   -0.000165  -0.011021   0.008228  -0.052694
 Mulliken charges and spin densities:
               1          2
     1  C   -0.196700  -0.562824
     2  C   -0.139515   0.089195
     3  H    0.147393   0.023334
     4  H    0.146230  -0.009396
     5  C   -0.190178   0.613955
     6  C   -0.139749  -0.089209
     7  H    0.161119  -0.025122
     8  H    0.146131   0.009403
     9  C   -0.233241   0.010769
    10  H    0.125356  -0.001076
    11  H    0.141812  -0.001012
    12  C   -0.165909  -0.224329
    13  H    0.145504   0.009000
    14  C   -0.197727   0.562816
    15  H    0.147382  -0.023334
    16  C   -0.192803  -0.035155
    17  H    0.121481   0.031610
    18  H    0.130733   0.013492
    19  C   -0.189571  -0.613981
    20  H    0.160973   0.025126
    21  C   -0.166785   0.224348
    22  H    0.145506  -0.009000
    23  C   -0.233456  -0.010779
    24  H    0.141644   0.001026
    25  H    0.125635   0.001075
    26  C   -0.193614   0.035156
    27  H    0.130799  -0.013488
    28  H    0.121551  -0.031599
 Sum of Mulliken charges =  -0.00000  -0.00000
[...]
     4  H    0.000137  -0.000039   0.000043  -0.000196
     5  C   -0.000296  -0.000842  -0.000002   0.000340
     6  C   -0.000351   0.000532  -0.000109   0.001453
     7  H   -0.000010   0.000189   0.000006  -0.000113
     8  H   -0.000005  -0.001000   0.000023  -0.000192
     9  C   -0.000012  -0.000122   0.000012  -0.000171
    10  H    0.000000   0.000006  -0.000000   0.000006
    11  H    0.000002  -0.000010   0.000001  -0.000022
    12  C    0.000041  -0.000104   0.000004  -0.000081
    13  H    0.000000  -0.000002   0.000000  -0.000001
    14  C    0.000025   0.000001  -0.000000   0.000003
    15  H    0.000000  -0.000000   0.000000  -0.000000
    16  C   -0.000006  -0.000001  -0.000000   0.000002
    17  H   -0.000006  -0.000003   0.000000   0.000000
    18  H    0.000000   0.000000  -0.000000  -0.000000
    19  C    0.001191  -0.004454   0.000555  -0.005271
    20  H    0.000009  -0.000088  -0.000004   0.000031
    21  C   -0.000846  -0.004140  -0.000862   0.001276
    22  H   -0.000012  -0.000127  -0.000019   0.000048
    23  C    0.000450  -0.008442  -0.001387  -0.000357
    24  H   -0.000524  -0.000184  -0.000218   0.000418
    25  H    0.000733   0.000069   0.000364  -0.000163
    26  C    0.000069   0.037188  -0.005304  -0.009051
    27  H    0.000364  -0.005304  -0.019911   0.007923
    28  H   -0.000163  -0.009051   0.007923  -0.052177
 Mulliken charges and spin densities:
               1          2
     1  C   -0.194616  -0.560397
     2  C   -0.167654   0.089257
     3  H    0.150509   0.022935
     4  H    0.159560  -0.009542
     5  C   -0.198262   0.611882
     6  C   -0.166446  -0.089234
     7  H    0.167508  -0.024657
     8  H    0.158781   0.009548
     9  C   -0.252091   0.010230
    10  H    0.135078  -0.001025
    11  H    0.148705  -0.000668
    12  C   -0.162580  -0.222526
    13  H    0.148062   0.008850
    14  C   -0.193997   0.560347
    15  H    0.150543  -0.022931
    16  C   -0.197507  -0.034122
    17  H    0.126741   0.031743
    18  H    0.135532   0.013485
    19  C   -0.199926  -0.611860
    20  H    0.167640   0.024652
    21  C   -0.161688   0.222555
    22  H    0.148250  -0.008853
    23  C   -0.248903  -0.010212
    24  H    0.148581   0.000656
    25  H    0.134044   0.001028
    26  C   -0.198281   0.034115
    27  H    0.135808  -0.013494
    28  H    0.126610  -0.031761
 Sum of Mulliken charges =  -0.00000  -0.00000
 Mulliken charges and spin densities with hydrogens summed into heavy atoms:
               1          2
     1  C   -0.044107  -0.537463
     2  C   -0.008095   0.079715
     5  C   -0.030754   0.587225
     6  C   -0.007664  -0.079686
     9  C    0.031692   0.008537
    12  C   -0.014518  -0.213676
    14  C   -0.043455   0.537416
    16  C    0.064767   0.011107
    19  C   -0.032287  -0.587208
    21  C   -0.013438   0.213701
    23  C    0.033723  -0.008528
    26  C    0.064137  -0.011140
 Electronic spatial extent (au):  <R**2>=           2178.1973
 Charge=             -0.0000 electrons
 Dipole moment (field-independent basis, Debye):
    X=             -0.0016    Y=              0.0008    Z=             -0.0037  Tot=              0.0041
 Quadrupole moment (field-independent basis, Debye-Ang):
   XX=            -69.9756   YY=            -69.5160   ZZ=            -74.8676
   XY=             -2.6455   XZ=             -3.0065   YZ=             -0.3287
 Traceless Quadrupole moment (field-independent basis, Debye-Ang):
   XX=              1.4775   YY=              1.9371   ZZ=             -3.4145
   XY=             -2.6455   XZ=             -3.0065   YZ=             -0.3287
 Octapole moment (field-independent basis, Debye-Ang**2):
  XXX=             -0.0352  YYY=              0.0106  ZZZ=             -0.0168  XYY=              0.0013
  XXY=              0.0099  XXZ=             -0.0223  XZZ=             -0.0097  YZZ=             -0.0009
  YYZ=             -0.0039  XYZ=              0.0044
 Hexadecapole moment (field-independent basis, Debye-Ang**3):
 XXXX=          -1955.4802 YYYY=           -620.8001 ZZZZ=           -290.4918 XXXY=            -87.9711
 XXXZ=           -113.3176 YYYX=            -58.0252 YYYZ=              1.1254 ZZZX=            -60.9978
 ZZZY=             -6.8047 XXYY=           -428.2386 XXZZ=           -404.7197 YYZZ=           -166.5981
 XXYZ=            -20.3412 YYXZ=            -24.1369 ZZXY=            -40.3807
 N-N= 6.933893954951D+02 E-N=-2.469134406291D+03  KE= 4.640749389309D+02
                          Isotropic Fermi Contact Couplings
        Atom                 a.u.       MegaHertz       Gauss      10(-4) cm-1
     1  C(13)             -0.04331     -24.34368      -8.68643      -8.12018
     2  C(13)              0.06585      37.01162      13.20667      12.34575
     3  H(1)               0.00861      19.23503       6.86354       6.41612
     4  H(1)              -0.00492     -11.00480      -3.92679      -3.67081
     5  C(13)              0.04804      27.00040       9.63441       9.00636
     6  C(13)             -0.06585     -37.01394     -13.20749     -12.34652
     7  H(1)              -0.00941     -21.02190      -7.50114      -7.01215
     8  H(1)               0.00492      11.00671       3.92747       3.67144
     9  C(13)              0.00492       2.76614       0.98703       0.92269
    10  H(1)              -0.00077      -1.72478      -0.61545      -0.57533
    11  H(1)              -0.00038      -0.84963      -0.30317      -0.28341
    12  C(13)             -0.04273     -24.01907      -8.57060      -8.01190
    13  H(1)               0.00301       6.73656       2.40377       2.24707
    14  C(13)              0.04330      24.34137       8.68561       8.11941
    15  H(1)              -0.00861     -19.23301      -6.86282      -6.41544
    16  C(13)             -0.01796     -10.09629      -3.60261      -3.36776
    17  H(1)               0.01535      34.31744      12.24532      11.44707
    18  H(1)               0.00642      14.35755       5.12313       4.78916
    19  C(13)             -0.04803     -26.99549      -9.63266      -9.00473
    20  H(1)               0.00940      21.01835       7.49987       7.01097
    21  C(13)              0.04273      24.01922       8.57066       8.01195
    22  H(1)              -0.00301      -6.73766      -2.40417      -2.24744
    23  C(13)             -0.00492      -2.76487      -0.98658      -0.92226
    24  H(1)               0.00038       0.85012       0.30334       0.28357
    25  H(1)               0.00077       1.72585       0.61583       0.57568
    26  C(13)              0.01796      10.09657       3.60271       3.36785
    27  H(1)              -0.00643     -14.36480      -5.12572      -4.79158
    28  H(1)              -0.01536     -34.32961     -12.24966     -11.45113
 --------------------------------------------------------
       Center         ----  Spin Dipole Couplings  ----
                      3XX-RR        3YY-RR        3ZZ-RR
 --------------------------------------------------------
     1   Atom        0.127753      0.335945     -0.463698
     2   Atom       -0.010771     -0.044045      0.054816
     3   Atom       -0.032989      0.042591     -0.009603
     4   Atom       -0.001543     -0.006645      0.008187
     5   Atom       -0.233685     -0.359623      0.593308
     6   Atom        0.010769      0.044041     -0.054810
     7   Atom       -0.017699      0.016536      0.001163
     8   Atom        0.001542      0.006644     -0.008186
     9   Atom       -0.000815      0.007684     -0.006869
    10   Atom       -0.004162      0.003532      0.000630
    11   Atom       -0.005656      0.006795     -0.001139
    12   Atom        0.070815      0.101270     -0.172085
    13   Atom        0.007151     -0.002233     -0.004918
    14   Atom       -0.127716     -0.335911      0.463627
    15   Atom        0.032985     -0.042587      0.009602
    16   Atom       -0.005001      0.002567      0.002434
    17   Atom       -0.008051      0.008759     -0.000707
    18   Atom       -0.006131      0.010243     -0.004111
    19   Atom        0.233679      0.359579     -0.593258
    20   Atom        0.017695     -0.016532     -0.001163
    21   Atom       -0.070817     -0.101285      0.172102
    22   Atom       -0.007150      0.002232      0.004918
    23   Atom        0.000811     -0.007681      0.006870
    24   Atom        0.005656     -0.006795      0.001139
    25   Atom        0.004163     -0.003532     -0.000630
    26   Atom        0.005000     -0.002563     -0.002437
    27   Atom        0.006130     -0.010243      0.004113
    28   Atom        0.008052     -0.008759      0.000707
 --------------------------------------------------------
                        XY            XZ            YZ
 --------------------------------------------------------
     1   Atom        0.002499     -0.393494      0.008726
     2   Atom        0.011225      0.059937      0.027294
     3   Atom       -0.007994      0.017365      0.004767
     4   Atom       -0.004878      0.003479      0.008691
     5   Atom       -0.036582      0.353483     -0.065250
     6   Atom       -0.011220     -0.059927     -0.027288
     7   Atom       -0.043475      0.004851      0.014125
     8   Atom        0.004879     -0.003480     -0.008691
     9   Atom       -0.012825     -0.011990      0.003065
    10   Atom       -0.000951     -0.003556     -0.005330
    11   Atom        0.004601     -0.008015     -0.000074
    12   Atom       -0.009292     -0.129794      0.021078
    13   Atom       -0.007503     -0.007735      0.003175
    14   Atom       -0.002500      0.393469     -0.008726
    15   Atom        0.007993     -0.017364     -0.004767
    16   Atom        0.001969      0.006685     -0.000477
    17   Atom        0.004337      0.001767      0.005087
    18   Atom       -0.002433     -0.000765     -0.002539
    19   Atom        0.036564     -0.353402      0.065200
    20   Atom        0.043472     -0.004854     -0.014115
    21   Atom        0.009292      0.129813     -0.021082
    22   Atom        0.007506      0.007735     -0.003178
    23   Atom        0.012819      0.011991     -0.003061
    24   Atom       -0.004603      0.008016      0.000073
    25   Atom        0.000950      0.003557      0.005329
    26   Atom       -0.001968     -0.006691      0.000482
    27   Atom        0.002435      0.000765      0.002539
    28   Atom       -0.004338     -0.001767     -0.005088
 --------------------------------------------------------


 ---------------------------------------------------------------------------------
              Anisotropic Spin Dipole Couplings in Principal Axis System
 ---------------------------------------------------------------------------------

       Atom             a.u.   MegaHertz   Gauss  10(-4) cm-1        Axes

              Baa    -0.6603   -88.604   -31.616   -29.555  0.4467 -0.0090  0.8946
     1 C(13)  Bbb     0.3240    43.481    15.515    14.504  0.8867  0.1373 -0.4414
              Bcc     0.3363    45.122    16.101    15.051 -0.1189  0.9905  0.0693
 
              Baa    -0.0528    -7.085    -2.528    -2.363  0.3793  0.8243 -0.4203
     2 C(13)  Bbb    -0.0436    -5.854    -2.089    -1.953  0.7824 -0.5282 -0.3299
              Bcc     0.0964    12.939     4.617     4.316  0.4940  0.2037  0.8453
 
              Baa    -0.0432   -23.069    -8.232    -7.695  0.8771  0.1077 -0.4681
     3 H(1)   Bbb    -0.0004    -0.195    -0.070    -0.065  0.4718 -0.0100  0.8817
              Bcc     0.0436    23.264     8.301     7.760 -0.0902  0.9941  0.0596
 
              Baa    -0.0136    -7.230    -2.580    -2.412  0.4415  0.8066 -0.3931
     4 H(1)   Bbb     0.0013     0.669     0.239     0.223  0.8927 -0.4389  0.1022
              Bcc     0.0123     6.561     2.341     2.189  0.0901  0.3961  0.9138
 
              Baa    -0.3761   -50.470   -18.009   -16.835  0.6734  0.7123 -0.1976
     5 C(13)  Bbb    -0.3527   -47.331   -16.889   -15.788 -0.6532  0.6986  0.2922
              Bcc     0.7288    97.801    34.898    32.623  0.3462 -0.0677  0.9357
 
              Baa    -0.0964   -12.937    -4.616    -4.315  0.4940  0.2037  0.8453
     6 C(13)  Bbb     0.0436     5.853     2.088     1.952  0.7824 -0.5282 -0.3299
              Bcc     0.0528     7.084     2.528     2.363  0.3793  0.8243 -0.4203
 
              Baa    -0.0501   -26.752    -9.546    -8.923  0.7920  0.5653 -0.2305
     7 H(1)   Bbb     0.0022     1.189     0.424     0.397  0.2996 -0.0309  0.9536
              Bcc     0.0479    25.563     9.121     8.527 -0.5319  0.8243  0.1939
 
              Baa    -0.0123    -6.561    -2.341    -2.188  0.0901  0.3961  0.9138
     8 H(1)   Bbb    -0.0013    -0.670    -0.239    -0.223  0.8927 -0.4389  0.1022
              Bcc     0.0136     7.231     2.580     2.412  0.4415  0.8065 -0.3931
 
              Baa    -0.0177    -2.376    -0.848    -0.793  0.6831  0.2628  0.6814
     9 C(13)  Bbb    -0.0028    -0.376    -0.134    -0.125  0.3869  0.6610 -0.6429
              Bcc     0.0205     2.753     0.982     0.918 -0.6194  0.7028  0.3499
 
              Baa    -0.0073    -3.894    -1.389    -1.299  0.7479  0.3448  0.5673
    10 H(1)   Bbb    -0.0005    -0.260    -0.093    -0.087  0.6515 -0.5453 -0.5275
              Bcc     0.0078     4.154     1.482     1.386  0.1274  0.7641 -0.6324
 
              Baa    -0.0124    -6.629    -2.365    -2.211  0.8011 -0.1896  0.5677
    11 H(1)   Bbb     0.0032     1.682     0.600     0.561 -0.4050  0.5266  0.7474
              Bcc     0.0093     4.947     1.765     1.650  0.4407  0.8287 -0.3451
 
              Baa    -0.2291   -30.747   -10.971   -10.256  0.3955 -0.0474  0.9173
    12 C(13)  Bbb     0.0935    12.549     4.478     4.186  0.4293  0.8924 -0.1390
              Bcc     0.1356    18.198     6.494     6.070  0.8120 -0.4487 -0.3732
 
              Baa    -0.0088    -4.671    -1.667    -1.558  0.4848  0.1372  0.8638
    13 H(1)   Bbb    -0.0061    -3.232    -1.153    -1.078  0.3189  0.8919 -0.3206
              Bcc     0.0148     7.903     2.820     2.636  0.8144 -0.4309 -0.3886
 
              Baa    -0.3362   -45.118   -16.099   -15.050 -0.1188  0.9905  0.0692
    14 C(13)  Bbb    -0.3240   -43.477   -15.514   -14.502  0.8867  0.1372 -0.4415
              Bcc     0.6602    88.594    31.613    29.552  0.4468 -0.0090  0.8946
 
              Baa    -0.0436   -23.262    -8.300    -7.759 -0.0902  0.9941  0.0596
    15 H(1)   Bbb     0.0004     0.195     0.069     0.065  0.4718 -0.0100  0.8817
              Bcc     0.0432    23.068     8.231     7.695  0.8771  0.1077 -0.4681
 
              Baa    -0.0093    -1.241    -0.443    -0.414  0.8536 -0.1622 -0.4950
    16 C(13)  Bbb     0.0028     0.375     0.134     0.125  0.0578  0.9739 -0.2195
              Bcc     0.0065     0.867     0.309     0.289  0.5176  0.1588  0.8407
 
              Baa    -0.0091    -4.878    -1.741    -1.627  0.9738 -0.2148 -0.0745
    17 H(1)   Bbb    -0.0029    -1.559    -0.556    -0.520 -0.0166 -0.3941  0.9189
              Bcc     0.0121     6.437     2.297     2.147  0.2267  0.8936  0.3873
 
              Baa    -0.0070    -3.725    -1.329    -1.242  0.8959  0.1860  0.4034
    18 H(1)   Bbb    -0.0040    -2.134    -0.761    -0.712 -0.4242  0.0882  0.9013
              Bcc     0.0110     5.859     2.091     1.954 -0.1321  0.9786 -0.1579
 
              Baa    -0.7287   -97.787   -34.893   -32.618  0.3462 -0.0677  0.9357
    19 C(13)  Bbb     0.3527    47.324    16.886    15.785 -0.6532  0.6985  0.2922
              Bcc     0.3761    50.463    18.007    16.833  0.6734  0.7124 -0.1976
 
              Baa    -0.0479   -25.558    -9.120    -8.525 -0.5320  0.8243  0.1937
    20 H(1)   Bbb    -0.0022    -1.191    -0.425    -0.397  0.2995 -0.0308  0.9536
              Bcc     0.0501    26.749     9.545     8.923  0.7920  0.5653 -0.2305
 
              Baa    -0.1356   -18.200    -6.494    -6.071  0.8119 -0.4488 -0.3733
    21 C(13)  Bbb    -0.0935   -12.551    -4.478    -4.187  0.4294  0.8924 -0.1390
              Bcc     0.2292    30.751    10.973    10.257  0.3955 -0.0474  0.9173
 
              Baa    -0.0148    -7.904    -2.820    -2.637  0.8143 -0.4310 -0.3886
    22 H(1)   Bbb     0.0061     3.233     1.154     1.078  0.3190  0.8918 -0.3206
              Bcc     0.0088     4.671     1.667     1.558  0.4848  0.1371  0.8638
 
              Baa    -0.0205    -2.752    -0.982    -0.918 -0.6194  0.7027  0.3499
    23 C(13)  Bbb     0.0028     0.376     0.134     0.125  0.3870  0.6612 -0.6427
              Bcc     0.0177     2.376     0.848     0.793  0.6830  0.2627  0.6815
 
              Baa    -0.0093    -4.948    -1.766    -1.650  0.4407  0.8286 -0.3451
    24 H(1)   Bbb    -0.0032    -1.682    -0.600    -0.561 -0.4050  0.5267  0.7474
              Bcc     0.0124     6.630     2.366     2.211  0.8011 -0.1897  0.5677
 
              Baa    -0.0078    -4.154    -1.482    -1.386  0.1276  0.7640 -0.6325
    25 H(1)   Bbb     0.0005     0.260     0.093     0.087  0.6514 -0.5454 -0.5274
              Bcc     0.0073     3.894     1.389     1.299  0.7479  0.3447  0.5673
 
              Baa    -0.0065    -0.868    -0.310    -0.289  0.5177  0.1572  0.8410
    26 C(13)  Bbb    -0.0028    -0.374    -0.134    -0.125  0.0587  0.9741 -0.2182
              Bcc     0.0093     1.242     0.443     0.414  0.8535 -0.1623 -0.4951
 
              Baa    -0.0110    -5.859    -2.091    -1.955 -0.1322  0.9786 -0.1579
    27 H(1)   Bbb     0.0040     2.135     0.762     0.712 -0.4245  0.0881  0.9011
              Bcc     0.0070     3.725     1.329     1.242  0.8957  0.1862  0.4038
 
              Baa    -0.0121    -6.438    -2.297    -2.147  0.2267  0.8936  0.3874
    28 H(1)   Bbb     0.0029     1.559     0.556     0.520 -0.0168 -0.3941  0.9189
              Bcc     0.0091     4.879     1.741     1.627  0.9738 -0.2148 -0.0743
 

 ---------------------------------------------------------------------------------

 No NMR shielding tensors so no spin-rotation constants.
 Leave Link  601 at Tue Aug  4 18:11:43 2020, MaxMem=  6442450944 cpu:               8.3 elap:               0.4
 (Enter /scratch/scicomp/CentOS/7.3.1611/Haswell/software/Gaussian/g16/l9999.exe)
 1\1\GINC-ATLAS-205\SP\UwB97XD\def2TZVP\C12H16\BOCHEN\04-Aug-2020\0\\#p
  uwb97xd guess=mix def2tzvp # scrf=(iefpcm,solvent=Cyclohexane,read) n
 osym 6d 10f\\endo-2 xp-pcm for eta=3\\0,1\C,0,-3.119691,-0.425826,0.24
 8428\C,0,-0.438059,-0.127566,-0.740444\H,0,-4.086791,-0.546863,0.72094
 8\H,0,0.329828,-0.109733,-1.515278\C,0,1.116208,1.432588,0.668787\C,0,
 0.438059,0.127566,0.740444\H,0,0.567375,2.333262,0.913532\H,0,-0.32982
 8,0.109733,1.515278\C,0,1.453963,-0.997822,0.978822\H,0,1.872621,-0.88
 7919,1.983401\H,0,0.950096,-1.965338,0.950002\C,0,2.395835,1.529761,0.
 125114\H,0,2.827943,2.513325,-0.022973\C,0,3.119691,0.425826,-0.248428
 \H,0,4.086791,0.546863,-0.720948\C,0,2.592903,-0.959744,-0.042391\H,0,
 2.246941,-1.360164,-1.00466\H,0,3.401404,-1.625003,0.272285\C,0,-1.116
 208,-1.432588,-0.668787\H,0,-0.567375,-2.333262,-0.913532\C,0,-2.39583
 5,-1.529761,-0.125114\H,0,-2.827943,-2.513325,0.022973\C,0,-1.453963,0
 .997822,-0.978822\H,0,-0.950096,1.965338,-0.950002\H,0,-1.872621,0.887
 919,-1.983401\C,0,-2.592903,0.959744,0.042391\H,0,-3.401404,1.625003,-
 0.272284\H,0,-2.246941,1.360164,1.00466\\Version=ES64L-G16RevB.01\HF=-
 466.7822935\S2=1.025736\S2-1=0.\S2A=0.515742\RMSD=4.295e-09\Dipole=-0.
 0006167,0.0003153,-0.0014708\Quadrupole=1.0984513,1.4401607,-2.538612,
 -1.9668516,-2.2352844,-0.244413\PG=CI [X(C12H16)]\\@


 HIGGLEDY-PIGGLEDY
 NIC'LAUS COPERNICUS
 LOOKED AT THE UNIVERSE,
 SPOKE TO THE THRONG;
 GIVE UP YOUR PTOLOMY,
 RISE UP AND FOLLOW ME,
 HELIOCENTRICALLY
 PTOLEMY'S WRONG.
   -- NANCY L. STARK
 Job cpu time:       0 days  1 hours 48 minutes 54.3 seconds.
 Elapsed time:       0 days  0 hours  4 minutes 35.4 seconds.
 File lengths (MBytes):  RWF=    640 Int=      0 D2E=      0 Chk=     24 Scr=      1
 Normal termination of Gaussian 16 at Tue Aug  4 18:11:43 2020.
