 Entering Gaussian System, Link 0=g16
 Input=meso-TS_43_2_xp-Vc.com
 Output=meso-TS_43_2_xp-Vc.log
 Initial command:
 /scratch/scicomp/CentOS/7.3.1611/Haswell/software/Gaussian/g16/l1.exe "/scratch/bochen/cyclohexadiene-dimerization/wb97xd-def2tzvp/xp-pcm/meso/Gau-87413.inp" -scrdir="/scratch/bochen/cyclohexadiene-dimerization/wb97xd-def2tzvp/xp-pcm/meso/"
 Entering Link 1 = /scratch/scicomp/CentOS/7.3.1611/Haswell/software/Gaussian/g16/l1.exe PID=     87414.
  
 Copyright (c) 1988-2017, Gaussian, Inc.  All Rights Reserved.
  
 This is part of the Gaussian(R) 16 program.  It is based on
 the Gaussian(R) 09 system (copyright 2009, Gaussian, Inc.),
 the Gaussian(R) 03 system (copyright 2003, Gaussian, Inc.),
 the Gaussian(R) 98 system (copyright 1998, Gaussian, Inc.),
 the Gaussian(R) 94 system (copyright 1995, Gaussian, Inc.),
 the Gaussian 92(TM) system (copyright 1992, Gaussian, Inc.),
 the Gaussian 90(TM) system (copyright 1990, Gaussian, Inc.),
 the Gaussian 88(TM) system (copyright 1988, Gaussian, Inc.),
 the Gaussian 86(TM) system (copyright 1986, Carnegie Mellon
 University), and the Gaussian 82(TM) system (copyright 1983,
 Carnegie Mellon University). Gaussian is a federally registered
 trademark of Gaussian, Inc.
  
 This software contains proprietary and confidential information,
 including trade secrets, belonging to Gaussian, Inc.
  
 This software is provided under written license and may be
 used, copied, transmitted, or stored only in accord with that
 written license.
  
 The following legend is applicable only to US Government
 contracts under FAR:
  
                    RESTRICTED RIGHTS LEGEND
  
 Use, reproduction and disclosure by the US Government is
 subject to restrictions as set forth in subparagraphs (a)
 and (c) of the Commercial Computer Software - Restricted
 Rights clause in FAR 52.227-19.
  
 Gaussian, Inc.
 340 Quinnipiac St., Bldg. 40, Wallingford CT 06492
  
  
 ---------------------------------------------------------------
 Warning -- This program may not be used in any manner that
 competes with the business of Gaussian, Inc. or will provide
 assistance to any competitor of Gaussian, Inc.  The licensee
 of this program is prohibited from giving any competitor of
 Gaussian, Inc. access to this program.  By using this program,
 the user acknowledges that Gaussian, Inc. is engaged in the
 business of creating and licensing software in the field of
 computational chemistry and represents and warrants to the
 licensee that it is not a competitor of Gaussian, Inc. and that
 it will not use this program in any manner prohibited above.
 ---------------------------------------------------------------
  

 Cite this work as:
 Gaussian 16, Revision B.01,
 M. J. Frisch, G. W. Trucks, H. B. Schlegel, G. E. Scuseria, 
 M. A. Robb, J. R. Cheeseman, G. Scalmani, V. Barone, 
 G. A. Petersson, H. Nakatsuji, X. Li, M. Caricato, A. V. Marenich, 
 J. Bloino, B. G. Janesko, R. Gomperts, B. Mennucci, H. P. Hratchian, 
 J. V. Ortiz, A. F. Izmaylov, J. L. Sonnenberg, D. Williams-Young, 
 F. Ding, F. Lipparini, F. Egidi, J. Goings, B. Peng, A. Petrone, 
 T. Henderson, D. Ranasinghe, V. G. Zakrzewski, J. Gao, N. Rega, 
 G. Zheng, W. Liang, M. Hada, M. Ehara, K. Toyota, R. Fukuda, 
 J. Hasegawa, M. Ishida, T. Nakajima, Y. Honda, O. Kitao, H. Nakai, 
 T. Vreven, K. Throssell, J. A. Montgomery, Jr., J. E. Peralta, 
 F. Ogliaro, M. J. Bearpark, J. J. Heyd, E. N. Brothers, K. N. Kudin, 
 V. N. Staroverov, T. A. Keith, R. Kobayashi, J. Normand, 
 K. Raghavachari, A. P. Rendell, J. C. Burant, S. S. Iyengar, 
 J. Tomasi, M. Cossi, J. M. Millam, M. Klene, C. Adamo, R. Cammi, 
 J. W. Ochterski, R. L. Martin, K. Morokuma, O. Farkas, 
 J. B. Foresman, and D. J. Fox, Gaussian, Inc., Wallingford CT, 2016.
 
 ******************************************
 Gaussian 16:  ES64L-G16RevB.01 20-Dec-2017
                 3-Aug-2020 
 ******************************************
 %chk=meso-TS_43_2_xp-12.chk
 %nproc=24
 Will use up to   24 processors via shared memory.
 %mem=48GB
 ----------------------------------------------------------------------
 #p uwb97xd guess=mix def2tzvp # scrf=(iefpcm,solvent=Cyclohexane,read)
  nosym guess=only pop=none
 ----------------------------------------------------------------------
 1/38=1,40=2,172=1/1;
 2/12=2,15=1,17=6,18=5,40=1/2;
 3/5=44,7=101,11=2,25=1,30=1,70=2203,72=17,74=-58,89=1,116=2/1,2;
 4/13=-1/1;
 99/5=2/99;
 Leave Link    1 at Mon Aug  3 17:24:05 2020, MaxMem=  6442450944 cpu:               1.6 elap:               0.1
 (Enter /scratch/scicomp/CentOS/7.3.1611/Haswell/software/Gaussian/g16/l101.exe)
 -----------------------
 endo-2 xp-pcm for eta=3
 -----------------------
 Symbolic Z-matrix:
 Charge =  0 Multiplicity = 1
 6                    -3.12738  -0.4412    0.25695 
 6                    -0.69651  -0.2427   -1.18434 
 1                    -4.07908  -0.53852   0.7665 
 1                     0.26436  -0.15591  -1.67548 
 6                     1.14464   1.42119   0.76251 
 6                     0.69651   0.2427    1.18434 
 1                     0.55123   2.31787   0.89388 
 1                    -0.26436   0.15591   1.67548 
 6                     1.53593  -0.99774   1.08164 
 1                     2.04315  -1.12432   2.04652 
 1                     0.89882  -1.8736    0.96055 
 6                     2.4466    1.52719   0.10551 
 1                     2.84835   2.51348  -0.09397 
 6                     3.12738   0.4412   -0.25695 
 1                     4.07908   0.53852  -0.7665 
 6                     2.58115  -0.94349  -0.03837 
 1                     2.15004  -1.29813  -0.98272 
 1                     3.39465  -1.63541   0.18847 
 6                    -1.14464  -1.42119  -0.76251 
 1                    -0.55123  -2.31787  -0.89388 
 6                    -2.4466   -1.52719  -0.10551 
 1                    -2.84835  -2.51348   0.09397 
 6                    -1.53593   0.99774  -1.08164 
 1                    -0.89882   1.8736   -0.96055 
 1                    -2.04315   1.12432  -2.04652 
 6                    -2.58115   0.94349   0.03837 
 1                    -3.39465   1.63541  -0.18847 
 1                    -2.15004   1.29813   0.98272 
 
 ITRead=  0  0  0  0  0  0  0  0  0  0  0  0  0  0  0  0  0  0  0  0
 ITRead=  0  0  0  0  0  0  0  0
 MicOpt= -1 -1 -1 -1 -1 -1 -1 -1 -1 -1 -1 -1 -1 -1 -1 -1 -1 -1 -1 -1
 MicOpt= -1 -1 -1 -1 -1 -1 -1 -1
 NAtoms=     28 NQM=       28 NQMF=       0 NMMI=      0 NMMIF=      0
                NMic=       0 NMicF=      0.
                    Isotopes and Nuclear Properties:
 (Nuclear quadrupole moments (NQMom) in fm**2, nuclear magnetic moments (NMagM)
  in nuclear magnetons)

  Atom         1           2           3           4           5           6           7           8           9          10
 IAtWgt=          12          12           1           1          12          12           1           1          12           1
 AtmWgt=  12.0000000  12.0000000   1.0078250   1.0078250  12.0000000  12.0000000   1.0078250   1.0078250  12.0000000   1.0078250
 NucSpn=           0           0           1           1           0           0           1           1           0           1
 AtZEff=  -0.0000000  -0.0000000  -0.0000000  -0.0000000  -0.0000000  -0.0000000  -0.0000000  -0.0000000  -0.0000000  -0.0000000
 NQMom=    0.0000000   0.0000000   0.0000000   0.0000000   0.0000000   0.0000000   0.0000000   0.0000000   0.0000000   0.0000000
 NMagM=    0.0000000   0.0000000   2.7928460   2.7928460   0.0000000   0.0000000   2.7928460   2.7928460   0.0000000   2.7928460
 AtZNuc=   6.0000000   6.0000000   1.0000000   1.0000000   6.0000000   6.0000000   1.0000000   1.0000000   6.0000000   1.0000000

  Atom        11          12          13          14          15          16          17          18          19          20
 IAtWgt=           1          12           1          12           1          12           1           1          12           1
 AtmWgt=   1.0078250  12.0000000   1.0078250  12.0000000   1.0078250  12.0000000   1.0078250   1.0078250  12.0000000   1.0078250
 NucSpn=           1           0           1           0           1           0           1           1           0           1
 AtZEff=  -0.0000000  -0.0000000  -0.0000000  -0.0000000  -0.0000000  -0.0000000  -0.0000000  -0.0000000  -0.0000000  -0.0000000
 NQMom=    0.0000000   0.0000000   0.0000000   0.0000000   0.0000000   0.0000000   0.0000000   0.0000000   0.0000000   0.0000000
 NMagM=    2.7928460   0.0000000   2.7928460   0.0000000   2.7928460   0.0000000   2.7928460   2.7928460   0.0000000   2.7928460
 AtZNuc=   1.0000000   6.0000000   1.0000000   6.0000000   1.0000000   6.0000000   1.0000000   1.0000000   6.0000000   1.0000000

  Atom        21          22          23          24          25          26          27          28
 IAtWgt=          12           1          12           1           1          12           1           1
 AtmWgt=  12.0000000   1.0078250  12.0000000   1.0078250   1.0078250  12.0000000   1.0078250   1.0078250
 NucSpn=           0           1           0           1           1           0           1           1
 AtZEff=  -0.0000000  -0.0000000  -0.0000000  -0.0000000  -0.0000000  -0.0000000  -0.0000000  -0.0000000
 NQMom=    0.0000000   0.0000000   0.0000000   0.0000000   0.0000000   0.0000000   0.0000000   0.0000000
 NMagM=    0.0000000   2.7928460   0.0000000   2.7928460   2.7928460   0.0000000   2.7928460   2.7928460
 AtZNuc=   6.0000000   1.0000000   6.0000000   1.0000000   1.0000000   6.0000000   1.0000000   1.0000000
 Leave Link  101 at Mon Aug  3 17:24:05 2020, MaxMem=  6442450944 cpu:               2.4 elap:               0.1
 (Enter /scratch/scicomp/CentOS/7.3.1611/Haswell/software/Gaussian/g16/l202.exe)
                          Input orientation:                          
 ---------------------------------------------------------------------
 Center     Atomic      Atomic             Coordinates (Angstroms)
 Number     Number       Type             X           Y           Z
 ---------------------------------------------------------------------
      1          6           0       -3.127383   -0.441200    0.256946
      2          6           0       -0.696508   -0.242696   -1.184341
      3          1           0       -4.079078   -0.538518    0.766502
      4          1           0        0.264362   -0.155913   -1.675481
      5          6           0        1.144636    1.421194    0.762509
      6          6           0        0.696508    0.242696    1.184341
      7          1           0        0.551234    2.317867    0.893879
      8          1           0       -0.264362    0.155913    1.675481
      9          6           0        1.535929   -0.997742    1.081645
     10          1           0        2.043151   -1.124317    2.046516
     11          1           0        0.898815   -1.873600    0.960552
     12          6           0        2.446597    1.527191    0.105512
     13          1           0        2.848349    2.513477   -0.093966
     14          6           0        3.127383    0.441200   -0.256946
     15          1           0        4.079078    0.538518   -0.766502
     16          6           0        2.581145   -0.943485   -0.038369
     17          1           0        2.150037   -1.298130   -0.982721
     18          1           0        3.394647   -1.635414    0.188466
     19          6           0       -1.144636   -1.421194   -0.762509
     20          1           0       -0.551234   -2.317867   -0.893879
     21          6           0       -2.446597   -1.527191   -0.105512
     22          1           0       -2.848349   -2.513477    0.093966
     23          6           0       -1.535929    0.997742   -1.081645
     24          1           0       -0.898815    1.873600   -0.960552
     25          1           0       -2.043151    1.124317   -2.046516
     26          6           0       -2.581145    0.943485    0.038369
     27          1           0       -3.394647    1.635414   -0.188467
     28          1           0       -2.150037    1.298130    0.982721
 ---------------------------------------------------------------------
                    Distance matrix (angstroms):
                    1          2          3          4          5
     1  C    0.000000
     2  C    2.832996   0.000000
     3  H    1.083901   3.916003   0.000000
     4  H    3.914026   1.082599   4.997513   0.000000
     5  C    4.687670   3.154135   5.579218   3.034130   0.000000
     6  C    3.993735   2.790475   4.857068   2.919627   1.329518
     7  H    4.642236   3.525953   5.441962   3.578197   1.083239
     8  H    3.250488   2.919627   3.982529   3.406718   2.102315
     9  C    4.768264   3.269337   5.642562   3.150762   2.471075
    10  H    5.513949   4.326826   6.281981   4.237353   2.989252
    11  H    4.330947   3.131369   5.157472   3.209618   3.309882
    12  C    5.913269   3.830839   6.876663   3.281299   1.462184
    13  H    6.675525   4.620760   7.618683   4.037799   2.197560
    14  C    6.337571   3.993735   7.344411   3.250488   2.435357
    15  H    7.344411   4.857068   8.370521   3.982529   3.424608
    16  C    5.738187   3.542226   6.720892   2.944128   2.880394
    17  H    5.488375   3.042599   6.514497   2.310919   3.383989
    18  H    6.630815   4.534513   7.575874   3.932163   3.838610
    19  C    2.435357   1.329518   3.424608   2.102315   3.955454
    20  H    3.388631   2.100430   4.285864   2.439292   4.427208
    21  C    1.331999   2.424172   2.098303   3.419723   4.726879
    22  H    2.097321   3.379487   2.422284   4.286959   5.645575
    23  C    2.528855   1.501286   3.499050   2.219146   3.281104
    24  H    3.436148   2.137690   4.349150   2.446023   2.710960
    25  H    2.988702   2.103691   3.850077   2.664821   4.259195
    26  C    1.504495   2.540453   2.229420   3.498981   3.825445
    27  H    2.140595   3.434970   2.471111   4.336866   4.642772
    28  H    2.123022   3.030355   2.672307   3.874223   3.304317
                    6          7          8          9         10
     6  C    0.000000
     7  H    2.100430   0.000000
     8  H    1.082599   2.439292   0.000000
     9  C    1.501286   3.463834   2.219146   0.000000
    10  H    2.103691   3.924668   2.664821   1.097393   0.000000
    11  H    2.137690   4.206382   2.446023   1.089819   1.746496
    12  C    2.424172   2.199794   3.419723   2.856123   3.310704
    13  H    3.379487   2.508154   4.286959   3.928507   4.296924
    14  C    2.832996   3.388631   3.914026   2.528855   2.988702
    15  H    3.916003   4.285864   4.997513   3.499050   3.850077
    16  C    2.540453   3.952979   3.498981   1.532923   2.160760
    17  H    3.030355   4.376441   3.874223   2.174619   3.036102
    18  H    3.434970   4.920471   4.336867   2.158524   2.353744
    19  C    3.154135   4.427208   3.034130   3.281104   4.259195
    20  H    3.525953   5.089356   3.578197   3.162542   4.098941
    21  C    3.830839   4.976971   3.281299   4.189292   4.995135
    22  H    4.620760   5.961452   4.037799   4.742874   5.446925
    23  C    3.269337   3.162542   3.150762   4.254185   5.205607
    24  H    3.131369   2.395606   3.209618   4.282891   5.165765
    25  H    4.326826   4.098941   4.237353   5.205607   6.205411
    26  C    3.542226   3.525992   2.944128   4.669806   5.449089
    27  H    4.534514   4.148155   3.932163   5.732127   6.494683
    28  H    3.042599   2.888706   2.310919   4.343634   4.958098
                   11         12         13         14         15
    11  H    0.000000
    12  C    3.833028   0.000000
    13  H    4.915194   1.083493   0.000000
    14  C    3.436148   1.331999   2.097321   0.000000
    15  H    4.349150   2.098303   2.422284   1.083901   0.000000
    16  C    2.166377   2.478517   3.467719   1.504495   2.229420
    17  H    2.381813   3.042144   3.975660   2.123022   2.672307
    18  H    2.623362   3.302688   4.194223   2.140595   2.471111
    19  C    2.710960   4.726879   5.645575   4.687670   5.579218
    20  H    2.395606   4.976971   5.961452   4.642236   5.441962
    21  C    3.528211   5.772099   6.660599   5.913269   6.876663
    22  H    3.898930   6.660599   7.599865   6.675525   7.618683
    23  C    4.282891   4.189292   4.742874   4.768264   5.642562
    24  H    4.578605   3.528211   3.898930   4.330947   5.157472
    25  H    5.165765   4.995135   5.446925   5.513949   6.281981
    26  C    4.571270   5.061957   5.653476   5.738187   6.720892
    27  H    5.662794   5.849638   6.305151   6.630815   7.575874
    28  H    4.399530   4.685190   5.255491   5.488375   6.514497
                   16         17         18         19         20
    16  C    0.000000
    17  H    1.097009   0.000000
    18  H    1.091790   1.741980   0.000000
    19  C    3.825445   3.304317   4.642772   0.000000
    20  H    3.525992   2.888706   4.148155   1.083239   0.000000
    21  C    5.061957   4.685190   5.849638   1.462184   2.199794
    22  H    5.653476   5.255491   6.305151   2.197560   2.508154
    23  C    4.669806   4.343634   5.732126   2.471075   3.463834
    24  H    4.571270   4.399530   5.662794   3.309882   4.206382
    25  H    5.449089   4.958098   6.494683   2.989252   3.924668
    26  C    5.496888   5.333999   6.510249   2.880394   3.952979
    27  H    6.510249   6.322977   7.545522   3.838610   4.920471
    28  H    5.333999   5.393901   6.322977   3.383989   4.376441
                   21         22         23         24         25
    21  C    0.000000
    22  H    1.083493   0.000000
    23  C    2.856123   3.928507   0.000000
    24  H    3.833028   4.915194   1.089819   0.000000
    25  H    3.310704   4.296924   1.097393   1.746496   0.000000
    26  C    2.478517   3.467719   1.532923   2.166377   2.160760
    27  H    3.302688   4.194223   2.158524   2.623361   2.353743
    28  H    3.042144   3.975660   2.174619   2.381813   3.036102
                   26         27         28
    26  C    0.000000
    27  H    1.091790   0.000000
    28  H    1.097009   1.741980   0.000000
 Symmetry turned off by external request.
 Stoichiometry    C12H16
 Framework group  CI[X(C12H16)]
 Deg. of freedom    39
 Full point group                 CI      NOp   2
 Rotational constants (GHZ):           1.7937670           0.6031513           0.5397262
 Leave Link  202 at Mon Aug  3 17:24:05 2020, MaxMem=  6442450944 cpu:               0.3 elap:               0.0
 (Enter /scratch/scicomp/CentOS/7.3.1611/Haswell/software/Gaussian/g16/l301.exe)
 Standard basis: def2TZVP (5D, 7F)
 Ernie: Thresh=  0.10000D-02 Tol=  0.10000D-05 Strict=F.
   468 basis functions,   740 primitive gaussians,   528 cartesian basis functions
    44 alpha electrons       44 beta electrons
       nuclear repulsion energy       679.2698202763 Hartrees.
 IExCor= 4639 DFT=T Ex+Corr=wB97XD ExCW=0 ScaHFX=  1.000000
 ScaDFX=  1.000000  1.000000  1.000000  1.000000 ScalE2=  1.000000  1.000000
 IRadAn=      5 IRanWt=     -1 IRanGd=            0 ICorTp=0 IEmpDi=121
 HFx  wShort=  0.000000 wLong=  0.200000 cFull=  0.222036 cShort=  0.000000 cLong=  0.777964
 DFx  wShort=  0.000000 wLong=  0.200000 cFull=  0.000000 cShort=  0.000000 cLong=  1.000000
 NAtoms=   28 NActive=   28 NUniq=   28 SFac= 1.00D+00 NAtFMM=   60 NAOKFM=F Big=F
 Integral buffers will be    131072 words long.
 Raffenetti 2 integral format.
 Two-electron integral symmetry is turned off.
 R6Disp:  Grimme-D2 Dispersion energy=       -0.0225391543 Hartrees.
 Nuclear repulsion after empirical dispersion term =      679.2472811219 Hartrees.
 Using the following non-standard input for PCM:
 qrep pcmdoc geomview  nodis nocav g03defaults tsare=0.075
 Warning! Using old PCM defaults because the g03defaults keyword was found.
 These settings can be overridden by following keywords.
 nsfe=28
 NVESolv=36  SolvMW=84.1595   Rsolv=2.815
 eps=2.0165 RhoS=0.7781
 --- end of non-standard input.
 Reading user-defined spheres from input:
 ISph  on   Nord    Re0     Alpha      Xe            Ye            Ze
 --- end of user-defined spheres data.
 ------------------------------------------------------------------------------
 Polarizable Continuum Model (PCM)
 =================================
 Model                : PCM.
 Atomic radii         : UA0 (Simple United Atom Topological Model).
 Polarization charges : Total charges.
 Charge compensation  : None.
 Solution method      : On-the-fly selection.
 Cavity type          : SES (Solvent Excluding Surface) (Alpha=1.000).
 Cavity algorithm     : GePol (RMin=0.200 OFac=0.890).
                        User-defined sphere list used, NSphG=   28.
                        Tesserae with average area of 0.075 Ang**2.
                        Smoothing algorithm: None.
                        Polarization charges: point-like.
                        Self-potential: constant (ISelfS= 1).
                        Self-field    : global E.n sum rule (ISelfD= 3).
 Solvent              : CycloHexane, Eps=   2.016500 Eps(inf)=   2.035188
                        RSolv=   2.815000 Ang.
 ------------------------------------------------------------------------------
 GePol: Number of generator spheres                  =      28
 GePol: Total number of spheres                      =     188
 GePol: Number of exposed spheres                    =     135 ( 71.81%)
 GePol: Number of tesserae                           =    4699
 GePol: Average area of tesserae                     =       0.05 Ang**2
 GePol: Minimum area of tessera                      =   0.10D-02 Ang**2
 GePol: Maximum area of tessera                      =    0.12395 Ang**2
 GePol: Number of small tesserae                     =       0
 GePol: Fraction of small tesserae (<1% of avg)      =       0.00%
 GePol: Total count of vertices                      =   16672
 GePol: Maximum number of vertices in a tessera      =       8
 GePol: Cavity surface area                          =    221.166 Ang**2
 GePol: Cavity volume                                =    251.062 Ang**3
 Leave Link  301 at Mon Aug  3 17:24:06 2020, MaxMem=  6442450944 cpu:               8.2 elap:               0.4
 (Enter /scratch/scicomp/CentOS/7.3.1611/Haswell/software/Gaussian/g16/l302.exe)
 NPDir=0 NMtPBC=     1 NCelOv=     1 NCel=       1 NClECP=     1 NCelD=      1
         NCelK=      1 NCelE2=     1 NClLst=     1 CellRange=     0.0.
 One-electron integrals computed using PRISM.
   1 Symmetry operations used in ECPInt.
 ECPInt:  NShTT=   19306 NPrTT=   56928 LenC2=   18486 LenP2D=   41994.
 LDataN:  DoStor=T MaxTD1= 6 Len=  172
 NBasis=   468 RedAO= T EigKep=  2.35D-05  NBF=   468
 NBsUse=   468 1.00D-06 EigRej= -1.00D+00 NBFU=   468
 Precomputing XC quadrature grid using
 IXCGrd= 4 IRadAn=           5 IRanWt=          -1 IRanGd=           0 AccXCQ= 0.00D+00.
 Generated NRdTot=       0 NPtTot=           0 NUsed=           0 NTot=          32
 NSgBfM=   526   526   526   526   526 MxSgAt=    28 MxSgA2=    28.
 Leave Link  302 at Mon Aug  3 17:24:06 2020, MaxMem=  6442450944 cpu:              11.7 elap:               0.5
 (Enter /scratch/scicomp/CentOS/7.3.1611/Haswell/software/Gaussian/g16/l401.exe)
 ExpMin= 9.52D-02 ExpMax= 1.36D+04 ExpMxC= 4.63D+02 IAcc=3 IRadAn=         5 AccDes= 0.00D+00
 Harris functional with IExCor= 4639 and IRadAn=       5 diagonalized for initial guess.
 HarFok:  IExCor= 4639 AccDes= 0.00D+00 IRadAn=         5 IDoV= 1 UseB2=F ITyADJ=14
 ICtDFT=  3500011 ScaDFX=  1.000000  1.000000  1.000000  1.000000
 FoFCou: FMM=F IPFlag=           0 FMFlag=      100000 FMFlg1=           0
         NFxFlg=           0 DoJE=T BraDBF=F KetDBF=T FulRan=T
         wScrn=  0.000000 ICntrl=       500 IOpCl=  0 I1Cent=   200000004 NGrid=           0
         NMat0=    1 NMatS0=      1 NMatT0=    0 NMatD0=    1 NMtDS0=    0 NMtDT0=    0
 Symmetry not used in FoFCou.
 Harris En= -444.631114791550    
 JPrj=0 DoOrth=F DoCkMO=T.
 Mixing orbitals, IMix= 1 IMixAn=  0 NRI=1 NE=   44 Coef=  7.07106781D-01  7.07106781D-01
 Mixing orbitals, IMix= 1 IMixAn=  0 NRI=1 NE=   44 Coef= -7.07106781D-01  7.07106781D-01
 Initial guess <Sx>= 0.0000 <Sy>= 0.0000 <Sz>= 0.0000 <S**2>= 1.0000 S= 0.6180
 Leave Link  401 at Mon Aug  3 17:24:08 2020, MaxMem=  6442450944 cpu:              47.5 elap:               2.0
 (Enter /scratch/scicomp/CentOS/7.3.1611/Haswell/software/Gaussian/g16/l9999.exe)

 This type of calculation cannot be archived.


 THERE'S A SUCKER BORN EVERY MINUTE

              -- PHINEAS TAYLOR (P.T.) BARNUM
 Job cpu time:       0 days  0 hours  1 minutes 12.7 seconds.
 Elapsed time:       0 days  0 hours  0 minutes  3.3 seconds.
 File lengths (MBytes):  RWF=    402 Int=      0 D2E=      0 Chk=      1 Scr=      1
 Normal termination of Gaussian 16 at Mon Aug  3 17:24:08 2020.
 Initial command:
 /scratch/scicomp/CentOS/7.3.1611/Haswell/software/Gaussian/g16/l1.exe "/scratch/bochen/cyclohexadiene-dimerization/wb97xd-def2tzvp/xp-pcm/meso/Gau-87413.inp" -scrdir="/scratch/bochen/cyclohexadiene-dimerization/wb97xd-def2tzvp/xp-pcm/meso/"
 Entering Link 1 = /scratch/scicomp/CentOS/7.3.1611/Haswell/software/Gaussian/g16/l1.exe PID=     87577.
  
 Copyright (c) 1988-2017, Gaussian, Inc.  All Rights Reserved.
  
 This is part of the Gaussian(R) 16 program.  It is based on
 the Gaussian(R) 09 system (copyright 2009, Gaussian, Inc.),
 the Gaussian(R) 03 system (copyright 2003, Gaussian, Inc.),
 the Gaussian(R) 98 system (copyright 1998, Gaussian, Inc.),
 the Gaussian(R) 94 system (copyright 1995, Gaussian, Inc.),
 the Gaussian 92(TM) system (copyright 1992, Gaussian, Inc.),
 the Gaussian 90(TM) system (copyright 1990, Gaussian, Inc.),
 the Gaussian 88(TM) system (copyright 1988, Gaussian, Inc.),
 the Gaussian 86(TM) system (copyright 1986, Carnegie Mellon
 University), and the Gaussian 82(TM) system (copyright 1983,
 Carnegie Mellon University). Gaussian is a federally registered
 trademark of Gaussian, Inc.
  
 This software contains proprietary and confidential information,
 including trade secrets, belonging to Gaussian, Inc.
  
 This software is provided under written license and may be
 used, copied, transmitted, or stored only in accord with that
 written license.
  
 The following legend is applicable only to US Government
 contracts under FAR:
  
                    RESTRICTED RIGHTS LEGEND
  
 Use, reproduction and disclosure by the US Government is
 subject to restrictions as set forth in subparagraphs (a)
 and (c) of the Commercial Computer Software - Restricted
 Rights clause in FAR 52.227-19.
  
 Gaussian, Inc.
 340 Quinnipiac St., Bldg. 40, Wallingford CT 06492
  
  
 ---------------------------------------------------------------
 Warning -- This program may not be used in any manner that
 competes with the business of Gaussian, Inc. or will provide
 assistance to any competitor of Gaussian, Inc.  The licensee
 of this program is prohibited from giving any competitor of
 Gaussian, Inc. access to this program.  By using this program,
 the user acknowledges that Gaussian, Inc. is engaged in the
 business of creating and licensing software in the field of
 computational chemistry and represents and warrants to the
 licensee that it is not a competitor of Gaussian, Inc. and that
 it will not use this program in any manner prohibited above.
 ---------------------------------------------------------------
  

 Cite this work as:
 Gaussian 16, Revision B.01,
 M. J. Frisch, G. W. Trucks, H. B. Schlegel, G. E. Scuseria, 
 M. A. Robb, J. R. Cheeseman, G. Scalmani, V. Barone, 
 G. A. Petersson, H. Nakatsuji, X. Li, M. Caricato, A. V. Marenich, 
 J. Bloino, B. G. Janesko, R. Gomperts, B. Mennucci, H. P. Hratchian, 
 J. V. Ortiz, A. F. Izmaylov, J. L. Sonnenberg, D. Williams-Young, 
 F. Ding, F. Lipparini, F. Egidi, J. Goings, B. Peng, A. Petrone, 
 T. Henderson, D. Ranasinghe, V. G. Zakrzewski, J. Gao, N. Rega, 
 G. Zheng, W. Liang, M. Hada, M. Ehara, K. Toyota, R. Fukuda, 
 J. Hasegawa, M. Ishida, T. Nakajima, Y. Honda, O. Kitao, H. Nakai, 
 T. Vreven, K. Throssell, J. A. Montgomery, Jr., J. E. Peralta, 
 F. Ogliaro, M. J. Bearpark, J. J. Heyd, E. N. Brothers, K. N. Kudin, 
 V. N. Staroverov, T. A. Keith, R. Kobayashi, J. Normand, 
 K. Raghavachari, A. P. Rendell, J. C. Burant, S. S. Iyengar, 
 J. Tomasi, M. Cossi, J. M. Millam, M. Klene, C. Adamo, R. Cammi, 
 J. W. Ochterski, R. L. Martin, K. Morokuma, O. Farkas, 
 J. B. Foresman, and D. J. Fox, Gaussian, Inc., Wallingford CT, 2016.
 
 ******************************************
 Gaussian 16:  ES64L-G16RevB.01 20-Dec-2017
                 3-Aug-2020 
 ******************************************
 %chk=meso-TS_43_2_xp-115.chk
 %nproc=24
 Will use up to   24 processors via shared memory.
 %mem=48GB
 ----------------------------------------------------------------------
 #p uwb97xd guess=mix def2tzvp # scrf=(iefpcm,solvent=Cyclohexane,read)
  nosym guess=only pop=none
 ----------------------------------------------------------------------
 1/38=1,40=2,172=1/1;
 2/12=2,15=1,17=6,18=5,40=1/2;
 3/5=44,7=101,11=2,25=1,30=1,70=2203,72=17,74=-58,89=1,116=2/1,2;
 4/13=-1/1;
 99/5=2/99;
 Leave Link    1 at Mon Aug  3 17:24:08 2020, MaxMem=  6442450944 cpu:               1.5 elap:               0.1
 (Enter /scratch/scicomp/CentOS/7.3.1611/Haswell/software/Gaussian/g16/l101.exe)
 -----------------------
 endo-2 xp-pcm for eta=3
 -----------------------
 Symbolic Z-matrix:
 Charge =  0 Multiplicity = 1
 6                    -3.12738  -0.4412    0.25695 
 6                    -0.69651  -0.2427   -1.18434 
 1                    -4.07908  -0.53852   0.7665 
 1                     0.26436  -0.15591  -1.67548 
 6                     1.14464   1.42119   0.76251 
 6                     0.69651   0.2427    1.18434 
 1                     0.55123   2.31787   0.89388 
 1                    -0.26436   0.15591   1.67548 
 6                     1.53593  -0.99774   1.08164 
 1                     2.04315  -1.12432   2.04652 
 1                     0.89882  -1.8736    0.96055 
 6                     2.4466    1.52719   0.10551 
 1                     2.84835   2.51348  -0.09397 
 6                     3.12738   0.4412   -0.25695 
 1                     4.07908   0.53852  -0.7665 
 6                     2.58115  -0.94349  -0.03837 
 1                     2.15004  -1.29813  -0.98272 
 1                     3.39465  -1.63541   0.18847 
 6                    -1.14464  -1.42119  -0.76251 
 1                    -0.55123  -2.31787  -0.89388 
 6                    -2.4466   -1.52719  -0.10551 
 1                    -2.84835  -2.51348   0.09397 
 6                    -1.53593   0.99774  -1.08164 
 1                    -0.89882   1.8736   -0.96055 
 1                    -2.04315   1.12432  -2.04652 
 6                    -2.58115   0.94349   0.03837 
 1                    -3.39465   1.63541  -0.18847 
 1                    -2.15004   1.29813   0.98272 
 
 ITRead=  0  0  0  0  0  0  0  0  0  0  0  0  0  0  0  0  0  0  0  0
 ITRead=  0  0  0  0  0  0  0  0
 MicOpt= -1 -1 -1 -1 -1 -1 -1 -1 -1 -1 -1 -1 -1 -1 -1 -1 -1 -1 -1 -1
 MicOpt= -1 -1 -1 -1 -1 -1 -1 -1
 NAtoms=     28 NQM=       28 NQMF=       0 NMMI=      0 NMMIF=      0
                NMic=       0 NMicF=      0.
                    Isotopes and Nuclear Properties:
 (Nuclear quadrupole moments (NQMom) in fm**2, nuclear magnetic moments (NMagM)
  in nuclear magnetons)

  Atom         1           2           3           4           5           6           7           8           9          10
 IAtWgt=          12          12           1           1          12          12           1           1          12           1
 AtmWgt=  12.0000000  12.0000000   1.0078250   1.0078250  12.0000000  12.0000000   1.0078250   1.0078250  12.0000000   1.0078250
 NucSpn=           0           0           1           1           0           0           1           1           0           1
 AtZEff=  -0.0000000  -0.0000000  -0.0000000  -0.0000000  -0.0000000  -0.0000000  -0.0000000  -0.0000000  -0.0000000  -0.0000000
 NQMom=    0.0000000   0.0000000   0.0000000   0.0000000   0.0000000   0.0000000   0.0000000   0.0000000   0.0000000   0.0000000
 NMagM=    0.0000000   0.0000000   2.7928460   2.7928460   0.0000000   0.0000000   2.7928460   2.7928460   0.0000000   2.7928460
 AtZNuc=   6.0000000   6.0000000   1.0000000   1.0000000   6.0000000   6.0000000   1.0000000   1.0000000   6.0000000   1.0000000

  Atom        11          12          13          14          15          16          17          18          19          20
 IAtWgt=           1          12           1          12           1          12           1           1          12           1
 AtmWgt=   1.0078250  12.0000000   1.0078250  12.0000000   1.0078250  12.0000000   1.0078250   1.0078250  12.0000000   1.0078250
 NucSpn=           1           0           1           0           1           0           1           1           0           1
 AtZEff=  -0.0000000  -0.0000000  -0.0000000  -0.0000000  -0.0000000  -0.0000000  -0.0000000  -0.0000000  -0.0000000  -0.0000000
 NQMom=    0.0000000   0.0000000   0.0000000   0.0000000   0.0000000   0.0000000   0.0000000   0.0000000   0.0000000   0.0000000
 NMagM=    2.7928460   0.0000000   2.7928460   0.0000000   2.7928460   0.0000000   2.7928460   2.7928460   0.0000000   2.7928460
 AtZNuc=   1.0000000   6.0000000   1.0000000   6.0000000   1.0000000   6.0000000   1.0000000   1.0000000   6.0000000   1.0000000

  Atom        21          22          23          24          25          26          27          28
 IAtWgt=          12           1          12           1           1          12           1           1
 AtmWgt=  12.0000000   1.0078250  12.0000000   1.0078250   1.0078250  12.0000000   1.0078250   1.0078250
 NucSpn=           0           1           0           1           1           0           1           1
 AtZEff=  -0.0000000  -0.0000000  -0.0000000  -0.0000000  -0.0000000  -0.0000000  -0.0000000  -0.0000000
 NQMom=    0.0000000   0.0000000   0.0000000   0.0000000   0.0000000   0.0000000   0.0000000   0.0000000
 NMagM=    0.0000000   2.7928460   0.0000000   2.7928460   2.7928460   0.0000000   2.7928460   2.7928460
 AtZNuc=   6.0000000   1.0000000   6.0000000   1.0000000   1.0000000   6.0000000   1.0000000   1.0000000
 Leave Link  101 at Mon Aug  3 17:24:09 2020, MaxMem=  6442450944 cpu:               2.4 elap:               0.1
 (Enter /scratch/scicomp/CentOS/7.3.1611/Haswell/software/Gaussian/g16/l202.exe)
                          Input orientation:                          
 ---------------------------------------------------------------------
 Center     Atomic      Atomic             Coordinates (Angstroms)
 Number     Number       Type             X           Y           Z
 ---------------------------------------------------------------------
      1          6           0       -3.127383   -0.441200    0.256946
      2          6           0       -0.696508   -0.242696   -1.184341
      3          1           0       -4.079078   -0.538518    0.766502
      4          1           0        0.264362   -0.155913   -1.675481
      5          6           0        1.144636    1.421194    0.762509
      6          6           0        0.696508    0.242696    1.184341
      7          1           0        0.551234    2.317867    0.893879
      8          1           0       -0.264362    0.155913    1.675481
      9          6           0        1.535929   -0.997742    1.081645
     10          1           0        2.043151   -1.124317    2.046516
     11          1           0        0.898815   -1.873600    0.960552
     12          6           0        2.446597    1.527191    0.105512
     13          1           0        2.848349    2.513477   -0.093966
     14          6           0        3.127383    0.441200   -0.256946
     15          1           0        4.079078    0.538518   -0.766502
     16          6           0        2.581145   -0.943485   -0.038369
     17          1           0        2.150037   -1.298130   -0.982721
     18          1           0        3.394647   -1.635414    0.188466
     19          6           0       -1.144636   -1.421194   -0.762509
     20          1           0       -0.551234   -2.317867   -0.893879
     21          6           0       -2.446597   -1.527191   -0.105512
     22          1           0       -2.848349   -2.513477    0.093966
     23          6           0       -1.535929    0.997742   -1.081645
     24          1           0       -0.898815    1.873600   -0.960552
     25          1           0       -2.043151    1.124317   -2.046516
     26          6           0       -2.581145    0.943485    0.038369
     27          1           0       -3.394647    1.635414   -0.188467
     28          1           0       -2.150037    1.298130    0.982721
 ---------------------------------------------------------------------
                    Distance matrix (angstroms):
                    1          2          3          4          5
     1  C    0.000000
     2  C    2.832996   0.000000
     3  H    1.083901   3.916003   0.000000
     4  H    3.914026   1.082599   4.997513   0.000000
     5  C    4.687670   3.154135   5.579218   3.034130   0.000000
     6  C    3.993735   2.790475   4.857068   2.919627   1.329518
     7  H    4.642236   3.525953   5.441962   3.578197   1.083239
     8  H    3.250488   2.919627   3.982529   3.406718   2.102315
     9  C    4.768264   3.269337   5.642562   3.150762   2.471075
    10  H    5.513949   4.326826   6.281981   4.237353   2.989252
    11  H    4.330947   3.131369   5.157472   3.209618   3.309882
    12  C    5.913269   3.830839   6.876663   3.281299   1.462184
    13  H    6.675525   4.620760   7.618683   4.037799   2.197560
    14  C    6.337571   3.993735   7.344411   3.250488   2.435357
    15  H    7.344411   4.857068   8.370521   3.982529   3.424608
    16  C    5.738187   3.542226   6.720892   2.944128   2.880394
    17  H    5.488375   3.042599   6.514497   2.310919   3.383989
    18  H    6.630815   4.534513   7.575874   3.932163   3.838610
    19  C    2.435357   1.329518   3.424608   2.102315   3.955454
    20  H    3.388631   2.100430   4.285864   2.439292   4.427208
    21  C    1.331999   2.424172   2.098303   3.419723   4.726879
    22  H    2.097321   3.379487   2.422284   4.286959   5.645575
    23  C    2.528855   1.501286   3.499050   2.219146   3.281104
    24  H    3.436148   2.137690   4.349150   2.446023   2.710960
    25  H    2.988702   2.103691   3.850077   2.664821   4.259195
    26  C    1.504495   2.540453   2.229420   3.498981   3.825445
    27  H    2.140595   3.434970   2.471111   4.336866   4.642772
    28  H    2.123022   3.030355   2.672307   3.874223   3.304317
                    6          7          8          9         10
     6  C    0.000000
     7  H    2.100430   0.000000
     8  H    1.082599   2.439292   0.000000
     9  C    1.501286   3.463834   2.219146   0.000000
    10  H    2.103691   3.924668   2.664821   1.097393   0.000000
    11  H    2.137690   4.206382   2.446023   1.089819   1.746496
    12  C    2.424172   2.199794   3.419723   2.856123   3.310704
    13  H    3.379487   2.508154   4.286959   3.928507   4.296924
    14  C    2.832996   3.388631   3.914026   2.528855   2.988702
    15  H    3.916003   4.285864   4.997513   3.499050   3.850077
    16  C    2.540453   3.952979   3.498981   1.532923   2.160760
    17  H    3.030355   4.376441   3.874223   2.174619   3.036102
    18  H    3.434970   4.920471   4.336867   2.158524   2.353744
    19  C    3.154135   4.427208   3.034130   3.281104   4.259195
    20  H    3.525953   5.089356   3.578197   3.162542   4.098941
    21  C    3.830839   4.976971   3.281299   4.189292   4.995135
    22  H    4.620760   5.961452   4.037799   4.742874   5.446925
    23  C    3.269337   3.162542   3.150762   4.254185   5.205607
    24  H    3.131369   2.395606   3.209618   4.282891   5.165765
    25  H    4.326826   4.098941   4.237353   5.205607   6.205411
    26  C    3.542226   3.525992   2.944128   4.669806   5.449089
    27  H    4.534514   4.148155   3.932163   5.732127   6.494683
    28  H    3.042599   2.888706   2.310919   4.343634   4.958098
                   11         12         13         14         15
    11  H    0.000000
    12  C    3.833028   0.000000
    13  H    4.915194   1.083493   0.000000
    14  C    3.436148   1.331999   2.097321   0.000000
    15  H    4.349150   2.098303   2.422284   1.083901   0.000000
    16  C    2.166377   2.478517   3.467719   1.504495   2.229420
    17  H    2.381813   3.042144   3.975660   2.123022   2.672307
    18  H    2.623362   3.302688   4.194223   2.140595   2.471111
    19  C    2.710960   4.726879   5.645575   4.687670   5.579218
    20  H    2.395606   4.976971   5.961452   4.642236   5.441962
    21  C    3.528211   5.772099   6.660599   5.913269   6.876663
    22  H    3.898930   6.660599   7.599865   6.675525   7.618683
    23  C    4.282891   4.189292   4.742874   4.768264   5.642562
    24  H    4.578605   3.528211   3.898930   4.330947   5.157472
    25  H    5.165765   4.995135   5.446925   5.513949   6.281981
    26  C    4.571270   5.061957   5.653476   5.738187   6.720892
    27  H    5.662794   5.849638   6.305151   6.630815   7.575874
    28  H    4.399530   4.685190   5.255491   5.488375   6.514497
                   16         17         18         19         20
    16  C    0.000000
    17  H    1.097009   0.000000
    18  H    1.091790   1.741980   0.000000
    19  C    3.825445   3.304317   4.642772   0.000000
    20  H    3.525992   2.888706   4.148155   1.083239   0.000000
    21  C    5.061957   4.685190   5.849638   1.462184   2.199794
    22  H    5.653476   5.255491   6.305151   2.197560   2.508154
    23  C    4.669806   4.343634   5.732126   2.471075   3.463834
    24  H    4.571270   4.399530   5.662794   3.309882   4.206382
    25  H    5.449089   4.958098   6.494683   2.989252   3.924668
    26  C    5.496888   5.333999   6.510249   2.880394   3.952979
    27  H    6.510249   6.322977   7.545522   3.838610   4.920471
    28  H    5.333999   5.393901   6.322977   3.383989   4.376441
                   21         22         23         24         25
    21  C    0.000000
    22  H    1.083493   0.000000
    23  C    2.856123   3.928507   0.000000
    24  H    3.833028   4.915194   1.089819   0.000000
    25  H    3.310704   4.296924   1.097393   1.746496   0.000000
    26  C    2.478517   3.467719   1.532923   2.166377   2.160760
    27  H    3.302688   4.194223   2.158524   2.623361   2.353743
    28  H    3.042144   3.975660   2.174619   2.381813   3.036102
                   26         27         28
    26  C    0.000000
    27  H    1.091790   0.000000
    28  H    1.097009   1.741980   0.000000
 Symmetry turned off by external request.
 Stoichiometry    C12H16
 Framework group  CI[X(C12H16)]
 Deg. of freedom    39
 Full point group                 CI      NOp   2
 Rotational constants (GHZ):           1.7937670           0.6031513           0.5397262
 Leave Link  202 at Mon Aug  3 17:24:09 2020, MaxMem=  6442450944 cpu:               0.3 elap:               0.0
 (Enter /scratch/scicomp/CentOS/7.3.1611/Haswell/software/Gaussian/g16/l301.exe)
 Standard basis: def2TZVP (5D, 7F)
 Ernie: Thresh=  0.10000D-02 Tol=  0.10000D-05 Strict=F.
   468 basis functions,   740 primitive gaussians,   528 cartesian basis functions
    44 alpha electrons       44 beta electrons
       nuclear repulsion energy       679.2698202763 Hartrees.
 IExCor= 4639 DFT=T Ex+Corr=wB97XD ExCW=0 ScaHFX=  1.000000
 ScaDFX=  1.000000  1.000000  1.000000  1.000000 ScalE2=  1.000000  1.000000
 IRadAn=      5 IRanWt=     -1 IRanGd=            0 ICorTp=0 IEmpDi=121
 HFx  wShort=  0.000000 wLong=  0.200000 cFull=  0.222036 cShort=  0.000000 cLong=  0.777964
 DFx  wShort=  0.000000 wLong=  0.200000 cFull=  0.000000 cShort=  0.000000 cLong=  1.000000
 NAtoms=   28 NActive=   28 NUniq=   28 SFac= 1.00D+00 NAtFMM=   60 NAOKFM=F Big=F
 Integral buffers will be    131072 words long.
 Raffenetti 2 integral format.
 Two-electron integral symmetry is turned off.
 R6Disp:  Grimme-D2 Dispersion energy=       -0.0225391543 Hartrees.
 Nuclear repulsion after empirical dispersion term =      679.2472811219 Hartrees.
 Using the following non-standard input for PCM:
 qrep pcmdoc geomview  nodis nocav g03defaults tsare=0.075
 Warning! Using old PCM defaults because the g03defaults keyword was found.
 These settings can be overridden by following keywords.
 nsfe=28
 NVESolv=36  SolvMW=84.1595   Rsolv=2.815
 eps=2.0165 RhoS=0.7781
 --- end of non-standard input.
 Reading user-defined spheres from input:
 ISph  on   Nord    Re0     Alpha      Xe            Ye            Ze
 --- end of user-defined spheres data.
 ------------------------------------------------------------------------------
 Polarizable Continuum Model (PCM)
 =================================
 Model                : PCM.
 Atomic radii         : UA0 (Simple United Atom Topological Model).
 Polarization charges : Total charges.
 Charge compensation  : None.
 Solution method      : On-the-fly selection.
 Cavity type          : SES (Solvent Excluding Surface) (Alpha=1.000).
 Cavity algorithm     : GePol (RMin=0.200 OFac=0.890).
                        User-defined sphere list used, NSphG=   28.
                        Tesserae with average area of 0.075 Ang**2.
                        Smoothing algorithm: None.
                        Polarization charges: point-like.
                        Self-potential: constant (ISelfS= 1).
                        Self-field    : global E.n sum rule (ISelfD= 3).
 Solvent              : CycloHexane, Eps=   2.016500 Eps(inf)=   2.035188
                        RSolv=   2.815000 Ang.
 ------------------------------------------------------------------------------
 GePol: Number of generator spheres                  =      28
 GePol: Total number of spheres                      =     205
 GePol: Number of exposed spheres                    =     140 ( 68.29%)
 GePol: Number of tesserae                           =    4767
 GePol: Average area of tesserae                     =       0.04 Ang**2
 GePol: Minimum area of tessera                      =   0.10D-02 Ang**2
 GePol: Maximum area of tessera                      =    0.10854 Ang**2
 GePol: Number of small tesserae                     =       0
 GePol: Fraction of small tesserae (<1% of avg)      =       0.00%
 GePol: Total count of vertices                      =   16867
 GePol: Maximum number of vertices in a tessera      =       7
 GePol: Cavity surface area                          =    214.165 Ang**2
 GePol: Cavity volume                                =    235.584 Ang**3
 Leave Link  301 at Mon Aug  3 17:24:09 2020, MaxMem=  6442450944 cpu:               7.9 elap:               0.4
 (Enter /scratch/scicomp/CentOS/7.3.1611/Haswell/software/Gaussian/g16/l302.exe)
 NPDir=0 NMtPBC=     1 NCelOv=     1 NCel=       1 NClECP=     1 NCelD=      1
         NCelK=      1 NCelE2=     1 NClLst=     1 CellRange=     0.0.
 One-electron integrals computed using PRISM.
   1 Symmetry operations used in ECPInt.
 ECPInt:  NShTT=   19306 NPrTT=   56928 LenC2=   18486 LenP2D=   41994.
 LDataN:  DoStor=T MaxTD1= 6 Len=  172
 NBasis=   468 RedAO= T EigKep=  2.35D-05  NBF=   468
 NBsUse=   468 1.00D-06 EigRej= -1.00D+00 NBFU=   468
 Precomputing XC quadrature grid using
 IXCGrd= 4 IRadAn=           5 IRanWt=          -1 IRanGd=           0 AccXCQ= 0.00D+00.
 Generated NRdTot=       0 NPtTot=           0 NUsed=           0 NTot=          32
 NSgBfM=   526   526   526   526   526 MxSgAt=    28 MxSgA2=    28.
 Leave Link  302 at Mon Aug  3 17:24:10 2020, MaxMem=  6442450944 cpu:              11.7 elap:               0.5
 (Enter /scratch/scicomp/CentOS/7.3.1611/Haswell/software/Gaussian/g16/l401.exe)
 ExpMin= 9.52D-02 ExpMax= 1.36D+04 ExpMxC= 4.63D+02 IAcc=3 IRadAn=         5 AccDes= 0.00D+00
 Harris functional with IExCor= 4639 and IRadAn=       5 diagonalized for initial guess.
 HarFok:  IExCor= 4639 AccDes= 0.00D+00 IRadAn=         5 IDoV= 1 UseB2=F ITyADJ=14
 ICtDFT=  3500011 ScaDFX=  1.000000  1.000000  1.000000  1.000000
 FoFCou: FMM=F IPFlag=           0 FMFlag=      100000 FMFlg1=           0
         NFxFlg=           0 DoJE=T BraDBF=F KetDBF=T FulRan=T
         wScrn=  0.000000 ICntrl=       500 IOpCl=  0 I1Cent=   200000004 NGrid=           0
         NMat0=    1 NMatS0=      1 NMatT0=    0 NMatD0=    1 NMtDS0=    0 NMtDT0=    0
 Symmetry not used in FoFCou.
 Harris En= -444.631114791550    
 JPrj=0 DoOrth=F DoCkMO=T.
 Mixing orbitals, IMix= 1 IMixAn=  0 NRI=1 NE=   44 Coef=  7.07106781D-01  7.07106781D-01
 Mixing orbitals, IMix= 1 IMixAn=  0 NRI=1 NE=   44 Coef= -7.07106781D-01  7.07106781D-01
 Initial guess <Sx>= 0.0000 <Sy>= 0.0000 <Sz>= 0.0000 <S**2>= 1.0000 S= 0.6180
 Leave Link  401 at Mon Aug  3 17:24:12 2020, MaxMem=  6442450944 cpu:              47.4 elap:               2.0
 (Enter /scratch/scicomp/CentOS/7.3.1611/Haswell/software/Gaussian/g16/l9999.exe)

 This type of calculation cannot be archived.


 TOM, TOM, THE BURGLAR'S SON
 STOLE A MACHINE AND AWAY HE RUN
 THE JOB WAS NEAT, BUT TOM GOT BEAT
 BY THE TIME HE GOT HOME IT WAS OBSOLETE.
 Job cpu time:       0 days  0 hours  1 minutes 12.1 seconds.
 Elapsed time:       0 days  0 hours  0 minutes  3.3 seconds.
 File lengths (MBytes):  RWF=    415 Int=      0 D2E=      0 Chk=      1 Scr=      1
 Normal termination of Gaussian 16 at Mon Aug  3 17:24:12 2020.
 Initial command:
 /scratch/scicomp/CentOS/7.3.1611/Haswell/software/Gaussian/g16/l1.exe "/scratch/bochen/cyclohexadiene-dimerization/wb97xd-def2tzvp/xp-pcm/meso/Gau-87413.inp" -scrdir="/scratch/bochen/cyclohexadiene-dimerization/wb97xd-def2tzvp/xp-pcm/meso/"
 Entering Link 1 = /scratch/scicomp/CentOS/7.3.1611/Haswell/software/Gaussian/g16/l1.exe PID=     87739.
  
 Copyright (c) 1988-2017, Gaussian, Inc.  All Rights Reserved.
  
 This is part of the Gaussian(R) 16 program.  It is based on
 the Gaussian(R) 09 system (copyright 2009, Gaussian, Inc.),
 the Gaussian(R) 03 system (copyright 2003, Gaussian, Inc.),
 the Gaussian(R) 98 system (copyright 1998, Gaussian, Inc.),
 the Gaussian(R) 94 system (copyright 1995, Gaussian, Inc.),
 the Gaussian 92(TM) system (copyright 1992, Gaussian, Inc.),
 the Gaussian 90(TM) system (copyright 1990, Gaussian, Inc.),
 the Gaussian 88(TM) system (copyright 1988, Gaussian, Inc.),
 the Gaussian 86(TM) system (copyright 1986, Carnegie Mellon
 University), and the Gaussian 82(TM) system (copyright 1983,
 Carnegie Mellon University). Gaussian is a federally registered
 trademark of Gaussian, Inc.
  
 This software contains proprietary and confidential information,
 including trade secrets, belonging to Gaussian, Inc.
  
 This software is provided under written license and may be
 used, copied, transmitted, or stored only in accord with that
 written license.
  
 The following legend is applicable only to US Government
 contracts under FAR:
  
                    RESTRICTED RIGHTS LEGEND
  
 Use, reproduction and disclosure by the US Government is
 subject to restrictions as set forth in subparagraphs (a)
 and (c) of the Commercial Computer Software - Restricted
 Rights clause in FAR 52.227-19.
  
 Gaussian, Inc.
 340 Quinnipiac St., Bldg. 40, Wallingford CT 06492
  
  
 ---------------------------------------------------------------
 Warning -- This program may not be used in any manner that
 competes with the business of Gaussian, Inc. or will provide
 assistance to any competitor of Gaussian, Inc.  The licensee
 of this program is prohibited from giving any competitor of
 Gaussian, Inc. access to this program.  By using this program,
 the user acknowledges that Gaussian, Inc. is engaged in the
 business of creating and licensing software in the field of
 computational chemistry and represents and warrants to the
 licensee that it is not a competitor of Gaussian, Inc. and that
 it will not use this program in any manner prohibited above.
 ---------------------------------------------------------------
  

 Cite this work as:
 Gaussian 16, Revision B.01,
 M. J. Frisch, G. W. Trucks, H. B. Schlegel, G. E. Scuseria, 
 M. A. Robb, J. R. Cheeseman, G. Scalmani, V. Barone, 
 G. A. Petersson, H. Nakatsuji, X. Li, M. Caricato, A. V. Marenich, 
 J. Bloino, B. G. Janesko, R. Gomperts, B. Mennucci, H. P. Hratchian, 
 J. V. Ortiz, A. F. Izmaylov, J. L. Sonnenberg, D. Williams-Young, 
 F. Ding, F. Lipparini, F. Egidi, J. Goings, B. Peng, A. Petrone, 
 T. Henderson, D. Ranasinghe, V. G. Zakrzewski, J. Gao, N. Rega, 
 G. Zheng, W. Liang, M. Hada, M. Ehara, K. Toyota, R. Fukuda, 
 J. Hasegawa, M. Ishida, T. Nakajima, Y. Honda, O. Kitao, H. Nakai, 
 T. Vreven, K. Throssell, J. A. Montgomery, Jr., J. E. Peralta, 
 F. Ogliaro, M. J. Bearpark, J. J. Heyd, E. N. Brothers, K. N. Kudin, 
 V. N. Staroverov, T. A. Keith, R. Kobayashi, J. Normand, 
 K. Raghavachari, A. P. Rendell, J. C. Burant, S. S. Iyengar, 
 J. Tomasi, M. Cossi, J. M. Millam, M. Klene, C. Adamo, R. Cammi, 
 J. W. Ochterski, R. L. Martin, K. Morokuma, O. Farkas, 
 J. B. Foresman, and D. J. Fox, Gaussian, Inc., Wallingford CT, 2016.
 
 ******************************************
 Gaussian 16:  ES64L-G16RevB.01 20-Dec-2017
                 3-Aug-2020 
 ******************************************
 %chk=meso-TS_43_2_xp-110.chk
 %nproc=24
 Will use up to   24 processors via shared memory.
 %mem=48GB
 ----------------------------------------------------------------------
 #p uwb97xd guess=mix def2tzvp # scrf=(iefpcm,solvent=Cyclohexane,read)
  nosym guess=only pop=none
 ----------------------------------------------------------------------
 1/38=1,40=2,172=1/1;
 2/12=2,15=1,17=6,18=5,40=1/2;
 3/5=44,7=101,11=2,25=1,30=1,70=2203,72=17,74=-58,89=1,116=2/1,2;
 4/13=-1/1;
 99/5=2/99;
 Leave Link    1 at Mon Aug  3 17:24:12 2020, MaxMem=  6442450944 cpu:               1.4 elap:               0.1
 (Enter /scratch/scicomp/CentOS/7.3.1611/Haswell/software/Gaussian/g16/l101.exe)
 -----------------------
 endo-2 xp-pcm for eta=3
 -----------------------
 Symbolic Z-matrix:
 Charge =  0 Multiplicity = 1
 6                    -3.12738  -0.4412    0.25695 
 6                    -0.69651  -0.2427   -1.18434 
 1                    -4.07908  -0.53852   0.7665 
 1                     0.26436  -0.15591  -1.67548 
 6                     1.14464   1.42119   0.76251 
 6                     0.69651   0.2427    1.18434 
 1                     0.55123   2.31787   0.89388 
 1                    -0.26436   0.15591   1.67548 
 6                     1.53593  -0.99774   1.08164 
 1                     2.04315  -1.12432   2.04652 
 1                     0.89882  -1.8736    0.96055 
 6                     2.4466    1.52719   0.10551 
 1                     2.84835   2.51348  -0.09397 
 6                     3.12738   0.4412   -0.25695 
 1                     4.07908   0.53852  -0.7665 
 6                     2.58115  -0.94349  -0.03837 
 1                     2.15004  -1.29813  -0.98272 
 1                     3.39465  -1.63541   0.18847 
 6                    -1.14464  -1.42119  -0.76251 
 1                    -0.55123  -2.31787  -0.89388 
 6                    -2.4466   -1.52719  -0.10551 
 1                    -2.84835  -2.51348   0.09397 
 6                    -1.53593   0.99774  -1.08164 
 1                    -0.89882   1.8736   -0.96055 
 1                    -2.04315   1.12432  -2.04652 
 6                    -2.58115   0.94349   0.03837 
 1                    -3.39465   1.63541  -0.18847 
 1                    -2.15004   1.29813   0.98272 
 
 ITRead=  0  0  0  0  0  0  0  0  0  0  0  0  0  0  0  0  0  0  0  0
 ITRead=  0  0  0  0  0  0  0  0
 MicOpt= -1 -1 -1 -1 -1 -1 -1 -1 -1 -1 -1 -1 -1 -1 -1 -1 -1 -1 -1 -1
 MicOpt= -1 -1 -1 -1 -1 -1 -1 -1
 NAtoms=     28 NQM=       28 NQMF=       0 NMMI=      0 NMMIF=      0
                NMic=       0 NMicF=      0.
                    Isotopes and Nuclear Properties:
 (Nuclear quadrupole moments (NQMom) in fm**2, nuclear magnetic moments (NMagM)
  in nuclear magnetons)

  Atom         1           2           3           4           5           6           7           8           9          10
 IAtWgt=          12          12           1           1          12          12           1           1          12           1
 AtmWgt=  12.0000000  12.0000000   1.0078250   1.0078250  12.0000000  12.0000000   1.0078250   1.0078250  12.0000000   1.0078250
 NucSpn=           0           0           1           1           0           0           1           1           0           1
 AtZEff=  -0.0000000  -0.0000000  -0.0000000  -0.0000000  -0.0000000  -0.0000000  -0.0000000  -0.0000000  -0.0000000  -0.0000000
 NQMom=    0.0000000   0.0000000   0.0000000   0.0000000   0.0000000   0.0000000   0.0000000   0.0000000   0.0000000   0.0000000
 NMagM=    0.0000000   0.0000000   2.7928460   2.7928460   0.0000000   0.0000000   2.7928460   2.7928460   0.0000000   2.7928460
 AtZNuc=   6.0000000   6.0000000   1.0000000   1.0000000   6.0000000   6.0000000   1.0000000   1.0000000   6.0000000   1.0000000

  Atom        11          12          13          14          15          16          17          18          19          20
 IAtWgt=           1          12           1          12           1          12           1           1          12           1
 AtmWgt=   1.0078250  12.0000000   1.0078250  12.0000000   1.0078250  12.0000000   1.0078250   1.0078250  12.0000000   1.0078250
 NucSpn=           1           0           1           0           1           0           1           1           0           1
 AtZEff=  -0.0000000  -0.0000000  -0.0000000  -0.0000000  -0.0000000  -0.0000000  -0.0000000  -0.0000000  -0.0000000  -0.0000000
 NQMom=    0.0000000   0.0000000   0.0000000   0.0000000   0.0000000   0.0000000   0.0000000   0.0000000   0.0000000   0.0000000
 NMagM=    2.7928460   0.0000000   2.7928460   0.0000000   2.7928460   0.0000000   2.7928460   2.7928460   0.0000000   2.7928460
 AtZNuc=   1.0000000   6.0000000   1.0000000   6.0000000   1.0000000   6.0000000   1.0000000   1.0000000   6.0000000   1.0000000

  Atom        21          22          23          24          25          26          27          28
 IAtWgt=          12           1          12           1           1          12           1           1
 AtmWgt=  12.0000000   1.0078250  12.0000000   1.0078250   1.0078250  12.0000000   1.0078250   1.0078250
 NucSpn=           0           1           0           1           1           0           1           1
 AtZEff=  -0.0000000  -0.0000000  -0.0000000  -0.0000000  -0.0000000  -0.0000000  -0.0000000  -0.0000000
 NQMom=    0.0000000   0.0000000   0.0000000   0.0000000   0.0000000   0.0000000   0.0000000   0.0000000
 NMagM=    0.0000000   2.7928460   0.0000000   2.7928460   2.7928460   0.0000000   2.7928460   2.7928460
 AtZNuc=   6.0000000   1.0000000   6.0000000   1.0000000   1.0000000   6.0000000   1.0000000   1.0000000
 Leave Link  101 at Mon Aug  3 17:24:12 2020, MaxMem=  6442450944 cpu:               2.4 elap:               0.1
 (Enter /scratch/scicomp/CentOS/7.3.1611/Haswell/software/Gaussian/g16/l202.exe)
                          Input orientation:                          
 ---------------------------------------------------------------------
 Center     Atomic      Atomic             Coordinates (Angstroms)
 Number     Number       Type             X           Y           Z
 ---------------------------------------------------------------------
      1          6           0       -3.127383   -0.441200    0.256946
      2          6           0       -0.696508   -0.242696   -1.184341
      3          1           0       -4.079078   -0.538518    0.766502
      4          1           0        0.264362   -0.155913   -1.675481
      5          6           0        1.144636    1.421194    0.762509
      6          6           0        0.696508    0.242696    1.184341
      7          1           0        0.551234    2.317867    0.893879
      8          1           0       -0.264362    0.155913    1.675481
      9          6           0        1.535929   -0.997742    1.081645
     10          1           0        2.043151   -1.124317    2.046516
     11          1           0        0.898815   -1.873600    0.960552
     12          6           0        2.446597    1.527191    0.105512
     13          1           0        2.848349    2.513477   -0.093966
     14          6           0        3.127383    0.441200   -0.256946
     15          1           0        4.079078    0.538518   -0.766502
     16          6           0        2.581145   -0.943485   -0.038369
     17          1           0        2.150037   -1.298130   -0.982721
     18          1           0        3.394647   -1.635414    0.188466
     19          6           0       -1.144636   -1.421194   -0.762509
     20          1           0       -0.551234   -2.317867   -0.893879
     21          6           0       -2.446597   -1.527191   -0.105512
     22          1           0       -2.848349   -2.513477    0.093966
     23          6           0       -1.535929    0.997742   -1.081645
     24          1           0       -0.898815    1.873600   -0.960552
     25          1           0       -2.043151    1.124317   -2.046516
     26          6           0       -2.581145    0.943485    0.038369
     27          1           0       -3.394647    1.635414   -0.188467
     28          1           0       -2.150037    1.298130    0.982721
 ---------------------------------------------------------------------
                    Distance matrix (angstroms):
                    1          2          3          4          5
     1  C    0.000000
     2  C    2.832996   0.000000
     3  H    1.083901   3.916003   0.000000
     4  H    3.914026   1.082599   4.997513   0.000000
     5  C    4.687670   3.154135   5.579218   3.034130   0.000000
     6  C    3.993735   2.790475   4.857068   2.919627   1.329518
     7  H    4.642236   3.525953   5.441962   3.578197   1.083239
     8  H    3.250488   2.919627   3.982529   3.406718   2.102315
     9  C    4.768264   3.269337   5.642562   3.150762   2.471075
    10  H    5.513949   4.326826   6.281981   4.237353   2.989252
    11  H    4.330947   3.131369   5.157472   3.209618   3.309882
    12  C    5.913269   3.830839   6.876663   3.281299   1.462184
    13  H    6.675525   4.620760   7.618683   4.037799   2.197560
    14  C    6.337571   3.993735   7.344411   3.250488   2.435357
    15  H    7.344411   4.857068   8.370521   3.982529   3.424608
    16  C    5.738187   3.542226   6.720892   2.944128   2.880394
    17  H    5.488375   3.042599   6.514497   2.310919   3.383989
    18  H    6.630815   4.534513   7.575874   3.932163   3.838610
    19  C    2.435357   1.329518   3.424608   2.102315   3.955454
    20  H    3.388631   2.100430   4.285864   2.439292   4.427208
    21  C    1.331999   2.424172   2.098303   3.419723   4.726879
    22  H    2.097321   3.379487   2.422284   4.286959   5.645575
    23  C    2.528855   1.501286   3.499050   2.219146   3.281104
    24  H    3.436148   2.137690   4.349150   2.446023   2.710960
    25  H    2.988702   2.103691   3.850077   2.664821   4.259195
    26  C    1.504495   2.540453   2.229420   3.498981   3.825445
    27  H    2.140595   3.434970   2.471111   4.336866   4.642772
    28  H    2.123022   3.030355   2.672307   3.874223   3.304317
                    6          7          8          9         10
     6  C    0.000000
     7  H    2.100430   0.000000
     8  H    1.082599   2.439292   0.000000
     9  C    1.501286   3.463834   2.219146   0.000000
    10  H    2.103691   3.924668   2.664821   1.097393   0.000000
    11  H    2.137690   4.206382   2.446023   1.089819   1.746496
    12  C    2.424172   2.199794   3.419723   2.856123   3.310704
    13  H    3.379487   2.508154   4.286959   3.928507   4.296924
    14  C    2.832996   3.388631   3.914026   2.528855   2.988702
    15  H    3.916003   4.285864   4.997513   3.499050   3.850077
    16  C    2.540453   3.952979   3.498981   1.532923   2.160760
    17  H    3.030355   4.376441   3.874223   2.174619   3.036102
    18  H    3.434970   4.920471   4.336867   2.158524   2.353744
    19  C    3.154135   4.427208   3.034130   3.281104   4.259195
    20  H    3.525953   5.089356   3.578197   3.162542   4.098941
    21  C    3.830839   4.976971   3.281299   4.189292   4.995135
    22  H    4.620760   5.961452   4.037799   4.742874   5.446925
    23  C    3.269337   3.162542   3.150762   4.254185   5.205607
    24  H    3.131369   2.395606   3.209618   4.282891   5.165765
    25  H    4.326826   4.098941   4.237353   5.205607   6.205411
    26  C    3.542226   3.525992   2.944128   4.669806   5.449089
    27  H    4.534514   4.148155   3.932163   5.732127   6.494683
    28  H    3.042599   2.888706   2.310919   4.343634   4.958098
                   11         12         13         14         15
    11  H    0.000000
    12  C    3.833028   0.000000
    13  H    4.915194   1.083493   0.000000
    14  C    3.436148   1.331999   2.097321   0.000000
    15  H    4.349150   2.098303   2.422284   1.083901   0.000000
    16  C    2.166377   2.478517   3.467719   1.504495   2.229420
    17  H    2.381813   3.042144   3.975660   2.123022   2.672307
    18  H    2.623362   3.302688   4.194223   2.140595   2.471111
    19  C    2.710960   4.726879   5.645575   4.687670   5.579218
    20  H    2.395606   4.976971   5.961452   4.642236   5.441962
    21  C    3.528211   5.772099   6.660599   5.913269   6.876663
    22  H    3.898930   6.660599   7.599865   6.675525   7.618683
    23  C    4.282891   4.189292   4.742874   4.768264   5.642562
    24  H    4.578605   3.528211   3.898930   4.330947   5.157472
    25  H    5.165765   4.995135   5.446925   5.513949   6.281981
    26  C    4.571270   5.061957   5.653476   5.738187   6.720892
    27  H    5.662794   5.849638   6.305151   6.630815   7.575874
    28  H    4.399530   4.685190   5.255491   5.488375   6.514497
                   16         17         18         19         20
    16  C    0.000000
    17  H    1.097009   0.000000
    18  H    1.091790   1.741980   0.000000
    19  C    3.825445   3.304317   4.642772   0.000000
    20  H    3.525992   2.888706   4.148155   1.083239   0.000000
    21  C    5.061957   4.685190   5.849638   1.462184   2.199794
    22  H    5.653476   5.255491   6.305151   2.197560   2.508154
    23  C    4.669806   4.343634   5.732126   2.471075   3.463834
    24  H    4.571270   4.399530   5.662794   3.309882   4.206382
    25  H    5.449089   4.958098   6.494683   2.989252   3.924668
    26  C    5.496888   5.333999   6.510249   2.880394   3.952979
    27  H    6.510249   6.322977   7.545522   3.838610   4.920471
    28  H    5.333999   5.393901   6.322977   3.383989   4.376441
                   21         22         23         24         25
    21  C    0.000000
    22  H    1.083493   0.000000
    23  C    2.856123   3.928507   0.000000
    24  H    3.833028   4.915194   1.089819   0.000000
    25  H    3.310704   4.296924   1.097393   1.746496   0.000000
    26  C    2.478517   3.467719   1.532923   2.166377   2.160760
    27  H    3.302688   4.194223   2.158524   2.623361   2.353743
    28  H    3.042144   3.975660   2.174619   2.381813   3.036102
                   26         27         28
    26  C    0.000000
    27  H    1.091790   0.000000
    28  H    1.097009   1.741980   0.000000
 Symmetry turned off by external request.
 Stoichiometry    C12H16
 Framework group  CI[X(C12H16)]
 Deg. of freedom    39
 Full point group                 CI      NOp   2
 Rotational constants (GHZ):           1.7937670           0.6031513           0.5397262
 Leave Link  202 at Mon Aug  3 17:24:12 2020, MaxMem=  6442450944 cpu:               0.3 elap:               0.0
 (Enter /scratch/scicomp/CentOS/7.3.1611/Haswell/software/Gaussian/g16/l301.exe)
 Standard basis: def2TZVP (5D, 7F)
 Ernie: Thresh=  0.10000D-02 Tol=  0.10000D-05 Strict=F.
   468 basis functions,   740 primitive gaussians,   528 cartesian basis functions
    44 alpha electrons       44 beta electrons
       nuclear repulsion energy       679.2698202763 Hartrees.
 IExCor= 4639 DFT=T Ex+Corr=wB97XD ExCW=0 ScaHFX=  1.000000
 ScaDFX=  1.000000  1.000000  1.000000  1.000000 ScalE2=  1.000000  1.000000
 IRadAn=      5 IRanWt=     -1 IRanGd=            0 ICorTp=0 IEmpDi=121
 HFx  wShort=  0.000000 wLong=  0.200000 cFull=  0.222036 cShort=  0.000000 cLong=  0.777964
 DFx  wShort=  0.000000 wLong=  0.200000 cFull=  0.000000 cShort=  0.000000 cLong=  1.000000
 NAtoms=   28 NActive=   28 NUniq=   28 SFac= 1.00D+00 NAtFMM=   60 NAOKFM=F Big=F
 Integral buffers will be    131072 words long.
 Raffenetti 2 integral format.
 Two-electron integral symmetry is turned off.
 R6Disp:  Grimme-D2 Dispersion energy=       -0.0225391543 Hartrees.
 Nuclear repulsion after empirical dispersion term =      679.2472811219 Hartrees.
 Using the following non-standard input for PCM:
 qrep pcmdoc geomview  nodis nocav g03defaults tsare=0.075
 Warning! Using old PCM defaults because the g03defaults keyword was found.
 These settings can be overridden by following keywords.
 nsfe=28
 NVESolv=36  SolvMW=84.1595   Rsolv=2.815
 eps=2.0165 RhoS=0.7781
 --- end of non-standard input.
 Reading user-defined spheres from input:
 ISph  on   Nord    Re0     Alpha      Xe            Ye            Ze
 --- end of user-defined spheres data.
 ------------------------------------------------------------------------------
 Polarizable Continuum Model (PCM)
 =================================
 Model                : PCM.
 Atomic radii         : UA0 (Simple United Atom Topological Model).
 Polarization charges : Total charges.
 Charge compensation  : None.
 Solution method      : On-the-fly selection.
 Cavity type          : SES (Solvent Excluding Surface) (Alpha=1.000).
 Cavity algorithm     : GePol (RMin=0.200 OFac=0.890).
                        User-defined sphere list used, NSphG=   28.
                        Tesserae with average area of 0.075 Ang**2.
                        Smoothing algorithm: None.
                        Polarization charges: point-like.
                        Self-potential: constant (ISelfS= 1).
                        Self-field    : global E.n sum rule (ISelfD= 3).
 Solvent              : CycloHexane, Eps=   2.016500 Eps(inf)=   2.035188
                        RSolv=   2.815000 Ang.
 ------------------------------------------------------------------------------
 GePol: Number of generator spheres                  =      28
 GePol: Total number of spheres                      =     275
 GePol: Number of exposed spheres                    =     197 ( 71.64%)
 GePol: Number of tesserae                           =    4706
 GePol: Average area of tesserae                     =       0.04 Ang**2
 GePol: Minimum area of tessera                      =   0.10D-02 Ang**2
 GePol: Maximum area of tessera                      =    0.11641 Ang**2
 GePol: Number of small tesserae                     =       0
 GePol: Fraction of small tesserae (<1% of avg)      =       0.00%
 GePol: Total count of vertices                      =   17021
 GePol: Maximum number of vertices in a tessera      =       8
 GePol: Cavity surface area                          =    206.966 Ang**2
 GePol: Cavity volume                                =    222.364 Ang**3
 Leave Link  301 at Mon Aug  3 17:24:13 2020, MaxMem=  6442450944 cpu:               9.5 elap:               0.4
 (Enter /scratch/scicomp/CentOS/7.3.1611/Haswell/software/Gaussian/g16/l302.exe)
 NPDir=0 NMtPBC=     1 NCelOv=     1 NCel=       1 NClECP=     1 NCelD=      1
         NCelK=      1 NCelE2=     1 NClLst=     1 CellRange=     0.0.
 One-electron integrals computed using PRISM.
   1 Symmetry operations used in ECPInt.
 ECPInt:  NShTT=   19306 NPrTT=   56928 LenC2=   18486 LenP2D=   41994.
 LDataN:  DoStor=T MaxTD1= 6 Len=  172
 NBasis=   468 RedAO= T EigKep=  2.35D-05  NBF=   468
 NBsUse=   468 1.00D-06 EigRej= -1.00D+00 NBFU=   468
 Precomputing XC quadrature grid using
 IXCGrd= 4 IRadAn=           5 IRanWt=          -1 IRanGd=           0 AccXCQ= 0.00D+00.
 Generated NRdTot=       0 NPtTot=           0 NUsed=           0 NTot=          32
 NSgBfM=   526   526   526   526   526 MxSgAt=    28 MxSgA2=    28.
 Leave Link  302 at Mon Aug  3 17:24:14 2020, MaxMem=  6442450944 cpu:              11.7 elap:               0.5
 (Enter /scratch/scicomp/CentOS/7.3.1611/Haswell/software/Gaussian/g16/l401.exe)
 ExpMin= 9.52D-02 ExpMax= 1.36D+04 ExpMxC= 4.63D+02 IAcc=3 IRadAn=         5 AccDes= 0.00D+00
 Harris functional with IExCor= 4639 and IRadAn=       5 diagonalized for initial guess.
 HarFok:  IExCor= 4639 AccDes= 0.00D+00 IRadAn=         5 IDoV= 1 UseB2=F ITyADJ=14
 ICtDFT=  3500011 ScaDFX=  1.000000  1.000000  1.000000  1.000000
 FoFCou: FMM=F IPFlag=           0 FMFlag=      100000 FMFlg1=           0
         NFxFlg=           0 DoJE=T BraDBF=F KetDBF=T FulRan=T
         wScrn=  0.000000 ICntrl=       500 IOpCl=  0 I1Cent=   200000004 NGrid=           0
         NMat0=    1 NMatS0=      1 NMatT0=    0 NMatD0=    1 NMtDS0=    0 NMtDT0=    0
 Symmetry not used in FoFCou.
 Harris En= -444.631114791550    
 JPrj=0 DoOrth=F DoCkMO=T.
 Mixing orbitals, IMix= 1 IMixAn=  0 NRI=1 NE=   44 Coef=  7.07106781D-01  7.07106781D-01
 Mixing orbitals, IMix= 1 IMixAn=  0 NRI=1 NE=   44 Coef= -7.07106781D-01  7.07106781D-01
 Initial guess <Sx>= 0.0000 <Sy>= 0.0000 <Sz>= 0.0000 <S**2>= 1.0000 S= 0.6180
 Leave Link  401 at Mon Aug  3 17:24:16 2020, MaxMem=  6442450944 cpu:              48.2 elap:               2.1
 (Enter /scratch/scicomp/CentOS/7.3.1611/Haswell/software/Gaussian/g16/l9999.exe)

 This type of calculation cannot be archived.


 THE FIRST AND LAST THING REQUIRED OF GENIUS IS THE LOVE OF TRUTH.

                          -- GOETHE
 Job cpu time:       0 days  0 hours  1 minutes 14.6 seconds.
 Elapsed time:       0 days  0 hours  0 minutes  3.4 seconds.
 File lengths (MBytes):  RWF=    406 Int=      0 D2E=      0 Chk=      1 Scr=      1
 Normal termination of Gaussian 16 at Mon Aug  3 17:24:16 2020.
 Initial command:
 /scratch/scicomp/CentOS/7.3.1611/Haswell/software/Gaussian/g16/l1.exe "/scratch/bochen/cyclohexadiene-dimerization/wb97xd-def2tzvp/xp-pcm/meso/Gau-87413.inp" -scrdir="/scratch/bochen/cyclohexadiene-dimerization/wb97xd-def2tzvp/xp-pcm/meso/"
 Entering Link 1 = /scratch/scicomp/CentOS/7.3.1611/Haswell/software/Gaussian/g16/l1.exe PID=     87901.
  
 Copyright (c) 1988-2017, Gaussian, Inc.  All Rights Reserved.
  
 This is part of the Gaussian(R) 16 program.  It is based on
 the Gaussian(R) 09 system (copyright 2009, Gaussian, Inc.),
 the Gaussian(R) 03 system (copyright 2003, Gaussian, Inc.),
 the Gaussian(R) 98 system (copyright 1998, Gaussian, Inc.),
 the Gaussian(R) 94 system (copyright 1995, Gaussian, Inc.),
 the Gaussian 92(TM) system (copyright 1992, Gaussian, Inc.),
 the Gaussian 90(TM) system (copyright 1990, Gaussian, Inc.),
 the Gaussian 88(TM) system (copyright 1988, Gaussian, Inc.),
 the Gaussian 86(TM) system (copyright 1986, Carnegie Mellon
 University), and the Gaussian 82(TM) system (copyright 1983,
 Carnegie Mellon University). Gaussian is a federally registered
 trademark of Gaussian, Inc.
  
 This software contains proprietary and confidential information,
 including trade secrets, belonging to Gaussian, Inc.
  
 This software is provided under written license and may be
 used, copied, transmitted, or stored only in accord with that
 written license.
  
 The following legend is applicable only to US Government
 contracts under FAR:
  
                    RESTRICTED RIGHTS LEGEND
  
 Use, reproduction and disclosure by the US Government is
 subject to restrictions as set forth in subparagraphs (a)
 and (c) of the Commercial Computer Software - Restricted
 Rights clause in FAR 52.227-19.
  
 Gaussian, Inc.
 340 Quinnipiac St., Bldg. 40, Wallingford CT 06492
  
  
 ---------------------------------------------------------------
 Warning -- This program may not be used in any manner that
 competes with the business of Gaussian, Inc. or will provide
 assistance to any competitor of Gaussian, Inc.  The licensee
 of this program is prohibited from giving any competitor of
 Gaussian, Inc. access to this program.  By using this program,
 the user acknowledges that Gaussian, Inc. is engaged in the
 business of creating and licensing software in the field of
 computational chemistry and represents and warrants to the
 licensee that it is not a competitor of Gaussian, Inc. and that
 it will not use this program in any manner prohibited above.
 ---------------------------------------------------------------
  

 Cite this work as:
 Gaussian 16, Revision B.01,
 M. J. Frisch, G. W. Trucks, H. B. Schlegel, G. E. Scuseria, 
 M. A. Robb, J. R. Cheeseman, G. Scalmani, V. Barone, 
 G. A. Petersson, H. Nakatsuji, X. Li, M. Caricato, A. V. Marenich, 
 J. Bloino, B. G. Janesko, R. Gomperts, B. Mennucci, H. P. Hratchian, 
 J. V. Ortiz, A. F. Izmaylov, J. L. Sonnenberg, D. Williams-Young, 
 F. Ding, F. Lipparini, F. Egidi, J. Goings, B. Peng, A. Petrone, 
 T. Henderson, D. Ranasinghe, V. G. Zakrzewski, J. Gao, N. Rega, 
 G. Zheng, W. Liang, M. Hada, M. Ehara, K. Toyota, R. Fukuda, 
 J. Hasegawa, M. Ishida, T. Nakajima, Y. Honda, O. Kitao, H. Nakai, 
 T. Vreven, K. Throssell, J. A. Montgomery, Jr., J. E. Peralta, 
 F. Ogliaro, M. J. Bearpark, J. J. Heyd, E. N. Brothers, K. N. Kudin, 
 V. N. Staroverov, T. A. Keith, R. Kobayashi, J. Normand, 
 K. Raghavachari, A. P. Rendell, J. C. Burant, S. S. Iyengar, 
 J. Tomasi, M. Cossi, J. M. Millam, M. Klene, C. Adamo, R. Cammi, 
 J. W. Ochterski, R. L. Martin, K. Morokuma, O. Farkas, 
 J. B. Foresman, and D. J. Fox, Gaussian, Inc., Wallingford CT, 2016.
 
 ******************************************
 Gaussian 16:  ES64L-G16RevB.01 20-Dec-2017
                 3-Aug-2020 
 ******************************************
 %chk=meso-TS_43_2_xp-105.chk
 %nproc=24
 Will use up to   24 processors via shared memory.
 %mem=48GB
 ----------------------------------------------------------------------
 #p uwb97xd guess=mix def2tzvp # scrf=(iefpcm,solvent=Cyclohexane,read)
  nosym guess=only pop=none
 ----------------------------------------------------------------------
 1/38=1,40=2,172=1/1;
 2/12=2,15=1,17=6,18=5,40=1/2;
 3/5=44,7=101,11=2,25=1,30=1,70=2203,72=17,74=-58,89=1,116=2/1,2;
 4/13=-1/1;
 99/5=2/99;
 Leave Link    1 at Mon Aug  3 17:24:16 2020, MaxMem=  6442450944 cpu:               1.6 elap:               0.1
 (Enter /scratch/scicomp/CentOS/7.3.1611/Haswell/software/Gaussian/g16/l101.exe)
 -----------------------
 endo-2 xp-pcm for eta=3
 -----------------------
 Symbolic Z-matrix:
 Charge =  0 Multiplicity = 1
 6                    -3.12738  -0.4412    0.25695 
 6                    -0.69651  -0.2427   -1.18434 
 1                    -4.07908  -0.53852   0.7665 
 1                     0.26436  -0.15591  -1.67548 
 6                     1.14464   1.42119   0.76251 
 6                     0.69651   0.2427    1.18434 
 1                     0.55123   2.31787   0.89388 
 1                    -0.26436   0.15591   1.67548 
 6                     1.53593  -0.99774   1.08164 
 1                     2.04315  -1.12432   2.04652 
 1                     0.89882  -1.8736    0.96055 
 6                     2.4466    1.52719   0.10551 
 1                     2.84835   2.51348  -0.09397 
 6                     3.12738   0.4412   -0.25695 
 1                     4.07908   0.53852  -0.7665 
 6                     2.58115  -0.94349  -0.03837 
 1                     2.15004  -1.29813  -0.98272 
 1                     3.39465  -1.63541   0.18847 
 6                    -1.14464  -1.42119  -0.76251 
 1                    -0.55123  -2.31787  -0.89388 
 6                    -2.4466   -1.52719  -0.10551 
 1                    -2.84835  -2.51348   0.09397 
 6                    -1.53593   0.99774  -1.08164 
[...]
 6                    -0.69651  -0.2427   -1.18434 
 1                    -4.07908  -0.53852   0.7665 
 1                     0.26436  -0.15591  -1.67548 
 6                     1.14464   1.42119   0.76251 
 6                     0.69651   0.2427    1.18434 
 1                     0.55123   2.31787   0.89388 
 1                    -0.26436   0.15591   1.67548 
 6                     1.53593  -0.99774   1.08164 
 1                     2.04315  -1.12432   2.04652 
 1                     0.89882  -1.8736    0.96055 
 6                     2.4466    1.52719   0.10551 
 1                     2.84835   2.51348  -0.09397 
 6                     3.12738   0.4412   -0.25695 
 1                     4.07908   0.53852  -0.7665 
 6                     2.58115  -0.94349  -0.03837 
 1                     2.15004  -1.29813  -0.98272 
 1                     3.39465  -1.63541   0.18847 
 6                    -1.14464  -1.42119  -0.76251 
 1                    -0.55123  -2.31787  -0.89388 
 6                    -2.4466   -1.52719  -0.10551 
 1                    -2.84835  -2.51348   0.09397 
 6                    -1.53593   0.99774  -1.08164 
 1                    -0.89882   1.8736   -0.96055 
 1                    -2.04315   1.12432  -2.04652 
 6                    -2.58115   0.94349   0.03837 
 1                    -3.39465   1.63541  -0.18847 
 1                    -2.15004   1.29813   0.98272 
 
 ITRead=  0  0  0  0  0  0  0  0  0  0  0  0  0  0  0  0  0  0  0  0
 ITRead=  0  0  0  0  0  0  0  0
 MicOpt= -1 -1 -1 -1 -1 -1 -1 -1 -1 -1 -1 -1 -1 -1 -1 -1 -1 -1 -1 -1
 MicOpt= -1 -1 -1 -1 -1 -1 -1 -1
 NAtoms=     28 NQM=       28 NQMF=       0 NMMI=      0 NMMIF=      0
                NMic=       0 NMicF=      0.
                    Isotopes and Nuclear Properties:
 (Nuclear quadrupole moments (NQMom) in fm**2, nuclear magnetic moments (NMagM)
  in nuclear magnetons)

  Atom         1           2           3           4           5           6           7           8           9          10
 IAtWgt=          12          12           1           1          12          12           1           1          12           1
 AtmWgt=  12.0000000  12.0000000   1.0078250   1.0078250  12.0000000  12.0000000   1.0078250   1.0078250  12.0000000   1.0078250
 NucSpn=           0           0           1           1           0           0           1           1           0           1
 AtZEff=  -0.0000000  -0.0000000  -0.0000000  -0.0000000  -0.0000000  -0.0000000  -0.0000000  -0.0000000  -0.0000000  -0.0000000
 NQMom=    0.0000000   0.0000000   0.0000000   0.0000000   0.0000000   0.0000000   0.0000000   0.0000000   0.0000000   0.0000000
 NMagM=    0.0000000   0.0000000   2.7928460   2.7928460   0.0000000   0.0000000   2.7928460   2.7928460   0.0000000   2.7928460
 AtZNuc=   6.0000000   6.0000000   1.0000000   1.0000000   6.0000000   6.0000000   1.0000000   1.0000000   6.0000000   1.0000000

  Atom        11          12          13          14          15          16          17          18          19          20
 IAtWgt=           1          12           1          12           1          12           1           1          12           1
 AtmWgt=   1.0078250  12.0000000   1.0078250  12.0000000   1.0078250  12.0000000   1.0078250   1.0078250  12.0000000   1.0078250
 NucSpn=           1           0           1           0           1           0           1           1           0           1
 AtZEff=  -0.0000000  -0.0000000  -0.0000000  -0.0000000  -0.0000000  -0.0000000  -0.0000000  -0.0000000  -0.0000000  -0.0000000
 NQMom=    0.0000000   0.0000000   0.0000000   0.0000000   0.0000000   0.0000000   0.0000000   0.0000000   0.0000000   0.0000000
 NMagM=    2.7928460   0.0000000   2.7928460   0.0000000   2.7928460   0.0000000   2.7928460   2.7928460   0.0000000   2.7928460
 AtZNuc=   1.0000000   6.0000000   1.0000000   6.0000000   1.0000000   6.0000000   1.0000000   1.0000000   6.0000000   1.0000000

  Atom        21          22          23          24          25          26          27          28
 IAtWgt=          12           1          12           1           1          12           1           1
 AtmWgt=  12.0000000   1.0078250  12.0000000   1.0078250   1.0078250  12.0000000   1.0078250   1.0078250
 NucSpn=           0           1           0           1           1           0           1           1
 AtZEff=  -0.0000000  -0.0000000  -0.0000000  -0.0000000  -0.0000000  -0.0000000  -0.0000000  -0.0000000
 NQMom=    0.0000000   0.0000000   0.0000000   0.0000000   0.0000000   0.0000000   0.0000000   0.0000000
 NMagM=    0.0000000   2.7928460   0.0000000   2.7928460   2.7928460   0.0000000   2.7928460   2.7928460
 AtZNuc=   6.0000000   1.0000000   6.0000000   1.0000000   1.0000000   6.0000000   1.0000000   1.0000000
 Leave Link  101 at Mon Aug  3 17:24:28 2020, MaxMem=  6442450944 cpu:               2.4 elap:               0.3
 (Enter /scratch/scicomp/CentOS/7.3.1611/Haswell/software/Gaussian/g16/l202.exe)
                          Input orientation:                          
 ---------------------------------------------------------------------
 Center     Atomic      Atomic             Coordinates (Angstroms)
 Number     Number       Type             X           Y           Z
 ---------------------------------------------------------------------
      1          6           0       -3.127383   -0.441200    0.256946
      2          6           0       -0.696508   -0.242696   -1.184341
      3          1           0       -4.079078   -0.538518    0.766502
      4          1           0        0.264362   -0.155913   -1.675481
      5          6           0        1.144636    1.421194    0.762509
      6          6           0        0.696508    0.242696    1.184341
      7          1           0        0.551234    2.317867    0.893879
      8          1           0       -0.264362    0.155913    1.675481
      9          6           0        1.535929   -0.997742    1.081645
     10          1           0        2.043151   -1.124317    2.046516
     11          1           0        0.898815   -1.873600    0.960552
     12          6           0        2.446597    1.527191    0.105512
     13          1           0        2.848349    2.513477   -0.093966
     14          6           0        3.127383    0.441200   -0.256946
     15          1           0        4.079078    0.538518   -0.766502
     16          6           0        2.581145   -0.943485   -0.038369
     17          1           0        2.150037   -1.298130   -0.982721
     18          1           0        3.394647   -1.635414    0.188466
     19          6           0       -1.144636   -1.421194   -0.762509
     20          1           0       -0.551234   -2.317867   -0.893879
     21          6           0       -2.446597   -1.527191   -0.105512
     22          1           0       -2.848349   -2.513477    0.093966
     23          6           0       -1.535929    0.997742   -1.081645
     24          1           0       -0.898815    1.873600   -0.960552
     25          1           0       -2.043151    1.124317   -2.046516
     26          6           0       -2.581145    0.943485    0.038369
     27          1           0       -3.394647    1.635414   -0.188467
     28          1           0       -2.150037    1.298130    0.982721
 ---------------------------------------------------------------------
                    Distance matrix (angstroms):
                    1          2          3          4          5
     1  C    0.000000
     2  C    2.832996   0.000000
     3  H    1.083901   3.916003   0.000000
     4  H    3.914026   1.082599   4.997513   0.000000
     5  C    4.687670   3.154135   5.579218   3.034130   0.000000
     6  C    3.993735   2.790475   4.857068   2.919627   1.329518
     7  H    4.642236   3.525953   5.441962   3.578197   1.083239
     8  H    3.250488   2.919627   3.982529   3.406718   2.102315
     9  C    4.768264   3.269337   5.642562   3.150762   2.471075
    10  H    5.513949   4.326826   6.281981   4.237353   2.989252
    11  H    4.330947   3.131369   5.157472   3.209618   3.309882
    12  C    5.913269   3.830839   6.876663   3.281299   1.462184
    13  H    6.675525   4.620760   7.618683   4.037799   2.197560
    14  C    6.337571   3.993735   7.344411   3.250488   2.435357
    15  H    7.344411   4.857068   8.370521   3.982529   3.424608
    16  C    5.738187   3.542226   6.720892   2.944128   2.880394
    17  H    5.488375   3.042599   6.514497   2.310919   3.383989
    18  H    6.630815   4.534513   7.575874   3.932163   3.838610
    19  C    2.435357   1.329518   3.424608   2.102315   3.955454
    20  H    3.388631   2.100430   4.285864   2.439292   4.427208
    21  C    1.331999   2.424172   2.098303   3.419723   4.726879
    22  H    2.097321   3.379487   2.422284   4.286959   5.645575
    23  C    2.528855   1.501286   3.499050   2.219146   3.281104
    24  H    3.436148   2.137690   4.349150   2.446023   2.710960
    25  H    2.988702   2.103691   3.850077   2.664821   4.259195
    26  C    1.504495   2.540453   2.229420   3.498981   3.825445
    27  H    2.140595   3.434970   2.471111   4.336866   4.642772
    28  H    2.123022   3.030355   2.672307   3.874223   3.304317
                    6          7          8          9         10
     6  C    0.000000
     7  H    2.100430   0.000000
     8  H    1.082599   2.439292   0.000000
     9  C    1.501286   3.463834   2.219146   0.000000
    10  H    2.103691   3.924668   2.664821   1.097393   0.000000
    11  H    2.137690   4.206382   2.446023   1.089819   1.746496
    12  C    2.424172   2.199794   3.419723   2.856123   3.310704
    13  H    3.379487   2.508154   4.286959   3.928507   4.296924
    14  C    2.832996   3.388631   3.914026   2.528855   2.988702
    15  H    3.916003   4.285864   4.997513   3.499050   3.850077
    16  C    2.540453   3.952979   3.498981   1.532923   2.160760
    17  H    3.030355   4.376441   3.874223   2.174619   3.036102
    18  H    3.434970   4.920471   4.336867   2.158524   2.353744
    19  C    3.154135   4.427208   3.034130   3.281104   4.259195
    20  H    3.525953   5.089356   3.578197   3.162542   4.098941
    21  C    3.830839   4.976971   3.281299   4.189292   4.995135
    22  H    4.620760   5.961452   4.037799   4.742874   5.446925
    23  C    3.269337   3.162542   3.150762   4.254185   5.205607
    24  H    3.131369   2.395606   3.209618   4.282891   5.165765
    25  H    4.326826   4.098941   4.237353   5.205607   6.205411
    26  C    3.542226   3.525992   2.944128   4.669806   5.449089
    27  H    4.534514   4.148155   3.932163   5.732127   6.494683
    28  H    3.042599   2.888706   2.310919   4.343634   4.958098
                   11         12         13         14         15
    11  H    0.000000
    12  C    3.833028   0.000000
    13  H    4.915194   1.083493   0.000000
    14  C    3.436148   1.331999   2.097321   0.000000
    15  H    4.349150   2.098303   2.422284   1.083901   0.000000
    16  C    2.166377   2.478517   3.467719   1.504495   2.229420
    17  H    2.381813   3.042144   3.975660   2.123022   2.672307
    18  H    2.623362   3.302688   4.194223   2.140595   2.471111
    19  C    2.710960   4.726879   5.645575   4.687670   5.579218
    20  H    2.395606   4.976971   5.961452   4.642236   5.441962
    21  C    3.528211   5.772099   6.660599   5.913269   6.876663
    22  H    3.898930   6.660599   7.599865   6.675525   7.618683
    23  C    4.282891   4.189292   4.742874   4.768264   5.642562
    24  H    4.578605   3.528211   3.898930   4.330947   5.157472
    25  H    5.165765   4.995135   5.446925   5.513949   6.281981
    26  C    4.571270   5.061957   5.653476   5.738187   6.720892
    27  H    5.662794   5.849638   6.305151   6.630815   7.575874
    28  H    4.399530   4.685190   5.255491   5.488375   6.514497
                   16         17         18         19         20
    16  C    0.000000
    17  H    1.097009   0.000000
    18  H    1.091790   1.741980   0.000000
    19  C    3.825445   3.304317   4.642772   0.000000
    20  H    3.525992   2.888706   4.148155   1.083239   0.000000
    21  C    5.061957   4.685190   5.849638   1.462184   2.199794
    22  H    5.653476   5.255491   6.305151   2.197560   2.508154
    23  C    4.669806   4.343634   5.732126   2.471075   3.463834
    24  H    4.571270   4.399530   5.662794   3.309882   4.206382
    25  H    5.449089   4.958098   6.494683   2.989252   3.924668
    26  C    5.496888   5.333999   6.510249   2.880394   3.952979
    27  H    6.510249   6.322977   7.545522   3.838610   4.920471
    28  H    5.333999   5.393901   6.322977   3.383989   4.376441
                   21         22         23         24         25
    21  C    0.000000
    22  H    1.083493   0.000000
    23  C    2.856123   3.928507   0.000000
    24  H    3.833028   4.915194   1.089819   0.000000
    25  H    3.310704   4.296924   1.097393   1.746496   0.000000
    26  C    2.478517   3.467719   1.532923   2.166377   2.160760
    27  H    3.302688   4.194223   2.158524   2.623361   2.353743
    28  H    3.042144   3.975660   2.174619   2.381813   3.036102
                   26         27         28
    26  C    0.000000
    27  H    1.091790   0.000000
    28  H    1.097009   1.741980   0.000000
 Symmetry turned off by external request.
 Stoichiometry    C12H16
 Framework group  CI[X(C12H16)]
 Deg. of freedom    39
 Full point group                 CI      NOp   2
 Rotational constants (GHZ):           1.7937670           0.6031513           0.5397262
 Leave Link  202 at Mon Aug  3 17:24:28 2020, MaxMem=  6442450944 cpu:               0.3 elap:               0.0
 (Enter /scratch/scicomp/CentOS/7.3.1611/Haswell/software/Gaussian/g16/l301.exe)
 Standard basis: def2TZVP (5D, 7F)
 Ernie: Thresh=  0.10000D-02 Tol=  0.10000D-05 Strict=F.
   468 basis functions,   740 primitive gaussians,   528 cartesian basis functions
    44 alpha electrons       44 beta electrons
       nuclear repulsion energy       679.2698202763 Hartrees.
 IExCor= 4639 DFT=T Ex+Corr=wB97XD ExCW=0 ScaHFX=  1.000000
 ScaDFX=  1.000000  1.000000  1.000000  1.000000 ScalE2=  1.000000  1.000000
 IRadAn=      5 IRanWt=     -1 IRanGd=            0 ICorTp=0 IEmpDi=121
 HFx  wShort=  0.000000 wLong=  0.200000 cFull=  0.222036 cShort=  0.000000 cLong=  0.777964
 DFx  wShort=  0.000000 wLong=  0.200000 cFull=  0.000000 cShort=  0.000000 cLong=  1.000000
 NAtoms=   28 NActive=   28 NUniq=   28 SFac= 1.00D+00 NAtFMM=   60 NAOKFM=F Big=F
 Integral buffers will be    131072 words long.
 Raffenetti 2 integral format.
 Two-electron integral symmetry is turned off.
 R6Disp:  Grimme-D2 Dispersion energy=       -0.0225391543 Hartrees.
 Nuclear repulsion after empirical dispersion term =      679.2472811219 Hartrees.
 Using the following non-standard input for PCM:
 qrep pcmdoc geomview  nodis nocav g03defaults tsare=0.075
 Warning! Using old PCM defaults because the g03defaults keyword was found.
 These settings can be overridden by following keywords.
 nsfe=28
 NVESolv=36  SolvMW=84.1595   Rsolv=2.815
 eps=2.0165 RhoS=0.7781
 --- end of non-standard input.
 Reading user-defined spheres from input:
 ISph  on   Nord    Re0     Alpha      Xe            Ye            Ze
 --- end of user-defined spheres data.
 ------------------------------------------------------------------------------
 Polarizable Continuum Model (PCM)
 =================================
 Model                : PCM.
 Atomic radii         : UA0 (Simple United Atom Topological Model).
 Polarization charges : Total charges.
 Charge compensation  : None.
 Solution method      : On-the-fly selection.
 Cavity type          : SES (Solvent Excluding Surface) (Alpha=1.000).
 Cavity algorithm     : GePol (RMin=0.200 OFac=0.890).
                        User-defined sphere list used, NSphG=   28.
                        Tesserae with average area of 0.075 Ang**2.
                        Smoothing algorithm: None.
                        Polarization charges: point-like.
                        Self-potential: constant (ISelfS= 1).
                        Self-field    : global E.n sum rule (ISelfD= 3).
 Solvent              : CycloHexane, Eps=   2.016500 Eps(inf)=   2.035188
                        RSolv=   2.815000 Ang.
 ------------------------------------------------------------------------------
 GePol: Number of generator spheres                  =      28
 GePol: Total number of spheres                      =     456
 GePol: Number of exposed spheres                    =     282 ( 61.84%)
 GePol: Number of tesserae                           =    4547
 GePol: Average area of tesserae                     =       0.04 Ang**2
 GePol: Minimum area of tessera                      =   0.10D-02 Ang**2
 GePol: Maximum area of tessera                      =    0.12546 Ang**2
 GePol: Number of small tesserae                     =       0
 GePol: Fraction of small tesserae (<1% of avg)      =       0.00%
 GePol: Total count of vertices                      =   17059
 GePol: Maximum number of vertices in a tessera      =       9
 GePol: Cavity surface area                          =    186.076 Ang**2
 GePol: Cavity volume                                =    183.431 Ang**3
 Leave Link  301 at Mon Aug  3 17:24:28 2020, MaxMem=  6442450944 cpu:              11.8 elap:               0.5
 (Enter /scratch/scicomp/CentOS/7.3.1611/Haswell/software/Gaussian/g16/l302.exe)
 NPDir=0 NMtPBC=     1 NCelOv=     1 NCel=       1 NClECP=     1 NCelD=      1
         NCelK=      1 NCelE2=     1 NClLst=     1 CellRange=     0.0.
 One-electron integrals computed using PRISM.
   1 Symmetry operations used in ECPInt.
 ECPInt:  NShTT=   19306 NPrTT=   56928 LenC2=   18486 LenP2D=   41994.
 LDataN:  DoStor=T MaxTD1= 6 Len=  172
 NBasis=   468 RedAO= T EigKep=  2.35D-05  NBF=   468
 NBsUse=   468 1.00D-06 EigRej= -1.00D+00 NBFU=   468
 Precomputing XC quadrature grid using
 IXCGrd= 4 IRadAn=           5 IRanWt=          -1 IRanGd=           0 AccXCQ= 0.00D+00.
 Generated NRdTot=       0 NPtTot=           0 NUsed=           0 NTot=          32
 NSgBfM=   526   526   526   526   526 MxSgAt=    28 MxSgA2=    28.
 Leave Link  302 at Mon Aug  3 17:24:29 2020, MaxMem=  6442450944 cpu:              11.8 elap:               0.5
 (Enter /scratch/scicomp/CentOS/7.3.1611/Haswell/software/Gaussian/g16/l401.exe)
 ExpMin= 9.52D-02 ExpMax= 1.36D+04 ExpMxC= 4.63D+02 IAcc=3 IRadAn=         5 AccDes= 0.00D+00
 Harris functional with IExCor= 4639 and IRadAn=       5 diagonalized for initial guess.
 HarFok:  IExCor= 4639 AccDes= 0.00D+00 IRadAn=         5 IDoV= 1 UseB2=F ITyADJ=14
 ICtDFT=  3500011 ScaDFX=  1.000000  1.000000  1.000000  1.000000
 FoFCou: FMM=F IPFlag=           0 FMFlag=      100000 FMFlg1=           0
         NFxFlg=           0 DoJE=T BraDBF=F KetDBF=T FulRan=T
         wScrn=  0.000000 ICntrl=       500 IOpCl=  0 I1Cent=   200000004 NGrid=           0
         NMat0=    1 NMatS0=      1 NMatT0=    0 NMatD0=    1 NMtDS0=    0 NMtDT0=    0
 Symmetry not used in FoFCou.
 Harris En= -444.631114791550    
 JPrj=0 DoOrth=F DoCkMO=T.
 Mixing orbitals, IMix= 1 IMixAn=  0 NRI=1 NE=   44 Coef=  7.07106781D-01  7.07106781D-01
 Mixing orbitals, IMix= 1 IMixAn=  0 NRI=1 NE=   44 Coef= -7.07106781D-01  7.07106781D-01
 Initial guess <Sx>= 0.0000 <Sy>= 0.0000 <Sz>= 0.0000 <S**2>= 1.0000 S= 0.6180
 Leave Link  401 at Mon Aug  3 17:24:31 2020, MaxMem=  6442450944 cpu:              47.5 elap:               2.0
 (Enter /scratch/scicomp/CentOS/7.3.1611/Haswell/software/Gaussian/g16/l9999.exe)

 This type of calculation cannot be archived.


 IN THE FIGHT BETWEEN YOU AND THE WORLD, BACK THE WORLD

                                        -- FRANZ KAFKA
 Job cpu time:       0 days  0 hours  1 minutes 16.8 seconds.
 Elapsed time:       0 days  0 hours  0 minutes  3.6 seconds.
 File lengths (MBytes):  RWF=    379 Int=      0 D2E=      0 Chk=      1 Scr=      1
 Normal termination of Gaussian 16 at Mon Aug  3 17:24:31 2020.
