 Entering Gaussian System, Link 0=g16
 Input=meso-TS_25_1_xp-Ger.com
 Output=meso-TS_25_1_xp-Ger.log
 Initial command:
 /scratch/scicomp/CentOS/7.3.1611/Haswell/software/Gaussian/g16/l1.exe "/scratch/bochen/cyclohexadiene-dimerization/wb97xd-def2tzvp/xp-pcm/meso/Gau-29959.inp" -scrdir="/scratch/bochen/cyclohexadiene-dimerization/wb97xd-def2tzvp/xp-pcm/meso/"
 Entering Link 1 = /scratch/scicomp/CentOS/7.3.1611/Haswell/software/Gaussian/g16/l1.exe PID=     29960.
  
 Copyright (c) 1988-2017, Gaussian, Inc.  All Rights Reserved.
  
 This is part of the Gaussian(R) 16 program.  It is based on
 the Gaussian(R) 09 system (copyright 2009, Gaussian, Inc.),
 the Gaussian(R) 03 system (copyright 2003, Gaussian, Inc.),
 the Gaussian(R) 98 system (copyright 1998, Gaussian, Inc.),
 the Gaussian(R) 94 system (copyright 1995, Gaussian, Inc.),
 the Gaussian 92(TM) system (copyright 1992, Gaussian, Inc.),
 the Gaussian 90(TM) system (copyright 1990, Gaussian, Inc.),
 the Gaussian 88(TM) system (copyright 1988, Gaussian, Inc.),
 the Gaussian 86(TM) system (copyright 1986, Carnegie Mellon
 University), and the Gaussian 82(TM) system (copyright 1983,
 Carnegie Mellon University). Gaussian is a federally registered
 trademark of Gaussian, Inc.
  
 This software contains proprietary and confidential information,
 including trade secrets, belonging to Gaussian, Inc.
  
 This software is provided under written license and may be
 used, copied, transmitted, or stored only in accord with that
 written license.
  
 The following legend is applicable only to US Government
 contracts under FAR:
  
                    RESTRICTED RIGHTS LEGEND
  
 Use, reproduction and disclosure by the US Government is
 subject to restrictions as set forth in subparagraphs (a)
 and (c) of the Commercial Computer Software - Restricted
 Rights clause in FAR 52.227-19.
  
 Gaussian, Inc.
 340 Quinnipiac St., Bldg. 40, Wallingford CT 06492
  
  
 ---------------------------------------------------------------
 Warning -- This program may not be used in any manner that
 competes with the business of Gaussian, Inc. or will provide
 assistance to any competitor of Gaussian, Inc.  The licensee
 of this program is prohibited from giving any competitor of
 Gaussian, Inc. access to this program.  By using this program,
 the user acknowledges that Gaussian, Inc. is engaged in the
 business of creating and licensing software in the field of
 computational chemistry and represents and warrants to the
 licensee that it is not a competitor of Gaussian, Inc. and that
 it will not use this program in any manner prohibited above.
 ---------------------------------------------------------------
  

 Cite this work as:
 Gaussian 16, Revision B.01,
 M. J. Frisch, G. W. Trucks, H. B. Schlegel, G. E. Scuseria, 
 M. A. Robb, J. R. Cheeseman, G. Scalmani, V. Barone, 
 G. A. Petersson, H. Nakatsuji, X. Li, M. Caricato, A. V. Marenich, 
 J. Bloino, B. G. Janesko, R. Gomperts, B. Mennucci, H. P. Hratchian, 
 J. V. Ortiz, A. F. Izmaylov, J. L. Sonnenberg, D. Williams-Young, 
 F. Ding, F. Lipparini, F. Egidi, J. Goings, B. Peng, A. Petrone, 
 T. Henderson, D. Ranasinghe, V. G. Zakrzewski, J. Gao, N. Rega, 
 G. Zheng, W. Liang, M. Hada, M. Ehara, K. Toyota, R. Fukuda, 
 J. Hasegawa, M. Ishida, T. Nakajima, Y. Honda, O. Kitao, H. Nakai, 
 T. Vreven, K. Throssell, J. A. Montgomery, Jr., J. E. Peralta, 
 F. Ogliaro, M. J. Bearpark, J. J. Heyd, E. N. Brothers, K. N. Kudin, 
 V. N. Staroverov, T. A. Keith, R. Kobayashi, J. Normand, 
 K. Raghavachari, A. P. Rendell, J. C. Burant, S. S. Iyengar, 
 J. Tomasi, M. Cossi, J. M. Millam, M. Klene, C. Adamo, R. Cammi, 
 J. W. Ochterski, R. L. Martin, K. Morokuma, O. Farkas, 
 J. B. Foresman, and D. J. Fox, Gaussian, Inc., Wallingford CT, 2016.
 
 ******************************************
 Gaussian 16:  ES64L-G16RevB.01 20-Dec-2017
                 4-Aug-2020 
 ******************************************
 %chk=meso-TS_25_1_xp-12.chk
 %nproc=24
 Will use up to   24 processors via shared memory.
 %mem=48GB
 ----------------------------------------------------------------------
 #p uwb97xd guess=mix def2tzvp # scrf=(iefpcm,solvent=Cyclohexane,read)
  nosym 6d 10f
 ----------------------------------------------------------------------
 1/38=1,40=2,172=1/1;
 2/12=2,15=1,17=6,18=5,40=1/2;
 3/5=44,7=101,8=22,11=2,25=1,30=1,70=2203,72=17,74=-58,116=2/1,2,3;
 4/13=-1/1;
 5/5=2,38=5,53=17/2;
 6/7=2,8=2,9=2,10=2,28=1/1;
 99/5=1,9=1/99;
 Leave Link    1 at Tue Aug  4 19:50:11 2020, MaxMem=  6442450944 cpu:               2.5 elap:               0.1
 (Enter /scratch/scicomp/CentOS/7.3.1611/Haswell/software/Gaussian/g16/l101.exe)
 -----------------------
 endo-2 xp-pcm for eta=3
 -----------------------
 Symbolic Z-matrix:
 Charge =  0 Multiplicity = 1
 6                    -3.11987  -0.42306   0.24236 
 6                    -0.39946  -0.12103  -0.66546 
 1                    -4.10298  -0.5453    0.67997 
 1                     0.33282  -0.11678  -1.47734 
 6                     1.10201   1.43915   0.62758 
 6                     0.39946   0.12103   0.66546 
 1                     0.57035   2.33579   0.91999 
 1                    -0.33282   0.11678   1.47734 
 6                     1.42482  -0.98675   0.94203 
 1                     1.82328  -0.8309    1.94786 
 1                     0.94084  -1.96461   0.94031 
 6                     2.39351   1.53156   0.13907 
 1                     2.84877   2.51146   0.04437 
 6                     3.11987   0.42306  -0.24236 
 1                     4.10298   0.5453   -0.67997 
 6                     2.58576  -0.96112  -0.05254 
 1                     2.26647  -1.36927  -1.02096 
 1                     3.38472  -1.62459   0.28992 
 6                    -1.10201  -1.43915  -0.62758 
 1                    -0.57035  -2.33579  -0.91999 
 6                    -2.39351  -1.53156  -0.13907 
 1                    -2.84877  -2.51146  -0.04437 
 6                    -1.42482   0.98675  -0.94203 
 1                    -0.94084   1.96461  -0.94031 
 1                    -1.82328   0.8309   -1.94786 
 6                    -2.58576   0.96112   0.05254 
 1                    -3.38472   1.62459  -0.28992 
 1                    -2.26647   1.36927   1.02096 
 
 ITRead=  0  0  0  0  0  0  0  0  0  0  0  0  0  0  0  0  0  0  0  0
 ITRead=  0  0  0  0  0  0  0  0
 MicOpt= -1 -1 -1 -1 -1 -1 -1 -1 -1 -1 -1 -1 -1 -1 -1 -1 -1 -1 -1 -1
 MicOpt= -1 -1 -1 -1 -1 -1 -1 -1
 NAtoms=     28 NQM=       28 NQMF=       0 NMMI=      0 NMMIF=      0
                NMic=       0 NMicF=      0.
                    Isotopes and Nuclear Properties:
 (Nuclear quadrupole moments (NQMom) in fm**2, nuclear magnetic moments (NMagM)
  in nuclear magnetons)

  Atom         1           2           3           4           5           6           7           8           9          10
 IAtWgt=          12          12           1           1          12          12           1           1          12           1
 AtmWgt=  12.0000000  12.0000000   1.0078250   1.0078250  12.0000000  12.0000000   1.0078250   1.0078250  12.0000000   1.0078250
 NucSpn=           0           0           1           1           0           0           1           1           0           1
 AtZEff=  -0.0000000  -0.0000000  -0.0000000  -0.0000000  -0.0000000  -0.0000000  -0.0000000  -0.0000000  -0.0000000  -0.0000000
 NQMom=    0.0000000   0.0000000   0.0000000   0.0000000   0.0000000   0.0000000   0.0000000   0.0000000   0.0000000   0.0000000
 NMagM=    0.0000000   0.0000000   2.7928460   2.7928460   0.0000000   0.0000000   2.7928460   2.7928460   0.0000000   2.7928460
 AtZNuc=   6.0000000   6.0000000   1.0000000   1.0000000   6.0000000   6.0000000   1.0000000   1.0000000   6.0000000   1.0000000

  Atom        11          12          13          14          15          16          17          18          19          20
 IAtWgt=           1          12           1          12           1          12           1           1          12           1
 AtmWgt=   1.0078250  12.0000000   1.0078250  12.0000000   1.0078250  12.0000000   1.0078250   1.0078250  12.0000000   1.0078250
 NucSpn=           1           0           1           0           1           0           1           1           0           1
 AtZEff=  -0.0000000  -0.0000000  -0.0000000  -0.0000000  -0.0000000  -0.0000000  -0.0000000  -0.0000000  -0.0000000  -0.0000000
 NQMom=    0.0000000   0.0000000   0.0000000   0.0000000   0.0000000   0.0000000   0.0000000   0.0000000   0.0000000   0.0000000
 NMagM=    2.7928460   0.0000000   2.7928460   0.0000000   2.7928460   0.0000000   2.7928460   2.7928460   0.0000000   2.7928460
 AtZNuc=   1.0000000   6.0000000   1.0000000   6.0000000   1.0000000   6.0000000   1.0000000   1.0000000   6.0000000   1.0000000

  Atom        21          22          23          24          25          26          27          28
 IAtWgt=          12           1          12           1           1          12           1           1
 AtmWgt=  12.0000000   1.0078250  12.0000000   1.0078250   1.0078250  12.0000000   1.0078250   1.0078250
 NucSpn=           0           1           0           1           1           0           1           1
 AtZEff=  -0.0000000  -0.0000000  -0.0000000  -0.0000000  -0.0000000  -0.0000000  -0.0000000  -0.0000000
 NQMom=    0.0000000   0.0000000   0.0000000   0.0000000   0.0000000   0.0000000   0.0000000   0.0000000
 NMagM=    0.0000000   2.7928460   0.0000000   2.7928460   2.7928460   0.0000000   2.7928460   2.7928460
 AtZNuc=   6.0000000   1.0000000   6.0000000   1.0000000   1.0000000   6.0000000   1.0000000   1.0000000
 Leave Link  101 at Tue Aug  4 19:50:11 2020, MaxMem=  6442450944 cpu:               2.4 elap:               0.1
 (Enter /scratch/scicomp/CentOS/7.3.1611/Haswell/software/Gaussian/g16/l202.exe)
                          Input orientation:                          
 ---------------------------------------------------------------------
 Center     Atomic      Atomic             Coordinates (Angstroms)
 Number     Number       Type             X           Y           Z
 ---------------------------------------------------------------------
      1          6           0       -3.119867   -0.423059    0.242362
      2          6           0       -0.399464   -0.121031   -0.665456
      3          1           0       -4.102983   -0.545295    0.679967
      4          1           0        0.332815   -0.116775   -1.477337
      5          6           0        1.102005    1.439151    0.627583
      6          6           0        0.399464    0.121031    0.665456
      7          1           0        0.570347    2.335794    0.919988
      8          1           0       -0.332815    0.116775    1.477337
      9          6           0        1.424818   -0.986752    0.942031
     10          1           0        1.823276   -0.830898    1.947861
     11          1           0        0.940841   -1.964613    0.940308
     12          6           0        2.393506    1.531561    0.139068
     13          1           0        2.848769    2.511456    0.044365
     14          6           0        3.119867    0.423059   -0.242362
     15          1           0        4.102983    0.545295   -0.679967
     16          6           0        2.585761   -0.961115   -0.052535
     17          1           0        2.266469   -1.369268   -1.020958
     18          1           0        3.384717   -1.624588    0.289923
     19          6           0       -1.102005   -1.439151   -0.627583
     20          1           0       -0.570347   -2.335794   -0.919988
     21          6           0       -2.393506   -1.531561   -0.139068
     22          1           0       -2.848769   -2.511456   -0.044365
     23          6           0       -1.424818    0.986752   -0.942031
     24          1           0       -0.940841    1.964613   -0.940309
     25          1           0       -1.823276    0.830898   -1.947861
     26          6           0       -2.585761    0.961115    0.052535
     27          1           0       -3.384717    1.624588   -0.289923
     28          1           0       -2.266469    1.369268    1.020958
 ---------------------------------------------------------------------
                    Distance matrix (angstroms):
                    1          2          3          4          5
     1  C    0.000000
     2  C    2.883738   0.000000
     3  H    1.083031   3.963107   0.000000
     4  H    3.869391   1.093344   4.951151   0.000000
     5  C    4.630381   2.522009   5.570697   2.728232   0.000000
     6  C    3.586186   1.571053   4.551509   2.156978   1.494135
     7  H    4.657051   3.080610   5.495298   3.437831   1.082649
     8  H    3.095843   2.156978   3.910026   3.037714   2.128255
     9  C    4.632650   2.580987   5.551589   2.793326   2.467406
    10  H    5.244971   3.503414   6.067097   3.803081   2.723323
    11  H    4.399189   2.788134   5.246180   3.103097   3.421897
    12  C    5.850512   3.343501   6.841803   3.094547   1.383894
    13  H    6.653961   4.240855   7.620667   3.943755   2.131001
    14  C    6.315469   3.586186   7.345608   3.095843   2.420953
    15  H    7.345608   4.551509   8.389081   3.910026   3.393307
    16  C    5.738524   3.161168   6.741570   2.796200   2.902649
    17  H    5.612834   2.965076   6.643944   2.348625   3.458451
    18  H    6.614798   4.182518   7.575134   3.835468   3.835529
    19  C    2.420953   1.494135   3.393307   2.128255   3.836369
    20  H    3.392590   2.235881   4.271447   2.459753   4.409302
    21  C    1.379082   2.498576   2.136785   3.350434   4.650966
    22  H    2.125349   3.478359   2.442028   4.232066   5.627382
    23  C    2.502708   1.534610   3.485773   2.143268   3.008852
    24  H    3.442070   2.172221   4.350181   2.498555   2.628234
    25  H    2.837364   2.139620   3.741183   2.401709   3.944636
    26  C    1.495741   2.542921   2.228207   3.467051   3.762820
    27  H    2.132213   3.478498   2.482939   4.273446   4.583326
    28  H    2.132355   2.924156   2.674810   3.899497   3.392086
                    6          7          8          9         10
     6  C    0.000000
     7  H    2.235881   0.000000
     8  H    1.093344   2.459753   0.000000
     9  C    1.534610   3.430731   2.143268   0.000000
    10  H    2.139620   3.557287   2.401709   1.093048   0.000000
    11  H    2.172221   4.316385   2.498555   1.091077   1.754755
    12  C    2.498576   2.140219   3.350434   2.815139   3.029539
    13  H    3.478359   2.447198   4.232066   3.882126   3.980737
    14  C    2.883738   3.392590   3.869391   2.502708   2.837364
    15  H    3.963107   4.271447   4.951151   3.485773   3.741183
    16  C    2.542921   3.984633   3.467051   1.528924   2.144743
    17  H    2.924156   4.513489   3.899497   2.169797   3.049614
    18  H    3.478498   4.899213   4.273446   2.161778   2.411804
    19  C    2.522009   4.409302   2.728232   3.008852   3.944636
    20  H    3.080610   5.148828   3.437831   3.044292   4.027245
    21  C    3.343501   4.986227   3.094547   4.005645   4.756832
    22  H    4.240855   6.009672   3.943755   4.643409   5.349883
    23  C    2.580987   3.044292   2.793326   3.945229   4.712265
    24  H    2.788134   2.425318   3.103097   4.224938   4.878191
    25  H    3.503414   4.027245   3.803081   4.712265   5.588878
    26  C    3.161168   3.550103   2.796200   4.546442   5.122810
    27  H    4.182518   4.196693   3.835468   5.609673   6.177401
    28  H    2.965076   2.998648   2.348625   4.379801   4.735599
                   11         12         13         14         15
    11  H    0.000000
    12  C    3.869813   0.000000
    13  H    4.947534   1.084632   0.000000
    14  C    3.442069   1.379082   2.125349   0.000000
    15  H    4.350181   2.136785   2.442028   1.083031   0.000000
    16  C    2.167604   2.507410   3.483865   1.495741   2.228207
    17  H    2.440961   3.126757   4.066203   2.132355   2.674810
    18  H    2.551695   3.311576   4.177846   2.132213   2.482939
    19  C    2.628234   4.650966   5.627382   4.630381   5.570697
    20  H    2.425318   4.986227   6.009672   4.657051   5.495298
    21  C    3.531353   5.689953   6.622770   5.850512   6.841803
    22  H    3.953449   6.622770   7.596016   6.653961   7.620667
    23  C    4.224938   4.005645   4.643409   4.632650   5.551589
    24  H    4.745131   3.531354   3.953450   4.399189   5.246180
    25  H    4.878191   4.756832   5.349883   5.244971   6.067097
    26  C    4.667435   5.012584   5.651349   5.738524   6.741570
    27  H    5.753806   5.794873   6.305127   6.614798   7.575134
    28  H    4.626889   4.745465   5.331415   5.612834   6.643944
                   16         17         18         19         20
    16  C    0.000000
    17  H    1.098353   0.000000
    18  H    1.093529   1.741860   0.000000
    19  C    3.762820   3.392086   4.583326   0.000000
    20  H    3.550103   2.998648   4.196693   1.082649   0.000000
    21  C    5.012584   4.745465   5.794873   1.383894   2.140219
    22  H    5.651349   5.331415   6.305127   2.131001   2.447198
    23  C    4.546442   4.379801   5.609673   2.467406   3.430731
    24  H    4.667435   4.626889   5.753806   3.421897   4.316385
    25  H    5.122810   4.735599   6.177401   2.723323   3.557287
    26  C    5.518211   5.488826   6.510670   2.902649   3.984633
    27  H    6.510670   6.436885   7.531175   3.835529   4.899213
    28  H    5.488826   5.675960   6.436885   3.458451   4.513489
                   21         22         23         24         25
    21  C    0.000000
    22  H    1.084632   0.000000
    23  C    2.815139   3.882126   0.000000
    24  H    3.869813   4.947535   1.091077   0.000000
    25  H    3.029539   3.980737   1.093048   1.754754   0.000000
    26  C    2.507410   3.483865   1.528924   2.167604   2.144743
    27  H    3.311576   4.177846   2.161778   2.551695   2.411804
    28  H    3.126757   4.066203   2.169797   2.440962   3.049614
                   26         27         28
    26  C    0.000000
    27  H    1.093529   0.000000
    28  H    1.098353   1.741860   0.000000
 Symmetry turned off by external request.
 Stoichiometry    C12H16
 Framework group  CI[X(C12H16)]
 Deg. of freedom    39
 Full point group                 CI      NOp   2
 Rotational constants (GHZ):           2.0185862           0.6511785           0.5565951
 Leave Link  202 at Tue Aug  4 19:50:11 2020, MaxMem=  6442450944 cpu:               0.3 elap:               0.0
 (Enter /scratch/scicomp/CentOS/7.3.1611/Haswell/software/Gaussian/g16/l301.exe)
 Standard basis: def2TZVP (6D, 10F)
 Ernie: Thresh=  0.10000D-02 Tol=  0.10000D-05 Strict=F.
   528 basis functions,   740 primitive gaussians,   528 cartesian basis functions
    44 alpha electrons       44 beta electrons
       nuclear repulsion energy       697.7411328581 Hartrees.
 IExCor= 4639 DFT=T Ex+Corr=wB97XD ExCW=0 ScaHFX=  1.000000
 ScaDFX=  1.000000  1.000000  1.000000  1.000000 ScalE2=  1.000000  1.000000
 IRadAn=      5 IRanWt=     -1 IRanGd=            0 ICorTp=0 IEmpDi=121
 HFx  wShort=  0.000000 wLong=  0.200000 cFull=  0.222036 cShort=  0.000000 cLong=  0.777964
 DFx  wShort=  0.000000 wLong=  0.200000 cFull=  0.000000 cShort=  0.000000 cLong=  1.000000
 NAtoms=   28 NActive=   28 NUniq=   28 SFac= 1.00D+00 NAtFMM=   60 NAOKFM=F Big=F
 Integral buffers will be    131072 words long.
 Raffenetti 2 integral format.
 Two-electron integral symmetry is turned off.
 R6Disp:  Grimme-D2 Dispersion energy=       -0.0228985846 Hartrees.
 Nuclear repulsion after empirical dispersion term =      697.7182342735 Hartrees.
 Using the following non-standard input for PCM:
 qrep pcmdoc geomview  nodis nocav g03defaults tsare=0.075
 Warning! Using old PCM defaults because the g03defaults keyword was found.
 These settings can be overridden by following keywords.
 nsfe=28
 NVESolv=36  SolvMW=84.1595   Rsolv=2.815
 eps=2.0165 RhoS=0.778099999999998
 --- end of non-standard input.
 Reading user-defined spheres from input:
 ISph  on   Nord    Re0     Alpha      Xe            Ye            Ze
 --- end of user-defined spheres data.
 ------------------------------------------------------------------------------
 Polarizable Continuum Model (PCM)
 =================================
 Model                : PCM.
 Atomic radii         : UA0 (Simple United Atom Topological Model).
 Polarization charges : Total charges.
 Charge compensation  : None.
 Solution method      : On-the-fly selection.
 Cavity type          : SES (Solvent Excluding Surface) (Alpha=1.000).
 Cavity algorithm     : GePol (RMin=0.200 OFac=0.890).
                        User-defined sphere list used, NSphG=   28.
                        Tesserae with average area of 0.075 Ang**2.
                        Smoothing algorithm: None.
                        Polarization charges: point-like.
                        Self-potential: constant (ISelfS= 1).
                        Self-field    : global E.n sum rule (ISelfD= 3).
 Solvent              : CycloHexane, Eps=   2.016500 Eps(inf)=   2.035188
                        RSolv=   2.815000 Ang.
 ------------------------------------------------------------------------------
 GePol: Number of generator spheres                  =      28
 GePol: Total number of spheres                      =     156
 GePol: Number of exposed spheres                    =     115 ( 73.72%)
 GePol: Number of tesserae                           =    4567
 GePol: Average area of tesserae                     =       0.05 Ang**2
 GePol: Minimum area of tessera                      =   0.10D-02 Ang**2
 GePol: Maximum area of tessera                      =    0.12395 Ang**2
 GePol: Number of small tesserae                     =       0
 GePol: Fraction of small tesserae (<1% of avg)      =       0.00%
 GePol: Total count of vertices                      =   16098
 GePol: Maximum number of vertices in a tessera      =       7
 GePol: Cavity surface area                          =    218.078 Ang**2
 GePol: Cavity volume                                =    243.736 Ang**3
 Leave Link  301 at Tue Aug  4 19:50:12 2020, MaxMem=  6442450944 cpu:               6.8 elap:               0.3
 (Enter /scratch/scicomp/CentOS/7.3.1611/Haswell/software/Gaussian/g16/l302.exe)
 NPDir=0 NMtPBC=     1 NCelOv=     1 NCel=       1 NClECP=     1 NCelD=      1
         NCelK=      1 NCelE2=     1 NClLst=     1 CellRange=     0.0.
 One-electron integrals computed using PRISM.
   1 Symmetry operations used in ECPInt.
 ECPInt:  NShTT=   19306 NPrTT=   56928 LenC2=   18546 LenP2D=   42368.
 LDataN:  DoStor=T MaxTD1= 6 Len=  172
 NBasis=   528 RedAO= T EigKep=  2.38D-05  NBF=   528
 NBsUse=   528 1.00D-06 EigRej= -1.00D+00 NBFU=   528
 Precomputing XC quadrature grid using
 IXCGrd= 4 IRadAn=           5 IRanWt=          -1 IRanGd=           0 AccXCQ= 0.00D+00.
 Generated NRdTot=       0 NPtTot=           0 NUsed=           0 NTot=          32
 NSgBfM=   526   526   526   526   526 MxSgAt=    28 MxSgA2=    28.
 Leave Link  302 at Tue Aug  4 19:50:12 2020, MaxMem=  6442450944 cpu:              13.4 elap:               0.6
 (Enter /scratch/scicomp/CentOS/7.3.1611/Haswell/software/Gaussian/g16/l303.exe)
 DipDrv:  MaxL=1.
 Leave Link  303 at Tue Aug  4 19:50:13 2020, MaxMem=  6442450944 cpu:               1.5 elap:               0.1
 (Enter /scratch/scicomp/CentOS/7.3.1611/Haswell/software/Gaussian/g16/l401.exe)
 ExpMin= 9.52D-02 ExpMax= 1.36D+04 ExpMxC= 4.63D+02 IAcc=3 IRadAn=         5 AccDes= 0.00D+00
 Harris functional with IExCor= 4639 and IRadAn=       5 diagonalized for initial guess.
 HarFok:  IExCor= 4639 AccDes= 0.00D+00 IRadAn=         5 IDoV= 1 UseB2=F ITyADJ=14
 ICtDFT=  3500011 ScaDFX=  1.000000  1.000000  1.000000  1.000000
 FoFCou: FMM=F IPFlag=           0 FMFlag=      100000 FMFlg1=           0
         NFxFlg=           0 DoJE=T BraDBF=F KetDBF=T FulRan=T
         wScrn=  0.000000 ICntrl=       500 IOpCl=  0 I1Cent=   200000004 NGrid=           0
         NMat0=    1 NMatS0=      1 NMatT0=    0 NMatD0=    1 NMtDS0=    0 NMtDT0=    0
 Symmetry not used in FoFCou.
 Harris En= -444.599295283334    
 JPrj=0 DoOrth=F DoCkMO=T.
 Mixing orbitals, IMix= 1 IMixAn=  0 NRI=1 NE=   44 Coef=  7.07106781D-01  7.07106781D-01
 Mixing orbitals, IMix= 1 IMixAn=  0 NRI=1 NE=   44 Coef= -7.07106781D-01  7.07106781D-01
 Initial guess <Sx>= 0.0000 <Sy>= 0.0000 <Sz>= 0.0000 <S**2>= 1.0000 S= 0.6180
 Leave Link  401 at Tue Aug  4 19:50:15 2020, MaxMem=  6442450944 cpu:              50.0 elap:               2.1
 (Enter /scratch/scicomp/CentOS/7.3.1611/Haswell/software/Gaussian/g16/l502.exe)
 Two-electron integral symmetry not used.
 UHF open shell SCF:
 Using DIIS extrapolation, IDIIS=  1040.
 NGot=  6442450944 LenX=  6441877030 LenY=  6441597718
 Requested convergence on RMS density matrix=1.00D-08 within 128 cycles.
 Requested convergence on MAX density matrix=1.00D-06.
 Requested convergence on             energy=1.00D-06.
 No special actions if energy rises.
 Fock matrices will be formed incrementally for  20 cycles.

 Cycle   1  Pass 1  IDiag  1:
 FoFJK:  IHMeth= 1 ICntrl=       0 DoSepK=T KAlg= 0 I1Cent=           0 FoldK=F
 IRaf=         1 NMat=       1 IRICut=       1 DoRegI=T DoRafI=F ISym2E= 0 IDoP0=0 IntGTp=1.
 FoFCou: FMM=F IPFlag=           0 FMFlag=      100000 FMFlg1=           0
         NFxFlg=           0 DoJE=T BraDBF=F KetDBF=F FulRan=T
         wScrn=  0.000000 ICntrl=       500 IOpCl=  0 I1Cent=           0 NGrid=           0
         NMat0=    1 NMatS0=      1 NMatT0=    0 NMatD0=    1 NMtDS0=    0 NMtDT0=    0
 Symmetry not used in FoFCou.
 Inv3:  Mode=1 IEnd=    62572467.
 Iteration    1 A*A^-1 deviation from unit magnitude is 8.70D-14 for    284.
 Iteration    1 A*A^-1 deviation from orthogonality  is 2.56D-13 for   2295    287.
 Iteration    1 A^-1*A deviation from unit magnitude is 7.11D-14 for    287.
 Iteration    1 A^-1*A deviation from orthogonality  is 5.51D-14 for    287    117.
 E= -466.684086239233    
 DIIS: error= 6.37D-02 at cycle   1 NSaved=   1.
 NSaved= 1 IEnMin= 1 EnMin= -466.684086239233     IErMin= 1 ErrMin= 6.37D-02
 ErrMax= 6.37D-02  0.00D+00 EMaxC= 1.00D-01 BMatC= 4.10D+00 BMatP= 4.10D+00
 IDIUse=3 WtCom= 3.63D-01 WtEn= 6.37D-01
 Coeff-Com:  0.100D+01
 Coeff-En:   0.100D+01
 Coeff:      0.100D+01
 Gap=     0.234 Goal=   None    Shift=    0.000
 Gap=     0.234 Goal=   None    Shift=    0.000
 GapD=    0.234 DampG=1.000 DampE=0.500 DampFc=0.5000 IDamp=-1.
 Damping current iteration by 5.00D-01
 RMSDP=1.44D-03 MaxDP=9.20D-02              OVMax= 5.01D-02

 Cycle   2  Pass 1  IDiag  1:
 RMSU=  7.07D-04    CP:  9.76D-01
 E= -466.753959413678     Delta-E=       -0.069873174445 Rises=F Damp=T
 DIIS: error= 3.02D-02 at cycle   2 NSaved=   2.
 NSaved= 2 IEnMin= 2 EnMin= -466.753959413678     IErMin= 2 ErrMin= 3.02D-02
 ErrMax= 3.02D-02  0.00D+00 EMaxC= 1.00D-01 BMatC= 9.19D-01 BMatP= 4.10D+00
 IDIUse=3 WtCom= 6.98D-01 WtEn= 3.02D-01
 Coeff-Com: -0.863D+00 0.186D+01
 Coeff-En:   0.000D+00 0.100D+01
 Coeff:     -0.603D+00 0.160D+01
 Gap=     0.242 Goal=   None    Shift=    0.000
 Gap=     0.241 Goal=   None    Shift=    0.000
 RMSDP=8.98D-04 MaxDP=4.90D-02 DE=-6.99D-02 OVMax= 3.21D-02

 Cycle   3  Pass 1  IDiag  1:
 RMSU=  4.37D-04    CP:  9.50D-01  2.09D+00
 E= -466.822107751288     Delta-E=       -0.068148337609 Rises=F Damp=F
 DIIS: error= 2.74D-03 at cycle   3 NSaved=   3.
 NSaved= 3 IEnMin= 3 EnMin= -466.822107751288     IErMin= 3 ErrMin= 2.74D-03
 ErrMax= 2.74D-03  0.00D+00 EMaxC= 1.00D-01 BMatC= 1.68D-02 BMatP= 9.19D-01
 IDIUse=3 WtCom= 9.73D-01 WtEn= 2.74D-02
 Coeff-Com: -0.304D+00 0.658D+00 0.646D+00
 Coeff-En:   0.000D+00 0.000D+00 0.100D+01
 Coeff:     -0.296D+00 0.640D+00 0.656D+00
 Gap=     0.246 Goal=   None    Shift=    0.000
 Gap=     0.246 Goal=   None    Shift=    0.000
 RMSDP=1.09D-04 MaxDP=4.56D-03 DE=-6.81D-02 OVMax= 1.26D-02

 Cycle   4  Pass 1  IDiag  1:
 RMSU=  8.71D-05    CP:  9.47D-01  2.15D+00  9.01D-01
 E= -466.826444806493     Delta-E=       -0.004337055206 Rises=F Damp=F
 DIIS: error= 9.89D-04 at cycle   4 NSaved=   4.
 NSaved= 4 IEnMin= 4 EnMin= -466.826444806493     IErMin= 4 ErrMin= 9.89D-04
 ErrMax= 9.89D-04  0.00D+00 EMaxC= 1.00D-01 BMatC= 5.77D-04 BMatP= 1.68D-02
 IDIUse=3 WtCom= 9.90D-01 WtEn= 9.89D-03
 Coeff-Com:  0.991D-01-0.214D+00-0.113D+00 0.123D+01
 Coeff-En:   0.000D+00 0.000D+00 0.000D+00 0.100D+01
 Coeff:      0.982D-01-0.212D+00-0.112D+00 0.123D+01
 Gap=     0.251 Goal=   None    Shift=    0.000
 Gap=     0.251 Goal=   None    Shift=    0.000
 RMSDP=7.85D-05 MaxDP=4.87D-03 DE=-4.34D-03 OVMax= 1.19D-02

 Cycle   5  Pass 1  IDiag  1:
 RMSU=  3.36D-05    CP:  9.46D-01  2.19D+00  1.03D+00  1.40D+00
 E= -466.827070492035     Delta-E=       -0.000625685542 Rises=F Damp=F
 DIIS: error= 5.04D-04 at cycle   5 NSaved=   5.
 NSaved= 5 IEnMin= 5 EnMin= -466.827070492035     IErMin= 5 ErrMin= 5.04D-04
 ErrMax= 5.04D-04  0.00D+00 EMaxC= 1.00D-01 BMatC= 1.83D-04 BMatP= 5.77D-04
 IDIUse=3 WtCom= 9.95D-01 WtEn= 5.04D-03
 Coeff-Com:  0.646D-01-0.140D+00-0.112D+00 0.301D+00 0.886D+00
 Coeff-En:   0.000D+00 0.000D+00 0.000D+00 0.000D+00 0.100D+01
 Coeff:      0.642D-01-0.139D+00-0.111D+00 0.300D+00 0.887D+00
 Gap=     0.253 Goal=   None    Shift=    0.000
 Gap=     0.253 Goal=   None    Shift=    0.000
 RMSDP=2.66D-05 MaxDP=1.56D-03 DE=-6.26D-04 OVMax= 6.53D-03

 Cycle   6  Pass 1  IDiag  1:
 RMSU=  1.76D-05    CP:  9.46D-01  2.20D+00  1.04D+00  1.56D+00  1.32D+00
 E= -466.827222880386     Delta-E=       -0.000152388350 Rises=F Damp=F
 DIIS: error= 2.86D-04 at cycle   6 NSaved=   6.
 NSaved= 6 IEnMin= 6 EnMin= -466.827222880386     IErMin= 6 ErrMin= 2.86D-04
 ErrMax= 2.86D-04  0.00D+00 EMaxC= 1.00D-01 BMatC= 5.79D-05 BMatP= 1.83D-04
 IDIUse=3 WtCom= 9.97D-01 WtEn= 2.86D-03
 Coeff-Com: -0.222D-01 0.478D-01 0.141D-01-0.431D+00 0.300D+00 0.109D+01
 Coeff-En:   0.000D+00 0.000D+00 0.000D+00 0.000D+00 0.000D+00 0.100D+01
 Coeff:     -0.222D-01 0.476D-01 0.141D-01-0.429D+00 0.299D+00 0.109D+01
 Gap=     0.255 Goal=   None    Shift=    0.000
 Gap=     0.255 Goal=   None    Shift=    0.000
 RMSDP=2.00D-05 MaxDP=1.28D-03 DE=-1.52D-04 OVMax= 5.18D-03

 Cycle   7  Pass 1  IDiag  1:
 RMSU=  9.10D-06    CP:  9.46D-01  2.20D+00  1.05D+00  1.65D+00  1.75D+00
                    CP:  1.27D+00
 E= -466.827279609518     Delta-E=       -0.000056729132 Rises=F Damp=F
 DIIS: error= 5.92D-05 at cycle   7 NSaved=   7.
 NSaved= 7 IEnMin= 7 EnMin= -466.827279609518     IErMin= 7 ErrMin= 5.92D-05
 ErrMax= 5.92D-05  0.00D+00 EMaxC= 1.00D-01 BMatC= 3.25D-06 BMatP= 5.79D-05
 IDIUse=1 WtCom= 1.00D+00 WtEn= 0.00D+00
 Coeff-Com: -0.105D-01 0.227D-01 0.129D-01-0.111D+00-0.282D-01 0.205D+00
 Coeff-Com:  0.909D+00
 Coeff:     -0.105D-01 0.227D-01 0.129D-01-0.111D+00-0.282D-01 0.205D+00
 Coeff:      0.909D+00
 Gap=     0.255 Goal=   None    Shift=    0.000
 Gap=     0.255 Goal=   None    Shift=    0.000
 RMSDP=5.06D-06 MaxDP=3.11D-04 DE=-5.67D-05 OVMax= 1.17D-03

 Cycle   8  Pass 1  IDiag  1:
 RMSU=  2.25D-06    CP:  9.46D-01  2.20D+00  1.05D+00  1.64D+00  1.81D+00
                    CP:  1.41D+00  1.24D+00
 E= -466.827282315725     Delta-E=       -0.000002706207 Rises=F Damp=F
 DIIS: error= 2.73D-05 at cycle   8 NSaved=   8.
 NSaved= 8 IEnMin= 8 EnMin= -466.827282315725     IErMin= 8 ErrMin= 2.73D-05
 ErrMax= 2.73D-05  0.00D+00 EMaxC= 1.00D-01 BMatC= 5.44D-07 BMatP= 3.25D-06
 IDIUse=1 WtCom= 1.00D+00 WtEn= 0.00D+00
 Coeff-Com:  0.201D-03-0.407D-03 0.159D-02 0.306D-01-0.497D-01-0.992D-01
 Coeff-Com:  0.234D+00 0.882D+00
 Coeff:      0.201D-03-0.407D-03 0.159D-02 0.306D-01-0.497D-01-0.992D-01
 Coeff:      0.234D+00 0.882D+00
 Gap=     0.255 Goal=   None    Shift=    0.000
 Gap=     0.255 Goal=   None    Shift=    0.000
 RMSDP=2.12D-06 MaxDP=1.39D-04 DE=-2.71D-06 OVMax= 3.79D-04

 Cycle   9  Pass 1  IDiag  1:
 RMSU=  9.35D-07    CP:  9.46D-01  2.19D+00  1.05D+00  1.64D+00  1.81D+00
                    CP:  1.44D+00  1.39D+00  1.31D+00
 E= -466.827282669354     Delta-E=       -0.000000353629 Rises=F Damp=F
 DIIS: error= 1.12D-05 at cycle   9 NSaved=   9.
 NSaved= 9 IEnMin= 9 EnMin= -466.827282669354     IErMin= 9 ErrMin= 1.12D-05
 ErrMax= 1.12D-05  0.00D+00 EMaxC= 1.00D-01 BMatC= 5.68D-08 BMatP= 5.44D-07
 IDIUse=1 WtCom= 1.00D+00 WtEn= 0.00D+00
 Coeff-Com:  0.142D-02-0.308D-02-0.131D-02 0.213D-01-0.753D-02-0.498D-01
 Coeff-Com: -0.621D-01 0.209D+00 0.893D+00
 Coeff:      0.142D-02-0.308D-02-0.131D-02 0.213D-01-0.753D-02-0.498D-01
 Coeff:     -0.621D-01 0.209D+00 0.893D+00
 Gap=     0.255 Goal=   None    Shift=    0.000
 Gap=     0.255 Goal=   None    Shift=    0.000
 RMSDP=7.90D-07 MaxDP=4.21D-05 DE=-3.54D-07 OVMax= 1.61D-04

 Cycle  10  Pass 1  IDiag  1:
 RMSU=  3.20D-07    CP:  9.46D-01  2.19D+00  1.05D+00  1.64D+00  1.81D+00
                    CP:  1.44D+00  1.43D+00  1.50D+00  1.31D+00
 E= -466.827282710569     Delta-E=       -0.000000041216 Rises=F Damp=F
 DIIS: error= 3.50D-06 at cycle  10 NSaved=  10.
 NSaved=10 IEnMin=10 EnMin= -466.827282710569     IErMin=10 ErrMin= 3.50D-06
 ErrMax= 3.50D-06  0.00D+00 EMaxC= 1.00D-01 BMatC= 4.49D-09 BMatP= 5.68D-08
 IDIUse=1 WtCom= 1.00D+00 WtEn= 0.00D+00
 Coeff-Com: -0.816D-04 0.178D-03-0.105D-03-0.380D-02 0.458D-02 0.114D-01
 Coeff-Com: -0.168D-01-0.886D-01-0.407D-01 0.113D+01
 Coeff:     -0.816D-04 0.178D-03-0.105D-03-0.380D-02 0.458D-02 0.114D-01
 Coeff:     -0.168D-01-0.886D-01-0.407D-01 0.113D+01
 Gap=     0.255 Goal=   None    Shift=    0.000
 Gap=     0.255 Goal=   None    Shift=    0.000
 RMSDP=3.20D-07 MaxDP=2.43D-05 DE=-4.12D-08 OVMax= 6.30D-05

 Cycle  11  Pass 1  IDiag  1:
 RMSU=  1.10D-07    CP:  9.46D-01  2.19D+00  1.05D+00  1.64D+00  1.81D+00
                    CP:  1.43D+00  1.44D+00  1.57D+00  1.50D+00  1.39D+00
 E= -466.827282715228     Delta-E=       -0.000000004659 Rises=F Damp=F
 DIIS: error= 7.10D-07 at cycle  11 NSaved=  11.
 NSaved=11 IEnMin=11 EnMin= -466.827282715228     IErMin=11 ErrMin= 7.10D-07
 ErrMax= 7.10D-07  0.00D+00 EMaxC= 1.00D-01 BMatC= 1.15D-09 BMatP= 4.49D-09
 IDIUse=1 WtCom= 1.00D+00 WtEn= 0.00D+00
 Coeff-Com: -0.223D-03 0.483D-03 0.140D-03-0.419D-02 0.258D-02 0.108D-01
 Coeff-Com:  0.192D-02-0.593D-01-0.129D+00 0.402D+00 0.775D+00
 Coeff:     -0.223D-03 0.483D-03 0.140D-03-0.419D-02 0.258D-02 0.108D-01
 Coeff:      0.192D-02-0.593D-01-0.129D+00 0.402D+00 0.775D+00
 Gap=     0.255 Goal=   None    Shift=    0.000
 Gap=     0.255 Goal=   None    Shift=    0.000
 RMSDP=9.59D-08 MaxDP=7.06D-06 DE=-4.66D-09 OVMax= 1.68D-05

 Cycle  12  Pass 1  IDiag  1:
 RMSU=  3.90D-08    CP:  9.46D-01  2.19D+00  1.05D+00  1.64D+00  1.81D+00
                    CP:  1.43D+00  1.44D+00  1.58D+00  1.54D+00  1.52D+00
                    CP:  1.31D+00
 E= -466.827282715933     Delta-E=       -0.000000000705 Rises=F Damp=F
 DIIS: error= 2.98D-07 at cycle  12 NSaved=  12.
 NSaved=12 IEnMin=12 EnMin= -466.827282715933     IErMin=12 ErrMin= 2.98D-07
 ErrMax= 2.98D-07  0.00D+00 EMaxC= 1.00D-01 BMatC= 1.29D-10 BMatP= 1.15D-09
 IDIUse=1 WtCom= 1.00D+00 WtEn= 0.00D+00
 Coeff-Com:  0.315D-04-0.686D-04-0.677D-05 0.827D-03-0.815D-03-0.219D-02
 Coeff-Com:  0.197D-02 0.155D-01 0.159D-01-0.181D+00-0.330D-01 0.118D+01
 Coeff:      0.315D-04-0.686D-04-0.677D-05 0.827D-03-0.815D-03-0.219D-02
 Coeff:      0.197D-02 0.155D-01 0.159D-01-0.181D+00-0.330D-01 0.118D+01
 Gap=     0.255 Goal=   None    Shift=    0.000
 Gap=     0.255 Goal=   None    Shift=    0.000
 RMSDP=4.78D-08 MaxDP=2.41D-06 DE=-7.05D-10 OVMax= 9.27D-06

 Cycle  13  Pass 1  IDiag  1:
 RMSU=  1.88D-08    CP:  9.46D-01  2.19D+00  1.05D+00  1.64D+00  1.81D+00
                    CP:  1.43D+00  1.43D+00  1.58D+00  1.55D+00  1.57D+00
                    CP:  1.63D+00  1.47D+00
 E= -466.827282716129     Delta-E=       -0.000000000196 Rises=F Damp=F
 DIIS: error= 2.00D-07 at cycle  13 NSaved=  13.
 NSaved=13 IEnMin=13 EnMin= -466.827282716129     IErMin=13 ErrMin= 2.00D-07
 ErrMax= 2.00D-07  0.00D+00 EMaxC= 1.00D-01 BMatC= 3.15D-11 BMatP= 1.29D-10
 IDIUse=1 WtCom= 1.00D+00 WtEn= 0.00D+00
 Coeff-Com:  0.389D-04-0.843D-04-0.207D-04 0.761D-03-0.481D-03-0.201D-02
 Coeff-Com: -0.129D-03 0.108D-01 0.235D-01-0.803D-01-0.138D+00 0.374D-01
 Coeff-Com:  0.115D+01
 Coeff:      0.389D-04-0.843D-04-0.207D-04 0.761D-03-0.481D-03-0.201D-02
 Coeff:     -0.129D-03 0.108D-01 0.235D-01-0.803D-01-0.138D+00 0.374D-01
 Coeff:      0.115D+01
 Gap=     0.255 Goal=   None    Shift=    0.000
 Gap=     0.255 Goal=   None    Shift=    0.000
 RMSDP=2.26D-08 MaxDP=1.01D-06 DE=-1.96D-10 OVMax= 5.55D-06

 Cycle  14  Pass 1  IDiag  1:
 RMSU=  8.23D-09    CP:  9.46D-01  2.19D+00  1.05D+00  1.64D+00  1.81D+00
                    CP:  1.43D+00  1.43D+00  1.58D+00  1.55D+00  1.57D+00
                    CP:  1.74D+00  1.72D+00  1.63D+00
 E= -466.827282716190     Delta-E=       -0.000000000062 Rises=F Damp=F
 DIIS: error= 1.22D-07 at cycle  14 NSaved=  14.
 NSaved=14 IEnMin=14 EnMin= -466.827282716190     IErMin=14 ErrMin= 1.22D-07
 ErrMax= 1.22D-07  0.00D+00 EMaxC= 1.00D-01 BMatC= 1.10D-11 BMatP= 3.15D-11
 IDIUse=1 WtCom= 1.00D+00 WtEn= 0.00D+00
 Coeff-Com:  0.893D-06-0.170D-05-0.200D-05-0.370D-04 0.104D-03 0.693D-04
 Coeff-Com: -0.450D-03-0.157D-02 0.163D-02 0.270D-01-0.272D-01-0.310D+00
 Coeff-Com:  0.299D+00 0.101D+01
 Coeff:      0.893D-06-0.170D-05-0.200D-05-0.370D-04 0.104D-03 0.693D-04
 Coeff:     -0.450D-03-0.157D-02 0.163D-02 0.270D-01-0.272D-01-0.310D+00
 Coeff:      0.299D+00 0.101D+01
 Gap=     0.255 Goal=   None    Shift=    0.000
 Gap=     0.255 Goal=   None    Shift=    0.000
 RMSDP=1.22D-08 MaxDP=6.26D-07 DE=-6.17D-11 OVMax= 3.77D-06

 Cycle  15  Pass 1  IDiag  1:
 RMSU=  4.00D-09    CP:  9.46D-01  2.19D+00  1.05D+00  1.64D+00  1.81D+00
                    CP:  1.43D+00  1.43D+00  1.58D+00  1.55D+00  1.57D+00
                    CP:  1.77D+00  1.81D+00  2.07D+00  1.68D+00
 E= -466.827282716210     Delta-E=       -0.000000000020 Rises=F Damp=F
 DIIS: error= 5.47D-08 at cycle  15 NSaved=  15.
 NSaved=15 IEnMin=15 EnMin= -466.827282716210     IErMin=15 ErrMin= 5.47D-08
 ErrMax= 5.47D-08  0.00D+00 EMaxC= 1.00D-01 BMatC= 2.55D-12 BMatP= 1.10D-11
 IDIUse=1 WtCom= 1.00D+00 WtEn= 0.00D+00
 Coeff-Com: -0.127D-04 0.274D-04 0.622D-05-0.259D-03 0.190D-03 0.672D-03
 Coeff-Com: -0.645D-04-0.411D-02-0.742D-02 0.326D-01 0.417D-01-0.736D-01
 Coeff-Com: -0.334D+00 0.184D+00 0.116D+01
 Coeff:     -0.127D-04 0.274D-04 0.622D-05-0.259D-03 0.190D-03 0.672D-03
 Coeff:     -0.645D-04-0.411D-02-0.742D-02 0.326D-01 0.417D-01-0.736D-01
 Coeff:     -0.334D+00 0.184D+00 0.116D+01
 Gap=     0.255 Goal=   None    Shift=    0.000
 Gap=     0.255 Goal=   None    Shift=    0.000
 RMSDP=7.94D-09 MaxDP=3.54D-07 DE=-2.01D-11 OVMax= 2.47D-06

 Error on total polarization charges =  0.01102
 SCF Done:  E(UwB97XD) =  -466.827282716     A.U. after   15 cycles
            NFock= 15  Conv=0.79D-08     -V/T= 2.0058
 <Sx>= 0.0000 <Sy>= 0.0000 <Sz>= 0.0000 <S**2>= 1.0563 S= 0.6430
 <L.S>=  0.00000000000    
 KE= 4.641146328732D+02 PE=-2.477245909488D+03 EE= 8.485857596251D+02
 --------------------------------------------------------------------
 Variational PCM results
 =======================
 <psi(f)|   H    |psi(f)>                     (a.u.) =    -466.835699
 <psi(f)|H+V(f)/2|psi(f)>                     (a.u.) =    -466.836907
 Total free energy in solution:
 - with all non electrostatic terms           (a.u.) =    -466.827283
 --------------------------------------------------------------------
 (Polarized solute)-Solvent               (kcal/mol) =      -0.76
 --------------------------------------------------------------------
 Quantum repulsion energy                 (kcal/mol) =       6.04
 Total non electrostatic                  (kcal/mol) =       6.04
 --------------------------------------------------------------------
 Partition over spheres:
 Sphere  on Atom  Surface  Charge   GEl     GCav    GDR
    1               7.61   0.011   -0.04    0.00    0.00
    2               0.04  -0.000   -0.00    0.00    0.00
    3               7.51  -0.010   -0.04    0.00    0.00
    4               3.79  -0.004   -0.01    0.00    0.00
    5               3.84   0.007   -0.03    0.00    0.00
    6               0.06  -0.000    0.00    0.00    0.00
    7               5.54  -0.008   -0.03    0.00    0.00
    8               3.47  -0.003   -0.00    0.00    0.00
    9               3.22   0.002   -0.00    0.00    0.00
   10               5.94  -0.005   -0.01    0.00    0.00
   11               4.40  -0.004   -0.01    0.00    0.00
   12               7.06   0.012   -0.06    0.00    0.00
   13               7.51  -0.010   -0.03    0.00    0.00
   14               7.57   0.010   -0.04    0.00    0.00
   15               7.51  -0.010   -0.04    0.00    0.00
   16               3.57   0.002    0.00    0.00    0.00
   17               4.60  -0.005   -0.02    0.00    0.00
   18               7.54  -0.008   -0.03    0.00    0.00
   19               4.12   0.007   -0.03    0.00    0.00
   20               5.34  -0.007   -0.03    0.00    0.00
   21               7.09   0.012   -0.07    0.00    0.00
   22               7.51  -0.010   -0.03    0.00    0.00
   23               3.21   0.002   -0.00    0.00    0.00
   24               4.19  -0.003   -0.01    0.00    0.00
   25               6.58  -0.005   -0.00    0.00    0.00
   26               3.68   0.002    0.00    0.00    0.00
   27               7.54  -0.008   -0.03    0.00    0.00
   28               4.60  -0.005   -0.02    0.00    0.00
 Added spheres:    73.45   0.027   -0.17    0.00    0.00
 --------------------------------------------------------------------
 After PCM corrections, the energy is  -466.827282716     a.u.
 --------------------------------------------------------------------
 Annihilation of the first spin contaminant:
 S**2 before annihilation     1.0563,   after     0.5464
 Leave Link  502 at Tue Aug  4 19:55:01 2020, MaxMem=  6442450944 cpu:            6814.3 elap:             286.5
 (Enter /scratch/scicomp/CentOS/7.3.1611/Haswell/software/Gaussian/g16/l601.exe)
 Copying SCF densities to generalized density rwf, IOpCl= 1 IROHF=0.

 **********************************************************************

            Population analysis using the SCF Density.

 **********************************************************************

 Alpha  occ. eigenvalues --  -10.28823 -10.28701 -10.28643 -10.28342 -10.28216
 Alpha  occ. eigenvalues --  -10.28168 -10.27987 -10.27917 -10.27667 -10.27618
 Alpha  occ. eigenvalues --  -10.27561 -10.27543  -0.95460  -0.92526  -0.85908
 Alpha  occ. eigenvalues --   -0.84450  -0.83396  -0.80794  -0.71386  -0.70578
 Alpha  occ. eigenvalues --   -0.69011  -0.67373  -0.60066  -0.59184  -0.58573
 Alpha  occ. eigenvalues --   -0.56022  -0.53513  -0.52486  -0.50837  -0.48886
 Alpha  occ. eigenvalues --   -0.48863  -0.48489  -0.48131  -0.47233  -0.45721
 Alpha  occ. eigenvalues --   -0.44545  -0.41230  -0.40716  -0.39876  -0.38715
 Alpha  occ. eigenvalues --   -0.37556  -0.37223  -0.34564  -0.25106
 Alpha virt. eigenvalues --    0.00407   0.10932   0.11512   0.13275   0.14020
 Alpha virt. eigenvalues --    0.14778   0.15695   0.16359   0.17071   0.17320
 Alpha virt. eigenvalues --    0.17968   0.18205   0.19437   0.20978   0.21109
 Alpha virt. eigenvalues --    0.22292   0.22875   0.23362   0.24168   0.25302
 Alpha virt. eigenvalues --    0.26147   0.26289   0.27043   0.27295   0.27519
 Alpha virt. eigenvalues --    0.29095   0.29441   0.30735   0.31242   0.32141
 Alpha virt. eigenvalues --    0.32332   0.32770   0.32810   0.34497   0.34797
 Alpha virt. eigenvalues --    0.35055   0.36229   0.36826   0.37437   0.37860
 Alpha virt. eigenvalues --    0.38784   0.38984   0.41705   0.41887   0.42490
 Alpha virt. eigenvalues --    0.44233   0.44422   0.46169   0.46390   0.46883
 Alpha virt. eigenvalues --    0.47386   0.47889   0.48259   0.48864   0.49202
 Alpha virt. eigenvalues --    0.49608   0.49961   0.50175   0.50601   0.51386
 Alpha virt. eigenvalues --    0.51768   0.51916   0.52577   0.53160   0.53664
 Alpha virt. eigenvalues --    0.53766   0.54735   0.54896   0.55535   0.56121
 Alpha virt. eigenvalues --    0.56981   0.57642   0.58076   0.59008   0.59057
 Alpha virt. eigenvalues --    0.59459   0.62058   0.62191   0.64980   0.65815
 Alpha virt. eigenvalues --    0.67260   0.67397   0.68169   0.69262   0.70243
 Alpha virt. eigenvalues --    0.71304   0.72005   0.75632   0.76171   0.76308
 Alpha virt. eigenvalues --    0.78748   0.79853   0.80684   0.81646   0.83356
 Alpha virt. eigenvalues --    0.83762   0.84668   0.87472   0.88151   0.89792
 Alpha virt. eigenvalues --    0.90999   0.91583   0.92674   0.93795   0.95320
 Alpha virt. eigenvalues --    0.97072   0.98074   0.99182   0.99486   1.00114
 Alpha virt. eigenvalues --    1.02231   1.02459   1.04581   1.05345   1.05910
 Alpha virt. eigenvalues --    1.07069   1.09230   1.10542   1.11053   1.11245
 Alpha virt. eigenvalues --    1.12223   1.15024   1.16229   1.17365   1.17906
 Alpha virt. eigenvalues --    1.18803   1.19073   1.20116   1.20479   1.20969
 Alpha virt. eigenvalues --    1.22555   1.24683   1.25599   1.26494   1.27147
 Alpha virt. eigenvalues --    1.27745   1.28238   1.29197   1.29527   1.30242
 Alpha virt. eigenvalues --    1.30444   1.31730   1.33838   1.34330   1.35216
 Alpha virt. eigenvalues --    1.35320   1.37112   1.37598   1.38506   1.38879
 Alpha virt. eigenvalues --    1.39459   1.39809   1.40370   1.41637   1.42694
 Alpha virt. eigenvalues --    1.43523   1.43677   1.44657   1.45687   1.46299
 Alpha virt. eigenvalues --    1.47140   1.47970   1.48764   1.50874   1.51687
 Alpha virt. eigenvalues --    1.52992   1.54355   1.54818   1.57079   1.58483
 Alpha virt. eigenvalues --    1.58826   1.60681   1.62476   1.63308   1.64318
 Alpha virt. eigenvalues --    1.68181   1.69012   1.69493   1.69650   1.70402
 Alpha virt. eigenvalues --    1.73822   1.74629   1.77435   1.78853   1.78990
 Alpha virt. eigenvalues --    1.81106   1.82123   1.83532   1.84785   1.88863
 Alpha virt. eigenvalues --    1.89311   1.92157   1.92395   1.94645   1.95296
 Alpha virt. eigenvalues --    1.96204   1.99637   2.01830   2.05963   2.07413
 Alpha virt. eigenvalues --    2.07993   2.09511   2.10500   2.12783   2.13458
 Alpha virt. eigenvalues --    2.13808   2.16036   2.16791   2.18359   2.19151
 Alpha virt. eigenvalues --    2.21071   2.21293   2.21982   2.23955   2.24009
 Alpha virt. eigenvalues --    2.27881   2.28551   2.30677   2.32012   2.35591
 Alpha virt. eigenvalues --    2.36121   2.37046   2.38312   2.41227   2.41963
 Alpha virt. eigenvalues --    2.45912   2.46111   2.47445   2.50078   2.51434
 Alpha virt. eigenvalues --    2.51461   2.53367   2.56222   2.56900   2.57757
 Alpha virt. eigenvalues --    2.59046   2.61447   2.62432   2.63066   2.63479
 Alpha virt. eigenvalues --    2.65485   2.65995   2.67804   2.67888   2.68440
 Alpha virt. eigenvalues --    2.68935   2.70826   2.72875   2.73115   2.73520
 Alpha virt. eigenvalues --    2.74812   2.75932   2.76377   2.78258   2.80142
 Alpha virt. eigenvalues --    2.80423   2.82229   2.82458   2.82961   2.84473
 Alpha virt. eigenvalues --    2.84752   2.85195   2.86997   2.87360   2.88202
 Alpha virt. eigenvalues --    2.88519   2.89601   2.90007   2.90655   2.91616
 Alpha virt. eigenvalues --    2.93418   2.94494   2.95505   2.96201   2.97966
 Alpha virt. eigenvalues --    2.98529   3.02147   3.02322   3.02837   3.04745
 Alpha virt. eigenvalues --    3.06685   3.06882   3.07168   3.08443   3.09186
 Alpha virt. eigenvalues --    3.10737   3.11320   3.11956   3.12765   3.13494
 Alpha virt. eigenvalues --    3.13757   3.14667   3.15877   3.16321   3.16750
 Alpha virt. eigenvalues --    3.16873   3.17468   3.18374   3.19387   3.20454
 Alpha virt. eigenvalues --    3.21106   3.21212   3.22265   3.23264   3.24447
 Alpha virt. eigenvalues --    3.25291   3.25662   3.25823   3.26338   3.26691
 Alpha virt. eigenvalues --    3.27363   3.29655   3.30531   3.31467   3.32029
 Alpha virt. eigenvalues --    3.32628   3.33129   3.33472   3.35219   3.36017
 Alpha virt. eigenvalues --    3.37387   3.37791   3.38422   3.39506   3.39719
 Alpha virt. eigenvalues --    3.41201   3.41321   3.42234   3.43814   3.44093
 Alpha virt. eigenvalues --    3.44655   3.46177   3.47141   3.47349   3.49237
 Alpha virt. eigenvalues --    3.49748   3.51112   3.51514   3.51818   3.53124
 Alpha virt. eigenvalues --    3.53494   3.54111   3.55277   3.57963   3.58105
 Alpha virt. eigenvalues --    3.59148   3.59664   3.59800   3.61666   3.63099
 Alpha virt. eigenvalues --    3.63181   3.64505   3.64721   3.65813   3.68483
 Alpha virt. eigenvalues --    3.69353   3.69880   3.72199   3.72779   3.74277
 Alpha virt. eigenvalues --    3.75663   3.79363   3.80181   3.80278   3.81634
 Alpha virt. eigenvalues --    3.84286   3.84462   3.84866   3.85363   3.86943
 Alpha virt. eigenvalues --    3.88874   3.91792   3.92225   3.94848   3.95285
 Alpha virt. eigenvalues --    3.96202   3.98047   3.99812   4.02375   4.04505
 Alpha virt. eigenvalues --    4.05462   4.07448   4.08295   4.09184   4.09488
 Alpha virt. eigenvalues --    4.12779   4.13698   4.15271   4.16614   4.18494
 Alpha virt. eigenvalues --    4.19793   4.21742   4.24255   4.24622   4.26105
 Alpha virt. eigenvalues --    4.27066   4.28668   4.29049   4.29149   4.30746
 Alpha virt. eigenvalues --    4.34293   4.35870   4.41180   4.41681   4.42444
 Alpha virt. eigenvalues --    4.43263   4.44211   4.45762   4.47082   4.51222
 Alpha virt. eigenvalues --    4.53343   4.55237   4.56856   4.58432   4.59418
 Alpha virt. eigenvalues --    4.61834   4.63261   4.63866   4.66305   4.68977
 Alpha virt. eigenvalues --    4.71662   4.72427   4.75403   4.76410   4.79073
 Alpha virt. eigenvalues --    4.83835   4.85322   4.88553   4.90041   4.91336
 Alpha virt. eigenvalues --    4.92626   4.92809   4.95964   4.99240   5.01967
 Alpha virt. eigenvalues --    5.07776   5.09106   5.10738   5.14350   5.15132
 Alpha virt. eigenvalues --    5.20953   5.25297   5.26676   5.28294   5.32381
 Alpha virt. eigenvalues --    5.34604   5.35970   5.39381   5.39856   5.43562
 Alpha virt. eigenvalues --    5.47711   5.48071   5.53918   5.56130   5.58977
 Alpha virt. eigenvalues --    5.65026   5.73083   5.75167   5.81305   5.82174
 Alpha virt. eigenvalues --    7.94560   7.95485   8.03537   8.04874   8.08877
 Alpha virt. eigenvalues --    8.11182   8.12910   8.16440   8.19192   8.19888
 Alpha virt. eigenvalues --    8.32768   8.38008  34.75165  34.75849  34.82586
 Alpha virt. eigenvalues --   34.82798  34.85761  34.90413  34.99269  35.00508
 Alpha virt. eigenvalues --   35.03026  35.03156  35.15628  35.25852
  Beta  occ. eigenvalues --  -10.28824 -10.28700 -10.28644 -10.28342 -10.28216
  Beta  occ. eigenvalues --  -10.28168 -10.27987 -10.27917 -10.27668 -10.27618
  Beta  occ. eigenvalues --  -10.27560 -10.27544  -0.95460  -0.92526  -0.85908
  Beta  occ. eigenvalues --   -0.84451  -0.83396  -0.80794  -0.71386  -0.70578
  Beta  occ. eigenvalues --   -0.69010  -0.67373  -0.60066  -0.59184  -0.58573
  Beta  occ. eigenvalues --   -0.56022  -0.53513  -0.52486  -0.50837  -0.48886
  Beta  occ. eigenvalues --   -0.48863  -0.48489  -0.48131  -0.47232  -0.45721
  Beta  occ. eigenvalues --   -0.44545  -0.41230  -0.40716  -0.39876  -0.38715
  Beta  occ. eigenvalues --   -0.37556  -0.37223  -0.34563  -0.25107
  Beta virt. eigenvalues --    0.00407   0.10931   0.11512   0.13274   0.14018
  Beta virt. eigenvalues --    0.14779   0.15696   0.16359   0.17071   0.17320
  Beta virt. eigenvalues --    0.17968   0.18204   0.19437   0.20979   0.21109
  Beta virt. eigenvalues --    0.22293   0.22874   0.23362   0.24168   0.25302
  Beta virt. eigenvalues --    0.26147   0.26289   0.27043   0.27295   0.27519
  Beta virt. eigenvalues --    0.29095   0.29440   0.30735   0.31243   0.32140
  Beta virt. eigenvalues --    0.32333   0.32768   0.32811   0.34498   0.34797
  Beta virt. eigenvalues --    0.35055   0.36230   0.36826   0.37436   0.37860
  Beta virt. eigenvalues --    0.38784   0.38984   0.41704   0.41888   0.42490
  Beta virt. eigenvalues --    0.44233   0.44422   0.46169   0.46390   0.46882
  Beta virt. eigenvalues --    0.47386   0.47888   0.48259   0.48864   0.49203
  Beta virt. eigenvalues --    0.49607   0.49961   0.50175   0.50601   0.51386
  Beta virt. eigenvalues --    0.51768   0.51916   0.52577   0.53160   0.53663
  Beta virt. eigenvalues --    0.53767   0.54736   0.54896   0.55535   0.56121
  Beta virt. eigenvalues --    0.56981   0.57642   0.58076   0.59008   0.59056
  Beta virt. eigenvalues --    0.59459   0.62059   0.62190   0.64980   0.65815
  Beta virt. eigenvalues --    0.67259   0.67397   0.68169   0.69262   0.70243
  Beta virt. eigenvalues --    0.71304   0.72005   0.75632   0.76171   0.76308
  Beta virt. eigenvalues --    0.78749   0.79853   0.80684   0.81646   0.83356
  Beta virt. eigenvalues --    0.83762   0.84669   0.87472   0.88150   0.89792
  Beta virt. eigenvalues --    0.91000   0.91582   0.92674   0.93795   0.95321
  Beta virt. eigenvalues --    0.97072   0.98073   0.99183   0.99486   1.00114
  Beta virt. eigenvalues --    1.02231   1.02460   1.04581   1.05345   1.05910
  Beta virt. eigenvalues --    1.07069   1.09229   1.10542   1.11053   1.11245
  Beta virt. eigenvalues --    1.12223   1.15024   1.16229   1.17365   1.17906
  Beta virt. eigenvalues --    1.18803   1.19074   1.20116   1.20479   1.20969
  Beta virt. eigenvalues --    1.22555   1.24683   1.25599   1.26494   1.27148
  Beta virt. eigenvalues --    1.27745   1.28238   1.29196   1.29528   1.30242
  Beta virt. eigenvalues --    1.30444   1.31730   1.33838   1.34329   1.35215
  Beta virt. eigenvalues --    1.35320   1.37112   1.37598   1.38506   1.38879
  Beta virt. eigenvalues --    1.39459   1.39809   1.40370   1.41637   1.42694
  Beta virt. eigenvalues --    1.43523   1.43677   1.44657   1.45687   1.46299
  Beta virt. eigenvalues --    1.47140   1.47970   1.48764   1.50874   1.51687
  Beta virt. eigenvalues --    1.52992   1.54355   1.54818   1.57079   1.58483
  Beta virt. eigenvalues --    1.58826   1.60681   1.62476   1.63308   1.64318
  Beta virt. eigenvalues --    1.68181   1.69012   1.69492   1.69650   1.70402
  Beta virt. eigenvalues --    1.73822   1.74629   1.77435   1.78853   1.78990
  Beta virt. eigenvalues --    1.81106   1.82123   1.83532   1.84786   1.88862
  Beta virt. eigenvalues --    1.89311   1.92157   1.92395   1.94645   1.95296
  Beta virt. eigenvalues --    1.96204   1.99636   2.01830   2.05963   2.07413
  Beta virt. eigenvalues --    2.07993   2.09511   2.10500   2.12783   2.13458
  Beta virt. eigenvalues --    2.13808   2.16036   2.16791   2.18359   2.19151
  Beta virt. eigenvalues --    2.21071   2.21293   2.21982   2.23955   2.24009
  Beta virt. eigenvalues --    2.27881   2.28551   2.30677   2.32012   2.35591
  Beta virt. eigenvalues --    2.36121   2.37046   2.38312   2.41227   2.41963
  Beta virt. eigenvalues --    2.45912   2.46111   2.47445   2.50078   2.51433
  Beta virt. eigenvalues --    2.51461   2.53367   2.56223   2.56900   2.57757
  Beta virt. eigenvalues --    2.59046   2.61447   2.62432   2.63066   2.63479
  Beta virt. eigenvalues --    2.65485   2.65995   2.67804   2.67888   2.68440
  Beta virt. eigenvalues --    2.68935   2.70826   2.72875   2.73115   2.73520
  Beta virt. eigenvalues --    2.74812   2.75932   2.76377   2.78258   2.80142
  Beta virt. eigenvalues --    2.80423   2.82230   2.82458   2.82961   2.84473
  Beta virt. eigenvalues --    2.84752   2.85196   2.86997   2.87360   2.88202
  Beta virt. eigenvalues --    2.88519   2.89601   2.90007   2.90655   2.91616
  Beta virt. eigenvalues --    2.93418   2.94494   2.95505   2.96201   2.97966
  Beta virt. eigenvalues --    2.98529   3.02147   3.02322   3.02837   3.04745
  Beta virt. eigenvalues --    3.06685   3.06882   3.07168   3.08443   3.09186
  Beta virt. eigenvalues --    3.10737   3.11320   3.11956   3.12765   3.13494
  Beta virt. eigenvalues --    3.13757   3.14667   3.15877   3.16321   3.16750
  Beta virt. eigenvalues --    3.16873   3.17468   3.18374   3.19387   3.20454
  Beta virt. eigenvalues --    3.21106   3.21212   3.22265   3.23264   3.24446
  Beta virt. eigenvalues --    3.25291   3.25662   3.25823   3.26338   3.26691
  Beta virt. eigenvalues --    3.27363   3.29655   3.30531   3.31467   3.32029
  Beta virt. eigenvalues --    3.32628   3.33129   3.33472   3.35219   3.36017
  Beta virt. eigenvalues --    3.37387   3.37791   3.38422   3.39506   3.39719
  Beta virt. eigenvalues --    3.41201   3.41321   3.42234   3.43814   3.44093
  Beta virt. eigenvalues --    3.44655   3.46177   3.47140   3.47349   3.49237
  Beta virt. eigenvalues --    3.49748   3.51112   3.51514   3.51818   3.53124
  Beta virt. eigenvalues --    3.53494   3.54111   3.55277   3.57963   3.58104
  Beta virt. eigenvalues --    3.59148   3.59664   3.59800   3.61666   3.63100
  Beta virt. eigenvalues --    3.63181   3.64505   3.64721   3.65813   3.68483
  Beta virt. eigenvalues --    3.69353   3.69880   3.72199   3.72779   3.74277
  Beta virt. eigenvalues --    3.75663   3.79363   3.80181   3.80278   3.81634
  Beta virt. eigenvalues --    3.84285   3.84463   3.84866   3.85363   3.86943
  Beta virt. eigenvalues --    3.88874   3.91792   3.92225   3.94848   3.95284
  Beta virt. eigenvalues --    3.96202   3.98047   3.99812   4.02376   4.04505
  Beta virt. eigenvalues --    4.05462   4.07448   4.08295   4.09184   4.09488
  Beta virt. eigenvalues --    4.12779   4.13698   4.15271   4.16614   4.18494
  Beta virt. eigenvalues --    4.19793   4.21741   4.24255   4.24622   4.26105
  Beta virt. eigenvalues --    4.27066   4.28668   4.29049   4.29149   4.30746
  Beta virt. eigenvalues --    4.34293   4.35870   4.41180   4.41681   4.42445
  Beta virt. eigenvalues --    4.43263   4.44211   4.45762   4.47082   4.51222
  Beta virt. eigenvalues --    4.53343   4.55237   4.56856   4.58432   4.59418
  Beta virt. eigenvalues --    4.61834   4.63261   4.63866   4.66305   4.68977
  Beta virt. eigenvalues --    4.71662   4.72427   4.75403   4.76410   4.79073
  Beta virt. eigenvalues --    4.83835   4.85322   4.88553   4.90041   4.91336
  Beta virt. eigenvalues --    4.92626   4.92809   4.95964   4.99240   5.01967
  Beta virt. eigenvalues --    5.07776   5.09106   5.10738   5.14350   5.15132
  Beta virt. eigenvalues --    5.20953   5.25297   5.26676   5.28295   5.32381
  Beta virt. eigenvalues --    5.34604   5.35970   5.39381   5.39856   5.43562
  Beta virt. eigenvalues --    5.47711   5.48071   5.53918   5.56130   5.58977
  Beta virt. eigenvalues --    5.65026   5.73083   5.75167   5.81304   5.82175
  Beta virt. eigenvalues --    7.94559   7.95486   8.03537   8.04874   8.08877
  Beta virt. eigenvalues --    8.11182   8.12910   8.16440   8.19192   8.19888
  Beta virt. eigenvalues --    8.32768   8.38008  34.75165  34.75849  34.82586
  Beta virt. eigenvalues --   34.82798  34.85761  34.90413  34.99269  35.00508
  Beta virt. eigenvalues --   35.03026  35.03156  35.15628  35.25852
          Condensed to atoms (all electrons):
               1          2          3          4          5          6
     1  C    5.264389   0.030987   0.429566  -0.002936   0.001556  -0.014428
     2  C    0.030987   5.366929  -0.001640   0.429100  -0.109309   0.227600
     3  H    0.429566  -0.001640   0.484566   0.000036   0.000004   0.000182
     4  H   -0.002936   0.429100   0.000036   0.526721  -0.002414  -0.011188
     5  C    0.001556  -0.109309   0.000004  -0.002414   5.360005   0.257423
     6  C   -0.014428   0.227600   0.000182  -0.011188   0.257423   5.367541
     7  H   -0.000039   0.000184   0.000003   0.000328   0.424002  -0.029029
     8  H   -0.001062  -0.011273  -0.000074   0.001846  -0.050539   0.429169
     9  C    0.001977  -0.068685  -0.000004  -0.011174  -0.048187   0.236936
    10  H   -0.000040   0.007653  -0.000001  -0.000200  -0.002241  -0.049091
    11  H   -0.000293  -0.005944   0.000003   0.001055   0.011481  -0.048663
    12  C   -0.000117   0.016210  -0.000001   0.002625   0.430614  -0.074626
    13  H    0.000000  -0.000298   0.000000  -0.000046  -0.025446   0.003540
    14  C    0.000043  -0.014425  -0.000000  -0.001110  -0.055300   0.031074
    15  H   -0.000000   0.000180  -0.000000  -0.000075   0.004063  -0.001642
    16  C   -0.000278   0.026230   0.000000   0.001949  -0.005092  -0.076485
    17  H    0.000044   0.003870  -0.000000  -0.003665   0.004822  -0.014438
    18  H    0.000001  -0.000549   0.000000   0.000400  -0.001408   0.012352
    19  C   -0.055141   0.257501   0.004064  -0.050508   0.013661  -0.109679
    20  H    0.003601  -0.029163  -0.000123  -0.005133  -0.000593   0.000162
    21  C    0.448304  -0.074500  -0.033004   0.005909  -0.001367   0.016251
    22  H   -0.026304   0.003534  -0.004570  -0.000128   0.000046  -0.000298
    23  C   -0.099912   0.237617   0.005056  -0.021892   0.015855  -0.068828
    24  H    0.013078  -0.048755  -0.000037  -0.003229   0.003921  -0.006024
    25  H   -0.002522  -0.048695  -0.000169  -0.005397   0.000072   0.007633
    26  C    0.279329  -0.076663  -0.027220   0.009104  -0.011109   0.026282
    27  H   -0.030909   0.012337  -0.003775  -0.000148   0.000106  -0.000551
    28  H   -0.042163  -0.014360  -0.000015  -0.000177  -0.000632   0.003863
               7          8          9         10         11         12
     1  C   -0.000039  -0.001062   0.001977  -0.000040  -0.000293  -0.000117
     2  C    0.000184  -0.011273  -0.068685   0.007653  -0.005944   0.016210
     3  H    0.000003  -0.000074  -0.000004  -0.000001   0.000003  -0.000001
     4  H    0.000328   0.001846  -0.011174  -0.000200   0.001055   0.002625
     5  C    0.424002  -0.050539  -0.048187  -0.002241   0.011481   0.430614
     6  C   -0.029029   0.429169   0.236936  -0.049091  -0.048663  -0.074626
     7  H    0.470494  -0.005136   0.002612   0.000218  -0.000035  -0.026642
     8  H   -0.005136   0.527063  -0.021976  -0.005410  -0.003229   0.005913
     9  C    0.002612  -0.021976   5.059878   0.420475   0.452357   0.033753
    10  H    0.000218  -0.005410   0.420475   0.545021  -0.013623   0.002050
    11  H   -0.000035  -0.003229   0.452357  -0.013623   0.518301  -0.005291
    12  C   -0.026642   0.005913   0.033753   0.002050  -0.005291   4.994971
    13  H   -0.004116  -0.000129   0.000470  -0.000102   0.000027   0.416587
    14  C    0.003591  -0.002940  -0.099792  -0.002467   0.013053   0.448379
    15  H   -0.000122   0.000036   0.005055  -0.000169  -0.000036  -0.033021
    16  C   -0.001082   0.009116   0.322318  -0.025936  -0.055798  -0.047309
    17  H   -0.000034  -0.000178  -0.025737   0.004511  -0.003361  -0.003424
    18  H    0.000057  -0.000148  -0.042214  -0.005671  -0.003027   0.003249
    19  C   -0.000597  -0.002391   0.015933   0.000066   0.003812  -0.001368
    20  H    0.000003   0.000328   0.002547   0.000276  -0.003843  -0.000006
    21  C   -0.000004   0.002595  -0.004370   0.000007   0.000102   0.000142
    22  H   -0.000001  -0.000046  -0.000061  -0.000002  -0.000008   0.000000
    23  C    0.002526  -0.011182   0.009378  -0.000218  -0.000009  -0.004395
    24  H   -0.003846   0.001055  -0.000005  -0.000016  -0.000004   0.000092
    25  H    0.000276  -0.000199  -0.000218   0.000016  -0.000016   0.000008
    26  C   -0.000731   0.001937  -0.002282   0.000068   0.000038   0.001028
    27  H   -0.000026   0.000400   0.000036  -0.000002  -0.000003  -0.000002
    28  H    0.001956  -0.003668   0.000877   0.000013   0.000010  -0.000063
              13         14         15         16         17         18
     1  C    0.000000   0.000043  -0.000000  -0.000278   0.000044   0.000001
     2  C   -0.000298  -0.014425   0.000180   0.026230   0.003870  -0.000549
     3  H    0.000000  -0.000000  -0.000000   0.000000  -0.000000   0.000000
     4  H   -0.000046  -0.001110  -0.000075   0.001949  -0.003665   0.000400
     5  C   -0.025446  -0.055300   0.004063  -0.005092   0.004822  -0.001408
     6  C    0.003540   0.031074  -0.001642  -0.076485  -0.014438   0.012352
     7  H   -0.004116   0.003591  -0.000122  -0.001082  -0.000034   0.000057
     8  H   -0.000129  -0.002940   0.000036   0.009116  -0.000178  -0.000148
     9  C    0.000470  -0.099792   0.005055   0.322318  -0.025737  -0.042214
    10  H   -0.000102  -0.002467  -0.000169  -0.025936   0.004511  -0.005671
    11  H    0.000027   0.013053  -0.000036  -0.055798  -0.003361  -0.003027
    12  C    0.416587   0.448379  -0.033021  -0.047309  -0.003424   0.003249
    13  H    0.492584  -0.026303  -0.004571   0.003539  -0.000302  -0.000130
    14  C   -0.026303   5.264348   0.429587   0.279194  -0.042110  -0.030934
    15  H   -0.004571   0.429587   0.484538  -0.027220  -0.000016  -0.003777
    16  C    0.003539   0.279194  -0.027220   4.973657   0.405440   0.422276
    17  H   -0.000302  -0.042110  -0.000016   0.405440   0.573613  -0.022257
    18  H   -0.000130  -0.030934  -0.003777   0.422276  -0.022257   0.540832
    19  C    0.000046   0.001558   0.000004  -0.011121  -0.000636   0.000107
    20  H   -0.000001  -0.000037   0.000003  -0.000737   0.001959  -0.000026
    21  C    0.000000  -0.000116  -0.000001   0.001023  -0.000064  -0.000002
    22  H    0.000000   0.000000   0.000000   0.000001  -0.000005  -0.000001
    23  C   -0.000061   0.001975  -0.000004  -0.002279   0.000878   0.000036
    24  H   -0.000008  -0.000294   0.000003   0.000037   0.000010  -0.000003
    25  H   -0.000002  -0.000039  -0.000001   0.000068   0.000013  -0.000002
    26  C    0.000001  -0.000278   0.000000   0.000494  -0.000054  -0.000001
    27  H   -0.000001   0.000001   0.000000  -0.000001   0.000001  -0.000000
    28  H   -0.000005   0.000044  -0.000000  -0.000054  -0.000001   0.000001
              19         20         21         22         23         24
     1  C   -0.055141   0.003601   0.448304  -0.026304  -0.099912   0.013078
     2  C    0.257501  -0.029163  -0.074500   0.003534   0.237617  -0.048755
     3  H    0.004064  -0.000123  -0.033004  -0.004570   0.005056  -0.000037
     4  H   -0.050508  -0.005133   0.005909  -0.000128  -0.021892  -0.003229
     5  C    0.013661  -0.000593  -0.001367   0.000046   0.015855   0.003921
     6  C   -0.109679   0.000162   0.016251  -0.000298  -0.068828  -0.006024
     7  H   -0.000597   0.000003  -0.000004  -0.000001   0.002526  -0.003846
     8  H   -0.002391   0.000328   0.002595  -0.000046  -0.011182   0.001055
     9  C    0.015933   0.002547  -0.004370  -0.000061   0.009378  -0.000005
    10  H    0.000066   0.000276   0.000007  -0.000002  -0.000218  -0.000016
    11  H    0.003812  -0.003843   0.000102  -0.000008  -0.000009  -0.000004
    12  C   -0.001368  -0.000006   0.000142   0.000000  -0.004395   0.000092
    13  H    0.000046  -0.000001   0.000000   0.000000  -0.000061  -0.000008
    14  C    0.001558  -0.000037  -0.000116   0.000000   0.001975  -0.000294
    15  H    0.000004   0.000003  -0.000001   0.000000  -0.000004   0.000003
    16  C   -0.011121  -0.000737   0.001023   0.000001  -0.002279   0.000037
    17  H   -0.000636   0.001959  -0.000064  -0.000005   0.000878   0.000010
    18  H    0.000107  -0.000026  -0.000002  -0.000001   0.000036  -0.000003
    19  C    5.359988   0.423982   0.430640  -0.025421  -0.048385   0.011516
    20  H    0.423982   0.470706  -0.026544  -0.004126   0.002609  -0.000035
    21  C    0.430640  -0.026544   4.994925   0.416541   0.033759  -0.005308
    22  H   -0.025421  -0.004126   0.416541   0.492583   0.000472   0.000027
    23  C   -0.048385   0.002609   0.033759   0.000472   5.058954   0.452386
    24  H    0.011516  -0.000035  -0.005308   0.000027   0.452386   0.518763
    25  H   -0.002399   0.000215   0.002097  -0.000102   0.420103  -0.013708
    26  C   -0.005102  -0.001079  -0.047259   0.003537   0.322672  -0.055871
    27  H   -0.001398   0.000057   0.003230  -0.000130  -0.042169  -0.003018
    28  H    0.004783  -0.000034  -0.003407  -0.000302  -0.025773  -0.003376
              25         26         27         28
     1  C   -0.002522   0.279329  -0.030909  -0.042163
     2  C   -0.048695  -0.076663   0.012337  -0.014360
     3  H   -0.000169  -0.027220  -0.003775  -0.000015
     4  H   -0.005397   0.009104  -0.000148  -0.000177
     5  C    0.000072  -0.011109   0.000106  -0.000632
     6  C    0.007633   0.026282  -0.000551   0.003863
     7  H    0.000276  -0.000731  -0.000026   0.001956
     8  H   -0.000199   0.001937   0.000400  -0.003668
     9  C   -0.000218  -0.002282   0.000036   0.000877
    10  H    0.000016   0.000068  -0.000002   0.000013
    11  H   -0.000016   0.000038  -0.000003   0.000010
    12  C    0.000008   0.001028  -0.000002  -0.000063
    13  H   -0.000002   0.000001  -0.000001  -0.000005
    14  C   -0.000039  -0.000278   0.000001   0.000044
    15  H   -0.000001   0.000000   0.000000  -0.000000
    16  C    0.000068   0.000494  -0.000001  -0.000054
    17  H    0.000013  -0.000054   0.000001  -0.000001
    18  H   -0.000002  -0.000001  -0.000000   0.000001
    19  C   -0.002399  -0.005102  -0.001398   0.004783
    20  H    0.000215  -0.001079   0.000057  -0.000034
    21  C    0.002097  -0.047259   0.003230  -0.003407
    22  H   -0.000102   0.003537  -0.000130  -0.000302
    23  C    0.420103   0.322672  -0.042169  -0.025773
    24  H   -0.013708  -0.055871  -0.003018  -0.003376
    25  H    0.545008  -0.025686  -0.005685   0.004508
    26  C   -0.025686   4.973235   0.422212   0.405513
    27  H   -0.005685   0.422212   0.540870  -0.022261
    28  H    0.004508   0.405513  -0.022261   0.573575
          Atomic-Atomic Spin Densities.
               1          2          3          4          5          6
     1  C   -0.706099  -0.006780   0.001184  -0.000079   0.000409  -0.003432
     2  C   -0.006780   0.080552  -0.000188  -0.001682  -0.038232  -0.000037
     3  H    0.001184  -0.000188   0.025124   0.000001   0.000004   0.000040
     4  H   -0.000079  -0.001682   0.000001  -0.010288   0.001245   0.007493
     5  C    0.000409  -0.038232   0.000004   0.001245   0.765893  -0.039573
     6  C   -0.003432  -0.000037   0.000040   0.007493  -0.039573  -0.080881
     7  H    0.000001   0.000917   0.000000  -0.000008  -0.004186   0.001106
     8  H    0.001191  -0.007510   0.000007   0.000000  -0.000445   0.001684
     9  C   -0.000118  -0.011298   0.000001  -0.001016  -0.005451   0.010181
    10  H   -0.000002   0.000408  -0.000000  -0.000026  -0.001675  -0.000028
    11  H    0.000178   0.000564  -0.000000   0.000048   0.000074   0.000743
    12  C    0.000046   0.006031  -0.000000  -0.000918  -0.006719   0.007294
    13  H    0.000000   0.000131  -0.000000  -0.000015  -0.001443   0.000381
    14  C   -0.000000   0.003434  -0.000000  -0.001191  -0.060072   0.006819
    15  H    0.000000  -0.000040  -0.000000  -0.000007  -0.000416   0.000188
    16  C    0.000019  -0.000268   0.000000   0.000989   0.006543  -0.003614
    17  H   -0.000004  -0.002001   0.000000   0.000182   0.003766  -0.003558
    18  H    0.000000   0.000156  -0.000000  -0.000030  -0.000117   0.001060
    19  C    0.060011   0.039889   0.000416   0.000431   0.000032   0.038288
    20  H    0.000317  -0.001103  -0.000004  -0.000166  -0.000058  -0.000912
    21  C   -0.008419  -0.007427  -0.000563   0.000875   0.000346  -0.006051
    22  H    0.000885  -0.000387  -0.000254   0.000022   0.000006  -0.000132
    23  C   -0.002796  -0.009999   0.000296  -0.004298  -0.003798   0.011341
    24  H   -0.000150  -0.000751  -0.000005   0.000145   0.000227  -0.000572
    25  H    0.000376   0.000029   0.000006   0.000110   0.000199  -0.000407
    26  C    0.033042   0.003554  -0.000968  -0.000084  -0.000096   0.000261
    27  H    0.007853  -0.001062  -0.000214   0.000047   0.000041  -0.000155
    28  H    0.021293   0.003576   0.000102  -0.000194  -0.000035   0.001993
               7          8          9         10         11         12
     1  C    0.000001   0.001191  -0.000118  -0.000002   0.000178   0.000046
     2  C    0.000917  -0.007510  -0.011298   0.000408   0.000564   0.006031
     3  H    0.000000   0.000007   0.000001  -0.000000  -0.000000  -0.000000
     4  H   -0.000008   0.000000  -0.001016  -0.000026   0.000048  -0.000918
     5  C   -0.004186  -0.000445  -0.005451  -0.001675   0.000074  -0.006719
     6  C    0.001106   0.001684   0.010181  -0.000028   0.000743   0.007294
     7  H   -0.025304   0.000164  -0.000485  -0.000024   0.000008   0.002278
     8  H    0.000164   0.010307   0.004302  -0.000111  -0.000144  -0.000876
     9  C   -0.000485   0.004302   0.004267  -0.000469  -0.001215  -0.002316
    10  H   -0.000024  -0.000111  -0.000469   0.000708   0.000311   0.001190
    11  H    0.000008  -0.000144  -0.001215   0.000311  -0.000024  -0.000097
    12  C    0.002278  -0.000876  -0.002316   0.001190  -0.000097  -0.246690
    13  H    0.000326  -0.000022  -0.000123   0.000017  -0.000000   0.001724
    14  C   -0.000317   0.000079   0.002766  -0.000380   0.000149   0.008477
    15  H    0.000004  -0.000001  -0.000296  -0.000006   0.000005   0.000563
    16  C    0.000048   0.000084   0.007465   0.000387  -0.000030   0.003961
    17  H   -0.000036   0.000195  -0.001578   0.000231  -0.000462  -0.000189
    18  H    0.000006  -0.000047   0.002383  -0.000499   0.000257   0.000576
    19  C    0.000058  -0.001232   0.003733  -0.000197  -0.000195  -0.000353
    20  H   -0.000000   0.000008   0.000242   0.000018  -0.000192   0.000025
    21  C   -0.000025   0.000915  -0.000804  -0.000000   0.000035  -0.000000
    22  H   -0.000000   0.000015  -0.000023   0.000000   0.000007  -0.000000
    23  C   -0.000242   0.001016  -0.000010  -0.000011  -0.000133   0.000814
    24  H    0.000191  -0.000047   0.000134   0.000000  -0.000000  -0.000038
    25  H   -0.000018   0.000026   0.000011  -0.000000  -0.000000   0.000000
    26  C    0.000167  -0.000989  -0.000015   0.000000  -0.000021  -0.000158
    27  H    0.000005   0.000030   0.000009   0.000000   0.000001   0.000004
    28  H   -0.000105  -0.000180  -0.000082  -0.000004  -0.000026  -0.000080
              13         14         15         16         17         18
     1  C    0.000000  -0.000000   0.000000   0.000019  -0.000004   0.000000
     2  C    0.000131   0.003434  -0.000040  -0.000268  -0.002001   0.000156
     3  H   -0.000000  -0.000000  -0.000000   0.000000   0.000000  -0.000000
     4  H   -0.000015  -0.001191  -0.000007   0.000989   0.000182  -0.000030
     5  C   -0.001443  -0.060072  -0.000416   0.006543   0.003766  -0.000117
     6  C    0.000381   0.006819   0.000188  -0.003614  -0.003558   0.001060
     7  H    0.000326  -0.000317   0.000004   0.000048  -0.000036   0.000006
     8  H   -0.000022   0.000079  -0.000001   0.000084   0.000195  -0.000047
     9  C   -0.000123   0.002766  -0.000296   0.007465  -0.001578   0.002383
    10  H    0.000017  -0.000380  -0.000006   0.000387   0.000231  -0.000499
    11  H   -0.000000   0.000149   0.000005  -0.000030  -0.000462   0.000257
    12  C    0.001724   0.008477   0.000563   0.003961  -0.000189   0.000576
    13  H    0.008895  -0.000878   0.000254   0.000093  -0.000047   0.000019
    14  C   -0.000878   0.706052  -0.001186  -0.033000  -0.021304  -0.007853
    15  H    0.000254  -0.001186  -0.025123   0.000969  -0.000100   0.000212
    16  C    0.000093  -0.033000   0.000969  -0.037565   0.011206   0.005454
    17  H   -0.000047  -0.021304  -0.000100   0.011206   0.055717  -0.008848
    18  H    0.000019  -0.007853   0.000212   0.005454  -0.008848   0.022175
    19  C   -0.000006  -0.000412  -0.000004   0.000108   0.000042  -0.000042
    20  H    0.000000  -0.000001  -0.000000  -0.000166   0.000106  -0.000005
    21  C    0.000000  -0.000046   0.000000   0.000156   0.000080  -0.000004
    22  H    0.000000  -0.000000   0.000000   0.000002   0.000001   0.000000
    23  C    0.000023   0.000120  -0.000001   0.000018   0.000081  -0.000009
    24  H   -0.000007  -0.000180   0.000000   0.000022   0.000027  -0.000001
    25  H   -0.000000   0.000002   0.000000   0.000000   0.000004  -0.000000
    26  C   -0.000002  -0.000018  -0.000000  -0.000000   0.000005  -0.000000
    27  H   -0.000000  -0.000000   0.000000   0.000000   0.000000   0.000000
    28  H   -0.000001   0.000004  -0.000000  -0.000005   0.000000  -0.000000
              19         20         21         22         23         24
     1  C    0.060011   0.000317  -0.008419   0.000885  -0.002796  -0.000150
     2  C    0.039889  -0.001103  -0.007427  -0.000387  -0.009999  -0.000751
     3  H    0.000416  -0.000004  -0.000563  -0.000254   0.000296  -0.000005
     4  H    0.000431  -0.000166   0.000875   0.000022  -0.004298   0.000145
     5  C    0.000032  -0.000058   0.000346   0.000006  -0.003798   0.000227
     6  C    0.038288  -0.000912  -0.006051  -0.000132   0.011341  -0.000572
     7  H    0.000058  -0.000000  -0.000025  -0.000000  -0.000242   0.000191
     8  H   -0.001232   0.000008   0.000915   0.000015   0.001016  -0.000047
     9  C    0.003733   0.000242  -0.000804  -0.000023  -0.000010   0.000134
    10  H   -0.000197   0.000018  -0.000000   0.000000  -0.000011   0.000000
    11  H   -0.000195  -0.000192   0.000035   0.000007  -0.000133  -0.000000
    12  C   -0.000353   0.000025  -0.000000  -0.000000   0.000814  -0.000038
    13  H   -0.000006   0.000000   0.000000   0.000000   0.000023  -0.000007
    14  C   -0.000412  -0.000001  -0.000046  -0.000000   0.000120  -0.000180
    15  H   -0.000004  -0.000000   0.000000   0.000000  -0.000001   0.000000
    16  C    0.000108  -0.000166   0.000156   0.000002   0.000018   0.000022
    17  H    0.000042   0.000106   0.000080   0.000001   0.000081   0.000027
    18  H   -0.000042  -0.000005  -0.000004   0.000000  -0.000009  -0.000001
    19  C   -0.766318   0.004163   0.006905   0.001460   0.005314  -0.000074
    20  H    0.004163   0.025320  -0.002263  -0.000326   0.000481  -0.000008
    21  C    0.006905  -0.002263   0.246575  -0.001737   0.002373   0.000097
    22  H    0.001460  -0.000326  -0.001737  -0.008901   0.000125   0.000000
    23  C    0.005314   0.000481   0.002373   0.000125  -0.004377   0.001211
    24  H   -0.000074  -0.000008   0.000097   0.000000   0.001211   0.000023
    25  H    0.001677   0.000024  -0.001189  -0.000017   0.000469  -0.000310
    26  C   -0.006500  -0.000047  -0.003993  -0.000094  -0.007403   0.000033
    27  H    0.000121  -0.000006  -0.000581  -0.000019  -0.002386  -0.000257
    28  H   -0.003785   0.000036   0.000203   0.000047   0.001571   0.000462
              25         26         27         28
     1  C    0.000376   0.033042   0.007853   0.021293
     2  C    0.000029   0.003554  -0.001062   0.003576
     3  H    0.000006  -0.000968  -0.000214   0.000102
     4  H    0.000110  -0.000084   0.000047  -0.000194
     5  C    0.000199  -0.000096   0.000041  -0.000035
     6  C   -0.000407   0.000261  -0.000155   0.001993
     7  H   -0.000018   0.000167   0.000005  -0.000105
     8  H    0.000026  -0.000989   0.000030  -0.000180
     9  C    0.000011  -0.000015   0.000009  -0.000082
    10  H   -0.000000   0.000000   0.000000  -0.000004
    11  H   -0.000000  -0.000021   0.000001  -0.000026
    12  C    0.000000  -0.000158   0.000004  -0.000080
    13  H   -0.000000  -0.000002  -0.000000  -0.000001
    14  C    0.000002  -0.000018  -0.000000   0.000004
    15  H    0.000000  -0.000000   0.000000  -0.000000
    16  C    0.000000  -0.000000   0.000000  -0.000005
    17  H    0.000004   0.000005   0.000000   0.000000
    18  H   -0.000000  -0.000000   0.000000  -0.000000
    19  C    0.001677  -0.006500   0.000121  -0.003785
    20  H    0.000024  -0.000047  -0.000006   0.000036
    21  C   -0.001189  -0.003993  -0.000581   0.000203
    22  H   -0.000017  -0.000094  -0.000019   0.000047
    23  C    0.000469  -0.007403  -0.002386   0.001571
    24  H   -0.000310   0.000033  -0.000257   0.000462
    25  H   -0.000709  -0.000386   0.000500  -0.000232
    26  C   -0.000386   0.037505  -0.005447  -0.011209
    27  H    0.000500  -0.005447  -0.022173   0.008845
[...]
     4  H    0.000102  -0.000016   0.000045  -0.000194
     5  C    0.000228  -0.000645   0.000020   0.000284
     6  C   -0.000441  -0.000383   0.000002   0.000422
     7  H   -0.000018   0.000217   0.000005  -0.000136
     8  H    0.000028  -0.000910   0.000011   0.000118
     9  C   -0.000002  -0.000043   0.000012  -0.000115
    10  H   -0.000000  -0.000004   0.000000  -0.000004
    11  H    0.000001  -0.000002   0.000001  -0.000016
    12  C    0.000002  -0.000100   0.000001  -0.000044
    13  H   -0.000000  -0.000001  -0.000000  -0.000000
    14  C   -0.000001  -0.000004  -0.000000  -0.000001
    15  H    0.000000  -0.000000   0.000000  -0.000000
    16  C    0.000004  -0.000000  -0.000000   0.000003
    17  H    0.000004  -0.000003   0.000000  -0.000000
    18  H   -0.000000   0.000000   0.000000  -0.000000
    19  C    0.001388  -0.005054   0.000313  -0.004329
    20  H    0.000020  -0.000076  -0.000007   0.000042
    21  C   -0.001194  -0.004312  -0.000612   0.000507
    22  H   -0.000013  -0.000138  -0.000020   0.000049
    23  C   -0.000351  -0.008861  -0.001476  -0.000207
    24  H   -0.000304  -0.000146  -0.000246   0.000456
    25  H   -0.000497  -0.000028   0.000436  -0.000213
    26  C   -0.000028   0.039808  -0.005968  -0.009123
    27  H    0.000436  -0.005968  -0.021709   0.008504
    28  H   -0.000213  -0.009123   0.008504  -0.055213
 Mulliken charges and spin densities:
               1          2
     1  C   -0.192240  -0.598646
     2  C   -0.147223   0.052212
     3  H    0.150211   0.024566
     4  H    0.154447  -0.008619
     5  C   -0.220626   0.614412
     6  C   -0.142009  -0.052105
     7  H    0.170852  -0.025021
     8  H    0.152007   0.008609
     9  C   -0.258149   0.009644
    10  H    0.134372  -0.000077
    11  H    0.149886   0.000136
    12  C   -0.156711  -0.223533
    13  H    0.147302   0.009173
    14  C   -0.192832   0.598580
    15  H    0.150284  -0.024563
    16  C   -0.194352  -0.035984
    17  H    0.125453   0.033670
    18  H    0.135670   0.014829
    19  C   -0.220713  -0.614372
    20  H    0.172335   0.024991
    21  C   -0.157409   0.223513
    22  H    0.147342  -0.009177
    23  C   -0.256487  -0.009661
    24  H    0.150153  -0.000139
    25  H    0.133511   0.000079
    26  C   -0.196242   0.036005
    27  H    0.135807  -0.014833
    28  H    0.125363  -0.033690
 Sum of Mulliken charges =  -0.00000  -0.00000
 Mulliken charges and spin densities with hydrogens summed into heavy atoms:
               1          2
     1  C   -0.042029  -0.574079
     2  C    0.007224   0.043593
     5  C   -0.049774   0.589391
     6  C    0.009998  -0.043496
     9  C    0.026109   0.009703
    12  C   -0.009410  -0.214360
    14  C   -0.042548   0.574017
    16  C    0.066771   0.012515
    19  C   -0.048378  -0.589381
    21  C   -0.010067   0.214336
    23  C    0.027177  -0.009721
    26  C    0.064928  -0.012517
 Electronic spatial extent (au):  <R**2>=           2157.7248
 Charge=             -0.0000 electrons
 Dipole moment (field-independent basis, Debye):
    X=             -0.0003    Y=             -0.0011    Z=             -0.0041  Tot=              0.0043
 Quadrupole moment (field-independent basis, Debye-Ang):
   XX=            -69.6816   YY=            -69.5666   ZZ=            -74.9147
   XY=             -2.3600   XZ=             -2.5884   YZ=              0.2099
 Traceless Quadrupole moment (field-independent basis, Debye-Ang):
   XX=              1.7061   YY=              1.8210   ZZ=             -3.5271
   XY=             -2.3600   XZ=             -2.5884   YZ=              0.2099
 Octapole moment (field-independent basis, Debye-Ang**2):
  XXX=             -0.0155  YYY=             -0.0042  ZZZ=             -0.0198  XYY=              0.0044
  XXY=             -0.0005  XXZ=             -0.0201  XZZ=             -0.0051  YZZ=             -0.0003
  YYZ=             -0.0090  XYZ=              0.0094
 Hexadecapole moment (field-independent basis, Debye-Ang**3):
 XXXX=          -1934.9344 YYYY=           -620.7704 ZZZZ=           -274.0539 XXXY=            -83.9871
 XXXZ=           -103.5952 YYYX=            -59.0690 YYYZ=              1.8358 ZZZX=            -56.4991
 ZZZY=             -7.1878 XXYY=           -424.5707 XXZZ=           -401.9478 YYZZ=           -163.1924
 XXYZ=            -17.7603 YYXZ=            -20.3613 ZZXY=            -40.2351
 N-N= 6.977182342735D+02 E-N=-2.477923663244D+03  KE= 4.642252745540D+02
                          Isotropic Fermi Contact Couplings
        Atom                 a.u.       MegaHertz       Gauss      10(-4) cm-1
     1  C(13)             -0.04661     -26.19752      -9.34793      -8.73855
     2  C(13)              0.05350      30.07305      10.73081      10.03129
     3  H(1)               0.00917      20.50408       7.31636       6.83942
     4  H(1)              -0.00427      -9.54169      -3.40471      -3.18276
     5  C(13)              0.04775      26.84170       9.57779       8.95343
     6  C(13)             -0.05351     -30.07622     -10.73194     -10.03235
     7  H(1)              -0.00948     -21.17880      -7.55712      -7.06449
     8  H(1)               0.00427       9.54071       3.40436       3.18244
     9  C(13)              0.00246       1.38411       0.49388       0.46169
    10  H(1)              -0.00024      -0.52739      -0.18819      -0.17592
    11  H(1)              -0.00036      -0.79575      -0.28394      -0.26543
    12  C(13)             -0.04410     -24.78675      -8.84453      -8.26797
    13  H(1)               0.00313       7.00626       2.50001       2.33704
    14  C(13)              0.04660      26.19457       9.34687       8.73757
    15  H(1)              -0.00917     -20.50203      -7.31564      -6.83874
    16  C(13)             -0.01888     -10.60966      -3.78579      -3.53900
    17  H(1)               0.01617      36.13571      12.89412      12.05358
    18  H(1)               0.00705      15.74927       5.61973       5.25339
    19  C(13)             -0.04774     -26.83681      -9.57604      -8.95180
    20  H(1)               0.00948      21.17843       7.55699       7.06437
    21  C(13)              0.04410      24.78688       8.84457       8.26801
    22  H(1)              -0.00313      -7.00632      -2.50003      -2.33706
    23  C(13)             -0.00246      -1.38198      -0.49312      -0.46098
    24  H(1)               0.00036       0.79742       0.28454       0.26599
    25  H(1)               0.00024       0.52992       0.18909       0.17676
    26  C(13)              0.01888      10.61014       3.78596       3.53916
    27  H(1)              -0.00705     -15.75321      -5.62114      -5.25471
    28  H(1)              -0.01617     -36.13400     -12.89351     -12.05300
 --------------------------------------------------------
       Center         ----  Spin Dipole Couplings  ----
                      3XX-RR        3YY-RR        3ZZ-RR
 --------------------------------------------------------
     1   Atom        0.160666      0.359067     -0.519733
     2   Atom       -0.000864     -0.018258      0.019122
     3   Atom       -0.036746      0.045563     -0.008817
     4   Atom       -0.003234     -0.004003      0.007237
     5   Atom       -0.251046     -0.348308      0.599354
     6   Atom        0.000871      0.018257     -0.019128
     7   Atom       -0.020091      0.017222      0.002869
     8   Atom        0.003234      0.004003     -0.007237
     9   Atom       -0.001416      0.008264     -0.006848
    10   Atom       -0.004262      0.003660      0.000602
    11   Atom       -0.006423      0.007391     -0.000969
    12   Atom        0.080927      0.099615     -0.180542
    13   Atom        0.007234     -0.001571     -0.005663
    14   Atom       -0.160642     -0.359033      0.519675
    15   Atom        0.036742     -0.045559      0.008817
    16   Atom       -0.005658      0.002729      0.002928
    17   Atom       -0.008476      0.009387     -0.000912
    18   Atom       -0.006451      0.010953     -0.004502
    19   Atom        0.251012      0.348263     -0.599274
    20   Atom        0.020093     -0.017215     -0.002878
    21   Atom       -0.080919     -0.099621      0.180541
    22   Atom       -0.007234      0.001571      0.005663
    23   Atom        0.001406     -0.008263      0.006857
    24   Atom        0.006421     -0.007391      0.000970
    25   Atom        0.004262     -0.003660     -0.000603
    26   Atom        0.005649     -0.002735     -0.002914
    27   Atom        0.006451     -0.010955      0.004504
    28   Atom        0.008475     -0.009390      0.000915
 --------------------------------------------------------
                        XY            XZ            YZ
 --------------------------------------------------------
     1   Atom        0.007962     -0.402648      0.020712
     2   Atom        0.007519      0.030056      0.015303
     3   Atom       -0.008544      0.017570      0.005340
     4   Atom       -0.005092      0.006096      0.009179
     5   Atom       -0.051857      0.331716     -0.116774
     6   Atom       -0.007515     -0.030046     -0.015299
     7   Atom       -0.043194      0.002368      0.015007
     8   Atom        0.005094     -0.006095     -0.009178
     9   Atom       -0.014441     -0.012683      0.001943
    10   Atom       -0.001264     -0.003795     -0.005918
    11   Atom        0.004657     -0.008606     -0.000017
    12   Atom       -0.006054     -0.120459      0.032073
    13   Atom       -0.007613     -0.007390      0.003292
    14   Atom       -0.007953      0.402614     -0.020691
    15   Atom        0.008542     -0.017568     -0.005339
    16   Atom        0.001712      0.006387     -0.000840
    17   Atom        0.004583      0.001721      0.005672
    18   Atom       -0.002510     -0.000825     -0.002851
    19   Atom        0.051868     -0.331686      0.116803
    20   Atom        0.043187     -0.002366     -0.015008
    21   Atom        0.006057      0.120468     -0.032069
    22   Atom        0.007614      0.007389     -0.003293
    23   Atom        0.014433      0.012674     -0.001927
    24   Atom       -0.004659      0.008606      0.000016
    25   Atom        0.001263      0.003798      0.005916
    26   Atom       -0.001710     -0.006384      0.000847
    27   Atom        0.002510      0.000824      0.002851
    28   Atom       -0.004585     -0.001719     -0.005671
 --------------------------------------------------------


 ---------------------------------------------------------------------------------
              Anisotropic Spin Dipole Couplings in Principal Axis System
 ---------------------------------------------------------------------------------

       Atom             a.u.   MegaHertz   Gauss  10(-4) cm-1        Axes

              Baa    -0.7071   -94.889   -33.859   -31.651  0.4210 -0.0208  0.9068
     1 C(13)  Bbb     0.3474    46.619    16.635    15.550  0.9012  0.1228 -0.4156
              Bcc     0.3597    48.270    17.224    16.101 -0.1027  0.9922  0.0704
 
              Baa    -0.0254    -3.407    -1.216    -1.136  0.4621  0.6949 -0.5509
     2 C(13)  Bbb    -0.0199    -2.666    -0.951    -0.889  0.6903 -0.6719 -0.2684
              Bcc     0.0453     6.073     2.167     2.026  0.5567  0.2563  0.7902
 
              Baa    -0.0463   -24.712    -8.818    -8.243  0.8942  0.1084 -0.4344
     3 H(1)   Bbb    -0.0004    -0.194    -0.069    -0.065  0.4391 -0.0228  0.8982
              Bcc     0.0467    24.906     8.887     8.308 -0.0875  0.9938  0.0679
 
              Baa    -0.0143    -7.616    -2.718    -2.541  0.5675  0.6870 -0.4539
     4 H(1)   Bbb     0.0013     0.699     0.250     0.233  0.7983 -0.5941  0.0989
              Bcc     0.0130     6.917     2.468     2.307  0.2017  0.4185  0.8855
 
              Baa    -0.3753   -50.357   -17.969   -16.797  0.7207  0.6734 -0.1646
     5 C(13)  Bbb    -0.3532   -47.400   -16.913   -15.811 -0.6128  0.7299  0.3029
              Bcc     0.7285    97.756    34.882    32.608  0.3241 -0.1174  0.9387
 
              Baa    -0.0452    -6.072    -2.167    -2.025  0.5566  0.2562  0.7903
     6 C(13)  Bbb     0.0199     2.666     0.951     0.889  0.6905 -0.6717 -0.2685
              Bcc     0.0254     3.406     1.215     1.136  0.4620  0.6951 -0.5508
 
              Baa    -0.0505   -26.941    -9.613    -8.986  0.8074  0.5577 -0.1927
     7 H(1)   Bbb     0.0020     1.088     0.388     0.363  0.2953 -0.0992  0.9502
              Bcc     0.0485    25.853     9.225     8.624 -0.5108  0.8241  0.2448
 
              Baa    -0.0130    -6.916    -2.468    -2.307  0.2016  0.4185  0.8855
     8 H(1)   Bbb    -0.0013    -0.700    -0.250    -0.234  0.7983 -0.5941  0.0990
              Bcc     0.0143     7.617     2.718     2.541  0.5675  0.6870 -0.4539
 
              Baa    -0.0197    -2.637    -0.941    -0.880  0.6976  0.3161  0.6430
     9 C(13)  Bbb    -0.0021    -0.281    -0.100    -0.094 -0.3558 -0.6261  0.6938
              Bcc     0.0217     2.918     1.041     0.973 -0.6219  0.7128  0.3243
 
              Baa    -0.0080    -4.244    -1.515    -1.416  0.7238  0.3742  0.5798
    10 H(1)   Bbb    -0.0004    -0.235    -0.084    -0.078  0.6805 -0.5262 -0.5099
              Bcc     0.0084     4.479     1.598     1.494  0.1143  0.7636 -0.6355
 
              Baa    -0.0134    -7.156    -2.553    -2.387  0.8090 -0.1807  0.5593
    11 H(1)   Bbb     0.0037     1.955     0.698     0.652 -0.4077  0.5129  0.7554
              Bcc     0.0097     5.201     1.856     1.735  0.4234  0.8392 -0.3413
 
              Baa    -0.2299   -30.851   -11.009   -10.291  0.3587 -0.0839  0.9297
    12 C(13)  Bbb     0.0933    12.527     4.470     4.178  0.4433  0.8918 -0.0905
              Bcc     0.1366    18.325     6.539     6.112  0.8215 -0.4446 -0.3570
 
              Baa    -0.0090    -4.817    -1.719    -1.607  0.4284  0.0389  0.9027
    13 H(1)   Bbb    -0.0058    -3.077    -1.098    -1.026  0.3938  0.8912 -0.2253
              Bcc     0.0148     7.894     2.817     2.633  0.8133 -0.4520 -0.3665
 
              Baa    -0.3597   -48.265   -17.222   -16.100 -0.1026  0.9922  0.0703
    14 C(13)  Bbb    -0.3474   -46.614   -16.633   -15.549  0.9013  0.1227 -0.4156
              Bcc     0.7070    94.879    33.855    31.648  0.4210 -0.0207  0.9068
 
              Baa    -0.0467   -24.904    -8.886    -8.307 -0.0875  0.9938  0.0679
    15 H(1)   Bbb     0.0004     0.194     0.069     0.065  0.4391 -0.0227  0.8982
              Bcc     0.0463    24.710     8.817     8.242  0.8942  0.1084 -0.4344
 
              Baa    -0.0094    -1.256    -0.448    -0.419  0.8721 -0.1558 -0.4639
    16 C(13)  Bbb     0.0030     0.406     0.145     0.136  0.1285  0.9876 -0.0901
              Bcc     0.0063     0.850     0.303     0.283  0.4722  0.0190  0.8813
 
              Baa    -0.0096    -5.122    -1.828    -1.709  0.9742 -0.2205 -0.0490
    17 H(1)   Bbb    -0.0034    -1.820    -0.649    -0.607 -0.0425 -0.3921  0.9190
              Bcc     0.0130     6.942     2.477     2.316  0.2219  0.8931  0.3913
 
              Baa    -0.0074    -3.946    -1.408    -1.316  0.8800  0.1881  0.4362
    18 H(1)   Bbb    -0.0044    -2.328    -0.831    -0.777 -0.4577  0.0897  0.8846
              Bcc     0.0118     6.275     2.239     2.093 -0.1273  0.9780 -0.1650
 
              Baa    -0.7284   -97.746   -34.878   -32.605  0.3241 -0.1174  0.9387
    19 C(13)  Bbb     0.3532    47.395    16.912    15.809 -0.6128  0.7299  0.3029
              Bcc     0.3752    50.352    17.967    16.795  0.7207  0.6734 -0.1646
 
              Baa    -0.0484   -25.848    -9.223    -8.622 -0.5108  0.8241  0.2449
    20 H(1)   Bbb    -0.0020    -1.091    -0.389    -0.364  0.2953 -0.0993  0.9502
              Bcc     0.0505    26.939     9.612     8.986  0.8074  0.5577 -0.1926
 
              Baa    -0.1366   -18.325    -6.539    -6.113  0.8215 -0.4447 -0.3570
    21 C(13)  Bbb    -0.0934   -12.527    -4.470    -4.179  0.4434  0.8918 -0.0906
              Bcc     0.2299    30.852    11.009    10.291  0.3587 -0.0839  0.9297
 
              Baa    -0.0148    -7.895    -2.817    -2.633  0.8132 -0.4520 -0.3665
    22 H(1)   Bbb     0.0058     3.078     1.098     1.027  0.3939  0.8912 -0.2251
              Bcc     0.0090     4.817     1.719     1.607  0.4283  0.0387  0.9028
 
              Baa    -0.0217    -2.916    -1.041    -0.973 -0.6220  0.7129  0.3238
    23 C(13)  Bbb     0.0021     0.280     0.100     0.093 -0.3563 -0.6260  0.6937
              Bcc     0.0196     2.636     0.941     0.879  0.6972  0.3161  0.6434
 
              Baa    -0.0097    -5.201    -1.856    -1.735  0.4234  0.8392 -0.3412
    24 H(1)   Bbb    -0.0037    -1.955    -0.697    -0.652 -0.4077  0.5129  0.7555
              Bcc     0.0134     7.156     2.553     2.387  0.8090 -0.1808  0.5593
 
              Baa    -0.0084    -4.479    -1.598    -1.494  0.1145  0.7635 -0.6355
    25 H(1)   Bbb     0.0004     0.234     0.083     0.078  0.6803 -0.5265 -0.5099
              Bcc     0.0080     4.245     1.515     1.416  0.7239  0.3740  0.5797
 
              Baa    -0.0063    -0.848    -0.303    -0.283  0.4725  0.0172  0.8812
    26 C(13)  Bbb    -0.0030    -0.407    -0.145    -0.136  0.1293  0.9876 -0.0886
              Bcc     0.0094     1.255     0.448     0.419  0.8718 -0.1558 -0.4644
 
              Baa    -0.0118    -6.276    -2.239    -2.093 -0.1273  0.9780 -0.1650
    27 H(1)   Bbb     0.0044     2.330     0.831     0.777 -0.4577  0.0896  0.8846
              Bcc     0.0074     3.946     1.408     1.316  0.8799  0.1881  0.4363
 
              Baa    -0.0130    -6.942    -2.477    -2.316  0.2219  0.8932  0.3911
    28 H(1)   Bbb     0.0034     1.821     0.650     0.607 -0.0427 -0.3918  0.9190
              Bcc     0.0096     5.122     1.828     1.708  0.9741 -0.2206 -0.0488
 

 ---------------------------------------------------------------------------------

 No NMR shielding tensors so no spin-rotation constants.
 Leave Link  601 at Tue Aug  4 20:23:34 2020, MaxMem=  6442450944 cpu:               8.2 elap:               0.4
 (Enter /scratch/scicomp/CentOS/7.3.1611/Haswell/software/Gaussian/g16/l9999.exe)
 1\1\GINC-ATLAS-205\SP\UwB97XD\def2TZVP\C12H16\BOCHEN\04-Aug-2020\0\\#p
  uwb97xd guess=mix def2tzvp # scrf=(iefpcm,solvent=Cyclohexane,read) n
 osym 6d 10f\\endo-2 xp-pcm for eta=3\\0,1\C,0,-3.119867,-0.423059,0.24
 2362\C,0,-0.399464,-0.121031,-0.665456\H,0,-4.102983,-0.545295,0.67996
 7\H,0,0.332815,-0.116775,-1.477337\C,0,1.102005,1.439151,0.627583\C,0,
 0.399464,0.121031,0.665456\H,0,0.570347,2.335794,0.919988\H,0,-0.33281
 5,0.116775,1.477337\C,0,1.424818,-0.986752,0.942031\H,0,1.823276,-0.83
 0898,1.947861\H,0,0.940841,-1.964613,0.940308\C,0,2.393506,1.531561,0.
 139068\H,0,2.848769,2.511456,0.044365\C,0,3.119867,0.423059,-0.242362\
 H,0,4.102983,0.545295,-0.679967\C,0,2.585761,-0.961115,-0.052535\H,0,2
 .266469,-1.369268,-1.020958\H,0,3.384717,-1.624588,0.289923\C,0,-1.102
 005,-1.439151,-0.627583\H,0,-0.570347,-2.335794,-0.919988\C,0,-2.39350
 6,-1.531561,-0.139068\H,0,-2.848769,-2.511456,-0.044365\C,0,-1.424818,
 0.986752,-0.942031\H,0,-0.940841,1.964613,-0.940309\H,0,-1.823276,0.83
 0898,-1.947861\C,0,-2.585761,0.961115,0.052535\H,0,-3.384717,1.624588,
 -0.289923\H,0,-2.266469,1.369268,1.020958\\Version=ES64L-G16RevB.01\HF
 =-466.7891516\S2=1.057044\S2-1=0.\S2A=0.550749\RMSD=9.011e-09\Dipole=-
 0.0001103,-0.0004226,-0.0016165\Quadrupole=1.2684102,1.3538651,-2.6222
 753,-1.7545826,-1.9244305,0.1560681\PG=CI [X(C12H16)]\\@


 THE ONLY EXISTING THINGS ARE ATOMS AND EMPTY SPACE;
 ALL ELSE IS MERE OPINION. -- DEMOCRITUS OF ABDERA D. 370 B.C.
 EXPERIMENTS ARE THE ONLY MEANS OF KNOWLEDGE AT OUR DISPOSAL
 THE REST IS POETRY, IMAGINATION. -- MAX PLANCK
 Job cpu time:       0 days  1 hours 48 minutes 10.9 seconds.
 Elapsed time:       0 days  0 hours  4 minutes 33.4 seconds.
 File lengths (MBytes):  RWF=    636 Int=      0 D2E=      0 Chk=     24 Scr=      1
 Normal termination of Gaussian 16 at Tue Aug  4 20:23:34 2020.
