 Entering Gaussian System, Link 0=g16
 Input=meso-TS_19_2_xp-Ger.com
 Output=meso-TS_19_2_xp-Ger.log
 Initial command:
 /scratch/scicomp/CentOS/7.3.1611/Haswell/software/Gaussian/g16/l1.exe "/scratch/bochen/cyclohexadiene-dimerization/wb97xd-def2tzvp/xp-pcm/meso/Gau-349923.inp" -scrdir="/scratch/bochen/cyclohexadiene-dimerization/wb97xd-def2tzvp/xp-pcm/meso/"
 Entering Link 1 = /scratch/scicomp/CentOS/7.3.1611/Haswell/software/Gaussian/g16/l1.exe PID=    349924.
  
 Copyright (c) 1988-2017, Gaussian, Inc.  All Rights Reserved.
  
 This is part of the Gaussian(R) 16 program.  It is based on
 the Gaussian(R) 09 system (copyright 2009, Gaussian, Inc.),
 the Gaussian(R) 03 system (copyright 2003, Gaussian, Inc.),
 the Gaussian(R) 98 system (copyright 1998, Gaussian, Inc.),
 the Gaussian(R) 94 system (copyright 1995, Gaussian, Inc.),
 the Gaussian 92(TM) system (copyright 1992, Gaussian, Inc.),
 the Gaussian 90(TM) system (copyright 1990, Gaussian, Inc.),
 the Gaussian 88(TM) system (copyright 1988, Gaussian, Inc.),
 the Gaussian 86(TM) system (copyright 1986, Carnegie Mellon
 University), and the Gaussian 82(TM) system (copyright 1983,
 Carnegie Mellon University). Gaussian is a federally registered
 trademark of Gaussian, Inc.
  
 This software contains proprietary and confidential information,
 including trade secrets, belonging to Gaussian, Inc.
  
 This software is provided under written license and may be
 used, copied, transmitted, or stored only in accord with that
 written license.
  
 The following legend is applicable only to US Government
 contracts under FAR:
  
                    RESTRICTED RIGHTS LEGEND
  
 Use, reproduction and disclosure by the US Government is
 subject to restrictions as set forth in subparagraphs (a)
 and (c) of the Commercial Computer Software - Restricted
 Rights clause in FAR 52.227-19.
  
 Gaussian, Inc.
 340 Quinnipiac St., Bldg. 40, Wallingford CT 06492
  
  
 ---------------------------------------------------------------
 Warning -- This program may not be used in any manner that
 competes with the business of Gaussian, Inc. or will provide
 assistance to any competitor of Gaussian, Inc.  The licensee
 of this program is prohibited from giving any competitor of
 Gaussian, Inc. access to this program.  By using this program,
 the user acknowledges that Gaussian, Inc. is engaged in the
 business of creating and licensing software in the field of
 computational chemistry and represents and warrants to the
 licensee that it is not a competitor of Gaussian, Inc. and that
 it will not use this program in any manner prohibited above.
 ---------------------------------------------------------------
  

 Cite this work as:
 Gaussian 16, Revision B.01,
 M. J. Frisch, G. W. Trucks, H. B. Schlegel, G. E. Scuseria, 
 M. A. Robb, J. R. Cheeseman, G. Scalmani, V. Barone, 
 G. A. Petersson, H. Nakatsuji, X. Li, M. Caricato, A. V. Marenich, 
 J. Bloino, B. G. Janesko, R. Gomperts, B. Mennucci, H. P. Hratchian, 
 J. V. Ortiz, A. F. Izmaylov, J. L. Sonnenberg, D. Williams-Young, 
 F. Ding, F. Lipparini, F. Egidi, J. Goings, B. Peng, A. Petrone, 
 T. Henderson, D. Ranasinghe, V. G. Zakrzewski, J. Gao, N. Rega, 
 G. Zheng, W. Liang, M. Hada, M. Ehara, K. Toyota, R. Fukuda, 
 J. Hasegawa, M. Ishida, T. Nakajima, Y. Honda, O. Kitao, H. Nakai, 
 T. Vreven, K. Throssell, J. A. Montgomery, Jr., J. E. Peralta, 
 F. Ogliaro, M. J. Bearpark, J. J. Heyd, E. N. Brothers, K. N. Kudin, 
 V. N. Staroverov, T. A. Keith, R. Kobayashi, J. Normand, 
 K. Raghavachari, A. P. Rendell, J. C. Burant, S. S. Iyengar, 
 J. Tomasi, M. Cossi, J. M. Millam, M. Klene, C. Adamo, R. Cammi, 
 J. W. Ochterski, R. L. Martin, K. Morokuma, O. Farkas, 
 J. B. Foresman, and D. J. Fox, Gaussian, Inc., Wallingford CT, 2016.
 
 ******************************************
 Gaussian 16:  ES64L-G16RevB.01 20-Dec-2017
                 4-Aug-2020 
 ******************************************
 %chk=meso-TS_19_2_xp-12.chk
 %nproc=24
 Will use up to   24 processors via shared memory.
 %mem=48GB
 ----------------------------------------------------------------------
 #p uwb97xd guess=mix def2tzvp # scrf=(iefpcm,solvent=Cyclohexane,read)
  nosym 6d 10f
 ----------------------------------------------------------------------
 1/38=1,40=2,172=1/1;
 2/12=2,15=1,17=6,18=5,40=1/2;
 3/5=44,7=101,8=22,11=2,25=1,30=1,70=2203,72=17,74=-58,116=2/1,2,3;
 4/13=-1/1;
 5/5=2,38=5,53=17/2;
 6/7=2,8=2,9=2,10=2,28=1/1;
 99/5=1,9=1/99;
 Leave Link    1 at Tue Aug  4 09:18:52 2020, MaxMem=  6442450944 cpu:               2.5 elap:               0.1
 (Enter /scratch/scicomp/CentOS/7.3.1611/Haswell/software/Gaussian/g16/l101.exe)
 -----------------------
 endo-2 xp-pcm for eta=3
 -----------------------
 Symbolic Z-matrix:
 Charge =  0 Multiplicity = 1
 6                    -3.12085  -0.43757   0.24798 
 6                    -0.5959   -0.21339  -1.01198 
 1                    -4.0846   -0.54889   0.73123 
 1                     0.3695   -0.12151  -1.48923 
 6                     1.09579   1.40912   0.70012 
 6                     0.5959    0.21339   1.01198 
 1                     0.51347   2.31007   0.84529 
 1                    -0.3695    0.12151   1.48923 
 6                     1.47806  -1.00029   1.00423 
 1                     1.94041  -1.02809   1.9989 
 1                     0.89595  -1.91578   0.91528 
 6                     2.42365   1.51698   0.1101 
 1                     2.83206   2.50539  -0.06421 
 6                     3.12085   0.43757  -0.24798 
 1                     4.0846    0.54889  -0.73123 
 6                     2.59085  -0.95596  -0.04591 
 1                     2.24322  -1.34924  -1.00924 
 1                     3.40078  -1.62071   0.26185 
 6                    -1.09579  -1.40912  -0.70012 
 1                    -0.51347  -2.31007  -0.84529 
 6                    -2.42365  -1.51698  -0.1101 
 1                    -2.83206  -2.50539   0.06421 
 6                    -1.47806   1.00029  -1.00423 
 1                    -0.89595   1.91578  -0.91528 
 1                    -1.94041   1.02809  -1.9989 
 6                    -2.59085   0.95596   0.04591 
 1                    -3.40078   1.62071  -0.26186 
 1                    -2.24322   1.34924   1.00924 
 
 ITRead=  0  0  0  0  0  0  0  0  0  0  0  0  0  0  0  0  0  0  0  0
 ITRead=  0  0  0  0  0  0  0  0
 MicOpt= -1 -1 -1 -1 -1 -1 -1 -1 -1 -1 -1 -1 -1 -1 -1 -1 -1 -1 -1 -1
 MicOpt= -1 -1 -1 -1 -1 -1 -1 -1
 NAtoms=     28 NQM=       28 NQMF=       0 NMMI=      0 NMMIF=      0
                NMic=       0 NMicF=      0.
                    Isotopes and Nuclear Properties:
 (Nuclear quadrupole moments (NQMom) in fm**2, nuclear magnetic moments (NMagM)
  in nuclear magnetons)

  Atom         1           2           3           4           5           6           7           8           9          10
 IAtWgt=          12          12           1           1          12          12           1           1          12           1
 AtmWgt=  12.0000000  12.0000000   1.0078250   1.0078250  12.0000000  12.0000000   1.0078250   1.0078250  12.0000000   1.0078250
 NucSpn=           0           0           1           1           0           0           1           1           0           1
 AtZEff=  -0.0000000  -0.0000000  -0.0000000  -0.0000000  -0.0000000  -0.0000000  -0.0000000  -0.0000000  -0.0000000  -0.0000000
 NQMom=    0.0000000   0.0000000   0.0000000   0.0000000   0.0000000   0.0000000   0.0000000   0.0000000   0.0000000   0.0000000
 NMagM=    0.0000000   0.0000000   2.7928460   2.7928460   0.0000000   0.0000000   2.7928460   2.7928460   0.0000000   2.7928460
 AtZNuc=   6.0000000   6.0000000   1.0000000   1.0000000   6.0000000   6.0000000   1.0000000   1.0000000   6.0000000   1.0000000

  Atom        11          12          13          14          15          16          17          18          19          20
 IAtWgt=           1          12           1          12           1          12           1           1          12           1
 AtmWgt=   1.0078250  12.0000000   1.0078250  12.0000000   1.0078250  12.0000000   1.0078250   1.0078250  12.0000000   1.0078250
 NucSpn=           1           0           1           0           1           0           1           1           0           1
 AtZEff=  -0.0000000  -0.0000000  -0.0000000  -0.0000000  -0.0000000  -0.0000000  -0.0000000  -0.0000000  -0.0000000  -0.0000000
 NQMom=    0.0000000   0.0000000   0.0000000   0.0000000   0.0000000   0.0000000   0.0000000   0.0000000   0.0000000   0.0000000
 NMagM=    2.7928460   0.0000000   2.7928460   0.0000000   2.7928460   0.0000000   2.7928460   2.7928460   0.0000000   2.7928460
 AtZNuc=   1.0000000   6.0000000   1.0000000   6.0000000   1.0000000   6.0000000   1.0000000   1.0000000   6.0000000   1.0000000

  Atom        21          22          23          24          25          26          27          28
 IAtWgt=          12           1          12           1           1          12           1           1
 AtmWgt=  12.0000000   1.0078250  12.0000000   1.0078250   1.0078250  12.0000000   1.0078250   1.0078250
 NucSpn=           0           1           0           1           1           0           1           1
 AtZEff=  -0.0000000  -0.0000000  -0.0000000  -0.0000000  -0.0000000  -0.0000000  -0.0000000  -0.0000000
 NQMom=    0.0000000   0.0000000   0.0000000   0.0000000   0.0000000   0.0000000   0.0000000   0.0000000
 NMagM=    0.0000000   2.7928460   0.0000000   2.7928460   2.7928460   0.0000000   2.7928460   2.7928460
 AtZNuc=   6.0000000   1.0000000   6.0000000   1.0000000   1.0000000   6.0000000   1.0000000   1.0000000
 Leave Link  101 at Tue Aug  4 09:18:52 2020, MaxMem=  6442450944 cpu:               2.4 elap:               0.1
 (Enter /scratch/scicomp/CentOS/7.3.1611/Haswell/software/Gaussian/g16/l202.exe)
                          Input orientation:                          
 ---------------------------------------------------------------------
 Center     Atomic      Atomic             Coordinates (Angstroms)
 Number     Number       Type             X           Y           Z
 ---------------------------------------------------------------------
      1          6           0       -3.120849   -0.437571    0.247983
      2          6           0       -0.595896   -0.213392   -1.011977
      3          1           0       -4.084599   -0.548890    0.731234
      4          1           0        0.369499   -0.121508   -1.489233
      5          6           0        1.095787    1.409118    0.700116
      6          6           0        0.595896    0.213392    1.011977
      7          1           0        0.513469    2.310071    0.845290
      8          1           0       -0.369499    0.121508    1.489233
      9          6           0        1.478063   -1.000287    1.004227
     10          1           0        1.940410   -1.028087    1.998902
     11          1           0        0.895946   -1.915783    0.915280
     12          6           0        2.423651    1.516981    0.110100
     13          1           0        2.832064    2.505394   -0.064213
     14          6           0        3.120849    0.437571   -0.247983
     15          1           0        4.084599    0.548890   -0.731234
     16          6           0        2.590846   -0.955955   -0.045910
     17          1           0        2.243218   -1.349244   -1.009243
     18          1           0        3.400776   -1.620708    0.261854
     19          6           0       -1.095787   -1.409118   -0.700116
     20          1           0       -0.513469   -2.310071   -0.845290
     21          6           0       -2.423651   -1.516981   -0.110100
     22          1           0       -2.832064   -2.505394    0.064213
     23          6           0       -1.478063    1.000287   -1.004227
     24          1           0       -0.895946    1.915783   -0.915280
     25          1           0       -1.940410    1.028087   -1.998902
     26          6           0       -2.590846    0.955955    0.045910
     27          1           0       -3.400776    1.620708   -0.261855
     28          1           0       -2.243218    1.349244    1.009243
 ---------------------------------------------------------------------
                    Distance matrix (angstroms):
                    1          2          3          4          5
     1  C    0.000000
     2  C    2.830750   0.000000
     3  H    1.083853   3.914383   0.000000
     4  H    3.911565   1.080835   4.995210   0.000000
     5  C    4.625441   2.902687   5.538155   2.768313   0.000000
     6  C    3.849887   2.387237   4.750466   2.533666   1.333007
     7  H    4.595060   3.323853   5.415616   3.373915   1.082537
     8  H    3.069723   2.533666   3.850450   3.078382   2.104212
     9  C    4.694523   2.997597   5.587620   2.866794   2.458424
    10  H    5.388021   4.020195   6.175544   3.931505   2.887941
    11  H    4.331863   2.972885   5.167988   3.046022   3.337843
    12  C    5.880541   3.656626   6.856453   3.076045   1.457044
    13  H    6.647983   4.476713   7.602737   3.872405   2.191045
    14  C    6.322235   3.849887   7.338287   3.069723   2.437965
    15  H    7.338287   4.750466   8.371364   3.850450   3.423704
    16  C    5.742696   3.411746   6.732846   2.777385   2.895743
    17  H    5.584351   3.057897   6.611437   2.290971   3.441957
    18  H    6.628092   4.424542   7.576275   3.808221   3.832087
    19  C    2.437965   1.333007   3.423704   2.104212   3.834853
    20  H    3.391155   2.104909   4.282541   2.446243   4.337090
    21  C    1.333954   2.419383   2.098521   3.413362   4.648112
    22  H    2.095963   3.378151   2.416954   4.283236   5.581737
    23  C    2.516786   1.500432   3.493681   2.215207   3.113942
    24  H    3.441170   2.152386   4.353519   2.466035   2.614042
    25  H    2.930884   2.079185   3.812879   2.630021   4.080242
    26  C    1.504544   2.542897   2.228346   3.504459   3.771552
    27  H    2.138880   3.434233   2.482135   4.330906   4.603177
    28  H    2.131305   3.039874   2.659114   3.902792   3.353819
                    6          7          8          9         10
     6  C    0.000000
     7  H    2.104909   0.000000
     8  H    1.080835   2.446243   0.000000
     9  C    1.500432   3.451691   2.215207   0.000000
    10  H    2.079185   3.809236   2.630021   1.097231   0.000000
    11  H    2.152386   4.243705   2.466035   1.088533   1.747325
    12  C    2.419383   2.195061   3.413362   2.833767   3.206005
    13  H    3.378151   2.498245   4.283236   3.907004   4.187718
    14  C    2.830750   3.391155   3.911565   2.516786   2.930884
    15  H    3.914383   4.282541   4.995210   3.493681   3.812879
    16  C    2.542897   3.971984   3.504459   1.530699   2.146981
    17  H    3.039874   4.452180   3.902792   2.182039   3.040357
    18  H    3.434233   4.912022   4.330906   2.152409   2.345465
    19  C    2.902687   4.337090   2.768313   3.113942   4.080242
    20  H    3.323853   5.025771   3.373915   3.017026   3.969185
    21  C    3.656626   4.917903   3.076045   4.090485   4.871543
    22  H    4.476713   5.915351   3.872405   4.661134   5.357422
    23  C    2.997597   3.017026   2.866794   4.095713   4.981871
    24  H    2.972885   2.289437   3.046022   4.221835   5.020333
    25  H    4.020195   3.969185   3.931505   4.981871   5.938944
    26  C    3.411746   3.479858   2.777385   4.615330   5.318165
    27  H    4.424542   4.125810   3.808221   5.681166   6.376159
    28  H    3.057897   2.923934   2.290971   4.400938   4.912624
                   11         12         13         14         15
    11  H    0.000000
    12  C    3.842664   0.000000
    13  H    4.924913   1.083580   0.000000
    14  C    3.441170   1.333954   2.095963   0.000000
    15  H    4.353519   2.098521   2.416954   1.083853   0.000000
    16  C    2.172059   2.483487   3.469792   1.504544   2.228346
    17  H    2.416588   3.082326   4.012238   2.131305   2.659114
    18  H    2.605419   3.289817   4.177855   2.138879   2.482135
    19  C    2.614042   4.648112   5.581737   4.625441   5.538155
    20  H    2.289437   4.917903   5.915351   4.595060   5.415616
    21  C    3.497166   5.722740   6.618470   5.880541   6.856453
    22  H    3.869110   6.618470   7.563520   6.647983   7.602737
    23  C    4.221835   4.090485   4.661134   4.694523   5.587620
    24  H    4.608983   3.497166   3.869110   4.331863   5.167988
    25  H    5.020333   4.871543   5.357422   5.388021   6.175544
    26  C    4.600044   5.046192   5.640996   5.742696   6.732846
    27  H    5.688078   5.837213   6.298415   6.628092   7.576275
    28  H    4.530296   4.755656   5.314836   5.584351   6.611437
                   16         17         18         19         20
    16  C    0.000000
    17  H    1.097056   0.000000
    18  H    1.092063   1.740494   0.000000
    19  C    3.771552   3.353819   4.603177   0.000000
    20  H    3.479858   2.923934   4.125809   1.082537   0.000000
    21  C    5.046192   4.755656   5.837213   1.457044   2.195061
    22  H    5.640996   5.314836   6.298415   2.191045   2.498245
    23  C    4.615330   4.400938   5.681166   2.458424   3.451691
    24  H    4.600044   4.530296   5.688078   3.337843   4.243705
    25  H    5.318165   4.912624   6.376159   2.887941   3.809236
    26  C    5.523926   5.458522   6.525746   2.895743   3.971984
    27  H    6.525746   6.421361   7.552626   3.832087   4.912022
    28  H    5.458522   5.611081   6.421361   3.441957   4.452180
                   21         22         23         24         25
    21  C    0.000000
    22  H    1.083580   0.000000
    23  C    2.833767   3.907004   0.000000
    24  H    3.842664   4.924913   1.088533   0.000000
    25  H    3.206005   4.187718   1.097231   1.747325   0.000000
    26  C    2.483487   3.469792   1.530699   2.172059   2.146981
    27  H    3.289817   4.177855   2.152409   2.605419   2.345464
    28  H    3.082326   4.012238   2.182039   2.416588   3.040357
                   26         27         28
    26  C    0.000000
    27  H    1.092063   0.000000
    28  H    1.097056   1.740495   0.000000
 Symmetry turned off by external request.
 Stoichiometry    C12H16
 Framework group  CI[X(C12H16)]
 Deg. of freedom    39
 Full point group                 CI      NOp   2
 Rotational constants (GHZ):           1.8964116           0.6258216           0.5490889
 Leave Link  202 at Tue Aug  4 09:18:52 2020, MaxMem=  6442450944 cpu:               0.3 elap:               0.0
 (Enter /scratch/scicomp/CentOS/7.3.1611/Haswell/software/Gaussian/g16/l301.exe)
 Standard basis: def2TZVP (6D, 10F)
 Ernie: Thresh=  0.10000D-02 Tol=  0.10000D-05 Strict=F.
   528 basis functions,   740 primitive gaussians,   528 cartesian basis functions
    44 alpha electrons       44 beta electrons
       nuclear repulsion energy       688.1322141888 Hartrees.
 IExCor= 4639 DFT=T Ex+Corr=wB97XD ExCW=0 ScaHFX=  1.000000
 ScaDFX=  1.000000  1.000000  1.000000  1.000000 ScalE2=  1.000000  1.000000
 IRadAn=      5 IRanWt=     -1 IRanGd=            0 ICorTp=0 IEmpDi=121
 HFx  wShort=  0.000000 wLong=  0.200000 cFull=  0.222036 cShort=  0.000000 cLong=  0.777964
 DFx  wShort=  0.000000 wLong=  0.200000 cFull=  0.000000 cShort=  0.000000 cLong=  1.000000
 NAtoms=   28 NActive=   28 NUniq=   28 SFac= 1.00D+00 NAtFMM=   60 NAOKFM=F Big=F
 Integral buffers will be    131072 words long.
 Raffenetti 2 integral format.
 Two-electron integral symmetry is turned off.
 R6Disp:  Grimme-D2 Dispersion energy=       -0.0229652177 Hartrees.
 Nuclear repulsion after empirical dispersion term =      688.1092489711 Hartrees.
 Using the following non-standard input for PCM:
 qrep pcmdoc geomview  nodis nocav g03defaults tsare=0.075
 Warning! Using old PCM defaults because the g03defaults keyword was found.
 These settings can be overridden by following keywords.
 nsfe=28
 NVESolv=36  SolvMW=84.1595   Rsolv=2.815
 eps=2.0165 RhoS=0.778099999999998
 --- end of non-standard input.
 Reading user-defined spheres from input:
 ISph  on   Nord    Re0     Alpha      Xe            Ye            Ze
 --- end of user-defined spheres data.
 ------------------------------------------------------------------------------
 Polarizable Continuum Model (PCM)
 =================================
 Model                : PCM.
 Atomic radii         : UA0 (Simple United Atom Topological Model).
 Polarization charges : Total charges.
 Charge compensation  : None.
 Solution method      : On-the-fly selection.
 Cavity type          : SES (Solvent Excluding Surface) (Alpha=1.000).
 Cavity algorithm     : GePol (RMin=0.200 OFac=0.890).
                        User-defined sphere list used, NSphG=   28.
                        Tesserae with average area of 0.075 Ang**2.
                        Smoothing algorithm: None.
                        Polarization charges: point-like.
                        Self-potential: constant (ISelfS= 1).
                        Self-field    : global E.n sum rule (ISelfD= 3).
 Solvent              : CycloHexane, Eps=   2.016500 Eps(inf)=   2.035188
                        RSolv=   2.815000 Ang.
 ------------------------------------------------------------------------------
 GePol: Number of generator spheres                  =      28
 GePol: Total number of spheres                      =     191
 GePol: Number of exposed spheres                    =     137 ( 71.73%)
 GePol: Number of tesserae                           =    4704
 GePol: Average area of tesserae                     =       0.05 Ang**2
 GePol: Minimum area of tessera                      =   0.10D-02 Ang**2
 GePol: Maximum area of tessera                      =    0.12395 Ang**2
 GePol: Number of small tesserae                     =       0
 GePol: Fraction of small tesserae (<1% of avg)      =       0.00%
 GePol: Total count of vertices                      =   16705
 GePol: Maximum number of vertices in a tessera      =       7
 GePol: Cavity surface area                          =    218.628 Ang**2
 GePol: Cavity volume                                =    246.882 Ang**3
 Leave Link  301 at Tue Aug  4 09:18:52 2020, MaxMem=  6442450944 cpu:               7.9 elap:               0.4
 (Enter /scratch/scicomp/CentOS/7.3.1611/Haswell/software/Gaussian/g16/l302.exe)
 NPDir=0 NMtPBC=     1 NCelOv=     1 NCel=       1 NClECP=     1 NCelD=      1
         NCelK=      1 NCelE2=     1 NClLst=     1 CellRange=     0.0.
 One-electron integrals computed using PRISM.
   1 Symmetry operations used in ECPInt.
 ECPInt:  NShTT=   19306 NPrTT=   56928 LenC2=   18510 LenP2D=   42188.
 LDataN:  DoStor=T MaxTD1= 6 Len=  172
 NBasis=   528 RedAO= T EigKep=  1.93D-05  NBF=   528
 NBsUse=   528 1.00D-06 EigRej= -1.00D+00 NBFU=   528
 Precomputing XC quadrature grid using
 IXCGrd= 4 IRadAn=           5 IRanWt=          -1 IRanGd=           0 AccXCQ= 0.00D+00.
 Generated NRdTot=       0 NPtTot=           0 NUsed=           0 NTot=          32
 NSgBfM=   526   526   526   526   526 MxSgAt=    28 MxSgA2=    28.
 Leave Link  302 at Tue Aug  4 09:18:53 2020, MaxMem=  6442450944 cpu:              12.7 elap:               0.6
 (Enter /scratch/scicomp/CentOS/7.3.1611/Haswell/software/Gaussian/g16/l303.exe)
 DipDrv:  MaxL=1.
 Leave Link  303 at Tue Aug  4 09:18:53 2020, MaxMem=  6442450944 cpu:               1.5 elap:               0.1
 (Enter /scratch/scicomp/CentOS/7.3.1611/Haswell/software/Gaussian/g16/l401.exe)
 ExpMin= 9.52D-02 ExpMax= 1.36D+04 ExpMxC= 4.63D+02 IAcc=3 IRadAn=         5 AccDes= 0.00D+00
 Harris functional with IExCor= 4639 and IRadAn=       5 diagonalized for initial guess.
 HarFok:  IExCor= 4639 AccDes= 0.00D+00 IRadAn=         5 IDoV= 1 UseB2=F ITyADJ=14
 ICtDFT=  3500011 ScaDFX=  1.000000  1.000000  1.000000  1.000000
 FoFCou: FMM=F IPFlag=           0 FMFlag=      100000 FMFlg1=           0
         NFxFlg=           0 DoJE=T BraDBF=F KetDBF=T FulRan=T
         wScrn=  0.000000 ICntrl=       500 IOpCl=  0 I1Cent=   200000004 NGrid=           0
         NMat0=    1 NMatS0=      1 NMatT0=    0 NMatD0=    1 NMtDS0=    0 NMtDT0=    0
 Symmetry not used in FoFCou.
 Harris En= -444.634199187769    
 JPrj=0 DoOrth=F DoCkMO=T.
 Mixing orbitals, IMix= 1 IMixAn=  0 NRI=1 NE=   44 Coef=  7.07106781D-01  7.07106781D-01
 Mixing orbitals, IMix= 1 IMixAn=  0 NRI=1 NE=   44 Coef= -7.07106781D-01  7.07106781D-01
 Initial guess <Sx>= 0.0000 <Sy>= 0.0000 <Sz>= 0.0000 <S**2>= 1.0000 S= 0.6180
 Leave Link  401 at Tue Aug  4 09:18:55 2020, MaxMem=  6442450944 cpu:              49.3 elap:               2.1
 (Enter /scratch/scicomp/CentOS/7.3.1611/Haswell/software/Gaussian/g16/l502.exe)
 Two-electron integral symmetry not used.
 UHF open shell SCF:
 Using DIIS extrapolation, IDIIS=  1040.
 NGot=  6442450944 LenX=  6441877030 LenY=  6441597718
 Requested convergence on RMS density matrix=1.00D-08 within 128 cycles.
 Requested convergence on MAX density matrix=1.00D-06.
 Requested convergence on             energy=1.00D-06.
 No special actions if energy rises.
 Fock matrices will be formed incrementally for  20 cycles.

 Cycle   1  Pass 1  IDiag  1:
 FoFJK:  IHMeth= 1 ICntrl=       0 DoSepK=T KAlg= 0 I1Cent=           0 FoldK=F
 IRaf=         1 NMat=       1 IRICut=       1 DoRegI=T DoRafI=F ISym2E= 0 IDoP0=0 IntGTp=1.
 FoFCou: FMM=F IPFlag=           0 FMFlag=      100000 FMFlg1=           0
         NFxFlg=           0 DoJE=T BraDBF=F KetDBF=F FulRan=T
         wScrn=  0.000000 ICntrl=       500 IOpCl=  0 I1Cent=           0 NGrid=           0
         NMat0=    1 NMatS0=      1 NMatT0=    0 NMatD0=    1 NMtDS0=    0 NMtDT0=    0
 Symmetry not used in FoFCou.
 Inv3:  Mode=1 IEnd=    66382848.
 Iteration    1 A*A^-1 deviation from unit magnitude is 3.11D-15 for    627.
 Iteration    1 A*A^-1 deviation from orthogonality  is 2.15D-15 for   4077   2716.
 Iteration    1 A^-1*A deviation from unit magnitude is 3.11D-15 for    627.
 Iteration    1 A^-1*A deviation from orthogonality  is 2.92D-15 for   2014    725.
 E= -466.586005404820    
 DIIS: error= 5.69D-02 at cycle   1 NSaved=   1.
 NSaved= 1 IEnMin= 1 EnMin= -466.586005404820     IErMin= 1 ErrMin= 5.69D-02
 ErrMax= 5.69D-02  0.00D+00 EMaxC= 1.00D-01 BMatC= 4.11D+00 BMatP= 4.11D+00
 IDIUse=3 WtCom= 4.31D-01 WtEn= 5.69D-01
 Coeff-Com:  0.100D+01
 Coeff-En:   0.100D+01
 Coeff:      0.100D+01
 Gap=     0.191 Goal=   None    Shift=    0.000
 Gap=     0.191 Goal=   None    Shift=    0.000
 GapD=    0.191 DampG=1.000 DampE=0.500 DampFc=0.5000 IDamp=-1.
 Damping current iteration by 5.00D-01
 RMSDP=1.66D-03 MaxDP=9.20D-02              OVMax= 2.88D-01

 Cycle   2  Pass 1  IDiag  1:
 RMSU=  8.10D-04    CP:  9.70D-01
 E= -466.684179254483     Delta-E=       -0.098173849663 Rises=F Damp=T
 DIIS: error= 2.70D-02 at cycle   2 NSaved=   2.
 NSaved= 2 IEnMin= 2 EnMin= -466.684179254483     IErMin= 2 ErrMin= 2.70D-02
 ErrMax= 2.70D-02  0.00D+00 EMaxC= 1.00D-01 BMatC= 9.31D-01 BMatP= 4.11D+00
 IDIUse=3 WtCom= 7.30D-01 WtEn= 2.70D-01
 Coeff-Com: -0.867D+00 0.187D+01
 Coeff-En:   0.000D+00 0.100D+01
 Coeff:     -0.633D+00 0.163D+01
 Gap=     0.256 Goal=   None    Shift=    0.000
 Gap=     0.256 Goal=   None    Shift=    0.000
 RMSDP=1.17D-03 MaxDP=4.91D-02 DE=-9.82D-02 OVMax= 1.28D-01

 Cycle   3  Pass 1  IDiag  1:
 RMSU=  6.25D-04    CP:  9.27D-01  2.18D+00
 E= -466.807414327798     Delta-E=       -0.123235073315 Rises=F Damp=F
 DIIS: error= 7.32D-03 at cycle   3 NSaved=   3.
 NSaved= 3 IEnMin= 3 EnMin= -466.807414327798     IErMin= 3 ErrMin= 7.32D-03
 ErrMax= 7.32D-03  0.00D+00 EMaxC= 1.00D-01 BMatC= 2.29D-02 BMatP= 9.31D-01
 IDIUse=3 WtCom= 9.27D-01 WtEn= 7.32D-02
 Coeff-Com: -0.315D+00 0.678D+00 0.637D+00
 Coeff-En:   0.000D+00 0.000D+00 0.100D+01
 Coeff:     -0.292D+00 0.628D+00 0.664D+00
 Gap=     0.273 Goal=   None    Shift=    0.000
 Gap=     0.273 Goal=   None    Shift=    0.000
 RMSDP=2.41D-04 MaxDP=1.56D-02 DE=-1.23D-01 OVMax= 6.67D-02

 Cycle   4  Pass 1  IDiag  1:
 RMSU=  2.24D-04    CP:  9.18D-01  2.27D+00  9.91D-01
 E= -466.818096368398     Delta-E=       -0.010682040601 Rises=F Damp=F
 DIIS: error= 5.11D-03 at cycle   4 NSaved=   4.
 NSaved= 4 IEnMin= 4 EnMin= -466.818096368398     IErMin= 4 ErrMin= 5.11D-03
 ErrMax= 5.11D-03  0.00D+00 EMaxC= 1.00D-01 BMatC= 2.16D-03 BMatP= 2.29D-02
 IDIUse=3 WtCom= 9.49D-01 WtEn= 5.11D-02
 Coeff-Com:  0.107D+00-0.230D+00-0.377D-01 0.116D+01
 Coeff-En:   0.000D+00 0.000D+00 0.000D+00 0.100D+01
 Coeff:      0.102D+00-0.219D+00-0.358D-01 0.115D+01
 Gap=     0.282 Goal=   None    Shift=    0.000
 Gap=     0.282 Goal=   None    Shift=    0.000
 RMSDP=2.35D-04 MaxDP=1.06D-02 DE=-1.07D-02 OVMax= 8.02D-02

 Cycle   5  Pass 1  IDiag  1:
 RMSU=  9.55D-05    CP:  9.11D-01  2.32D+00  1.23D+00  1.64D+00
 E= -466.823132755166     Delta-E=       -0.005036386768 Rises=F Damp=F
 DIIS: error= 2.88D-03 at cycle   5 NSaved=   5.
 NSaved= 5 IEnMin= 5 EnMin= -466.823132755166     IErMin= 5 ErrMin= 2.88D-03
 ErrMax= 2.88D-03  0.00D+00 EMaxC= 1.00D-01 BMatC= 1.11D-03 BMatP= 2.16D-03
 IDIUse=3 WtCom= 9.71D-01 WtEn= 2.88D-02
 Coeff-Com:  0.885D-01-0.190D+00-0.113D+00 0.478D+00 0.737D+00
 Coeff-En:   0.000D+00 0.000D+00 0.000D+00 0.000D+00 0.100D+01
 Coeff:      0.860D-01-0.185D+00-0.110D+00 0.464D+00 0.745D+00
 Gap=     0.286 Goal=   None    Shift=    0.000
 Gap=     0.286 Goal=   None    Shift=    0.000
 RMSDP=1.11D-04 MaxDP=5.72D-03 DE=-5.04D-03 OVMax= 3.90D-02

 Cycle   6  Pass 1  IDiag  1:
 RMSU=  3.78D-05    CP:  9.08D-01  2.33D+00  1.29D+00  2.02D+00  1.45D+00
 E= -466.824967949363     Delta-E=       -0.001835194196 Rises=F Damp=F
 DIIS: error= 1.97D-03 at cycle   6 NSaved=   6.
 NSaved= 6 IEnMin= 6 EnMin= -466.824967949363     IErMin= 6 ErrMin= 1.97D-03
 ErrMax= 1.97D-03  0.00D+00 EMaxC= 1.00D-01 BMatC= 5.53D-04 BMatP= 1.11D-03
 IDIUse=3 WtCom= 9.80D-01 WtEn= 1.97D-02
 Coeff-Com: -0.611D-01 0.131D+00 0.538D-01-0.450D+00 0.348D-02 0.132D+01
 Coeff-En:   0.000D+00 0.000D+00 0.000D+00 0.000D+00 0.000D+00 0.100D+01
 Coeff:     -0.599D-01 0.129D+00 0.527D-01-0.441D+00 0.341D-02 0.132D+01
 Gap=     0.283 Goal=   None    Shift=    0.000
 Gap=     0.283 Goal=   None    Shift=    0.000
 RMSDP=1.19D-04 MaxDP=5.20D-03 DE=-1.84D-03 OVMax= 4.33D-02

 Cycle   7  Pass 1  IDiag  1:
 RMSU=  3.19D-05    CP:  9.05D-01  2.32D+00  1.34D+00  2.36D+00  2.16D+00
                    CP:  1.97D+00
 E= -466.826684139328     Delta-E=       -0.001716189965 Rises=F Damp=F
 DIIS: error= 1.35D-03 at cycle   7 NSaved=   7.
 NSaved= 7 IEnMin= 7 EnMin= -466.826684139328     IErMin= 7 ErrMin= 1.35D-03
 ErrMax= 1.35D-03  0.00D+00 EMaxC= 1.00D-01 BMatC= 3.23D-04 BMatP= 5.53D-04
 IDIUse=3 WtCom= 9.87D-01 WtEn= 1.35D-02
 Coeff-Com: -0.180D-01 0.393D-01 0.456D-01 0.933D-01-0.474D+00-0.984D+00
 Coeff-Com:  0.230D+01
 Coeff-En:   0.000D+00 0.000D+00 0.000D+00 0.000D+00 0.000D+00 0.000D+00
 Coeff-En:   0.100D+01
 Coeff:     -0.178D-01 0.387D-01 0.450D-01 0.920D-01-0.468D+00-0.970D+00
 Coeff:      0.228D+01
 Gap=     0.281 Goal=   None    Shift=    0.000
 Gap=     0.281 Goal=   None    Shift=    0.000
 RMSDP=1.59D-04 MaxDP=6.72D-03 DE=-1.72D-03 OVMax= 6.03D-02

 Cycle   8  Pass 1  IDiag  1:
 RMSU=  3.89D-05    CP:  9.02D-01  2.31D+00  1.39D+00  2.75D+00  3.00D+00
                    CP:  3.00D+00  2.87D+00
 E= -466.828458292770     Delta-E=       -0.001774153442 Rises=F Damp=F
 DIIS: error= 7.31D-04 at cycle   8 NSaved=   8.
 NSaved= 8 IEnMin= 8 EnMin= -466.828458292770     IErMin= 8 ErrMin= 7.31D-04
 ErrMax= 7.31D-04  0.00D+00 EMaxC= 1.00D-01 BMatC= 1.36D-04 BMatP= 3.23D-04
 IDIUse=3 WtCom= 9.93D-01 WtEn= 7.31D-03
 Coeff-Com:  0.396D-01-0.851D-01-0.208D-01 0.404D+00-0.136D+00-0.132D+01
 Coeff-Com:  0.755D+00 0.137D+01
 Coeff-En:   0.000D+00 0.000D+00 0.000D+00 0.000D+00 0.000D+00 0.000D+00
 Coeff-En:   0.000D+00 0.100D+01
 Coeff:      0.393D-01-0.845D-01-0.207D-01 0.401D+00-0.135D+00-0.131D+01
 Coeff:      0.749D+00 0.136D+01
 Gap=     0.283 Goal=   None    Shift=    0.000
 Gap=     0.283 Goal=   None    Shift=    0.000
 RMSDP=1.29D-04 MaxDP=5.72D-03 DE=-1.77D-03 OVMax= 5.06D-02

 Cycle   9  Pass 1  IDiag  1:
 RMSU=  7.82D-05    CP:  8.99D-01  2.31D+00  1.43D+00  3.00D+00  3.00D+00
                    CP:  3.00D+00  3.00D+00  2.94D+00
 E= -466.829258657823     Delta-E=       -0.000800365052 Rises=F Damp=F
 DIIS: error= 3.39D-04 at cycle   9 NSaved=   9.
 NSaved= 9 IEnMin= 9 EnMin= -466.829258657823     IErMin= 9 ErrMin= 3.39D-04
 ErrMax= 3.39D-04  0.00D+00 EMaxC= 1.00D-01 BMatC= 3.88D-05 BMatP= 1.36D-04
 IDIUse=3 WtCom= 9.97D-01 WtEn= 3.39D-03
 Coeff-Com:  0.280D-01-0.603D-01-0.247D-01 0.201D+00 0.597D-01-0.423D+00
 Coeff-Com: -0.241D+00 0.616D+00 0.845D+00
 Coeff-En:   0.000D+00 0.000D+00 0.000D+00 0.000D+00 0.000D+00 0.000D+00
 Coeff-En:   0.000D+00 0.000D+00 0.100D+01
 Coeff:      0.279D-01-0.601D-01-0.247D-01 0.200D+00 0.595D-01-0.422D+00
 Coeff:     -0.240D+00 0.614D+00 0.845D+00
 Gap=     0.284 Goal=   None    Shift=    0.000
 Gap=     0.284 Goal=   None    Shift=    0.000
 RMSDP=5.11D-05 MaxDP=2.41D-03 DE=-8.00D-04 OVMax= 2.03D-02

 Cycle  10  Pass 1  IDiag  1:
 RMSU=  3.68D-05    CP:  8.98D-01  2.31D+00  1.45D+00  3.00D+00  3.00D+00
                    CP:  3.00D+00  3.00D+00  3.00D+00  1.40D+00
 E= -466.829398723700     Delta-E=       -0.000140065878 Rises=F Damp=F
 DIIS: error= 1.73D-04 at cycle  10 NSaved=  10.
 NSaved=10 IEnMin=10 EnMin= -466.829398723700     IErMin=10 ErrMin= 1.73D-04
 ErrMax= 1.73D-04  0.00D+00 EMaxC= 1.00D-01 BMatC= 6.41D-06 BMatP= 3.88D-05
 IDIUse=3 WtCom= 9.98D-01 WtEn= 1.73D-03
 Coeff-Com: -0.192D-02 0.422D-02-0.125D-02-0.449D-01 0.310D-01 0.202D+00
 Coeff-Com: -0.173D+00-0.280D+00 0.442D-01 0.122D+01
 Coeff-En:   0.000D+00 0.000D+00 0.000D+00 0.000D+00 0.000D+00 0.000D+00
 Coeff-En:   0.000D+00 0.000D+00 0.000D+00 0.100D+01
 Coeff:     -0.192D-02 0.421D-02-0.125D-02-0.449D-01 0.310D-01 0.201D+00
 Coeff:     -0.172D+00-0.280D+00 0.441D-01 0.122D+01
 Gap=     0.282 Goal=   None    Shift=    0.000
 Gap=     0.282 Goal=   None    Shift=    0.000
 RMSDP=3.31D-05 MaxDP=1.39D-03 DE=-1.40D-04 OVMax= 1.31D-02

 Cycle  11  Pass 1  IDiag  1:
 RMSU=  5.91D-06    CP:  8.97D-01  2.31D+00  1.46D+00  3.00D+00  3.00D+00
                    CP:  3.00D+00  3.00D+00  3.00D+00  1.64D+00  1.68D+00
 E= -466.829431821571     Delta-E=       -0.000033097870 Rises=F Damp=F
 DIIS: error= 4.28D-05 at cycle  11 NSaved=  11.
 NSaved=11 IEnMin=11 EnMin= -466.829431821571     IErMin=11 ErrMin= 4.28D-05
 ErrMax= 4.28D-05  0.00D+00 EMaxC= 1.00D-01 BMatC= 1.30D-06 BMatP= 6.41D-06
 IDIUse=1 WtCom= 1.00D+00 WtEn= 0.00D+00
 Coeff-Com: -0.335D-02 0.725D-02 0.213D-02-0.349D-01 0.132D-02 0.105D+00
 Coeff-Com: -0.136D-01-0.176D+00-0.113D+00 0.451D+00 0.774D+00
 Coeff:     -0.335D-02 0.725D-02 0.213D-02-0.349D-01 0.132D-02 0.105D+00
 Coeff:     -0.136D-01-0.176D+00-0.113D+00 0.451D+00 0.774D+00
 Gap=     0.282 Goal=   None    Shift=    0.000
 Gap=     0.282 Goal=   None    Shift=    0.000
 RMSDP=7.54D-06 MaxDP=2.91D-04 DE=-3.31D-05 OVMax= 2.82D-03

 Cycle  12  Pass 1  IDiag  1:
 RMSU=  2.14D-06    CP:  8.97D-01  2.31D+00  1.46D+00  3.00D+00  3.00D+00
                    CP:  3.00D+00  3.00D+00  3.00D+00  1.69D+00  1.83D+00
                    CP:  1.26D+00
 E= -466.829433704395     Delta-E=       -0.000001882825 Rises=F Damp=F
 DIIS: error= 1.29D-05 at cycle  12 NSaved=  12.
 NSaved=12 IEnMin=12 EnMin= -466.829433704395     IErMin=12 ErrMin= 1.29D-05
 ErrMax= 1.29D-05  0.00D+00 EMaxC= 1.00D-01 BMatC= 1.32D-07 BMatP= 1.30D-06
 IDIUse=1 WtCom= 1.00D+00 WtEn= 0.00D+00
 Coeff-Com:  0.134D-02-0.292D-02-0.746D-03 0.140D-01-0.213D-02-0.476D-01
 Coeff-Com:  0.259D-01 0.582D-01 0.906D-02-0.207D+00 0.283D-01 0.112D+01
 Coeff:      0.134D-02-0.292D-02-0.746D-03 0.140D-01-0.213D-02-0.476D-01
 Coeff:      0.259D-01 0.582D-01 0.906D-02-0.207D+00 0.283D-01 0.112D+01
 Gap=     0.282 Goal=   None    Shift=    0.000
 Gap=     0.282 Goal=   None    Shift=    0.000
 RMSDP=1.92D-06 MaxDP=1.08D-04 DE=-1.88D-06 OVMax= 3.83D-04

 Cycle  13  Pass 1  IDiag  1:
 RMSU=  8.36D-07    CP:  8.97D-01  2.31D+00  1.46D+00  3.00D+00  3.00D+00
                    CP:  3.00D+00  3.00D+00  3.00D+00  1.70D+00  1.85D+00
                    CP:  1.38D+00  1.60D+00
 E= -466.829433864790     Delta-E=       -0.000000160394 Rises=F Damp=F
 DIIS: error= 6.16D-06 at cycle  13 NSaved=  13.
 NSaved=13 IEnMin=13 EnMin= -466.829433864790     IErMin=13 ErrMin= 6.16D-06
 ErrMax= 6.16D-06  0.00D+00 EMaxC= 1.00D-01 BMatC= 1.75D-08 BMatP= 1.32D-07
 IDIUse=1 WtCom= 1.00D+00 WtEn= 0.00D+00
 Coeff-Com:  0.241D-03-0.518D-03-0.106D-03 0.282D-02-0.540D-03-0.102D-01
 Coeff-Com:  0.479D-02 0.150D-01 0.473D-02-0.582D-01-0.535D-01 0.140D+00
 Coeff-Com:  0.956D+00
 Coeff:      0.241D-03-0.518D-03-0.106D-03 0.282D-02-0.540D-03-0.102D-01
 Coeff:      0.479D-02 0.150D-01 0.473D-02-0.582D-01-0.535D-01 0.140D+00
 Coeff:      0.956D+00
 Gap=     0.282 Goal=   None    Shift=    0.000
 Gap=     0.282 Goal=   None    Shift=    0.000
 RMSDP=7.11D-07 MaxDP=3.27D-05 DE=-1.60D-07 OVMax= 2.59D-04

 Cycle  14  Pass 1  IDiag  1:
 RMSU=  2.90D-07    CP:  8.97D-01  2.31D+00  1.46D+00  3.00D+00  3.00D+00
                    CP:  3.00D+00  3.00D+00  3.00D+00  1.71D+00  1.86D+00
                    CP:  1.42D+00  1.66D+00  1.10D+00
 E= -466.829433894801     Delta-E=       -0.000000030012 Rises=F Damp=F
 DIIS: error= 3.54D-06 at cycle  14 NSaved=  14.
 NSaved=14 IEnMin=14 EnMin= -466.829433894801     IErMin=14 ErrMin= 3.54D-06
 ErrMax= 3.54D-06  0.00D+00 EMaxC= 1.00D-01 BMatC= 5.23D-09 BMatP= 1.75D-08
 IDIUse=1 WtCom= 1.00D+00 WtEn= 0.00D+00
 Coeff-Com: -0.277D-03 0.599D-03 0.210D-03-0.250D-02 0.541D-04 0.780D-02
 Coeff-Com: -0.320D-02-0.100D-01-0.318D-02 0.329D-01-0.344D-04-0.174D+00
 Coeff-Com: -0.721D-01 0.122D+01
 Coeff:     -0.277D-03 0.599D-03 0.210D-03-0.250D-02 0.541D-04 0.780D-02
 Coeff:     -0.320D-02-0.100D-01-0.318D-02 0.329D-01-0.344D-04-0.174D+00
 Coeff:     -0.721D-01 0.122D+01
 Gap=     0.282 Goal=   None    Shift=    0.000
 Gap=     0.282 Goal=   None    Shift=    0.000
 RMSDP=2.72D-07 MaxDP=1.60D-05 DE=-3.00D-08 OVMax= 8.05D-05

 Cycle  15  Pass 1  IDiag  1:
 RMSU=  1.31D-07    CP:  8.97D-01  2.31D+00  1.46D+00  3.00D+00  3.00D+00
                    CP:  3.00D+00  3.00D+00  3.00D+00  1.71D+00  1.86D+00
                    CP:  1.42D+00  1.65D+00  1.15D+00  1.67D+00
 E= -466.829433904092     Delta-E=       -0.000000009291 Rises=F Damp=F
 DIIS: error= 2.23D-06 at cycle  15 NSaved=  15.
 NSaved=15 IEnMin=15 EnMin= -466.829433904092     IErMin=15 ErrMin= 2.23D-06
 ErrMax= 2.23D-06  0.00D+00 EMaxC= 1.00D-01 BMatC= 1.92D-09 BMatP= 5.23D-09
 IDIUse=1 WtCom= 1.00D+00 WtEn= 0.00D+00
 Coeff-Com: -0.789D-04 0.169D-03 0.273D-04-0.947D-03 0.297D-03 0.355D-02
 Coeff-Com: -0.231D-02-0.487D-02-0.302D-03 0.232D-01 0.159D-01-0.699D-01
 Coeff-Com: -0.337D+00 0.121D+00 0.125D+01
 Coeff:     -0.789D-04 0.169D-03 0.273D-04-0.947D-03 0.297D-03 0.355D-02
 Coeff:     -0.231D-02-0.487D-02-0.302D-03 0.232D-01 0.159D-01-0.699D-01
 Coeff:     -0.337D+00 0.121D+00 0.125D+01
 Gap=     0.282 Goal=   None    Shift=    0.000
 Gap=     0.282 Goal=   None    Shift=    0.000
 RMSDP=2.08D-07 MaxDP=1.01D-05 DE=-9.29D-09 OVMax= 4.89D-05

 Cycle  16  Pass 1  IDiag  1:
 RMSU=  8.08D-08    CP:  8.97D-01  2.31D+00  1.46D+00  3.00D+00  3.00D+00
                    CP:  3.00D+00  3.00D+00  3.00D+00  1.71D+00  1.86D+00
                    CP:  1.42D+00  1.64D+00  1.19D+00  2.07D+00  1.77D+00
 E= -466.829433908292     Delta-E=       -0.000000004200 Rises=F Damp=F
 DIIS: error= 1.04D-06 at cycle  16 NSaved=  16.
 NSaved=16 IEnMin=16 EnMin= -466.829433908292     IErMin=16 ErrMin= 1.04D-06
 ErrMax= 1.04D-06  0.00D+00 EMaxC= 1.00D-01 BMatC= 3.79D-10 BMatP= 1.92D-09
 IDIUse=1 WtCom= 1.00D+00 WtEn= 0.00D+00
 Coeff-Com: -0.361D-05 0.754D-05-0.272D-05 0.513D-05 0.799D-04 0.774D-04
 Coeff-Com: -0.199D-03 0.185D-03 0.367D-03-0.713D-03 0.258D-02 0.170D-01
 Coeff-Com: -0.356D-01-0.280D+00 0.172D+00 0.112D+01
 Coeff:     -0.361D-05 0.754D-05-0.272D-05 0.513D-05 0.799D-04 0.774D-04
 Coeff:     -0.199D-03 0.185D-03 0.367D-03-0.713D-03 0.258D-02 0.170D-01
 Coeff:     -0.356D-01-0.280D+00 0.172D+00 0.112D+01
 Gap=     0.282 Goal=   None    Shift=    0.000
 Gap=     0.282 Goal=   None    Shift=    0.000
 RMSDP=1.10D-07 MaxDP=5.52D-06 DE=-4.20D-09 OVMax= 2.80D-05

 Cycle  17  Pass 1  IDiag  1:
 RMSU=  3.12D-08    CP:  8.97D-01  2.31D+00  1.46D+00  3.00D+00  3.00D+00
                    CP:  3.00D+00  3.00D+00  3.00D+00  1.71D+00  1.86D+00
                    CP:  1.42D+00  1.64D+00  1.19D+00  2.21D+00  2.21D+00
                    CP:  1.65D+00
 E= -466.829433909113     Delta-E=       -0.000000000821 Rises=F Damp=F
 DIIS: error= 3.12D-07 at cycle  17 NSaved=  17.
 NSaved=17 IEnMin=17 EnMin= -466.829433909113     IErMin=17 ErrMin= 3.12D-07
 ErrMax= 3.12D-07  0.00D+00 EMaxC= 1.00D-01 BMatC= 5.30D-11 BMatP= 3.79D-10
 IDIUse=1 WtCom= 1.00D+00 WtEn= 0.00D+00
 Coeff-Com: -0.918D-05 0.201D-04 0.762D-05-0.657D-04 0.839D-05 0.160D-03
 Coeff-Com: -0.789D-04 0.656D-04-0.343D-04-0.171D-02-0.172D-02 0.798D-02
 Coeff-Com:  0.515D-01-0.523D-01-0.210D+00 0.202D+00 0.100D+01
 Coeff:     -0.918D-05 0.201D-04 0.762D-05-0.657D-04 0.839D-05 0.160D-03
 Coeff:     -0.789D-04 0.656D-04-0.343D-04-0.171D-02-0.172D-02 0.798D-02
 Coeff:      0.515D-01-0.523D-01-0.210D+00 0.202D+00 0.100D+01
 Gap=     0.282 Goal=   None    Shift=    0.000
 Gap=     0.282 Goal=   None    Shift=    0.000
 RMSDP=3.30D-08 MaxDP=1.49D-06 DE=-8.21D-10 OVMax= 7.41D-06

 Cycle  18  Pass 1  IDiag  1:
 RMSU=  1.25D-08    CP:  8.97D-01  2.31D+00  1.46D+00  3.00D+00  3.00D+00
                    CP:  3.00D+00  3.00D+00  3.00D+00  1.71D+00  1.86D+00
                    CP:  1.42D+00  1.64D+00  1.20D+00  2.22D+00  2.35D+00
                    CP:  1.90D+00  1.22D+00
 E= -466.829433909185     Delta-E=       -0.000000000072 Rises=F Damp=F
 DIIS: error= 6.87D-08 at cycle  18 NSaved=  18.
 NSaved=18 IEnMin=18 EnMin= -466.829433909185     IErMin=18 ErrMin= 6.87D-08
 ErrMax= 6.87D-08  0.00D+00 EMaxC= 1.00D-01 BMatC= 4.15D-12 BMatP= 5.30D-11
 IDIUse=1 WtCom= 1.00D+00 WtEn= 0.00D+00
 Coeff-Com: -0.315D-05 0.679D-05 0.281D-05-0.354D-04-0.127D-05 0.101D-03
 Coeff-Com: -0.655D-04-0.734D-04-0.290D-04 0.136D-03-0.488D-03-0.140D-02
 Coeff-Com:  0.116D-01 0.239D-01-0.521D-01-0.886D-01 0.138D+00 0.969D+00
 Coeff:     -0.315D-05 0.679D-05 0.281D-05-0.354D-04-0.127D-05 0.101D-03
 Coeff:     -0.655D-04-0.734D-04-0.290D-04 0.136D-03-0.488D-03-0.140D-02
 Coeff:      0.116D-01 0.239D-01-0.521D-01-0.886D-01 0.138D+00 0.969D+00
 Gap=     0.282 Goal=   None    Shift=    0.000
 Gap=     0.282 Goal=   None    Shift=    0.000
 RMSDP=8.53D-09 MaxDP=3.76D-07 DE=-7.24D-11 OVMax= 1.93D-06

 Error on total polarization charges =  0.01117
 SCF Done:  E(UwB97XD) =  -466.829433909     A.U. after   18 cycles
            NFock= 18  Conv=0.85D-08     -V/T= 2.0054
 <Sx>= 0.0000 <Sy>= 0.0000 <Sz>= 0.0000 <S**2>= 0.0000 S= 0.0000
 <L.S>=  0.00000000000    
 KE= 4.643233329068D+02 PE=-2.458212364728D+03 EE= 8.389503489411D+02
 --------------------------------------------------------------------
 Variational PCM results
 =======================
 <psi(f)|   H    |psi(f)>                     (a.u.) =    -466.837296
 <psi(f)|H+V(f)/2|psi(f)>                     (a.u.) =    -466.838812
 Total free energy in solution:
 - with all non electrostatic terms           (a.u.) =    -466.829434
 --------------------------------------------------------------------
 (Polarized solute)-Solvent               (kcal/mol) =      -0.95
 --------------------------------------------------------------------
 Quantum repulsion energy                 (kcal/mol) =       5.89
 Total non electrostatic                  (kcal/mol) =       5.89
 --------------------------------------------------------------------
 Partition over spheres:
 Sphere  on Atom  Surface  Charge   GEl     GCav    GDR
    1               7.21   0.011   -0.05    0.00    0.00
    2               3.50   0.005   -0.03    0.00    0.00
    3               7.52  -0.010   -0.03    0.00    0.00
    4               2.24  -0.003   -0.01    0.00    0.00
    5               4.23   0.008   -0.05    0.00    0.00
    6               3.14   0.004   -0.02    0.00    0.00
    7               4.78  -0.007   -0.03    0.00    0.00
    8               2.23  -0.003   -0.01    0.00    0.00
    9               3.44   0.002    0.00    0.00    0.00
   10               6.52  -0.007   -0.01    0.00    0.00
   11               3.84  -0.003   -0.01    0.00    0.00
   12               6.78   0.011   -0.06    0.00    0.00
   13               7.52  -0.010   -0.03    0.00    0.00
   14               6.66   0.011   -0.05    0.00    0.00
   15               7.52  -0.010   -0.03    0.00    0.00
   16               3.47   0.001    0.00    0.00    0.00
   17               3.86  -0.004   -0.02    0.00    0.00
   18               7.06  -0.008   -0.03    0.00    0.00
   19               5.34   0.010   -0.07    0.00    0.00
   20               4.37  -0.006   -0.03    0.00    0.00
   21               7.09   0.011   -0.07    0.00    0.00
   22               7.51  -0.010   -0.03    0.00    0.00
   23               3.28   0.002    0.00    0.00    0.00
   24               3.59  -0.004   -0.01    0.00    0.00
   25               6.55  -0.007   -0.01    0.00    0.00
   26               3.29   0.001    0.00    0.00    0.00
   27               6.98  -0.008   -0.03    0.00    0.00
   28               3.82  -0.004   -0.01    0.00    0.00
 Added spheres:    75.27   0.014   -0.23    0.00    0.00
 --------------------------------------------------------------------
 After PCM corrections, the energy is  -466.829433909     a.u.
 --------------------------------------------------------------------
 Annihilation of the first spin contaminant:
 S**2 before annihilation     0.0000,   after     0.0000
 Leave Link  502 at Tue Aug  4 09:24:37 2020, MaxMem=  6442450944 cpu:            8127.2 elap:             341.4
 (Enter /scratch/scicomp/CentOS/7.3.1611/Haswell/software/Gaussian/g16/l601.exe)
 Copying SCF densities to generalized density rwf, IOpCl= 1 IROHF=0.

 **********************************************************************

            Population analysis using the SCF Density.

 **********************************************************************

 Alpha  occ. eigenvalues --  -10.28432 -10.28431 -10.28191 -10.28190 -10.28037
 Alpha  occ. eigenvalues --  -10.28036 -10.28013 -10.28012 -10.27795 -10.27794
 Alpha  occ. eigenvalues --  -10.27005 -10.27004  -0.94599  -0.93346  -0.84724
 Alpha  occ. eigenvalues --   -0.84258  -0.83521  -0.83293  -0.71577  -0.70822
 Alpha  occ. eigenvalues --   -0.68352  -0.67694  -0.59811  -0.59779  -0.57633
 Alpha  occ. eigenvalues --   -0.56278  -0.53486  -0.52929  -0.50945  -0.50725
 Alpha  occ. eigenvalues --   -0.49737  -0.48872  -0.47547  -0.46830  -0.45841
 Alpha  occ. eigenvalues --   -0.44686  -0.41389  -0.40858  -0.39801  -0.39107
 Alpha  occ. eigenvalues --   -0.39006  -0.38382  -0.30310  -0.25974
 Alpha virt. eigenvalues --    0.02229   0.06826   0.11369   0.13266   0.14471
 Alpha virt. eigenvalues --    0.15379   0.15614   0.16650   0.16777   0.16926
 Alpha virt. eigenvalues --    0.17439   0.17896   0.18385   0.19342   0.20893
 Alpha virt. eigenvalues --    0.22039   0.22262   0.23670   0.24203   0.24867
 Alpha virt. eigenvalues --    0.25341   0.26055   0.26885   0.27275   0.28297
 Alpha virt. eigenvalues --    0.29423   0.29778   0.30243   0.31146   0.31242
 Alpha virt. eigenvalues --    0.31491   0.32458   0.33088   0.33509   0.34776
 Alpha virt. eigenvalues --    0.35051   0.35597   0.36488   0.36883   0.38044
 Alpha virt. eigenvalues --    0.38907   0.39372   0.42042   0.42439   0.43002
 Alpha virt. eigenvalues --    0.44139   0.44756   0.44830   0.45586   0.46269
 Alpha virt. eigenvalues --    0.47428   0.48378   0.49029   0.49160   0.49495
 Alpha virt. eigenvalues --    0.49547   0.49734   0.49900   0.50789   0.50807
 Alpha virt. eigenvalues --    0.51263   0.51373   0.52847   0.52989   0.53643
 Alpha virt. eigenvalues --    0.53825   0.55042   0.55169   0.56071   0.56206
 Alpha virt. eigenvalues --    0.57485   0.57935   0.58556   0.60052   0.60862
 Alpha virt. eigenvalues --    0.61388   0.62043   0.62774   0.63737   0.64320
 Alpha virt. eigenvalues --    0.66671   0.66791   0.68362   0.68897   0.69475
 Alpha virt. eigenvalues --    0.70259   0.72610   0.74128   0.75819   0.76678
 Alpha virt. eigenvalues --    0.78157   0.78710   0.79047   0.80834   0.82088
 Alpha virt. eigenvalues --    0.83146   0.84024   0.85152   0.85385   0.88126
 Alpha virt. eigenvalues --    0.89681   0.91145   0.92243   0.94167   0.94375
 Alpha virt. eigenvalues --    0.95436   0.97621   0.97806   0.99074   1.00403
 Alpha virt. eigenvalues --    1.02160   1.03252   1.04627   1.05380   1.05664
 Alpha virt. eigenvalues --    1.07637   1.08165   1.08719   1.10151   1.11996
 Alpha virt. eigenvalues --    1.12819   1.13210   1.15206   1.16611   1.17122
 Alpha virt. eigenvalues --    1.17497   1.19374   1.19482   1.19581   1.20019
 Alpha virt. eigenvalues --    1.20470   1.21528   1.23927   1.25574   1.26064
 Alpha virt. eigenvalues --    1.26539   1.27261   1.28510   1.29327   1.29744
 Alpha virt. eigenvalues --    1.30984   1.31016   1.32784   1.32785   1.33675
 Alpha virt. eigenvalues --    1.34939   1.35049   1.37099   1.38086   1.39033
 Alpha virt. eigenvalues --    1.39906   1.39936   1.40877   1.41295   1.42828
 Alpha virt. eigenvalues --    1.42977   1.43289   1.43649   1.44936   1.45286
 Alpha virt. eigenvalues --    1.45473   1.46197   1.48031   1.49104   1.49457
 Alpha virt. eigenvalues --    1.50931   1.52769   1.53624   1.56634   1.57123
 Alpha virt. eigenvalues --    1.58240   1.59289   1.60428   1.61094   1.62174
 Alpha virt. eigenvalues --    1.63674   1.64685   1.64930   1.66088   1.68210
 Alpha virt. eigenvalues --    1.68855   1.72149   1.76209   1.76375   1.77200
 Alpha virt. eigenvalues --    1.80265   1.82227   1.82825   1.84766   1.85921
 Alpha virt. eigenvalues --    1.89086   1.89905   1.90761   1.93250   1.93724
 Alpha virt. eigenvalues --    1.95136   1.96664   1.97630   2.01155   2.01437
 Alpha virt. eigenvalues --    2.04910   2.05534   2.09139   2.11826   2.12490
 Alpha virt. eigenvalues --    2.12539   2.14513   2.15983   2.17120   2.18524
 Alpha virt. eigenvalues --    2.18642   2.19473   2.19895   2.23988   2.24552
 Alpha virt. eigenvalues --    2.25135   2.25422   2.25573   2.29672   2.32368
 Alpha virt. eigenvalues --    2.36471   2.36763   2.39093   2.41691   2.42614
 Alpha virt. eigenvalues --    2.44601   2.47137   2.47617   2.48272   2.50199
 Alpha virt. eigenvalues --    2.50386   2.51819   2.52294   2.54423   2.56905
 Alpha virt. eigenvalues --    2.59244   2.60410   2.61382   2.62934   2.63183
 Alpha virt. eigenvalues --    2.64436   2.64918   2.65540   2.66952   2.67672
 Alpha virt. eigenvalues --    2.69440   2.70245   2.70793   2.72945   2.74516
 Alpha virt. eigenvalues --    2.75098   2.75185   2.75344   2.75870   2.77263
 Alpha virt. eigenvalues --    2.79501   2.80251   2.81207   2.81860   2.82221
 Alpha virt. eigenvalues --    2.82263   2.83854   2.84312   2.84367   2.86159
 Alpha virt. eigenvalues --    2.86491   2.88401   2.88567   2.89952   2.91278
 Alpha virt. eigenvalues --    2.92806   2.93434   2.94651   2.94956   2.97027
 Alpha virt. eigenvalues --    2.97644   2.98535   2.99757   3.00120   3.01375
 Alpha virt. eigenvalues --    3.01460   3.02089   3.04236   3.04356   3.06952
 Alpha virt. eigenvalues --    3.07524   3.09100   3.09465   3.10678   3.11318
 Alpha virt. eigenvalues --    3.11823   3.13074   3.13622   3.14863   3.15571
 Alpha virt. eigenvalues --    3.16406   3.16547   3.17389   3.17765   3.19850
 Alpha virt. eigenvalues --    3.20383   3.20963   3.20973   3.21916   3.22397
 Alpha virt. eigenvalues --    3.23552   3.23554   3.23765   3.25230   3.25764
 Alpha virt. eigenvalues --    3.25766   3.28125   3.28183   3.28499   3.29640
 Alpha virt. eigenvalues --    3.30041   3.30968   3.31494   3.31648   3.33431
 Alpha virt. eigenvalues --    3.33452   3.34117   3.35733   3.36711   3.36903
 Alpha virt. eigenvalues --    3.37419   3.37848   3.39319   3.41553   3.42391
 Alpha virt. eigenvalues --    3.43502   3.44345   3.45121   3.45867   3.46634
 Alpha virt. eigenvalues --    3.47360   3.47740   3.48052   3.48539   3.48838
 Alpha virt. eigenvalues --    3.50397   3.52076   3.52238   3.52894   3.54792
 Alpha virt. eigenvalues --    3.55169   3.56262   3.56801   3.57845   3.60063
 Alpha virt. eigenvalues --    3.61916   3.62312   3.63516   3.63553   3.63754
 Alpha virt. eigenvalues --    3.65199   3.67702   3.69000   3.70408   3.70521
 Alpha virt. eigenvalues --    3.71369   3.72871   3.74261   3.78903   3.78930
 Alpha virt. eigenvalues --    3.80631   3.81046   3.82238   3.83084   3.84170
 Alpha virt. eigenvalues --    3.84228   3.86342   3.88343   3.90145   3.90569
 Alpha virt. eigenvalues --    3.92285   3.94266   3.96534   3.99403   4.00918
 Alpha virt. eigenvalues --    4.02080   4.04601   4.05247   4.06134   4.09155
 Alpha virt. eigenvalues --    4.09413   4.11005   4.11764   4.12287   4.13896
 Alpha virt. eigenvalues --    4.14129   4.15416   4.17836   4.18863   4.20048
 Alpha virt. eigenvalues --    4.21211   4.22878   4.24542   4.28018   4.28074
 Alpha virt. eigenvalues --    4.29645   4.31858   4.32610   4.33149   4.37672
 Alpha virt. eigenvalues --    4.38788   4.39369   4.41243   4.43419   4.48350
 Alpha virt. eigenvalues --    4.48855   4.49282   4.50656   4.53896   4.54495
 Alpha virt. eigenvalues --    4.56737   4.61068   4.62419   4.67962   4.68535
 Alpha virt. eigenvalues --    4.71393   4.72974   4.73137   4.76443   4.79082
 Alpha virt. eigenvalues --    4.80707   4.82344   4.83154   4.85842   4.86909
 Alpha virt. eigenvalues --    4.89556   4.90741   4.93921   4.94284   4.97293
 Alpha virt. eigenvalues --    4.99041   5.05795   5.06613   5.11561   5.11750
 Alpha virt. eigenvalues --    5.17298   5.19988   5.20383   5.22767   5.25009
 Alpha virt. eigenvalues --    5.27773   5.36023   5.37859   5.40832   5.42755
 Alpha virt. eigenvalues --    5.46429   5.46744   5.51623   5.57011   5.71759
 Alpha virt. eigenvalues --    5.72634   5.77510   5.78293   5.97279   6.02324
 Alpha virt. eigenvalues --    7.95514   7.95793   8.03567   8.03993   8.05555
 Alpha virt. eigenvalues --    8.10015   8.11550   8.14752   8.19168   8.19797
 Alpha virt. eigenvalues --    8.35659   8.37944  34.77728  34.78051  34.81679
 Alpha virt. eigenvalues --   34.81685  34.85169  34.91980  34.97171  35.00442
 Alpha virt. eigenvalues --   35.02413  35.03627  35.17772  35.19679
  Beta  occ. eigenvalues --  -10.28432 -10.28431 -10.28191 -10.28190 -10.28037
  Beta  occ. eigenvalues --  -10.28036 -10.28013 -10.28012 -10.27795 -10.27794
  Beta  occ. eigenvalues --  -10.27005 -10.27004  -0.94599  -0.93346  -0.84724
  Beta  occ. eigenvalues --   -0.84258  -0.83521  -0.83293  -0.71577  -0.70822
  Beta  occ. eigenvalues --   -0.68352  -0.67694  -0.59811  -0.59779  -0.57633
  Beta  occ. eigenvalues --   -0.56278  -0.53486  -0.52929  -0.50945  -0.50725
  Beta  occ. eigenvalues --   -0.49737  -0.48872  -0.47547  -0.46830  -0.45841
  Beta  occ. eigenvalues --   -0.44686  -0.41389  -0.40858  -0.39801  -0.39107
  Beta  occ. eigenvalues --   -0.39006  -0.38382  -0.30310  -0.25974
  Beta virt. eigenvalues --    0.02229   0.06826   0.11369   0.13266   0.14471
  Beta virt. eigenvalues --    0.15379   0.15614   0.16650   0.16777   0.16926
  Beta virt. eigenvalues --    0.17439   0.17896   0.18385   0.19342   0.20893
  Beta virt. eigenvalues --    0.22039   0.22262   0.23670   0.24203   0.24867
  Beta virt. eigenvalues --    0.25341   0.26055   0.26885   0.27275   0.28297
  Beta virt. eigenvalues --    0.29423   0.29778   0.30243   0.31146   0.31242
  Beta virt. eigenvalues --    0.31491   0.32458   0.33088   0.33509   0.34776
  Beta virt. eigenvalues --    0.35051   0.35597   0.36488   0.36883   0.38044
  Beta virt. eigenvalues --    0.38907   0.39372   0.42042   0.42439   0.43002
  Beta virt. eigenvalues --    0.44139   0.44756   0.44830   0.45586   0.46269
  Beta virt. eigenvalues --    0.47428   0.48378   0.49029   0.49160   0.49495
  Beta virt. eigenvalues --    0.49547   0.49734   0.49900   0.50789   0.50807
  Beta virt. eigenvalues --    0.51263   0.51373   0.52847   0.52989   0.53643
  Beta virt. eigenvalues --    0.53825   0.55042   0.55169   0.56071   0.56206
  Beta virt. eigenvalues --    0.57485   0.57935   0.58556   0.60052   0.60862
  Beta virt. eigenvalues --    0.61388   0.62043   0.62774   0.63737   0.64320
  Beta virt. eigenvalues --    0.66671   0.66791   0.68362   0.68897   0.69475
  Beta virt. eigenvalues --    0.70259   0.72610   0.74128   0.75819   0.76678
  Beta virt. eigenvalues --    0.78157   0.78710   0.79047   0.80834   0.82088
  Beta virt. eigenvalues --    0.83146   0.84024   0.85152   0.85385   0.88126
  Beta virt. eigenvalues --    0.89681   0.91145   0.92243   0.94167   0.94375
  Beta virt. eigenvalues --    0.95436   0.97621   0.97806   0.99074   1.00403
  Beta virt. eigenvalues --    1.02160   1.03252   1.04627   1.05380   1.05664
  Beta virt. eigenvalues --    1.07637   1.08165   1.08719   1.10151   1.11996
  Beta virt. eigenvalues --    1.12819   1.13210   1.15206   1.16611   1.17122
  Beta virt. eigenvalues --    1.17497   1.19374   1.19482   1.19581   1.20019
  Beta virt. eigenvalues --    1.20470   1.21528   1.23927   1.25574   1.26064
  Beta virt. eigenvalues --    1.26539   1.27261   1.28510   1.29327   1.29744
  Beta virt. eigenvalues --    1.30984   1.31016   1.32784   1.32785   1.33675
  Beta virt. eigenvalues --    1.34939   1.35049   1.37099   1.38086   1.39033
  Beta virt. eigenvalues --    1.39906   1.39936   1.40877   1.41295   1.42828
  Beta virt. eigenvalues --    1.42977   1.43289   1.43649   1.44936   1.45286
  Beta virt. eigenvalues --    1.45473   1.46197   1.48031   1.49104   1.49457
  Beta virt. eigenvalues --    1.50931   1.52769   1.53624   1.56634   1.57123
  Beta virt. eigenvalues --    1.58240   1.59289   1.60428   1.61094   1.62174
  Beta virt. eigenvalues --    1.63674   1.64685   1.64930   1.66088   1.68210
  Beta virt. eigenvalues --    1.68855   1.72149   1.76209   1.76375   1.77200
  Beta virt. eigenvalues --    1.80265   1.82227   1.82825   1.84766   1.85921
  Beta virt. eigenvalues --    1.89086   1.89905   1.90761   1.93250   1.93724
  Beta virt. eigenvalues --    1.95136   1.96664   1.97630   2.01155   2.01437
  Beta virt. eigenvalues --    2.04910   2.05534   2.09139   2.11826   2.12490
  Beta virt. eigenvalues --    2.12539   2.14513   2.15983   2.17120   2.18524
  Beta virt. eigenvalues --    2.18642   2.19473   2.19895   2.23988   2.24552
  Beta virt. eigenvalues --    2.25135   2.25422   2.25573   2.29672   2.32368
  Beta virt. eigenvalues --    2.36471   2.36763   2.39093   2.41691   2.42614
  Beta virt. eigenvalues --    2.44601   2.47137   2.47617   2.48272   2.50199
  Beta virt. eigenvalues --    2.50386   2.51819   2.52294   2.54423   2.56905
  Beta virt. eigenvalues --    2.59244   2.60410   2.61382   2.62934   2.63183
  Beta virt. eigenvalues --    2.64436   2.64918   2.65540   2.66952   2.67672
  Beta virt. eigenvalues --    2.69440   2.70245   2.70793   2.72945   2.74516
  Beta virt. eigenvalues --    2.75098   2.75185   2.75344   2.75870   2.77263
  Beta virt. eigenvalues --    2.79501   2.80251   2.81207   2.81860   2.82221
  Beta virt. eigenvalues --    2.82263   2.83854   2.84312   2.84367   2.86159
  Beta virt. eigenvalues --    2.86491   2.88401   2.88567   2.89952   2.91278
  Beta virt. eigenvalues --    2.92806   2.93434   2.94651   2.94956   2.97027
  Beta virt. eigenvalues --    2.97644   2.98535   2.99757   3.00120   3.01375
  Beta virt. eigenvalues --    3.01460   3.02089   3.04236   3.04356   3.06952
  Beta virt. eigenvalues --    3.07524   3.09100   3.09465   3.10678   3.11318
  Beta virt. eigenvalues --    3.11823   3.13074   3.13622   3.14863   3.15571
  Beta virt. eigenvalues --    3.16406   3.16547   3.17389   3.17765   3.19850
  Beta virt. eigenvalues --    3.20383   3.20963   3.20973   3.21916   3.22397
  Beta virt. eigenvalues --    3.23552   3.23554   3.23765   3.25230   3.25764
  Beta virt. eigenvalues --    3.25766   3.28125   3.28183   3.28499   3.29640
  Beta virt. eigenvalues --    3.30041   3.30968   3.31494   3.31648   3.33431
  Beta virt. eigenvalues --    3.33452   3.34117   3.35733   3.36711   3.36903
  Beta virt. eigenvalues --    3.37419   3.37848   3.39319   3.41553   3.42391
  Beta virt. eigenvalues --    3.43502   3.44345   3.45121   3.45867   3.46634
  Beta virt. eigenvalues --    3.47360   3.47740   3.48052   3.48539   3.48838
  Beta virt. eigenvalues --    3.50397   3.52076   3.52238   3.52894   3.54792
  Beta virt. eigenvalues --    3.55169   3.56262   3.56801   3.57845   3.60063
  Beta virt. eigenvalues --    3.61916   3.62312   3.63516   3.63553   3.63754
  Beta virt. eigenvalues --    3.65199   3.67702   3.69000   3.70408   3.70521
  Beta virt. eigenvalues --    3.71369   3.72871   3.74261   3.78903   3.78930
  Beta virt. eigenvalues --    3.80631   3.81046   3.82238   3.83084   3.84170
  Beta virt. eigenvalues --    3.84228   3.86342   3.88343   3.90145   3.90569
  Beta virt. eigenvalues --    3.92285   3.94266   3.96534   3.99403   4.00918
  Beta virt. eigenvalues --    4.02080   4.04601   4.05247   4.06134   4.09155
  Beta virt. eigenvalues --    4.09413   4.11005   4.11764   4.12287   4.13896
  Beta virt. eigenvalues --    4.14129   4.15416   4.17836   4.18863   4.20048
  Beta virt. eigenvalues --    4.21211   4.22878   4.24542   4.28018   4.28074
  Beta virt. eigenvalues --    4.29645   4.31858   4.32610   4.33149   4.37672
  Beta virt. eigenvalues --    4.38788   4.39369   4.41243   4.43419   4.48350
  Beta virt. eigenvalues --    4.48855   4.49282   4.50656   4.53896   4.54495
  Beta virt. eigenvalues --    4.56737   4.61068   4.62419   4.67962   4.68535
  Beta virt. eigenvalues --    4.71393   4.72974   4.73137   4.76443   4.79082
  Beta virt. eigenvalues --    4.80707   4.82344   4.83154   4.85842   4.86909
  Beta virt. eigenvalues --    4.89556   4.90741   4.93921   4.94284   4.97293
  Beta virt. eigenvalues --    4.99041   5.05795   5.06613   5.11561   5.11750
  Beta virt. eigenvalues --    5.17298   5.19988   5.20383   5.22767   5.25009
  Beta virt. eigenvalues --    5.27773   5.36023   5.37859   5.40832   5.42755
  Beta virt. eigenvalues --    5.46429   5.46744   5.51623   5.57011   5.71759
  Beta virt. eigenvalues --    5.72634   5.77510   5.78293   5.97279   6.02324
  Beta virt. eigenvalues --    7.95514   7.95793   8.03567   8.03993   8.05555
  Beta virt. eigenvalues --    8.10015   8.11550   8.14752   8.19168   8.19797
  Beta virt. eigenvalues --    8.35659   8.37944  34.77728  34.78051  34.81679
  Beta virt. eigenvalues --   34.81685  34.85169  34.91980  34.97171  35.00442
  Beta virt. eigenvalues --   35.02413  35.03627  35.17772  35.19679
          Condensed to atoms (all electrons):
               1          2          3          4          5          6
     1  C    5.161592  -0.008519   0.424283  -0.001958   0.001932  -0.010257
     2  C   -0.008519   5.429578  -0.002231   0.423976  -0.074643   0.001243
     3  H    0.424283  -0.002231   0.491119   0.000029  -0.000046   0.000033
     4  H   -0.001958   0.423976   0.000029   0.458194  -0.016015  -0.000080
     5  C    0.001932  -0.074643  -0.000046  -0.016015   5.235307   0.476282
     6  C   -0.010257   0.001243   0.000033  -0.000080   0.476282   5.429169
     7  H    0.000232  -0.003497   0.000001   0.000008   0.433431  -0.030124
     8  H   -0.001826  -0.000041  -0.000094   0.000268  -0.030346   0.423990
     9  C    0.002933  -0.021081  -0.000010  -0.004099  -0.058392   0.200309
    10  H   -0.000042   0.002492  -0.000001  -0.000434  -0.006996  -0.045860
    11  H    0.000118  -0.008944   0.000003   0.000658   0.010571  -0.061212
    12  C   -0.000207   0.019300   0.000001   0.005389   0.273293  -0.058044
    13  H   -0.000001   0.000189   0.000000   0.000048  -0.035762   0.004968
    14  C    0.000165  -0.010266  -0.000000  -0.001814  -0.039015  -0.008314
    15  H   -0.000000   0.000035  -0.000000  -0.000096   0.006676  -0.002258
    16  C   -0.000582   0.018695   0.000000   0.000720  -0.002775  -0.056510
    17  H   -0.000005   0.001321  -0.000000  -0.004332   0.010088  -0.004928
    18  H    0.000003   0.000157   0.000000   0.000463  -0.003553   0.012576
    19  C   -0.039074   0.476263   0.006632  -0.030297  -0.031791  -0.074681
    20  H    0.004131  -0.030347  -0.000097  -0.004246   0.000173  -0.003504
    21  C    0.564276  -0.057865  -0.031154   0.004375   0.004065   0.019309
    22  H   -0.025465   0.004956  -0.005697  -0.000052   0.000047   0.000191
    23  C   -0.082338   0.200183   0.005154  -0.010324   0.014123  -0.021033
    24  H    0.013559  -0.061114  -0.000064  -0.003986   0.000696  -0.008936
    25  H    0.004507  -0.045807  -0.000023  -0.001478   0.000803   0.002492
    26  C    0.268986  -0.056693  -0.028632   0.004289  -0.011561   0.018707
    27  H   -0.037381   0.012617  -0.004270  -0.000055   0.000364   0.000156
    28  H   -0.033415  -0.004940   0.000844  -0.000183  -0.004053   0.001316
               7          8          9         10         11         12
     1  C    0.000232  -0.001826   0.002933  -0.000042   0.000118  -0.000207
     2  C   -0.003497  -0.000041  -0.021081   0.002492  -0.008944   0.019300
     3  H    0.000001  -0.000094  -0.000010  -0.000001   0.000003   0.000001
     4  H    0.000008   0.000268  -0.004099  -0.000434   0.000658   0.005389
     5  C    0.433431  -0.030346  -0.058392  -0.006996   0.010571   0.273293
     6  C   -0.030124   0.423990   0.200309  -0.045860  -0.061212  -0.058044
     7  H    0.476016  -0.004246   0.002893  -0.000168   0.000002  -0.031910
     8  H   -0.004246   0.458375  -0.010350  -0.001477  -0.004004   0.004382
     9  C    0.002893  -0.010350   5.012400   0.397488   0.469680   0.036467
    10  H   -0.000168  -0.001477   0.397488   0.568369  -0.019962   0.000794
    11  H    0.000002  -0.004004   0.469680  -0.019962   0.522915  -0.005173
    12  C   -0.031910   0.004382   0.036467   0.000794  -0.005173   5.031029
    13  H   -0.003279  -0.000052   0.000062  -0.000079   0.000024   0.424626
    14  C    0.004109  -0.001963  -0.082508   0.004488   0.013578   0.563494
    15  H   -0.000096   0.000029   0.005171  -0.000024  -0.000064  -0.031555
    16  C   -0.001146   0.004300   0.330447  -0.022687  -0.057741  -0.050958
    17  H    0.000013  -0.000183  -0.027683   0.006284  -0.006892  -0.013407
    18  H    0.000029  -0.000056  -0.045486  -0.009556  -0.000823   0.005898
    19  C    0.000174  -0.016041   0.014112   0.000809   0.000722   0.004055
    20  H    0.000007   0.000007   0.003535   0.000375  -0.002812  -0.000125
    21  C   -0.000124   0.005393  -0.004156  -0.000133  -0.000033  -0.000466
    22  H   -0.000001   0.000048  -0.000100  -0.000001  -0.000021  -0.000001
    23  C    0.003524  -0.004130   0.002623  -0.000082   0.000363  -0.004143
    24  H   -0.002836   0.000658   0.000363  -0.000027  -0.000012  -0.000017
    25  H    0.000374  -0.000433  -0.000082   0.000012  -0.000027  -0.000133
    26  C   -0.001924   0.000737  -0.001421   0.000050  -0.000131   0.001342
    27  H   -0.000013   0.000465   0.000003  -0.000000  -0.000000  -0.000039
    28  H    0.001857  -0.004318   0.000454   0.000012  -0.000002   0.000331
              13         14         15         16         17         18
     1  C   -0.000001   0.000165  -0.000000  -0.000582  -0.000005   0.000003
     2  C    0.000189  -0.010266   0.000035   0.018695   0.001321   0.000157
     3  H    0.000000  -0.000000  -0.000000   0.000000  -0.000000   0.000000
     4  H    0.000048  -0.001814  -0.000096   0.000720  -0.004332   0.000463
     5  C   -0.035762  -0.039015   0.006676  -0.002775   0.010088  -0.003553
     6  C    0.004968  -0.008314  -0.002258  -0.056510  -0.004928   0.012576
     7  H   -0.003279   0.004109  -0.000096  -0.001146   0.000013   0.000029
     8  H   -0.000052  -0.001963   0.000029   0.004300  -0.000183  -0.000056
     9  C    0.000062  -0.082508   0.005171   0.330447  -0.027683  -0.045486
    10  H   -0.000079   0.004488  -0.000024  -0.022687   0.006284  -0.009556
    11  H    0.000024   0.013578  -0.000064  -0.057741  -0.006892  -0.000823
    12  C    0.424626   0.563494  -0.031555  -0.050958  -0.013407   0.005898
    13  H    0.489470  -0.025552  -0.005714   0.004034  -0.000384  -0.000088
    14  C   -0.025552   5.162282   0.424669   0.268900  -0.033398  -0.037274
    15  H   -0.005714   0.424669   0.491204  -0.028628   0.000841  -0.004253
    16  C    0.004034   0.268900  -0.028628   4.965357   0.398879   0.436134
    17  H   -0.000384  -0.033398   0.000841   0.398879   0.577408  -0.021885
    18  H   -0.000088  -0.037274  -0.004253   0.436134  -0.021885   0.536730
    19  C    0.000047   0.001945  -0.000046  -0.011565  -0.004052   0.000366
    20  H   -0.000001   0.000232   0.000001  -0.001925   0.001859  -0.000013
    21  C   -0.000001  -0.000208   0.000001   0.001347   0.000333  -0.000040
    22  H    0.000000  -0.000001   0.000000   0.000013   0.000000  -0.000001
    23  C   -0.000099   0.002920  -0.000011  -0.001414   0.000455   0.000003
    24  H   -0.000020   0.000115   0.000003  -0.000131  -0.000002  -0.000000
    25  H   -0.000001  -0.000042  -0.000001   0.000050   0.000012  -0.000000
    26  C    0.000012  -0.000581   0.000000   0.000698   0.000005  -0.000003
    27  H   -0.000001   0.000003   0.000000  -0.000003   0.000001  -0.000000
    28  H    0.000000  -0.000005  -0.000000   0.000005  -0.000011   0.000001
              19         20         21         22         23         24
     1  C   -0.039074   0.004131   0.564276  -0.025465  -0.082338   0.013559
     2  C    0.476263  -0.030347  -0.057865   0.004956   0.200183  -0.061114
     3  H    0.006632  -0.000097  -0.031154  -0.005697   0.005154  -0.000064
     4  H   -0.030297  -0.004246   0.004375  -0.000052  -0.010324  -0.003986
     5  C   -0.031791   0.000173   0.004065   0.000047   0.014123   0.000696
     6  C   -0.074681  -0.003504   0.019309   0.000191  -0.021033  -0.008936
     7  H    0.000174   0.000007  -0.000124  -0.000001   0.003524  -0.002836
     8  H   -0.016041   0.000007   0.005393   0.000048  -0.004130   0.000658
     9  C    0.014112   0.003535  -0.004156  -0.000100   0.002623   0.000363
    10  H    0.000809   0.000375  -0.000133  -0.000001  -0.000082  -0.000027
    11  H    0.000722  -0.002812  -0.000033  -0.000021   0.000363  -0.000012
    12  C    0.004055  -0.000125  -0.000466  -0.000001  -0.004143  -0.000017
    13  H    0.000047  -0.000001  -0.000001   0.000000  -0.000099  -0.000020
    14  C    0.001945   0.000232  -0.000208  -0.000001   0.002920   0.000115
    15  H   -0.000046   0.000001   0.000001   0.000000  -0.000011   0.000003
    16  C   -0.011565  -0.001925   0.001347   0.000013  -0.001414  -0.000131
    17  H   -0.004052   0.001859   0.000333   0.000000   0.000455  -0.000002
    18  H    0.000366  -0.000013  -0.000040  -0.000001   0.000003  -0.000000
    19  C    5.234735   0.433578   0.273502  -0.035720  -0.058302   0.010534
    20  H    0.433578   0.476343  -0.031933  -0.003285   0.002898   0.000002
    21  C    0.273502  -0.031933   5.030154   0.424520   0.036398  -0.005157
    22  H   -0.035720  -0.003285   0.424520   0.489429   0.000065   0.000024
    23  C   -0.058302   0.002898   0.036398   0.000065   5.012562   0.469636
    24  H    0.010534   0.000002  -0.005157   0.000024   0.469636   0.522716
    25  H   -0.006995  -0.000168   0.000765  -0.000080   0.397409  -0.019981
    26  C   -0.002621  -0.001145  -0.051143   0.004025   0.330366  -0.057689
    27  H   -0.003582   0.000029   0.005999  -0.000087  -0.045509  -0.000831
    28  H    0.010095   0.000013  -0.013418  -0.000384  -0.027729  -0.006887
              25         26         27         28
     1  C    0.004507   0.268986  -0.037381  -0.033415
     2  C   -0.045807  -0.056693   0.012617  -0.004940
     3  H   -0.000023  -0.028632  -0.004270   0.000844
     4  H   -0.001478   0.004289  -0.000055  -0.000183
     5  C    0.000803  -0.011561   0.000364  -0.004053
     6  C    0.002492   0.018707   0.000156   0.001316
     7  H    0.000374  -0.001924  -0.000013   0.001857
     8  H   -0.000433   0.000737   0.000465  -0.004318
     9  C   -0.000082  -0.001421   0.000003   0.000454
    10  H    0.000012   0.000050  -0.000000   0.000012
    11  H   -0.000027  -0.000131  -0.000000  -0.000002
    12  C   -0.000133   0.001342  -0.000039   0.000331
    13  H   -0.000001   0.000012  -0.000001   0.000000
    14  C   -0.000042  -0.000581   0.000003  -0.000005
    15  H   -0.000001   0.000000   0.000000  -0.000000
    16  C    0.000050   0.000698  -0.000003   0.000005
    17  H    0.000012   0.000005   0.000001  -0.000011
    18  H   -0.000000  -0.000003  -0.000000   0.000001
    19  C   -0.006995  -0.002621  -0.003582   0.010095
    20  H   -0.000168  -0.001145   0.000029   0.000013
    21  C    0.000765  -0.051143   0.005999  -0.013418
    22  H   -0.000080   0.004025  -0.000087  -0.000384
    23  C    0.397409   0.330366  -0.045509  -0.027729
    24  H   -0.019981  -0.057689  -0.000831  -0.006887
    25  H    0.568388  -0.022694  -0.009547   0.006286
    26  C   -0.022694   4.965747   0.436196   0.398934
    27  H   -0.009547   0.436196   0.536586  -0.021904
    28  H    0.006286   0.398934  -0.021904   0.577415
          Atomic-Atomic Spin Densities.
               1          2          3          4          5          6
     1  C   -0.000000   0.000000   0.000000  -0.000000  -0.000000  -0.000000
     2  C    0.000000   0.000000   0.000000  -0.000000  -0.000000  -0.000000
     3  H    0.000000   0.000000  -0.000000   0.000000   0.000000   0.000000
     4  H   -0.000000  -0.000000   0.000000   0.000000   0.000000   0.000000
     5  C   -0.000000  -0.000000   0.000000   0.000000   0.000000  -0.000000
     6  C   -0.000000  -0.000000   0.000000   0.000000  -0.000000  -0.000000
     7  H    0.000000  -0.000000  -0.000000  -0.000000   0.000000  -0.000000
     8  H    0.000000  -0.000000   0.000000   0.000000   0.000000   0.000000
     9  C    0.000000  -0.000000  -0.000000  -0.000000   0.000000  -0.000000
    10  H   -0.000000  -0.000000  -0.000000  -0.000000  -0.000000  -0.000000
    11  H   -0.000000   0.000000   0.000000   0.000000  -0.000000   0.000000
    12  C    0.000000   0.000000  -0.000000  -0.000000   0.000000  -0.000000
    13  H   -0.000000  -0.000000  -0.000000  -0.000000   0.000000  -0.000000
    14  C   -0.000000   0.000000   0.000000  -0.000000   0.000000  -0.000000
    15  H   -0.000000  -0.000000  -0.000000  -0.000000   0.000000  -0.000000
    16  C    0.000000   0.000000  -0.000000  -0.000000  -0.000000   0.000000
    17  H   -0.000000  -0.000000   0.000000  -0.000000   0.000000  -0.000000
    18  H    0.000000   0.000000  -0.000000   0.000000  -0.000000   0.000000
    19  C   -0.000000   0.000000  -0.000000  -0.000000   0.000000   0.000000
    20  H   -0.000000   0.000000   0.000000   0.000000   0.000000   0.000000
    21  C    0.000000   0.000000   0.000000   0.000000   0.000000  -0.000000
    22  H   -0.000000   0.000000   0.000000   0.000000   0.000000   0.000000
    23  C   -0.000000   0.000000  -0.000000  -0.000000   0.000000   0.000000
    24  H    0.000000  -0.000000   0.000000   0.000000  -0.000000  -0.000000
    25  H    0.000000   0.000000  -0.000000  -0.000000  -0.000000   0.000000
    26  C   -0.000000  -0.000000   0.000000   0.000000  -0.000000  -0.000000
    27  H    0.000000  -0.000000   0.000000   0.000000  -0.000000  -0.000000
    28  H    0.000000   0.000000  -0.000000  -0.000000   0.000000   0.000000
               7          8          9         10         11         12
     1  C    0.000000   0.000000   0.000000  -0.000000  -0.000000   0.000000
     2  C   -0.000000  -0.000000  -0.000000  -0.000000   0.000000   0.000000
     3  H   -0.000000   0.000000  -0.000000  -0.000000   0.000000  -0.000000
     4  H   -0.000000   0.000000  -0.000000  -0.000000   0.000000  -0.000000
     5  C    0.000000   0.000000   0.000000  -0.000000  -0.000000   0.000000
     6  C   -0.000000   0.000000  -0.000000  -0.000000   0.000000  -0.000000
     7  H    0.000000  -0.000000  -0.000000   0.000000  -0.000000  -0.000000
     8  H   -0.000000  -0.000000   0.000000   0.000000  -0.000000  -0.000000
     9  C   -0.000000   0.000000   0.000001   0.000000  -0.000000  -0.000000
    10  H    0.000000   0.000000   0.000000  -0.000000   0.000000   0.000000
    11  H   -0.000000  -0.000000  -0.000000   0.000000  -0.000000   0.000000
    12  C   -0.000000  -0.000000  -0.000000   0.000000   0.000000   0.000001
    13  H    0.000000  -0.000000   0.000000   0.000000  -0.000000  -0.000000
    14  C    0.000000   0.000000   0.000000  -0.000000  -0.000000  -0.000000
    15  H   -0.000000  -0.000000   0.000000   0.000000  -0.000000  -0.000000
    16  C   -0.000000  -0.000000  -0.000000   0.000000   0.000000   0.000000
    17  H    0.000000   0.000000   0.000000  -0.000000  -0.000000  -0.000000
    18  H   -0.000000  -0.000000  -0.000000   0.000000   0.000000   0.000000
    19  C   -0.000000  -0.000000  -0.000000   0.000000   0.000000  -0.000000
    20  H    0.000000   0.000000  -0.000000  -0.000000   0.000000  -0.000000
    21  C    0.000000   0.000000   0.000000  -0.000000  -0.000000  -0.000000
    22  H    0.000000   0.000000   0.000000  -0.000000   0.000000  -0.000000
    23  C    0.000000   0.000000   0.000000   0.000000  -0.000000  -0.000000
    24  H   -0.000000  -0.000000   0.000000  -0.000000   0.000000   0.000000
    25  H    0.000000   0.000000  -0.000000   0.000000   0.000000   0.000000
    26  C   -0.000000   0.000000   0.000000  -0.000000   0.000000   0.000000
    27  H    0.000000  -0.000000   0.000000  -0.000000  -0.000000   0.000000
    28  H   -0.000000   0.000000  -0.000000   0.000000   0.000000  -0.000000
              13         14         15         16         17         18
     1  C   -0.000000  -0.000000  -0.000000   0.000000  -0.000000   0.000000
     2  C   -0.000000   0.000000  -0.000000   0.000000  -0.000000   0.000000
     3  H   -0.000000   0.000000  -0.000000  -0.000000   0.000000  -0.000000
     4  H   -0.000000  -0.000000  -0.000000  -0.000000  -0.000000   0.000000
     5  C    0.000000   0.000000   0.000000  -0.000000   0.000000  -0.000000
     6  C   -0.000000  -0.000000  -0.000000   0.000000  -0.000000   0.000000
     7  H    0.000000   0.000000  -0.000000  -0.000000   0.000000  -0.000000
     8  H   -0.000000   0.000000  -0.000000  -0.000000   0.000000  -0.000000
     9  C    0.000000   0.000000   0.000000  -0.000000   0.000000  -0.000000
    10  H    0.000000  -0.000000   0.000000   0.000000  -0.000000   0.000000
    11  H   -0.000000  -0.000000  -0.000000   0.000000  -0.000000   0.000000
    12  C   -0.000000  -0.000000  -0.000000   0.000000  -0.000000   0.000000
    13  H   -0.000000   0.000000  -0.000000  -0.000000   0.000000   0.000000
    14  C    0.000000  -0.000000  -0.000000   0.000000  -0.000000   0.000000
    15  H   -0.000000  -0.000000   0.000000  -0.000000   0.000000  -0.000000
    16  C   -0.000000   0.000000  -0.000000  -0.000000  -0.000000   0.000000
    17  H    0.000000  -0.000000   0.000000  -0.000000   0.000000  -0.000000
    18  H    0.000000   0.000000  -0.000000   0.000000  -0.000000   0.000000
    19  C   -0.000000   0.000000  -0.000000   0.000000  -0.000000   0.000000
    20  H   -0.000000  -0.000000   0.000000   0.000000   0.000000  -0.000000
    21  C    0.000000  -0.000000   0.000000  -0.000000   0.000000  -0.000000
    22  H   -0.000000   0.000000   0.000000  -0.000000   0.000000  -0.000000
    23  C   -0.000000  -0.000000   0.000000  -0.000000   0.000000  -0.000000
    24  H   -0.000000   0.000000  -0.000000  -0.000000  -0.000000   0.000000
    25  H    0.000000   0.000000   0.000000   0.000000  -0.000000   0.000000
    26  C    0.000000  -0.000000   0.000000  -0.000000  -0.000000   0.000000
[...]
     2  C    0.000000  -0.000000  -0.000000   0.000000
     3  H   -0.000000   0.000000   0.000000  -0.000000
     4  H   -0.000000   0.000000   0.000000  -0.000000
     5  C    0.000000  -0.000000  -0.000000   0.000000
     6  C    0.000000  -0.000000  -0.000000   0.000000
     7  H    0.000000  -0.000000   0.000000  -0.000000
     8  H    0.000000   0.000000  -0.000000   0.000000
     9  C   -0.000000   0.000000   0.000000  -0.000000
    10  H   -0.000000  -0.000000  -0.000000   0.000000
    11  H    0.000000   0.000000  -0.000000   0.000000
    12  C   -0.000000   0.000000   0.000000  -0.000000
    13  H   -0.000000   0.000000   0.000000  -0.000000
    14  C    0.000000  -0.000000  -0.000000   0.000000
    15  H    0.000000  -0.000000   0.000000   0.000000
    16  C    0.000000   0.000000  -0.000000  -0.000000
    17  H   -0.000000  -0.000000   0.000000   0.000000
    18  H   -0.000000   0.000000  -0.000000  -0.000000
    19  C   -0.000000   0.000000  -0.000000  -0.000000
    20  H   -0.000000   0.000000   0.000000  -0.000000
    21  C   -0.000000  -0.000000   0.000000   0.000000
    22  H   -0.000000   0.000000  -0.000000  -0.000000
    23  C   -0.000000   0.000000   0.000000  -0.000000
    24  H   -0.000000  -0.000000  -0.000000   0.000000
    25  H    0.000000  -0.000000  -0.000000   0.000000
    26  C   -0.000000   0.000000  -0.000000   0.000000
    27  H   -0.000000  -0.000000   0.000000  -0.000000
    28  H    0.000000   0.000000  -0.000000  -0.000000
 Mulliken charges and spin densities:
               1          2
     1  C   -0.202506   0.000001
     2  C   -0.213852  -0.000001
     3  H    0.147861  -0.000000
     4  H    0.188436   0.000000
     5  C   -0.166797   0.000001
     6  C   -0.215133  -0.000001
     7  H    0.163068   0.000000
     8  H    0.187431  -0.000000
     9  C   -0.237655   0.000000
    10  H    0.134058  -0.000000
    11  H    0.155019  -0.000000
    12  C   -0.175034  -0.000001
    13  H    0.150798  -0.000000
    14  C   -0.203093   0.000001
    15  H    0.147967  -0.000000
    16  C   -0.199414  -0.000000
    17  H    0.124160   0.000000
    18  H    0.134664   0.000000
    19  C   -0.167718   0.000000
    20  H    0.163143  -0.000000
    21  C   -0.175377  -0.000001
    22  H    0.150627   0.000000
    23  C   -0.239824  -0.000000
    24  H    0.155855   0.000000
    25  H    0.134190   0.000000
    26  C   -0.200665   0.000000
    27  H    0.135000   0.000000
    28  H    0.124790  -0.000000
 Sum of Mulliken charges =  -0.00000  -0.00000
 Mulliken charges and spin densities with hydrogens summed into heavy atoms:
               1          2
     1  C   -0.054645   0.000001
     2  C   -0.025416  -0.000001
     5  C   -0.003729   0.000001
     6  C   -0.027702  -0.000001
     9  C    0.051423  -0.000000
    12  C   -0.024236  -0.000001
    14  C   -0.055126   0.000001
    16  C    0.059410  -0.000000
    19  C   -0.004574   0.000000
    21  C   -0.024749  -0.000001
    23  C    0.050221   0.000000
    26  C    0.059125   0.000000
 Electronic spatial extent (au):  <R**2>=           2211.8215
 Charge=              0.0000 electrons
 Dipole moment (field-independent basis, Debye):
    X=             -0.0005    Y=              0.0018    Z=             -0.0015  Tot=              0.0024
 Quadrupole moment (field-independent basis, Debye-Ang):
   XX=            -70.2761   YY=            -68.2974   ZZ=            -75.6506
   XY=             -3.3837   XZ=             -3.2781   YZ=             -1.4690
 Traceless Quadrupole moment (field-independent basis, Debye-Ang):
   XX=              1.1320   YY=              3.1106   ZZ=             -4.2426
   XY=             -3.3837   XZ=             -3.2781   YZ=             -1.4690
 Octapole moment (field-independent basis, Debye-Ang**2):
  XXX=             -0.0241  YYY=              0.0140  ZZZ=             -0.0102  XYY=              0.0025
  XXY=             -0.0154  XXZ=             -0.0126  XZZ=             -0.0039  YZZ=              0.0058
  YYZ=              0.0035  XYZ=              0.0023
 Hexadecapole moment (field-independent basis, Debye-Ang**3):
 XXXX=          -1986.9071 YYYY=           -606.9539 ZZZZ=           -330.5894 XXXY=           -100.5701
 XXXZ=           -122.9094 YYYX=            -56.1419 YYYZ=             -2.2888 ZZZX=            -70.2436
 ZZZY=            -12.5387 XXYY=           -429.7499 XXZZ=           -412.0667 YYZZ=           -171.4917
 XXYZ=            -21.2328 YYXZ=            -25.9931 ZZXY=            -42.4570
 N-N= 6.881092489711D+02 E-N=-2.458896066145D+03  KE= 4.644369559374D+02
                          Isotropic Fermi Contact Couplings
        Atom                 a.u.       MegaHertz       Gauss      10(-4) cm-1
     1  C(13)              0.00000       0.00010       0.00004       0.00003
     2  C(13)             -0.00000      -0.00020      -0.00007      -0.00007
     3  H(1)              -0.00000      -0.00008      -0.00003      -0.00003
     4  H(1)               0.00000       0.00020       0.00007       0.00007
     5  C(13)              0.00000       0.00001       0.00000       0.00000
     6  C(13)              0.00000       0.00002       0.00001       0.00001
     7  H(1)               0.00000       0.00003       0.00001       0.00001
     8  H(1)              -0.00000      -0.00012      -0.00004      -0.00004
     9  C(13)              0.00000       0.00010       0.00003       0.00003
    10  H(1)              -0.00000      -0.00012      -0.00004      -0.00004
    11  H(1)              -0.00000      -0.00012      -0.00004      -0.00004
    12  C(13)              0.00000       0.00001       0.00000       0.00000
    13  H(1)              -0.00000      -0.00010      -0.00004      -0.00003
    14  C(13)              0.00000       0.00008       0.00003       0.00003
    15  H(1)              -0.00000      -0.00004      -0.00001      -0.00001
    16  C(13)             -0.00000      -0.00015      -0.00005      -0.00005
    17  H(1)               0.00000       0.00014       0.00005       0.00005
    18  H(1)               0.00000       0.00004       0.00001       0.00001
    19  C(13)              0.00000       0.00014       0.00005       0.00005
    20  H(1)              -0.00000      -0.00010      -0.00004      -0.00003
    21  C(13)             -0.00000      -0.00018      -0.00007      -0.00006
    22  H(1)               0.00000       0.00019       0.00007       0.00006
    23  C(13)             -0.00000      -0.00003      -0.00001      -0.00001
    24  H(1)               0.00000       0.00009       0.00003       0.00003
    25  H(1)               0.00000       0.00001       0.00000       0.00000
    26  C(13)              0.00000       0.00007       0.00003       0.00002
    27  H(1)               0.00000       0.00003       0.00001       0.00001
    28  H(1)               0.00000       0.00000       0.00000       0.00000
 --------------------------------------------------------
       Center         ----  Spin Dipole Couplings  ----
                      3XX-RR        3YY-RR        3ZZ-RR
 --------------------------------------------------------
     1   Atom       -0.000000     -0.000001      0.000001
     2   Atom        0.000000      0.000000     -0.000000
     3   Atom        0.000000     -0.000000      0.000000
     4   Atom       -0.000000      0.000000      0.000000
     5   Atom       -0.000001     -0.000001      0.000001
     6   Atom        0.000001      0.000001     -0.000001
     7   Atom        0.000000     -0.000000      0.000000
     8   Atom        0.000000      0.000000     -0.000000
     9   Atom       -0.000000     -0.000000      0.000000
    10   Atom       -0.000000     -0.000000      0.000000
    11   Atom       -0.000000      0.000000     -0.000000
    12   Atom        0.000000      0.000001     -0.000001
    13   Atom        0.000000      0.000000     -0.000000
    14   Atom       -0.000000     -0.000001      0.000001
    15   Atom        0.000000     -0.000000      0.000000
    16   Atom       -0.000000      0.000000     -0.000000
    17   Atom        0.000000      0.000000     -0.000000
    18   Atom       -0.000000      0.000000      0.000000
    19   Atom        0.000000      0.000000     -0.000000
    20   Atom       -0.000000      0.000000     -0.000000
    21   Atom        0.000000      0.000000     -0.000001
    22   Atom        0.000000     -0.000000      0.000000
    23   Atom        0.000000      0.000000     -0.000000
    24   Atom        0.000000     -0.000000      0.000000
    25   Atom        0.000000      0.000000     -0.000000
    26   Atom        0.000000     -0.000000      0.000000
    27   Atom        0.000000      0.000000     -0.000000
    28   Atom       -0.000000     -0.000000      0.000000
 --------------------------------------------------------
                        XY            XZ            YZ
 --------------------------------------------------------
     1   Atom       -0.000000      0.000001     -0.000000
     2   Atom        0.000000      0.000000     -0.000000
     3   Atom        0.000000     -0.000000     -0.000000
     4   Atom       -0.000000      0.000000      0.000000
     5   Atom        0.000000      0.000001      0.000000
     6   Atom       -0.000000     -0.000001     -0.000001
     7   Atom       -0.000000      0.000000      0.000000
     8   Atom        0.000000      0.000000     -0.000000
     9   Atom        0.000000     -0.000000      0.000000
    10   Atom        0.000000      0.000000     -0.000000
    11   Atom        0.000000     -0.000000      0.000000
    12   Atom        0.000000     -0.000001     -0.000000
    13   Atom       -0.000000     -0.000000      0.000000
    14   Atom        0.000000      0.000001      0.000000
    15   Atom        0.000000     -0.000000     -0.000000
    16   Atom       -0.000000      0.000000     -0.000000
    17   Atom        0.000000     -0.000000     -0.000000
    18   Atom        0.000000     -0.000000      0.000000
    19   Atom       -0.000000     -0.000000     -0.000000
    20   Atom       -0.000000     -0.000000      0.000000
    21   Atom       -0.000000     -0.000000      0.000000
    22   Atom       -0.000000     -0.000000      0.000000
    23   Atom       -0.000000      0.000000     -0.000000
    24   Atom       -0.000000      0.000000     -0.000000
    25   Atom        0.000000     -0.000000      0.000000
    26   Atom        0.000000      0.000000      0.000000
    27   Atom       -0.000000      0.000000     -0.000000
    28   Atom        0.000000      0.000000      0.000000
 --------------------------------------------------------


 ---------------------------------------------------------------------------------
              Anisotropic Spin Dipole Couplings in Principal Axis System
 ---------------------------------------------------------------------------------

       Atom             a.u.   MegaHertz   Gauss  10(-4) cm-1        Axes

              Baa    -0.0000    -0.000    -0.000    -0.000 -0.2438  0.9489  0.2005
     1 C(13)  Bbb    -0.0000    -0.000    -0.000    -0.000  0.8455  0.3092 -0.4354
              Bcc     0.0000     0.000     0.000     0.000  0.4751 -0.0634  0.8776
 
              Baa    -0.0000    -0.000    -0.000    -0.000 -0.0905  0.0762  0.9930
     2 C(13)  Bbb     0.0000     0.000     0.000     0.000  0.9802 -0.1694  0.1024
              Bcc     0.0000     0.000     0.000     0.000  0.1760  0.9826 -0.0594
 
              Baa    -0.0000    -0.000    -0.000    -0.000 -0.1385  0.9844  0.1087
     3 H(1)   Bbb    -0.0000    -0.000    -0.000    -0.000  0.6568  0.0092  0.7540
              Bcc     0.0000     0.000     0.000     0.000  0.7412  0.1758 -0.6478
 
              Baa    -0.0000    -0.000    -0.000    -0.000  0.9502  0.1500 -0.2733
     4 H(1)   Bbb     0.0000     0.000     0.000     0.000  0.3005 -0.2079  0.9308
              Bcc     0.0000     0.000     0.000     0.000 -0.0828  0.9666  0.2427
 
              Baa    -0.0000    -0.000    -0.000    -0.000  0.9261 -0.1053 -0.3623
     5 C(13)  Bbb    -0.0000    -0.000    -0.000    -0.000  0.0351  0.9801 -0.1953
              Bcc     0.0000     0.000     0.000     0.000  0.3757  0.1681  0.9114
 
              Baa    -0.0000    -0.000    -0.000    -0.000  0.4397  0.1891  0.8780
     6 C(13)  Bbb     0.0000     0.000     0.000     0.000 -0.0853  0.9819 -0.1688
              Bcc     0.0000     0.000     0.000     0.000  0.8941  0.0007 -0.4479
 
              Baa    -0.0000    -0.000    -0.000    -0.000  0.6685  0.6631 -0.3367
     7 H(1)   Bbb     0.0000     0.000     0.000     0.000  0.0380  0.4216  0.9060
              Bcc     0.0000     0.000     0.000     0.000  0.7427 -0.6185  0.2567
 
              Baa    -0.0000    -0.000    -0.000    -0.000 -0.1947  0.1464  0.9699
     8 H(1)   Bbb     0.0000     0.000     0.000     0.000  0.9756 -0.0737  0.2070
              Bcc     0.0000     0.000     0.000     0.000  0.1018  0.9865 -0.1285
 
              Baa    -0.0000    -0.000    -0.000    -0.000 -0.6383  0.7485 -0.1795
     9 C(13)  Bbb     0.0000     0.000     0.000     0.000  0.0308  0.2579  0.9657
              Bcc     0.0000     0.000     0.000     0.000  0.7692  0.6109 -0.1877
 
              Baa    -0.0000    -0.000    -0.000    -0.000 -0.6974  0.7073  0.1155
    10 H(1)   Bbb     0.0000     0.000     0.000     0.000  0.7153  0.6970  0.0508
              Bcc     0.0000     0.000     0.000     0.000  0.0446 -0.1181  0.9920
 
              Baa    -0.0000    -0.000    -0.000    -0.000  0.7321 -0.6250  0.2710
    11 H(1)   Bbb    -0.0000    -0.000    -0.000    -0.000 -0.2183  0.1617  0.9624
              Bcc     0.0000     0.000     0.000     0.000  0.6453  0.7637  0.0181
 
              Baa    -0.0000    -0.000    -0.000    -0.000  0.4286 -0.0092  0.9035
    12 C(13)  Bbb     0.0000     0.000     0.000     0.000  0.8163 -0.4245 -0.3916
              Bcc     0.0000     0.000     0.000     0.000  0.3872  0.9054 -0.1744
 
              Baa    -0.0000    -0.000    -0.000    -0.000  0.3869 -0.1047  0.9161
    13 H(1)   Bbb     0.0000     0.000     0.000     0.000  0.4916  0.8640 -0.1088
              Bcc     0.0000     0.000     0.000     0.000  0.7801 -0.4925 -0.3858
 
              Baa    -0.0000    -0.000    -0.000    -0.000  0.8807 -0.2214 -0.4188
    14 C(13)  Bbb    -0.0000    -0.000    -0.000    -0.000  0.1980  0.9752 -0.0991
              Bcc     0.0000     0.000     0.000     0.000  0.4303  0.0044  0.9027
 
              Baa    -0.0000    -0.000    -0.000    -0.000 -0.1347  0.9884  0.0704
    15 H(1)   Bbb    -0.0000    -0.000    -0.000    -0.000  0.2957 -0.0277  0.9549
              Bcc     0.0000     0.000     0.000     0.000  0.9457  0.1494 -0.2885
 
              Baa    -0.0000    -0.000    -0.000    -0.000 -0.5043  0.2912  0.8129
    16 C(13)  Bbb    -0.0000    -0.000    -0.000    -0.000  0.8491  0.3384  0.4056
              Bcc     0.0000     0.000     0.000     0.000 -0.1570  0.8948 -0.4179
 
              Baa    -0.0000    -0.000    -0.000    -0.000  0.1332  0.2183  0.9667
    17 H(1)   Bbb     0.0000     0.000     0.000     0.000  0.9637 -0.2564 -0.0748
              Bcc     0.0000     0.000     0.000     0.000  0.2316  0.9416 -0.2445
 
              Baa    -0.0000    -0.000    -0.000    -0.000  0.8884 -0.3970  0.2306
    18 H(1)   Bbb     0.0000     0.000     0.000     0.000 -0.2164  0.0808  0.9729
              Bcc     0.0000     0.000     0.000     0.000  0.4049  0.9142  0.0142
 
              Baa    -0.0000    -0.000    -0.000    -0.000  0.3856  0.5670  0.7279
    19 C(13)  Bbb     0.0000     0.000     0.000     0.000 -0.5543 -0.4884  0.6740
              Bcc     0.0000     0.000     0.000     0.000  0.7376 -0.6634  0.1259
 
              Baa    -0.0000    -0.000    -0.000    -0.000  0.7313 -0.0535  0.6799
    20 H(1)   Bbb    -0.0000    -0.000    -0.000    -0.000  0.5616  0.6128 -0.5559
              Bcc     0.0000     0.000     0.000     0.000 -0.3869  0.7884  0.4782
 
              Baa    -0.0000    -0.000    -0.000    -0.000  0.3949 -0.0715  0.9159
    21 C(13)  Bbb     0.0000     0.000     0.000     0.000  0.5838  0.7893 -0.1901
              Bcc     0.0000     0.000     0.000     0.000  0.7094 -0.6098 -0.3535
 
              Baa    -0.0000    -0.000    -0.000    -0.000  0.4689  0.8704 -0.1499
    22 H(1)   Bbb     0.0000     0.000     0.000     0.000  0.3824 -0.0470  0.9228
              Bcc     0.0000     0.000     0.000     0.000  0.7962 -0.4900 -0.3549
 
              Baa    -0.0000    -0.000    -0.000    -0.000  0.7659  0.6323  0.1162
    23 C(13)  Bbb    -0.0000    -0.000    -0.000    -0.000 -0.1277 -0.0275  0.9914
              Bcc     0.0000     0.000     0.000     0.000 -0.6301  0.7742 -0.0597
 
              Baa    -0.0000    -0.000    -0.000    -0.000  0.2656  0.9640  0.0146
    24 H(1)   Bbb     0.0000     0.000     0.000     0.000 -0.2297  0.0485  0.9721
              Bcc     0.0000     0.000     0.000     0.000  0.9363 -0.2616  0.2343
 
              Baa    -0.0000    -0.000    -0.000    -0.000  0.4641 -0.2384  0.8531
    25 H(1)   Bbb     0.0000     0.000     0.000     0.000 -0.0412  0.9562  0.2897
              Bcc     0.0000     0.000     0.000     0.000  0.8848  0.1696 -0.4340
 
              Baa    -0.0000    -0.000    -0.000    -0.000 -0.1252  0.9524 -0.2781
    26 C(13)  Bbb     0.0000     0.000     0.000     0.000  0.8565 -0.0377 -0.5148
              Bcc     0.0000     0.000     0.000     0.000  0.5008  0.3026  0.8109
 
              Baa    -0.0000    -0.000    -0.000    -0.000 -0.0553  0.4006  0.9146
    27 H(1)   Bbb    -0.0000    -0.000    -0.000    -0.000  0.8263  0.5325 -0.1833
              Bcc     0.0000     0.000     0.000     0.000 -0.5604  0.7456 -0.3605
 
              Baa    -0.0000    -0.000    -0.000    -0.000  0.7384 -0.6739  0.0246
    28 H(1)   Bbb    -0.0000    -0.000    -0.000    -0.000  0.6009  0.6409 -0.4777
              Bcc     0.0000     0.000     0.000     0.000  0.3061  0.3675  0.8782
 

 ---------------------------------------------------------------------------------

 No NMR shielding tensors so no spin-rotation constants.
 Leave Link  601 at Tue Aug  4 09:59:08 2020, MaxMem=  6442450944 cpu:               7.9 elap:               0.4
 (Enter /scratch/scicomp/CentOS/7.3.1611/Haswell/software/Gaussian/g16/l9999.exe)
 1\1\GINC-ATLAS-205\SP\UwB97XD\def2TZVP\C12H16\BOCHEN\04-Aug-2020\0\\#p
  uwb97xd guess=mix def2tzvp # scrf=(iefpcm,solvent=Cyclohexane,read) n
 osym 6d 10f\\endo-2 xp-pcm for eta=3\\0,1\C,0,-3.120849,-0.437571,0.24
 7983\C,0,-0.595896,-0.213392,-1.011977\H,0,-4.084599,-0.54889,0.731234
 \H,0,0.369499,-0.121508,-1.489233\C,0,1.095787,1.409118,0.700116\C,0,0
 .595896,0.213392,1.011977\H,0,0.513469,2.310071,0.84529\H,0,-0.369499,
 0.121508,1.489233\C,0,1.478063,-1.000287,1.004227\H,0,1.94041,-1.02808
 7,1.998902\H,0,0.895946,-1.915783,0.91528\C,0,2.423651,1.516981,0.1101
 \H,0,2.832064,2.505394,-0.064213\C,0,3.120849,0.437571,-0.247983\H,0,4
 .084599,0.54889,-0.731234\C,0,2.590846,-0.955955,-0.04591\H,0,2.243218
 ,-1.349244,-1.009243\H,0,3.400776,-1.620708,0.261854\C,0,-1.095787,-1.
 409118,-0.700116\H,0,-0.513469,-2.310071,-0.84529\C,0,-2.423651,-1.516
 981,-0.1101\H,0,-2.832064,-2.505394,0.064213\C,0,-1.478063,1.000287,-1
 .004227\H,0,-0.895946,1.915783,-0.91528\H,0,-1.94041,1.028087,-1.99890
 2\C,0,-2.590846,0.955955,0.04591\H,0,-3.400776,1.620708,-0.261855\H,0,
 -2.243218,1.349244,1.009243\\Version=ES64L-G16RevB.01\HF=-466.7883751\
 S2=0.\S2-1=0.\S2A=0.\RMSD=7.219e-09\Dipole=-0.0001774,0.0007175,-0.000
 5914\Quadrupole=0.8416063,2.3126546,-3.1542609,-2.515701,-2.4371723,-1
 .0921529\PG=CI [X(C12H16)]\\@


 K N O W I N G  IS A BARRIER WHICH PREVENTS LEARNING

                     -- TEACHING OF THE BENE GESSERIT
 Job cpu time:       0 days  2 hours 15 minutes 54.1 seconds.
 Elapsed time:       0 days  0 hours  5 minutes 42.8 seconds.
 File lengths (MBytes):  RWF=    610 Int=      0 D2E=      0 Chk=     24 Scr=      1
 Normal termination of Gaussian 16 at Tue Aug  4 09:59:08 2020.
