 Entering Gaussian System, Link 0=g16
 Input=meso-TS_40_2_xp-Gcav.com
 Output=meso-TS_40_2_xp-Gcav.log
 Initial command:
 /scratch/scicomp/CentOS/7.3.1611/Haswell/software/Gaussian/g16/l1.exe "/scratch/bochen/cyclohexadiene-dimerization/wb97xd-def2tzvp/xp-pcm/meso/Gau-75602.inp" -scrdir="/scratch/bochen/cyclohexadiene-dimerization/wb97xd-def2tzvp/xp-pcm/meso/"
 Entering Link 1 = /scratch/scicomp/CentOS/7.3.1611/Haswell/software/Gaussian/g16/l1.exe PID=     75603.
  
 Copyright (c) 1988-2017, Gaussian, Inc.  All Rights Reserved.
  
 This is part of the Gaussian(R) 16 program.  It is based on
 the Gaussian(R) 09 system (copyright 2009, Gaussian, Inc.),
 the Gaussian(R) 03 system (copyright 2003, Gaussian, Inc.),
 the Gaussian(R) 98 system (copyright 1998, Gaussian, Inc.),
 the Gaussian(R) 94 system (copyright 1995, Gaussian, Inc.),
 the Gaussian 92(TM) system (copyright 1992, Gaussian, Inc.),
 the Gaussian 90(TM) system (copyright 1990, Gaussian, Inc.),
 the Gaussian 88(TM) system (copyright 1988, Gaussian, Inc.),
 the Gaussian 86(TM) system (copyright 1986, Carnegie Mellon
 University), and the Gaussian 82(TM) system (copyright 1983,
 Carnegie Mellon University). Gaussian is a federally registered
 trademark of Gaussian, Inc.
  
 This software contains proprietary and confidential information,
 including trade secrets, belonging to Gaussian, Inc.
  
 This software is provided under written license and may be
 used, copied, transmitted, or stored only in accord with that
 written license.
  
 The following legend is applicable only to US Government
 contracts under FAR:
  
                    RESTRICTED RIGHTS LEGEND
  
 Use, reproduction and disclosure by the US Government is
 subject to restrictions as set forth in subparagraphs (a)
 and (c) of the Commercial Computer Software - Restricted
 Rights clause in FAR 52.227-19.
  
 Gaussian, Inc.
 340 Quinnipiac St., Bldg. 40, Wallingford CT 06492
  
  
 ---------------------------------------------------------------
 Warning -- This program may not be used in any manner that
 competes with the business of Gaussian, Inc. or will provide
 assistance to any competitor of Gaussian, Inc.  The licensee
 of this program is prohibited from giving any competitor of
 Gaussian, Inc. access to this program.  By using this program,
 the user acknowledges that Gaussian, Inc. is engaged in the
 business of creating and licensing software in the field of
 computational chemistry and represents and warrants to the
 licensee that it is not a competitor of Gaussian, Inc. and that
 it will not use this program in any manner prohibited above.
 ---------------------------------------------------------------
  

 Cite this work as:
 Gaussian 16, Revision B.01,
 M. J. Frisch, G. W. Trucks, H. B. Schlegel, G. E. Scuseria, 
 M. A. Robb, J. R. Cheeseman, G. Scalmani, V. Barone, 
 G. A. Petersson, H. Nakatsuji, X. Li, M. Caricato, A. V. Marenich, 
 J. Bloino, B. G. Janesko, R. Gomperts, B. Mennucci, H. P. Hratchian, 
 J. V. Ortiz, A. F. Izmaylov, J. L. Sonnenberg, D. Williams-Young, 
 F. Ding, F. Lipparini, F. Egidi, J. Goings, B. Peng, A. Petrone, 
 T. Henderson, D. Ranasinghe, V. G. Zakrzewski, J. Gao, N. Rega, 
 G. Zheng, W. Liang, M. Hada, M. Ehara, K. Toyota, R. Fukuda, 
 J. Hasegawa, M. Ishida, T. Nakajima, Y. Honda, O. Kitao, H. Nakai, 
 T. Vreven, K. Throssell, J. A. Montgomery, Jr., J. E. Peralta, 
 F. Ogliaro, M. J. Bearpark, J. J. Heyd, E. N. Brothers, K. N. Kudin, 
 V. N. Staroverov, T. A. Keith, R. Kobayashi, J. Normand, 
 K. Raghavachari, A. P. Rendell, J. C. Burant, S. S. Iyengar, 
 J. Tomasi, M. Cossi, J. M. Millam, M. Klene, C. Adamo, R. Cammi, 
 J. W. Ochterski, R. L. Martin, K. Morokuma, O. Farkas, 
 J. B. Foresman, and D. J. Fox, Gaussian, Inc., Wallingford CT, 2016.
 
 ******************************************
 Gaussian 16:  ES64L-G16RevB.01 20-Dec-2017
                 4-Aug-2020 
 ******************************************
 %chk=scr.chk
 %nproc=24
 Will use up to   24 processors via shared memory.
 %mem=48GB
 ----------------------------------------------------------------------
 #p uwb97xd guess=mix def2tzvp # scrf=(iefpcm,solvent=Cyclohexane,read)
  nosym guess=only pop=none
 ----------------------------------------------------------------------
 1/38=1,40=2,172=1/1;
 2/12=2,15=1,17=6,18=5,40=1/2;
 3/5=44,7=101,11=2,25=1,30=1,70=2203,72=17,74=-58,89=1,116=2/1,2;
 4/13=-1/1;
 99/5=2/99;
 Leave Link    1 at Tue Aug  4 21:38:28 2020, MaxMem=  6442450944 cpu:               1.5 elap:               0.1
 (Enter /scratch/scicomp/CentOS/7.3.1611/Haswell/software/Gaussian/g16/l101.exe)
 -------------------------------------------------
 endo-2 xp-pcm with Vmol=108.160262177098 cm^3/mol
 -------------------------------------------------
 Symbolic Z-matrix:
 Charge =  0 Multiplicity = 1
 6                    -3.12689  -0.44089   0.25512 
 6                    -0.68442  -0.23978  -1.16564 
 1                    -4.08122  -0.54015   0.75934 
 1                     0.27956  -0.15138  -1.65003 
 6                     1.13715   1.41976   0.75289 
 6                     0.68442   0.23978   1.16564 
 1                     0.5438    2.31661   0.88265 
 1                    -0.27956   0.15138   1.65003 
 6                     1.52714  -0.99901   1.07056 
 1                     2.02746  -1.11996   2.03974 
 1                     0.89477  -1.87785   0.94887 
 6                     2.44322   1.52599   0.10499 
 1                     2.84602   2.51251  -0.09124 
 6                     3.12689   0.44089  -0.25512 
 1                     4.08122   0.54015  -0.75934 
 6                     2.58283  -0.94511  -0.03962 
 1                     2.1641   -1.30486  -0.98762 
 1                     3.39638  -1.63318   0.19866 
 6                    -1.13715  -1.41976  -0.75289 
 1                    -0.5438   -2.31661  -0.88265 
 6                    -2.44322  -1.52599  -0.10499 
 1                    -2.84602  -2.51251   0.09124 
 6                    -1.52714   0.99901  -1.07056 
 1                    -0.89477   1.87785  -0.94887 
 1                    -2.02746   1.11996  -2.03974 
 6                    -2.58283   0.94511   0.03962 
 1                    -3.39638   1.63318  -0.19866 
 1                    -2.1641    1.30486   0.98762 
 
 ITRead=  0  0  0  0  0  0  0  0  0  0  0  0  0  0  0  0  0  0  0  0
 ITRead=  0  0  0  0  0  0  0  0
 MicOpt= -1 -1 -1 -1 -1 -1 -1 -1 -1 -1 -1 -1 -1 -1 -1 -1 -1 -1 -1 -1
 MicOpt= -1 -1 -1 -1 -1 -1 -1 -1
 NAtoms=     28 NQM=       28 NQMF=       0 NMMI=      0 NMMIF=      0
                NMic=       0 NMicF=      0.
                    Isotopes and Nuclear Properties:
 (Nuclear quadrupole moments (NQMom) in fm**2, nuclear magnetic moments (NMagM)
  in nuclear magnetons)

  Atom         1           2           3           4           5           6           7           8           9          10
 IAtWgt=          12          12           1           1          12          12           1           1          12           1
 AtmWgt=  12.0000000  12.0000000   1.0078250   1.0078250  12.0000000  12.0000000   1.0078250   1.0078250  12.0000000   1.0078250
 NucSpn=           0           0           1           1           0           0           1           1           0           1
 AtZEff=  -0.0000000  -0.0000000  -0.0000000  -0.0000000  -0.0000000  -0.0000000  -0.0000000  -0.0000000  -0.0000000  -0.0000000
 NQMom=    0.0000000   0.0000000   0.0000000   0.0000000   0.0000000   0.0000000   0.0000000   0.0000000   0.0000000   0.0000000
 NMagM=    0.0000000   0.0000000   2.7928460   2.7928460   0.0000000   0.0000000   2.7928460   2.7928460   0.0000000   2.7928460
 AtZNuc=   6.0000000   6.0000000   1.0000000   1.0000000   6.0000000   6.0000000   1.0000000   1.0000000   6.0000000   1.0000000

  Atom        11          12          13          14          15          16          17          18          19          20
 IAtWgt=           1          12           1          12           1          12           1           1          12           1
 AtmWgt=   1.0078250  12.0000000   1.0078250  12.0000000   1.0078250  12.0000000   1.0078250   1.0078250  12.0000000   1.0078250
 NucSpn=           1           0           1           0           1           0           1           1           0           1
 AtZEff=  -0.0000000  -0.0000000  -0.0000000  -0.0000000  -0.0000000  -0.0000000  -0.0000000  -0.0000000  -0.0000000  -0.0000000
 NQMom=    0.0000000   0.0000000   0.0000000   0.0000000   0.0000000   0.0000000   0.0000000   0.0000000   0.0000000   0.0000000
 NMagM=    2.7928460   0.0000000   2.7928460   0.0000000   2.7928460   0.0000000   2.7928460   2.7928460   0.0000000   2.7928460
 AtZNuc=   1.0000000   6.0000000   1.0000000   6.0000000   1.0000000   6.0000000   1.0000000   1.0000000   6.0000000   1.0000000

  Atom        21          22          23          24          25          26          27          28
 IAtWgt=          12           1          12           1           1          12           1           1
 AtmWgt=  12.0000000   1.0078250  12.0000000   1.0078250   1.0078250  12.0000000   1.0078250   1.0078250
 NucSpn=           0           1           0           1           1           0           1           1
 AtZEff=  -0.0000000  -0.0000000  -0.0000000  -0.0000000  -0.0000000  -0.0000000  -0.0000000  -0.0000000
 NQMom=    0.0000000   0.0000000   0.0000000   0.0000000   0.0000000   0.0000000   0.0000000   0.0000000
 NMagM=    0.0000000   2.7928460   0.0000000   2.7928460   2.7928460   0.0000000   2.7928460   2.7928460
 AtZNuc=   6.0000000   1.0000000   6.0000000   1.0000000   1.0000000   6.0000000   1.0000000   1.0000000
 Leave Link  101 at Tue Aug  4 21:38:28 2020, MaxMem=  6442450944 cpu:               2.4 elap:               0.1
 (Enter /scratch/scicomp/CentOS/7.3.1611/Haswell/software/Gaussian/g16/l202.exe)
                          Input orientation:                          
 ---------------------------------------------------------------------
 Center     Atomic      Atomic             Coordinates (Angstroms)
 Number     Number       Type             X           Y           Z
 ---------------------------------------------------------------------
      1          6           0       -3.126891   -0.440888    0.255118
      2          6           0       -0.684423   -0.239784   -1.165641
      3          1           0       -4.081225   -0.540147    0.759340
      4          1           0        0.279559   -0.151378   -1.650033
      5          6           0        1.137152    1.419764    0.752892
      6          6           0        0.684423    0.239784    1.165641
      7          1           0        0.543796    2.316608    0.882649
      8          1           0       -0.279559    0.151379    1.650033
      9          6           0        1.527143   -0.999005    1.070559
     10          1           0        2.027460   -1.119961    2.039740
     11          1           0        0.894773   -1.877853    0.948868
     12          6           0        2.443219    1.525992    0.104990
     13          1           0        2.846024    2.512508   -0.091240
     14          6           0        3.126891    0.440888   -0.255118
     15          1           0        4.081225    0.540147   -0.759340
     16          6           0        2.582831   -0.945113   -0.039623
     17          1           0        2.164096   -1.304863   -0.987620
     18          1           0        3.396382   -1.633179    0.198658
     19          6           0       -1.137152   -1.419764   -0.752892
     20          1           0       -0.543796   -2.316608   -0.882649
     21          6           0       -2.443219   -1.525992   -0.104990
     22          1           0       -2.846024   -2.512508    0.091240
     23          6           0       -1.527143    0.999005   -1.070559
     24          1           0       -0.894773    1.877853   -0.948868
     25          1           0       -2.027460    1.119961   -2.039740
     26          6           0       -2.582831    0.945113    0.039623
     27          1           0       -3.396382    1.633179   -0.198658
     28          1           0       -2.164097    1.304863    0.987620
 ---------------------------------------------------------------------
                    Distance matrix (angstroms):
                    1          2          3          4          5
     1  C    0.000000
     2  C    2.832781   0.000000
     3  H    1.083903   3.915869   0.000000
     4  H    3.913735   1.082457   4.997265   0.000000
     5  C    4.678875   3.122980   5.574294   2.996331   0.000000
     6  C    3.977245   2.745651   4.846109   2.871401   1.329541
     7  H    4.633737   3.498450   5.437561   3.546160   1.083161
     8  H    3.225503   2.871401   3.965376   3.360760   2.102554
     9  C    4.757780   3.235434   5.635708   3.110717   2.470516
    10  H    5.496667   4.289929   6.268304   4.196157   2.983091
    11  H    4.326654   3.106168   5.156155   3.180171   3.312315
    12  C    5.909085   3.809805   6.874989   3.251938   1.461805
    13  H    6.672198   4.603640   7.617675   4.014084   2.197019
    14  C    6.336218   3.977245   7.344964   3.225503   2.435846
    15  H    7.344964   4.846109   8.372515   3.965376   3.424637
    16  C    5.739516   3.527089   6.723986   2.920359   2.882830
    17  H    5.503217   3.046333   6.529984   2.306686   3.392284
    18  H    6.631579   4.522812   7.577842   3.915096   3.838197
    19  C    2.435846   1.329541   3.424637   2.102554   3.937355
    20  H    3.388985   2.100728   4.285481   2.440289   4.411469
    21  C    1.332117   2.423360   2.098099   3.419100   4.715135
    22  H    2.096986   3.378986   2.421216   4.286751   5.636154
    23  C    2.527826   1.501271   3.498693   2.218861   3.255838
    24  H    3.436349   2.139071   4.349503   2.447134   2.689712
    25  H    2.985192   2.101596   3.848215   2.662801   4.231246
    26  C    1.504473   2.541770   2.229165   3.500072   3.817371
    27  H    2.140162   3.434788   2.471865   4.336320   4.637232
    28  H    2.123953   3.035112   2.670497   3.879343   3.311577
                    6          7          8          9         10
     6  C    0.000000
     7  H    2.100728   0.000000
     8  H    1.082457   2.440289   0.000000
     9  C    1.501271   3.463462   2.218861   0.000000
    10  H    2.101596   3.917924   2.662802   1.097387   0.000000
    11  H    2.139071   4.209640   2.447135   1.089529   1.745675
    12  C    2.423360   2.199462   3.419099   2.854318   3.304116
    13  H    3.378986   2.507407   4.286751   3.926824   4.290216
    14  C    2.832781   3.388985   3.913734   2.527826   2.985192
    15  H    3.915869   4.285481   4.997265   3.498693   3.848215
    16  C    2.541770   3.955638   3.500073   1.532934   2.159342
    17  H    3.035111   4.386152   3.879343   2.176088   3.036078
    18  H    3.434788   4.919950   4.336321   2.157879   2.350941
    19  C    3.122980   4.411469   2.996332   3.255838   4.231246
    20  H    3.498450   5.076005   3.546161   3.136859   4.072306
    21  C    3.809805   4.966212   3.251938   4.174135   4.975108
    22  H    4.603640   5.952946   4.014084   4.730153   5.430164
    23  C    3.235434   3.136859   3.110716   4.231441   5.176792
    24  H    3.106168   2.369903   3.180171   4.268498   5.143745
    25  H    4.289929   4.072306   4.196157   5.176792   6.172664
    26  C    3.527089   3.516744   2.920359   4.662007   5.433211
    27  H    4.522812   4.142620   3.915096   5.725417   6.481379
    28  H    3.046334   2.892634   2.306686   4.352004   4.955389
                   11         12         13         14         15
    11  H    0.000000
    12  C    3.833533   0.000000
    13  H    4.915737   1.083500   0.000000
    14  C    3.436349   1.332117   2.096986   0.000000
    15  H    4.349503   2.098099   2.421216   1.083903   0.000000
    16  C    2.167177   2.479267   3.468008   1.504473   2.229165
    17  H    2.385264   3.047203   3.980056   2.123954   2.670498
    18  H    2.623114   3.301160   4.192094   2.140162   2.471865
    19  C    2.689712   4.715135   5.636154   4.678875   5.574294
    20  H    2.369903   4.966212   5.952946   4.633737   5.437561
    21  C    3.518041   5.765065   6.654755   5.909085   6.874989
    22  H    3.889971   6.654755   7.594965   6.672198   7.617675
    23  C    4.268498   4.174135   4.730153   4.757780   5.635708
    24  H    4.572658   3.518041   3.889971   4.326654   5.156155
    25  H    5.143745   4.975108   5.430164   5.496667   6.268304
    26  C    4.570513   5.059928   5.652107   5.739516   6.723986
    27  H    5.661994   5.848473   6.304950   6.631579   7.577842
    28  H    4.414507   4.696306   5.265326   5.503218   6.529985
                   16         17         18         19         20
    16  C    0.000000
    17  H    1.097022   0.000000
    18  H    1.091823   1.741716   0.000000
    19  C    3.817371   3.311576   4.637232   0.000000
    20  H    3.516744   2.892633   4.142620   1.083161   0.000000
    21  C    5.059928   4.696305   5.848473   1.461805   2.199462
    22  H    5.652107   5.265325   6.304950   2.197019   2.507407
    23  C    4.662007   4.352003   5.725417   2.470516   3.463462
    24  H    4.570513   4.414506   5.661994   3.312315   4.209640
    25  H    5.433211   4.955388   6.481379   2.983091   3.917924
    26  C    5.501209   5.352657   6.513361   2.882830   3.955638
    27  H    6.513361   6.338254   7.547754   3.838197   4.919950
    28  H    5.352658   5.426371   6.338255   3.392284   4.386152
                   21         22         23         24         25
    21  C    0.000000
    22  H    1.083500   0.000000
    23  C    2.854318   3.926824   0.000000
    24  H    3.833533   4.915737   1.089529   0.000000
    25  H    3.304116   4.290216   1.097387   1.745675   0.000000
    26  C    2.479267   3.468008   1.532934   2.167177   2.159342
    27  H    3.301160   4.192094   2.157879   2.623114   2.350941
    28  H    3.047203   3.980056   2.176088   2.385264   3.036078
                   26         27         28
    26  C    0.000000
    27  H    1.091823   0.000000
    28  H    1.097022   1.741716   0.000000
 Symmetry turned off by external request.
 Stoichiometry    C12H16
 Framework group  CI[X(C12H16)]
 Deg. of freedom    39
 Full point group                 CI      NOp   2
 Rotational constants (GHZ):           1.8059238           0.6061502           0.5409639
 Leave Link  202 at Tue Aug  4 21:38:28 2020, MaxMem=  6442450944 cpu:               0.3 elap:               0.0
 (Enter /scratch/scicomp/CentOS/7.3.1611/Haswell/software/Gaussian/g16/l301.exe)
 Standard basis: def2TZVP (5D, 7F)
 Ernie: Thresh=  0.10000D-02 Tol=  0.10000D-05 Strict=F.
   468 basis functions,   740 primitive gaussians,   528 cartesian basis functions
    44 alpha electrons       44 beta electrons
       nuclear repulsion energy       680.3343633383 Hartrees.
 IExCor= 4639 DFT=T Ex+Corr=wB97XD ExCW=0 ScaHFX=  1.000000
 ScaDFX=  1.000000  1.000000  1.000000  1.000000 ScalE2=  1.000000  1.000000
 IRadAn=      5 IRanWt=     -1 IRanGd=            0 ICorTp=0 IEmpDi=121
 HFx  wShort=  0.000000 wLong=  0.200000 cFull=  0.222036 cShort=  0.000000 cLong=  0.777964
 DFx  wShort=  0.000000 wLong=  0.200000 cFull=  0.000000 cShort=  0.000000 cLong=  1.000000
 NAtoms=   28 NActive=   28 NUniq=   28 SFac= 1.00D+00 NAtFMM=   60 NAOKFM=F Big=F
 Integral buffers will be    131072 words long.
 Raffenetti 2 integral format.
 Two-electron integral symmetry is turned off.
 R6Disp:  Grimme-D2 Dispersion energy=       -0.0226369669 Hartrees.
 Nuclear repulsion after empirical dispersion term =      680.3117263713 Hartrees.
 Using the following non-standard input for PCM:
 norep  pcmdoc geomview  nodis cav g03defaults noaddsph  tsare=0.075
 Warning! Using old PCM defaults because the g03defaults keyword was found.
 These settings can be overridden by following keywords.
 nsfe=28
 Vmol=108.160262177098 Rsolv=2.815
 --- end of non-standard input.
 Reading user-defined spheres from input:
 ISph  on   Nord    Re0     Alpha      Xe            Ye            Ze
 --- end of user-defined spheres data.
 ------------------------------------------------------------------------------
 Polarizable Continuum Model (PCM)
 =================================
 Model                : PCM.
 Atomic radii         : UA0 (Simple United Atom Topological Model).
 Polarization charges : Total charges.
 Charge compensation  : None.
 Solution method      : On-the-fly selection.
 Cavity type          : VdW (van der Waals Surface) (Alpha=1.000).
 Cavity algorithm     : GePol (No added spheres)
                        User-defined sphere list used, NSphG=   28.
                        Tesserae with average area of 0.075 Ang**2.
                        Smoothing algorithm: None.
                        Polarization charges: point-like.
                        Self-potential: constant (ISelfS= 1).
                        Self-field    : global E.n sum rule (ISelfD= 3).
 Solvent              : CycloHexane, Eps=   2.016500 Eps(inf)=   2.035188
 ------------------------------------------------------------------------------
 GePol: Number of generator spheres                  =      28
 GePol: Total number of spheres                      =      28
 GePol: Number of exposed spheres                    =      28 (100.00%)
 GePol: Number of tesserae                           =    3869
 GePol: Average area of tesserae                     =       0.06 Ang**2
 GePol: Minimum area of tessera                      =   0.10D-02 Ang**2
 GePol: Maximum area of tessera                      =    0.12395 Ang**2
 GePol: Number of small tesserae                     =       0
 GePol: Fraction of small tesserae (<1% of avg)      =       0.00%
 GePol: Total count of vertices                      =   12817
 GePol: Maximum number of vertices in a tessera      =       6
 GePol: Cavity surface area                          =    233.724 Ang**2
 GePol: Cavity volume                                =    241.002 Ang**3
 PCM non-electrostatic energy =         0.0360802582 Hartrees.
 Nuclear repulsion after PCM non-electrostatic terms =      680.3478066296 Hartrees.
 Leave Link  301 at Tue Aug  4 21:38:29 2020, MaxMem=  6442450944 cpu:               3.2 elap:               0.2
 (Enter /scratch/scicomp/CentOS/7.3.1611/Haswell/software/Gaussian/g16/l302.exe)
 NPDir=0 NMtPBC=     1 NCelOv=     1 NCel=       1 NClECP=     1 NCelD=      1
         NCelK=      1 NCelE2=     1 NClLst=     1 CellRange=     0.0.
 One-electron integrals computed using PRISM.
   1 Symmetry operations used in ECPInt.
 ECPInt:  NShTT=   19306 NPrTT=   56928 LenC2=   18486 LenP2D=   42012.
 LDataN:  DoStor=T MaxTD1= 6 Len=  172
 NBasis=   468 RedAO= T EigKep=  2.33D-05  NBF=   468
 NBsUse=   468 1.00D-06 EigRej= -1.00D+00 NBFU=   468
 Precomputing XC quadrature grid using
 IXCGrd= 4 IRadAn=           5 IRanWt=          -1 IRanGd=           0 AccXCQ= 0.00D+00.
 Generated NRdTot=       0 NPtTot=           0 NUsed=           0 NTot=          32
 NSgBfM=   526   526   526   526   526 MxSgAt=    28 MxSgA2=    28.
 Leave Link  302 at Tue Aug  4 21:38:29 2020, MaxMem=  6442450944 cpu:              12.6 elap:               0.6
 (Enter /scratch/scicomp/CentOS/7.3.1611/Haswell/software/Gaussian/g16/l401.exe)
 ExpMin= 9.52D-02 ExpMax= 1.36D+04 ExpMxC= 4.63D+02 IAcc=3 IRadAn=         5 AccDes= 0.00D+00
 Harris functional with IExCor= 4639 and IRadAn=       5 diagonalized for initial guess.
 HarFok:  IExCor= 4639 AccDes= 0.00D+00 IRadAn=         5 IDoV= 1 UseB2=F ITyADJ=14
 ICtDFT=  3500011 ScaDFX=  1.000000  1.000000  1.000000  1.000000
 FoFCou: FMM=F IPFlag=           0 FMFlag=      100000 FMFlg1=           0
         NFxFlg=           0 DoJE=T BraDBF=F KetDBF=T FulRan=T
         wScrn=  0.000000 ICntrl=       500 IOpCl=  0 I1Cent=   200000004 NGrid=           0
         NMat0=    1 NMatS0=      1 NMatT0=    0 NMatD0=    1 NMtDS0=    0 NMtDT0=    0
 Symmetry not used in FoFCou.
 Harris En= -444.593528041206    
 JPrj=0 DoOrth=F DoCkMO=T.
 Mixing orbitals, IMix= 1 IMixAn=  0 NRI=1 NE=   44 Coef=  7.07106781D-01  7.07106781D-01
 Mixing orbitals, IMix= 1 IMixAn=  0 NRI=1 NE=   44 Coef= -7.07106781D-01  7.07106781D-01
 Initial guess <Sx>= 0.0000 <Sy>= 0.0000 <Sz>= 0.0000 <S**2>= 1.0000 S= 0.6180
 Leave Link  401 at Tue Aug  4 21:38:31 2020, MaxMem=  6442450944 cpu:              47.2 elap:               2.0
 (Enter /scratch/scicomp/CentOS/7.3.1611/Haswell/software/Gaussian/g16/l9999.exe)

 This type of calculation cannot be archived.


 HE WHO LAUGHS LAST PROBABLY DIDN'T GET THE JOKE.
 Job cpu time:       0 days  0 hours  1 minutes  8.1 seconds.
 Elapsed time:       0 days  0 hours  0 minutes  3.1 seconds.
 File lengths (MBytes):  RWF=    284 Int=      0 D2E=      0 Chk=      1 Scr=      1
 Normal termination of Gaussian 16 at Tue Aug  4 21:38:31 2020.
 Initial command:
 /scratch/scicomp/CentOS/7.3.1611/Haswell/software/Gaussian/g16/l1.exe "/scratch/bochen/cyclohexadiene-dimerization/wb97xd-def2tzvp/xp-pcm/meso/Gau-75602.inp" -scrdir="/scratch/bochen/cyclohexadiene-dimerization/wb97xd-def2tzvp/xp-pcm/meso/"
 Entering Link 1 = /scratch/scicomp/CentOS/7.3.1611/Haswell/software/Gaussian/g16/l1.exe PID=     75765.
  
 Copyright (c) 1988-2017, Gaussian, Inc.  All Rights Reserved.
  
 This is part of the Gaussian(R) 16 program.  It is based on
 the Gaussian(R) 09 system (copyright 2009, Gaussian, Inc.),
 the Gaussian(R) 03 system (copyright 2003, Gaussian, Inc.),
 the Gaussian(R) 98 system (copyright 1998, Gaussian, Inc.),
 the Gaussian(R) 94 system (copyright 1995, Gaussian, Inc.),
 the Gaussian 92(TM) system (copyright 1992, Gaussian, Inc.),
 the Gaussian 90(TM) system (copyright 1990, Gaussian, Inc.),
 the Gaussian 88(TM) system (copyright 1988, Gaussian, Inc.),
 the Gaussian 86(TM) system (copyright 1986, Carnegie Mellon
 University), and the Gaussian 82(TM) system (copyright 1983,
 Carnegie Mellon University). Gaussian is a federally registered
 trademark of Gaussian, Inc.
  
 This software contains proprietary and confidential information,
 including trade secrets, belonging to Gaussian, Inc.
  
 This software is provided under written license and may be
 used, copied, transmitted, or stored only in accord with that
 written license.
  
 The following legend is applicable only to US Government
 contracts under FAR:
  
                    RESTRICTED RIGHTS LEGEND
  
 Use, reproduction and disclosure by the US Government is
 subject to restrictions as set forth in subparagraphs (a)
 and (c) of the Commercial Computer Software - Restricted
 Rights clause in FAR 52.227-19.
  
 Gaussian, Inc.
 340 Quinnipiac St., Bldg. 40, Wallingford CT 06492
  
  
 ---------------------------------------------------------------
 Warning -- This program may not be used in any manner that
 competes with the business of Gaussian, Inc. or will provide
 assistance to any competitor of Gaussian, Inc.  The licensee
 of this program is prohibited from giving any competitor of
 Gaussian, Inc. access to this program.  By using this program,
 the user acknowledges that Gaussian, Inc. is engaged in the
 business of creating and licensing software in the field of
 computational chemistry and represents and warrants to the
 licensee that it is not a competitor of Gaussian, Inc. and that
 it will not use this program in any manner prohibited above.
 ---------------------------------------------------------------
  

 Cite this work as:
 Gaussian 16, Revision B.01,
 M. J. Frisch, G. W. Trucks, H. B. Schlegel, G. E. Scuseria, 
 M. A. Robb, J. R. Cheeseman, G. Scalmani, V. Barone, 
 G. A. Petersson, H. Nakatsuji, X. Li, M. Caricato, A. V. Marenich, 
 J. Bloino, B. G. Janesko, R. Gomperts, B. Mennucci, H. P. Hratchian, 
 J. V. Ortiz, A. F. Izmaylov, J. L. Sonnenberg, D. Williams-Young, 
 F. Ding, F. Lipparini, F. Egidi, J. Goings, B. Peng, A. Petrone, 
 T. Henderson, D. Ranasinghe, V. G. Zakrzewski, J. Gao, N. Rega, 
 G. Zheng, W. Liang, M. Hada, M. Ehara, K. Toyota, R. Fukuda, 
 J. Hasegawa, M. Ishida, T. Nakajima, Y. Honda, O. Kitao, H. Nakai, 
 T. Vreven, K. Throssell, J. A. Montgomery, Jr., J. E. Peralta, 
 F. Ogliaro, M. J. Bearpark, J. J. Heyd, E. N. Brothers, K. N. Kudin, 
 V. N. Staroverov, T. A. Keith, R. Kobayashi, J. Normand, 
 K. Raghavachari, A. P. Rendell, J. C. Burant, S. S. Iyengar, 
 J. Tomasi, M. Cossi, J. M. Millam, M. Klene, C. Adamo, R. Cammi, 
 J. W. Ochterski, R. L. Martin, K. Morokuma, O. Farkas, 
 J. B. Foresman, and D. J. Fox, Gaussian, Inc., Wallingford CT, 2016.
 
 ******************************************
 Gaussian 16:  ES64L-G16RevB.01 20-Dec-2017
                 4-Aug-2020 
 ******************************************
 %chk=scr.chk
 %nproc=24
 Will use up to   24 processors via shared memory.
 %mem=48GB
 ----------------------------------------------------------------------
 #p uwb97xd guess=mix def2tzvp # scrf=(iefpcm,solvent=Cyclohexane,read)
  nosym guess=only pop=none
 ----------------------------------------------------------------------
 1/38=1,40=2,172=1/1;
 2/12=2,15=1,17=6,18=5,40=1/2;
 3/5=44,7=101,11=2,25=1,30=1,70=2203,72=17,74=-58,89=1,116=2/1,2;
 4/13=-1/1;
 99/5=2/99;
 Leave Link    1 at Tue Aug  4 21:38:32 2020, MaxMem=  6442450944 cpu:               1.4 elap:               0.1
 (Enter /scratch/scicomp/CentOS/7.3.1611/Haswell/software/Gaussian/g16/l101.exe)
 -------------------------------------------------
 endo-2 xp-pcm with Vmol=101.730197792279 cm^3/mol
 -------------------------------------------------
 Symbolic Z-matrix:
 Charge =  0 Multiplicity = 1
 6                    -3.12689  -0.44089   0.25512 
 6                    -0.68442  -0.23978  -1.16564 
 1                    -4.08122  -0.54015   0.75934 
 1                     0.27956  -0.15138  -1.65003 
 6                     1.13715   1.41976   0.75289 
 6                     0.68442   0.23978   1.16564 
 1                     0.5438    2.31661   0.88265 
 1                    -0.27956   0.15138   1.65003 
 6                     1.52714  -0.99901   1.07056 
 1                     2.02746  -1.11996   2.03974 
 1                     0.89477  -1.87785   0.94887 
 6                     2.44322   1.52599   0.10499 
 1                     2.84602   2.51251  -0.09124 
 6                     3.12689   0.44089  -0.25512 
 1                     4.08122   0.54015  -0.75934 
 6                     2.58283  -0.94511  -0.03962 
 1                     2.1641   -1.30486  -0.98762 
 1                     3.39638  -1.63318   0.19866 
 6                    -1.13715  -1.41976  -0.75289 
 1                    -0.5438   -2.31661  -0.88265 
 6                    -2.44322  -1.52599  -0.10499 
 1                    -2.84602  -2.51251   0.09124 
 6                    -1.52714   0.99901  -1.07056 
 1                    -0.89477   1.87785  -0.94887 
 1                    -2.02746   1.11996  -2.03974 
 6                    -2.58283   0.94511   0.03962 
 1                    -3.39638   1.63318  -0.19866 
 1                    -2.1641    1.30486   0.98762 
 
 ITRead=  0  0  0  0  0  0  0  0  0  0  0  0  0  0  0  0  0  0  0  0
 ITRead=  0  0  0  0  0  0  0  0
 MicOpt= -1 -1 -1 -1 -1 -1 -1 -1 -1 -1 -1 -1 -1 -1 -1 -1 -1 -1 -1 -1
 MicOpt= -1 -1 -1 -1 -1 -1 -1 -1
 NAtoms=     28 NQM=       28 NQMF=       0 NMMI=      0 NMMIF=      0
                NMic=       0 NMicF=      0.
                    Isotopes and Nuclear Properties:
 (Nuclear quadrupole moments (NQMom) in fm**2, nuclear magnetic moments (NMagM)
  in nuclear magnetons)

  Atom         1           2           3           4           5           6           7           8           9          10
 IAtWgt=          12          12           1           1          12          12           1           1          12           1
 AtmWgt=  12.0000000  12.0000000   1.0078250   1.0078250  12.0000000  12.0000000   1.0078250   1.0078250  12.0000000   1.0078250
 NucSpn=           0           0           1           1           0           0           1           1           0           1
 AtZEff=  -0.0000000  -0.0000000  -0.0000000  -0.0000000  -0.0000000  -0.0000000  -0.0000000  -0.0000000  -0.0000000  -0.0000000
 NQMom=    0.0000000   0.0000000   0.0000000   0.0000000   0.0000000   0.0000000   0.0000000   0.0000000   0.0000000   0.0000000
 NMagM=    0.0000000   0.0000000   2.7928460   2.7928460   0.0000000   0.0000000   2.7928460   2.7928460   0.0000000   2.7928460
 AtZNuc=   6.0000000   6.0000000   1.0000000   1.0000000   6.0000000   6.0000000   1.0000000   1.0000000   6.0000000   1.0000000

  Atom        11          12          13          14          15          16          17          18          19          20
 IAtWgt=           1          12           1          12           1          12           1           1          12           1
 AtmWgt=   1.0078250  12.0000000   1.0078250  12.0000000   1.0078250  12.0000000   1.0078250   1.0078250  12.0000000   1.0078250
 NucSpn=           1           0           1           0           1           0           1           1           0           1
 AtZEff=  -0.0000000  -0.0000000  -0.0000000  -0.0000000  -0.0000000  -0.0000000  -0.0000000  -0.0000000  -0.0000000  -0.0000000
 NQMom=    0.0000000   0.0000000   0.0000000   0.0000000   0.0000000   0.0000000   0.0000000   0.0000000   0.0000000   0.0000000
 NMagM=    2.7928460   0.0000000   2.7928460   0.0000000   2.7928460   0.0000000   2.7928460   2.7928460   0.0000000   2.7928460
 AtZNuc=   1.0000000   6.0000000   1.0000000   6.0000000   1.0000000   6.0000000   1.0000000   1.0000000   6.0000000   1.0000000

  Atom        21          22          23          24          25          26          27          28
 IAtWgt=          12           1          12           1           1          12           1           1
 AtmWgt=  12.0000000   1.0078250  12.0000000   1.0078250   1.0078250  12.0000000   1.0078250   1.0078250
 NucSpn=           0           1           0           1           1           0           1           1
 AtZEff=  -0.0000000  -0.0000000  -0.0000000  -0.0000000  -0.0000000  -0.0000000  -0.0000000  -0.0000000
 NQMom=    0.0000000   0.0000000   0.0000000   0.0000000   0.0000000   0.0000000   0.0000000   0.0000000
 NMagM=    0.0000000   2.7928460   0.0000000   2.7928460   2.7928460   0.0000000   2.7928460   2.7928460
 AtZNuc=   6.0000000   1.0000000   6.0000000   1.0000000   1.0000000   6.0000000   1.0000000   1.0000000
 Leave Link  101 at Tue Aug  4 21:38:32 2020, MaxMem=  6442450944 cpu:               2.4 elap:               0.1
 (Enter /scratch/scicomp/CentOS/7.3.1611/Haswell/software/Gaussian/g16/l202.exe)
                          Input orientation:                          
 ---------------------------------------------------------------------
 Center     Atomic      Atomic             Coordinates (Angstroms)
 Number     Number       Type             X           Y           Z
 ---------------------------------------------------------------------
      1          6           0       -3.126891   -0.440888    0.255118
      2          6           0       -0.684423   -0.239784   -1.165641
      3          1           0       -4.081225   -0.540147    0.759340
      4          1           0        0.279559   -0.151378   -1.650033
      5          6           0        1.137152    1.419764    0.752892
      6          6           0        0.684423    0.239784    1.165641
      7          1           0        0.543796    2.316608    0.882649
      8          1           0       -0.279559    0.151379    1.650033
      9          6           0        1.527143   -0.999005    1.070559
     10          1           0        2.027460   -1.119961    2.039740
     11          1           0        0.894773   -1.877853    0.948868
     12          6           0        2.443219    1.525992    0.104990
     13          1           0        2.846024    2.512508   -0.091240
     14          6           0        3.126891    0.440888   -0.255118
     15          1           0        4.081225    0.540147   -0.759340
     16          6           0        2.582831   -0.945113   -0.039623
     17          1           0        2.164096   -1.304863   -0.987620
     18          1           0        3.396382   -1.633179    0.198658
     19          6           0       -1.137152   -1.419764   -0.752892
     20          1           0       -0.543796   -2.316608   -0.882649
     21          6           0       -2.443219   -1.525992   -0.104990
     22          1           0       -2.846024   -2.512508    0.091240
     23          6           0       -1.527143    0.999005   -1.070559
     24          1           0       -0.894773    1.877853   -0.948868
     25          1           0       -2.027460    1.119961   -2.039740
     26          6           0       -2.582831    0.945113    0.039623
     27          1           0       -3.396382    1.633179   -0.198658
     28          1           0       -2.164097    1.304863    0.987620
 ---------------------------------------------------------------------
                    Distance matrix (angstroms):
                    1          2          3          4          5
     1  C    0.000000
     2  C    2.832781   0.000000
     3  H    1.083903   3.915869   0.000000
     4  H    3.913735   1.082457   4.997265   0.000000
     5  C    4.678875   3.122980   5.574294   2.996331   0.000000
     6  C    3.977245   2.745651   4.846109   2.871401   1.329541
     7  H    4.633737   3.498450   5.437561   3.546160   1.083161
     8  H    3.225503   2.871401   3.965376   3.360760   2.102554
     9  C    4.757780   3.235434   5.635708   3.110717   2.470516
    10  H    5.496667   4.289929   6.268304   4.196157   2.983091
    11  H    4.326654   3.106168   5.156155   3.180171   3.312315
    12  C    5.909085   3.809805   6.874989   3.251938   1.461805
    13  H    6.672198   4.603640   7.617675   4.014084   2.197019
    14  C    6.336218   3.977245   7.344964   3.225503   2.435846
    15  H    7.344964   4.846109   8.372515   3.965376   3.424637
    16  C    5.739516   3.527089   6.723986   2.920359   2.882830
    17  H    5.503217   3.046333   6.529984   2.306686   3.392284
    18  H    6.631579   4.522812   7.577842   3.915096   3.838197
    19  C    2.435846   1.329541   3.424637   2.102554   3.937355
    20  H    3.388985   2.100728   4.285481   2.440289   4.411469
    21  C    1.332117   2.423360   2.098099   3.419100   4.715135
    22  H    2.096986   3.378986   2.421216   4.286751   5.636154
    23  C    2.527826   1.501271   3.498693   2.218861   3.255838
    24  H    3.436349   2.139071   4.349503   2.447134   2.689712
    25  H    2.985192   2.101596   3.848215   2.662801   4.231246
    26  C    1.504473   2.541770   2.229165   3.500072   3.817371
    27  H    2.140162   3.434788   2.471865   4.336320   4.637232
    28  H    2.123953   3.035112   2.670497   3.879343   3.311577
                    6          7          8          9         10
     6  C    0.000000
     7  H    2.100728   0.000000
     8  H    1.082457   2.440289   0.000000
     9  C    1.501271   3.463462   2.218861   0.000000
    10  H    2.101596   3.917924   2.662802   1.097387   0.000000
    11  H    2.139071   4.209640   2.447135   1.089529   1.745675
    12  C    2.423360   2.199462   3.419099   2.854318   3.304116
    13  H    3.378986   2.507407   4.286751   3.926824   4.290216
    14  C    2.832781   3.388985   3.913734   2.527826   2.985192
    15  H    3.915869   4.285481   4.997265   3.498693   3.848215
    16  C    2.541770   3.955638   3.500073   1.532934   2.159342
    17  H    3.035111   4.386152   3.879343   2.176088   3.036078
    18  H    3.434788   4.919950   4.336321   2.157879   2.350941
    19  C    3.122980   4.411469   2.996332   3.255838   4.231246
    20  H    3.498450   5.076005   3.546161   3.136859   4.072306
    21  C    3.809805   4.966212   3.251938   4.174135   4.975108
    22  H    4.603640   5.952946   4.014084   4.730153   5.430164
    23  C    3.235434   3.136859   3.110716   4.231441   5.176792
    24  H    3.106168   2.369903   3.180171   4.268498   5.143745
    25  H    4.289929   4.072306   4.196157   5.176792   6.172664
    26  C    3.527089   3.516744   2.920359   4.662007   5.433211
    27  H    4.522812   4.142620   3.915096   5.725417   6.481379
    28  H    3.046334   2.892634   2.306686   4.352004   4.955389
                   11         12         13         14         15
    11  H    0.000000
    12  C    3.833533   0.000000
    13  H    4.915737   1.083500   0.000000
    14  C    3.436349   1.332117   2.096986   0.000000
    15  H    4.349503   2.098099   2.421216   1.083903   0.000000
    16  C    2.167177   2.479267   3.468008   1.504473   2.229165
    17  H    2.385264   3.047203   3.980056   2.123954   2.670498
    18  H    2.623114   3.301160   4.192094   2.140162   2.471865
    19  C    2.689712   4.715135   5.636154   4.678875   5.574294
    20  H    2.369903   4.966212   5.952946   4.633737   5.437561
    21  C    3.518041   5.765065   6.654755   5.909085   6.874989
    22  H    3.889971   6.654755   7.594965   6.672198   7.617675
    23  C    4.268498   4.174135   4.730153   4.757780   5.635708
    24  H    4.572658   3.518041   3.889971   4.326654   5.156155
    25  H    5.143745   4.975108   5.430164   5.496667   6.268304
    26  C    4.570513   5.059928   5.652107   5.739516   6.723986
    27  H    5.661994   5.848473   6.304950   6.631579   7.577842
    28  H    4.414507   4.696306   5.265326   5.503218   6.529985
                   16         17         18         19         20
    16  C    0.000000
    17  H    1.097022   0.000000
    18  H    1.091823   1.741716   0.000000
    19  C    3.817371   3.311576   4.637232   0.000000
    20  H    3.516744   2.892633   4.142620   1.083161   0.000000
    21  C    5.059928   4.696305   5.848473   1.461805   2.199462
    22  H    5.652107   5.265325   6.304950   2.197019   2.507407
    23  C    4.662007   4.352003   5.725417   2.470516   3.463462
    24  H    4.570513   4.414506   5.661994   3.312315   4.209640
    25  H    5.433211   4.955388   6.481379   2.983091   3.917924
    26  C    5.501209   5.352657   6.513361   2.882830   3.955638
    27  H    6.513361   6.338254   7.547754   3.838197   4.919950
    28  H    5.352658   5.426371   6.338255   3.392284   4.386152
                   21         22         23         24         25
    21  C    0.000000
    22  H    1.083500   0.000000
    23  C    2.854318   3.926824   0.000000
    24  H    3.833533   4.915737   1.089529   0.000000
    25  H    3.304116   4.290216   1.097387   1.745675   0.000000
    26  C    2.479267   3.468008   1.532934   2.167177   2.159342
    27  H    3.301160   4.192094   2.157879   2.623114   2.350941
    28  H    3.047203   3.980056   2.176088   2.385264   3.036078
                   26         27         28
    26  C    0.000000
    27  H    1.091823   0.000000
    28  H    1.097022   1.741716   0.000000
 Symmetry turned off by external request.
 Stoichiometry    C12H16
 Framework group  CI[X(C12H16)]
 Deg. of freedom    39
 Full point group                 CI      NOp   2
 Rotational constants (GHZ):           1.8059238           0.6061502           0.5409639
 Leave Link  202 at Tue Aug  4 21:38:32 2020, MaxMem=  6442450944 cpu:               0.3 elap:               0.0
 (Enter /scratch/scicomp/CentOS/7.3.1611/Haswell/software/Gaussian/g16/l301.exe)
 Standard basis: def2TZVP (5D, 7F)
 Ernie: Thresh=  0.10000D-02 Tol=  0.10000D-05 Strict=F.
   468 basis functions,   740 primitive gaussians,   528 cartesian basis functions
    44 alpha electrons       44 beta electrons
       nuclear repulsion energy       680.3343633383 Hartrees.
 IExCor= 4639 DFT=T Ex+Corr=wB97XD ExCW=0 ScaHFX=  1.000000
 ScaDFX=  1.000000  1.000000  1.000000  1.000000 ScalE2=  1.000000  1.000000
 IRadAn=      5 IRanWt=     -1 IRanGd=            0 ICorTp=0 IEmpDi=121
 HFx  wShort=  0.000000 wLong=  0.200000 cFull=  0.222036 cShort=  0.000000 cLong=  0.777964
 DFx  wShort=  0.000000 wLong=  0.200000 cFull=  0.000000 cShort=  0.000000 cLong=  1.000000
 NAtoms=   28 NActive=   28 NUniq=   28 SFac= 1.00D+00 NAtFMM=   60 NAOKFM=F Big=F
 Integral buffers will be    131072 words long.
 Raffenetti 2 integral format.
 Two-electron integral symmetry is turned off.
 R6Disp:  Grimme-D2 Dispersion energy=       -0.0226369669 Hartrees.
 Nuclear repulsion after empirical dispersion term =      680.3117263713 Hartrees.
 Using the following non-standard input for PCM:
 norep  pcmdoc geomview  nodis cav g03defaults noaddsph  tsare=0.075
 Warning! Using old PCM defaults because the g03defaults keyword was found.
 These settings can be overridden by following keywords.
 nsfe=28
 Vmol=101.730197792279 Rsolv=2.815
 --- end of non-standard input.
 Reading user-defined spheres from input:
 ISph  on   Nord    Re0     Alpha      Xe            Ye            Ze
 --- end of user-defined spheres data.
 ------------------------------------------------------------------------------
 Polarizable Continuum Model (PCM)
 =================================
 Model                : PCM.
 Atomic radii         : UA0 (Simple United Atom Topological Model).
 Polarization charges : Total charges.
 Charge compensation  : None.
 Solution method      : On-the-fly selection.
 Cavity type          : VdW (van der Waals Surface) (Alpha=1.000).
 Cavity algorithm     : GePol (No added spheres)
                        User-defined sphere list used, NSphG=   28.
                        Tesserae with average area of 0.075 Ang**2.
                        Smoothing algorithm: None.
                        Polarization charges: point-like.
                        Self-potential: constant (ISelfS= 1).
                        Self-field    : global E.n sum rule (ISelfD= 3).
 Solvent              : CycloHexane, Eps=   2.016500 Eps(inf)=   2.035188
 ------------------------------------------------------------------------------
 GePol: Number of generator spheres                  =      28
 GePol: Total number of spheres                      =      28
 GePol: Number of exposed spheres                    =      28 (100.00%)
 GePol: Number of tesserae                           =    3869
 GePol: Average area of tesserae                     =       0.06 Ang**2
 GePol: Minimum area of tessera                      =   0.10D-02 Ang**2
 GePol: Maximum area of tessera                      =    0.12395 Ang**2
 GePol: Number of small tesserae                     =       0
 GePol: Fraction of small tesserae (<1% of avg)      =       0.00%
 GePol: Total count of vertices                      =   12817
 GePol: Maximum number of vertices in a tessera      =       6
 GePol: Cavity surface area                          =    233.724 Ang**2
 GePol: Cavity volume                                =    241.002 Ang**3
 PCM non-electrostatic energy =         0.0428606603 Hartrees.
 Nuclear repulsion after PCM non-electrostatic terms =      680.3545870317 Hartrees.
 Leave Link  301 at Tue Aug  4 21:38:32 2020, MaxMem=  6442450944 cpu:               3.2 elap:               0.2
 (Enter /scratch/scicomp/CentOS/7.3.1611/Haswell/software/Gaussian/g16/l302.exe)
 NPDir=0 NMtPBC=     1 NCelOv=     1 NCel=       1 NClECP=     1 NCelD=      1
         NCelK=      1 NCelE2=     1 NClLst=     1 CellRange=     0.0.
 One-electron integrals computed using PRISM.
   1 Symmetry operations used in ECPInt.
 ECPInt:  NShTT=   19306 NPrTT=   56928 LenC2=   18486 LenP2D=   42012.
 LDataN:  DoStor=T MaxTD1= 6 Len=  172
 NBasis=   468 RedAO= T EigKep=  2.33D-05  NBF=   468
 NBsUse=   468 1.00D-06 EigRej= -1.00D+00 NBFU=   468
 Precomputing XC quadrature grid using
 IXCGrd= 4 IRadAn=           5 IRanWt=          -1 IRanGd=           0 AccXCQ= 0.00D+00.
 Generated NRdTot=       0 NPtTot=           0 NUsed=           0 NTot=          32
 NSgBfM=   526   526   526   526   526 MxSgAt=    28 MxSgA2=    28.
 Leave Link  302 at Tue Aug  4 21:38:33 2020, MaxMem=  6442450944 cpu:              11.8 elap:               0.5
 (Enter /scratch/scicomp/CentOS/7.3.1611/Haswell/software/Gaussian/g16/l401.exe)
 ExpMin= 9.52D-02 ExpMax= 1.36D+04 ExpMxC= 4.63D+02 IAcc=3 IRadAn=         5 AccDes= 0.00D+00
 Harris functional with IExCor= 4639 and IRadAn=       5 diagonalized for initial guess.
 HarFok:  IExCor= 4639 AccDes= 0.00D+00 IRadAn=         5 IDoV= 1 UseB2=F ITyADJ=14
 ICtDFT=  3500011 ScaDFX=  1.000000  1.000000  1.000000  1.000000
 FoFCou: FMM=F IPFlag=           0 FMFlag=      100000 FMFlg1=           0
         NFxFlg=           0 DoJE=T BraDBF=F KetDBF=T FulRan=T
         wScrn=  0.000000 ICntrl=       500 IOpCl=  0 I1Cent=   200000004 NGrid=           0
         NMat0=    1 NMatS0=      1 NMatT0=    0 NMatD0=    1 NMtDS0=    0 NMtDT0=    0
 Symmetry not used in FoFCou.
 Harris En= -444.586747639091    
 JPrj=0 DoOrth=F DoCkMO=T.
 Mixing orbitals, IMix= 1 IMixAn=  0 NRI=1 NE=   44 Coef=  7.07106781D-01  7.07106781D-01
 Mixing orbitals, IMix= 1 IMixAn=  0 NRI=1 NE=   44 Coef= -7.07106781D-01  7.07106781D-01
 Initial guess <Sx>= 0.0000 <Sy>= 0.0000 <Sz>= 0.0000 <S**2>= 1.0000 S= 0.6180
 Leave Link  401 at Tue Aug  4 21:38:35 2020, MaxMem=  6442450944 cpu:              47.2 elap:               2.0
 (Enter /scratch/scicomp/CentOS/7.3.1611/Haswell/software/Gaussian/g16/l9999.exe)

 This type of calculation cannot be archived.


 FROM WHENCE IT HAPPENS, THAT THEY WHICH TRUST TO BOOKS, DO AS THEY THAT CAST UP MANY LITTLE SUMMS INTO GREATER,
 WITHOUT CONSIDERING WETHER THOSE LITTLE SUMMES WERE RIGHTLY CAST UP OR NOT...
 AND AT LAST FINDING THE ERROUR VISIBLE, AND NOT MISTRUSTING THEIR FIRST GROUNDS,
 KNOW NOT WHICH WAY TO CLEERE THEMSELVES...
 BUT SPEND TIME IN FLUTTERING OVER THEIR BOOKES....
 AS BIRDS THAT ENTERING BY THE CHIMNEY, AND FINDING THEMSELVES INCLOSED IN A CHAMBER,
 FLUTTER AT THE FALSE LIGHT OF A GLASSE WINDOW,
 FOR WANT OF WIT TO CONSIDER WHICH WAY THEY CAME IN....
           LEVIATHAN
 Job cpu time:       0 days  0 hours  1 minutes  7.3 seconds.
 Elapsed time:       0 days  0 hours  0 minutes  3.1 seconds.
 File lengths (MBytes):  RWF=    284 Int=      0 D2E=      0 Chk=      1 Scr=      1
 Normal termination of Gaussian 16 at Tue Aug  4 21:38:35 2020.
 Initial command:
 /scratch/scicomp/CentOS/7.3.1611/Haswell/software/Gaussian/g16/l1.exe "/scratch/bochen/cyclohexadiene-dimerization/wb97xd-def2tzvp/xp-pcm/meso/Gau-75602.inp" -scrdir="/scratch/bochen/cyclohexadiene-dimerization/wb97xd-def2tzvp/xp-pcm/meso/"
 Entering Link 1 = /scratch/scicomp/CentOS/7.3.1611/Haswell/software/Gaussian/g16/l1.exe PID=     75927.
  
 Copyright (c) 1988-2017, Gaussian, Inc.  All Rights Reserved.
  
 This is part of the Gaussian(R) 16 program.  It is based on
 the Gaussian(R) 09 system (copyright 2009, Gaussian, Inc.),
 the Gaussian(R) 03 system (copyright 2003, Gaussian, Inc.),
 the Gaussian(R) 98 system (copyright 1998, Gaussian, Inc.),
 the Gaussian(R) 94 system (copyright 1995, Gaussian, Inc.),
 the Gaussian 92(TM) system (copyright 1992, Gaussian, Inc.),
 the Gaussian 90(TM) system (copyright 1990, Gaussian, Inc.),
 the Gaussian 88(TM) system (copyright 1988, Gaussian, Inc.),
 the Gaussian 86(TM) system (copyright 1986, Carnegie Mellon
 University), and the Gaussian 82(TM) system (copyright 1983,
 Carnegie Mellon University). Gaussian is a federally registered
 trademark of Gaussian, Inc.
  
 This software contains proprietary and confidential information,
 including trade secrets, belonging to Gaussian, Inc.
  
 This software is provided under written license and may be
 used, copied, transmitted, or stored only in accord with that
 written license.
  
 The following legend is applicable only to US Government
 contracts under FAR:
  
                    RESTRICTED RIGHTS LEGEND
  
 Use, reproduction and disclosure by the US Government is
 subject to restrictions as set forth in subparagraphs (a)
 and (c) of the Commercial Computer Software - Restricted
 Rights clause in FAR 52.227-19.
  
 Gaussian, Inc.
 340 Quinnipiac St., Bldg. 40, Wallingford CT 06492
  
  
 ---------------------------------------------------------------
 Warning -- This program may not be used in any manner that
 competes with the business of Gaussian, Inc. or will provide
 assistance to any competitor of Gaussian, Inc.  The licensee
 of this program is prohibited from giving any competitor of
 Gaussian, Inc. access to this program.  By using this program,
 the user acknowledges that Gaussian, Inc. is engaged in the
 business of creating and licensing software in the field of
 computational chemistry and represents and warrants to the
 licensee that it is not a competitor of Gaussian, Inc. and that
 it will not use this program in any manner prohibited above.
 ---------------------------------------------------------------
  

 Cite this work as:
 Gaussian 16, Revision B.01,
 M. J. Frisch, G. W. Trucks, H. B. Schlegel, G. E. Scuseria, 
 M. A. Robb, J. R. Cheeseman, G. Scalmani, V. Barone, 
 G. A. Petersson, H. Nakatsuji, X. Li, M. Caricato, A. V. Marenich, 
 J. Bloino, B. G. Janesko, R. Gomperts, B. Mennucci, H. P. Hratchian, 
 J. V. Ortiz, A. F. Izmaylov, J. L. Sonnenberg, D. Williams-Young, 
 F. Ding, F. Lipparini, F. Egidi, J. Goings, B. Peng, A. Petrone, 
 T. Henderson, D. Ranasinghe, V. G. Zakrzewski, J. Gao, N. Rega, 
 G. Zheng, W. Liang, M. Hada, M. Ehara, K. Toyota, R. Fukuda, 
 J. Hasegawa, M. Ishida, T. Nakajima, Y. Honda, O. Kitao, H. Nakai, 
 T. Vreven, K. Throssell, J. A. Montgomery, Jr., J. E. Peralta, 
 F. Ogliaro, M. J. Bearpark, J. J. Heyd, E. N. Brothers, K. N. Kudin, 
 V. N. Staroverov, T. A. Keith, R. Kobayashi, J. Normand, 
 K. Raghavachari, A. P. Rendell, J. C. Burant, S. S. Iyengar, 
 J. Tomasi, M. Cossi, J. M. Millam, M. Klene, C. Adamo, R. Cammi, 
 J. W. Ochterski, R. L. Martin, K. Morokuma, O. Farkas, 
 J. B. Foresman, and D. J. Fox, Gaussian, Inc., Wallingford CT, 2016.
 
 ******************************************
 Gaussian 16:  ES64L-G16RevB.01 20-Dec-2017
                 4-Aug-2020 
 ******************************************
 %chk=scr.chk
 %nproc=24
 Will use up to   24 processors via shared memory.
 %mem=48GB
 ----------------------------------------------------------------------
 #p uwb97xd guess=mix def2tzvp # scrf=(iefpcm,solvent=Cyclohexane,read)
  nosym guess=only pop=none
 ----------------------------------------------------------------------
 1/38=1,40=2,172=1/1;
 2/12=2,15=1,17=6,18=5,40=1/2;
 3/5=44,7=101,11=2,25=1,30=1,70=2203,72=17,74=-58,89=1,116=2/1,2;
 4/13=-1/1;
 99/5=2/99;
 Leave Link    1 at Tue Aug  4 21:38:35 2020, MaxMem=  6442450944 cpu:               1.4 elap:               0.1
 (Enter /scratch/scicomp/CentOS/7.3.1611/Haswell/software/Gaussian/g16/l101.exe)
 -------------------------------------------------
 endo-2 xp-pcm with Vmol=95.7726100512575 cm^3/mol
 -------------------------------------------------
 Symbolic Z-matrix:
 Charge =  0 Multiplicity = 1
 6                    -3.12689  -0.44089   0.25512 
 6                    -0.68442  -0.23978  -1.16564 
 1                    -4.08122  -0.54015   0.75934 
 1                     0.27956  -0.15138  -1.65003 
 6                     1.13715   1.41976   0.75289 
 6                     0.68442   0.23978   1.16564 
 1                     0.5438    2.31661   0.88265 
 1                    -0.27956   0.15138   1.65003 
 6                     1.52714  -0.99901   1.07056 
 1                     2.02746  -1.11996   2.03974 
 1                     0.89477  -1.87785   0.94887 
 6                     2.44322   1.52599   0.10499 
 1                     2.84602   2.51251  -0.09124 
 6                     3.12689   0.44089  -0.25512 
 1                     4.08122   0.54015  -0.75934 
 6                     2.58283  -0.94511  -0.03962 
 1                     2.1641   -1.30486  -0.98762 
 1                     3.39638  -1.63318   0.19866 
 6                    -1.13715  -1.41976  -0.75289 
 1                    -0.5438   -2.31661  -0.88265 
 6                    -2.44322  -1.52599  -0.10499 
 1                    -2.84602  -2.51251   0.09124 
 6                    -1.52714   0.99901  -1.07056 
 1                    -0.89477   1.87785  -0.94887 
 1                    -2.02746   1.11996  -2.03974 
 6                    -2.58283   0.94511   0.03962 
 1                    -3.39638   1.63318  -0.19866 
 1                    -2.1641    1.30486   0.98762 
 
 ITRead=  0  0  0  0  0  0  0  0  0  0  0  0  0  0  0  0  0  0  0  0
 ITRead=  0  0  0  0  0  0  0  0
 MicOpt= -1 -1 -1 -1 -1 -1 -1 -1 -1 -1 -1 -1 -1 -1 -1 -1 -1 -1 -1 -1
 MicOpt= -1 -1 -1 -1 -1 -1 -1 -1
 NAtoms=     28 NQM=       28 NQMF=       0 NMMI=      0 NMMIF=      0
                NMic=       0 NMicF=      0.
                    Isotopes and Nuclear Properties:
 (Nuclear quadrupole moments (NQMom) in fm**2, nuclear magnetic moments (NMagM)
  in nuclear magnetons)

  Atom         1           2           3           4           5           6           7           8           9          10
 IAtWgt=          12          12           1           1          12          12           1           1          12           1
 AtmWgt=  12.0000000  12.0000000   1.0078250   1.0078250  12.0000000  12.0000000   1.0078250   1.0078250  12.0000000   1.0078250
 NucSpn=           0           0           1           1           0           0           1           1           0           1
 AtZEff=  -0.0000000  -0.0000000  -0.0000000  -0.0000000  -0.0000000  -0.0000000  -0.0000000  -0.0000000  -0.0000000  -0.0000000
 NQMom=    0.0000000   0.0000000   0.0000000   0.0000000   0.0000000   0.0000000   0.0000000   0.0000000   0.0000000   0.0000000
 NMagM=    0.0000000   0.0000000   2.7928460   2.7928460   0.0000000   0.0000000   2.7928460   2.7928460   0.0000000   2.7928460
 AtZNuc=   6.0000000   6.0000000   1.0000000   1.0000000   6.0000000   6.0000000   1.0000000   1.0000000   6.0000000   1.0000000

  Atom        11          12          13          14          15          16          17          18          19          20
 IAtWgt=           1          12           1          12           1          12           1           1          12           1
 AtmWgt=   1.0078250  12.0000000   1.0078250  12.0000000   1.0078250  12.0000000   1.0078250   1.0078250  12.0000000   1.0078250
 NucSpn=           1           0           1           0           1           0           1           1           0           1
 AtZEff=  -0.0000000  -0.0000000  -0.0000000  -0.0000000  -0.0000000  -0.0000000  -0.0000000  -0.0000000  -0.0000000  -0.0000000
 NQMom=    0.0000000   0.0000000   0.0000000   0.0000000   0.0000000   0.0000000   0.0000000   0.0000000   0.0000000   0.0000000
 NMagM=    2.7928460   0.0000000   2.7928460   0.0000000   2.7928460   0.0000000   2.7928460   2.7928460   0.0000000   2.7928460
 AtZNuc=   1.0000000   6.0000000   1.0000000   6.0000000   1.0000000   6.0000000   1.0000000   1.0000000   6.0000000   1.0000000

  Atom        21          22          23          24          25          26          27          28
 IAtWgt=          12           1          12           1           1          12           1           1
 AtmWgt=  12.0000000   1.0078250  12.0000000   1.0078250   1.0078250  12.0000000   1.0078250   1.0078250
 NucSpn=           0           1           0           1           1           0           1           1
 AtZEff=  -0.0000000  -0.0000000  -0.0000000  -0.0000000  -0.0000000  -0.0000000  -0.0000000  -0.0000000
 NQMom=    0.0000000   0.0000000   0.0000000   0.0000000   0.0000000   0.0000000   0.0000000   0.0000000
 NMagM=    0.0000000   2.7928460   0.0000000   2.7928460   2.7928460   0.0000000   2.7928460   2.7928460
 AtZNuc=   6.0000000   1.0000000   6.0000000   1.0000000   1.0000000   6.0000000   1.0000000   1.0000000
 Leave Link  101 at Tue Aug  4 21:38:35 2020, MaxMem=  6442450944 cpu:               2.4 elap:               0.1
 (Enter /scratch/scicomp/CentOS/7.3.1611/Haswell/software/Gaussian/g16/l202.exe)
                          Input orientation:                          
 ---------------------------------------------------------------------
 Center     Atomic      Atomic             Coordinates (Angstroms)
 Number     Number       Type             X           Y           Z
 ---------------------------------------------------------------------
      1          6           0       -3.126891   -0.440888    0.255118
      2          6           0       -0.684423   -0.239784   -1.165641
      3          1           0       -4.081225   -0.540147    0.759340
      4          1           0        0.279559   -0.151378   -1.650033
      5          6           0        1.137152    1.419764    0.752892
      6          6           0        0.684423    0.239784    1.165641
      7          1           0        0.543796    2.316608    0.882649
      8          1           0       -0.279559    0.151379    1.650033
      9          6           0        1.527143   -0.999005    1.070559
     10          1           0        2.027460   -1.119961    2.039740
     11          1           0        0.894773   -1.877853    0.948868
     12          6           0        2.443219    1.525992    0.104990
     13          1           0        2.846024    2.512508   -0.091240
     14          6           0        3.126891    0.440888   -0.255118
     15          1           0        4.081225    0.540147   -0.759340
     16          6           0        2.582831   -0.945113   -0.039623
     17          1           0        2.164096   -1.304863   -0.987620
     18          1           0        3.396382   -1.633179    0.198658
     19          6           0       -1.137152   -1.419764   -0.752892
     20          1           0       -0.543796   -2.316608   -0.882649
     21          6           0       -2.443219   -1.525992   -0.104990
     22          1           0       -2.846024   -2.512508    0.091240
     23          6           0       -1.527143    0.999005   -1.070559
     24          1           0       -0.894773    1.877853   -0.948868
     25          1           0       -2.027460    1.119961   -2.039740
     26          6           0       -2.582831    0.945113    0.039623
     27          1           0       -3.396382    1.633179   -0.198658
     28          1           0       -2.164097    1.304863    0.987620
 ---------------------------------------------------------------------
                    Distance matrix (angstroms):
                    1          2          3          4          5
     1  C    0.000000
     2  C    2.832781   0.000000
     3  H    1.083903   3.915869   0.000000
     4  H    3.913735   1.082457   4.997265   0.000000
     5  C    4.678875   3.122980   5.574294   2.996331   0.000000
     6  C    3.977245   2.745651   4.846109   2.871401   1.329541
     7  H    4.633737   3.498450   5.437561   3.546160   1.083161
     8  H    3.225503   2.871401   3.965376   3.360760   2.102554
     9  C    4.757780   3.235434   5.635708   3.110717   2.470516
    10  H    5.496667   4.289929   6.268304   4.196157   2.983091
    11  H    4.326654   3.106168   5.156155   3.180171   3.312315
    12  C    5.909085   3.809805   6.874989   3.251938   1.461805
    13  H    6.672198   4.603640   7.617675   4.014084   2.197019
    14  C    6.336218   3.977245   7.344964   3.225503   2.435846
    15  H    7.344964   4.846109   8.372515   3.965376   3.424637
    16  C    5.739516   3.527089   6.723986   2.920359   2.882830
    17  H    5.503217   3.046333   6.529984   2.306686   3.392284
    18  H    6.631579   4.522812   7.577842   3.915096   3.838197
    19  C    2.435846   1.329541   3.424637   2.102554   3.937355
    20  H    3.388985   2.100728   4.285481   2.440289   4.411469
    21  C    1.332117   2.423360   2.098099   3.419100   4.715135
    22  H    2.096986   3.378986   2.421216   4.286751   5.636154
    23  C    2.527826   1.501271   3.498693   2.218861   3.255838
    24  H    3.436349   2.139071   4.349503   2.447134   2.689712
    25  H    2.985192   2.101596   3.848215   2.662801   4.231246
    26  C    1.504473   2.541770   2.229165   3.500072   3.817371
    27  H    2.140162   3.434788   2.471865   4.336320   4.637232
    28  H    2.123953   3.035112   2.670497   3.879343   3.311577
                    6          7          8          9         10
     6  C    0.000000
     7  H    2.100728   0.000000
     8  H    1.082457   2.440289   0.000000
     9  C    1.501271   3.463462   2.218861   0.000000
    10  H    2.101596   3.917924   2.662802   1.097387   0.000000
    11  H    2.139071   4.209640   2.447135   1.089529   1.745675
    12  C    2.423360   2.199462   3.419099   2.854318   3.304116
    13  H    3.378986   2.507407   4.286751   3.926824   4.290216
    14  C    2.832781   3.388985   3.913734   2.527826   2.985192
    15  H    3.915869   4.285481   4.997265   3.498693   3.848215
    16  C    2.541770   3.955638   3.500073   1.532934   2.159342
    17  H    3.035111   4.386152   3.879343   2.176088   3.036078
    18  H    3.434788   4.919950   4.336321   2.157879   2.350941
    19  C    3.122980   4.411469   2.996332   3.255838   4.231246
    20  H    3.498450   5.076005   3.546161   3.136859   4.072306
    21  C    3.809805   4.966212   3.251938   4.174135   4.975108
    22  H    4.603640   5.952946   4.014084   4.730153   5.430164
    23  C    3.235434   3.136859   3.110716   4.231441   5.176792
    24  H    3.106168   2.369903   3.180171   4.268498   5.143745
    25  H    4.289929   4.072306   4.196157   5.176792   6.172664
    26  C    3.527089   3.516744   2.920359   4.662007   5.433211
    27  H    4.522812   4.142620   3.915096   5.725417   6.481379
    28  H    3.046334   2.892634   2.306686   4.352004   4.955389
                   11         12         13         14         15
    11  H    0.000000
    12  C    3.833533   0.000000
    13  H    4.915737   1.083500   0.000000
    14  C    3.436349   1.332117   2.096986   0.000000
    15  H    4.349503   2.098099   2.421216   1.083903   0.000000
    16  C    2.167177   2.479267   3.468008   1.504473   2.229165
    17  H    2.385264   3.047203   3.980056   2.123954   2.670498
    18  H    2.623114   3.301160   4.192094   2.140162   2.471865
    19  C    2.689712   4.715135   5.636154   4.678875   5.574294
    20  H    2.369903   4.966212   5.952946   4.633737   5.437561
    21  C    3.518041   5.765065   6.654755   5.909085   6.874989
    22  H    3.889971   6.654755   7.594965   6.672198   7.617675
    23  C    4.268498   4.174135   4.730153   4.757780   5.635708
    24  H    4.572658   3.518041   3.889971   4.326654   5.156155
    25  H    5.143745   4.975108   5.430164   5.496667   6.268304
    26  C    4.570513   5.059928   5.652107   5.739516   6.723986
    27  H    5.661994   5.848473   6.304950   6.631579   7.577842
    28  H    4.414507   4.696306   5.265326   5.503218   6.529985
                   16         17         18         19         20
    16  C    0.000000
    17  H    1.097022   0.000000
    18  H    1.091823   1.741716   0.000000
    19  C    3.817371   3.311576   4.637232   0.000000
    20  H    3.516744   2.892633   4.142620   1.083161   0.000000
    21  C    5.059928   4.696305   5.848473   1.461805   2.199462
    22  H    5.652107   5.265325   6.304950   2.197019   2.507407
    23  C    4.662007   4.352003   5.725417   2.470516   3.463462
    24  H    4.570513   4.414506   5.661994   3.312315   4.209640
    25  H    5.433211   4.955388   6.481379   2.983091   3.917924
    26  C    5.501209   5.352657   6.513361   2.882830   3.955638
    27  H    6.513361   6.338254   7.547754   3.838197   4.919950
    28  H    5.352658   5.426371   6.338255   3.392284   4.386152
                   21         22         23         24         25
    21  C    0.000000
    22  H    1.083500   0.000000
    23  C    2.854318   3.926824   0.000000
    24  H    3.833533   4.915737   1.089529   0.000000
    25  H    3.304116   4.290216   1.097387   1.745675   0.000000
    26  C    2.479267   3.468008   1.532934   2.167177   2.159342
    27  H    3.301160   4.192094   2.157879   2.623114   2.350941
    28  H    3.047203   3.980056   2.176088   2.385264   3.036078
                   26         27         28
    26  C    0.000000
    27  H    1.091823   0.000000
    28  H    1.097022   1.741716   0.000000
 Symmetry turned off by external request.
 Stoichiometry    C12H16
 Framework group  CI[X(C12H16)]
 Deg. of freedom    39
 Full point group                 CI      NOp   2
 Rotational constants (GHZ):           1.8059238           0.6061502           0.5409639
 Leave Link  202 at Tue Aug  4 21:38:35 2020, MaxMem=  6442450944 cpu:               0.3 elap:               0.0
 (Enter /scratch/scicomp/CentOS/7.3.1611/Haswell/software/Gaussian/g16/l301.exe)
 Standard basis: def2TZVP (5D, 7F)
 Ernie: Thresh=  0.10000D-02 Tol=  0.10000D-05 Strict=F.
   468 basis functions,   740 primitive gaussians,   528 cartesian basis functions
    44 alpha electrons       44 beta electrons
       nuclear repulsion energy       680.3343633383 Hartrees.
 IExCor= 4639 DFT=T Ex+Corr=wB97XD ExCW=0 ScaHFX=  1.000000
 ScaDFX=  1.000000  1.000000  1.000000  1.000000 ScalE2=  1.000000  1.000000
 IRadAn=      5 IRanWt=     -1 IRanGd=            0 ICorTp=0 IEmpDi=121
 HFx  wShort=  0.000000 wLong=  0.200000 cFull=  0.222036 cShort=  0.000000 cLong=  0.777964
 DFx  wShort=  0.000000 wLong=  0.200000 cFull=  0.000000 cShort=  0.000000 cLong=  1.000000
 NAtoms=   28 NActive=   28 NUniq=   28 SFac= 1.00D+00 NAtFMM=   60 NAOKFM=F Big=F
 Integral buffers will be    131072 words long.
 Raffenetti 2 integral format.
 Two-electron integral symmetry is turned off.
 R6Disp:  Grimme-D2 Dispersion energy=       -0.0226369669 Hartrees.
 Nuclear repulsion after empirical dispersion term =      680.3117263713 Hartrees.
 Using the following non-standard input for PCM:
 norep  pcmdoc geomview  nodis cav g03defaults noaddsph  tsare=0.075
 Warning! Using old PCM defaults because the g03defaults keyword was found.
 These settings can be overridden by following keywords.
 nsfe=28
 Vmol=95.7726100512575 Rsolv=2.815
 --- end of non-standard input.
 Reading user-defined spheres from input:
 ISph  on   Nord    Re0     Alpha      Xe            Ye            Ze
 --- end of user-defined spheres data.
 ------------------------------------------------------------------------------
 Polarizable Continuum Model (PCM)
 =================================
 Model                : PCM.
 Atomic radii         : UA0 (Simple United Atom Topological Model).
 Polarization charges : Total charges.
 Charge compensation  : None.
 Solution method      : On-the-fly selection.
 Cavity type          : VdW (van der Waals Surface) (Alpha=1.000).
 Cavity algorithm     : GePol (No added spheres)
                        User-defined sphere list used, NSphG=   28.
                        Tesserae with average area of 0.075 Ang**2.
                        Smoothing algorithm: None.
                        Polarization charges: point-like.
                        Self-potential: constant (ISelfS= 1).
                        Self-field    : global E.n sum rule (ISelfD= 3).
 Solvent              : CycloHexane, Eps=   2.016500 Eps(inf)=   2.035188
 ------------------------------------------------------------------------------
 GePol: Number of generator spheres                  =      28
 GePol: Total number of spheres                      =      28
 GePol: Number of exposed spheres                    =      28 (100.00%)
 GePol: Number of tesserae                           =    3869
 GePol: Average area of tesserae                     =       0.06 Ang**2
 GePol: Minimum area of tessera                      =   0.10D-02 Ang**2
 GePol: Maximum area of tessera                      =    0.12395 Ang**2
 GePol: Number of small tesserae                     =       0
 GePol: Fraction of small tesserae (<1% of avg)      =       0.00%
 GePol: Total count of vertices                      =   12817
 GePol: Maximum number of vertices in a tessera      =       6
 GePol: Cavity surface area                          =    233.724 Ang**2
 GePol: Cavity volume                                =    241.002 Ang**3
 PCM non-electrostatic energy =         0.0517049131 Hartrees.
 Nuclear repulsion after PCM non-electrostatic terms =      680.3634312845 Hartrees.
 Leave Link  301 at Tue Aug  4 21:38:36 2020, MaxMem=  6442450944 cpu:               3.2 elap:               0.2
 (Enter /scratch/scicomp/CentOS/7.3.1611/Haswell/software/Gaussian/g16/l302.exe)
 NPDir=0 NMtPBC=     1 NCelOv=     1 NCel=       1 NClECP=     1 NCelD=      1
         NCelK=      1 NCelE2=     1 NClLst=     1 CellRange=     0.0.
 One-electron integrals computed using PRISM.
   1 Symmetry operations used in ECPInt.
 ECPInt:  NShTT=   19306 NPrTT=   56928 LenC2=   18486 LenP2D=   42012.
 LDataN:  DoStor=T MaxTD1= 6 Len=  172
 NBasis=   468 RedAO= T EigKep=  2.33D-05  NBF=   468
 NBsUse=   468 1.00D-06 EigRej= -1.00D+00 NBFU=   468
 Precomputing XC quadrature grid using
 IXCGrd= 4 IRadAn=           5 IRanWt=          -1 IRanGd=           0 AccXCQ= 0.00D+00.
 Generated NRdTot=       0 NPtTot=           0 NUsed=           0 NTot=          32
 NSgBfM=   526   526   526   526   526 MxSgAt=    28 MxSgA2=    28.
 Leave Link  302 at Tue Aug  4 21:38:36 2020, MaxMem=  6442450944 cpu:              11.7 elap:               0.5
 (Enter /scratch/scicomp/CentOS/7.3.1611/Haswell/software/Gaussian/g16/l401.exe)
 ExpMin= 9.52D-02 ExpMax= 1.36D+04 ExpMxC= 4.63D+02 IAcc=3 IRadAn=         5 AccDes= 0.00D+00
 Harris functional with IExCor= 4639 and IRadAn=       5 diagonalized for initial guess.
 HarFok:  IExCor= 4639 AccDes= 0.00D+00 IRadAn=         5 IDoV= 1 UseB2=F ITyADJ=14
 ICtDFT=  3500011 ScaDFX=  1.000000  1.000000  1.000000  1.000000
 FoFCou: FMM=F IPFlag=           0 FMFlag=      100000 FMFlg1=           0
         NFxFlg=           0 DoJE=T BraDBF=F KetDBF=T FulRan=T
         wScrn=  0.000000 ICntrl=       500 IOpCl=  0 I1Cent=   200000004 NGrid=           0
         NMat0=    1 NMatS0=      1 NMatT0=    0 NMatD0=    1 NMtDS0=    0 NMtDT0=    0
 Symmetry not used in FoFCou.
 Harris En= -444.577903386305    
 JPrj=0 DoOrth=F DoCkMO=T.
 Mixing orbitals, IMix= 1 IMixAn=  0 NRI=1 NE=   44 Coef=  7.07106781D-01  7.07106781D-01
 Mixing orbitals, IMix= 1 IMixAn=  0 NRI=1 NE=   44 Coef= -7.07106781D-01  7.07106781D-01
 Initial guess <Sx>= 0.0000 <Sy>= 0.0000 <Sz>= 0.0000 <S**2>= 1.0000 S= 0.6180
 Leave Link  401 at Tue Aug  4 21:38:38 2020, MaxMem=  6442450944 cpu:              46.8 elap:               2.0
 (Enter /scratch/scicomp/CentOS/7.3.1611/Haswell/software/Gaussian/g16/l9999.exe)

 This type of calculation cannot be archived.


 GARLIC THEN HAVE POWER TO SAVE FROM DEATH
 BEAR WITH IT THOUGH IT MAKETH UNSAVORY BREATH,
 AND SCORN NOT GARLIC LIKE SOME THAT THINK
 IT ONLY MAKETH MEN WINK AND DRINK AND STINK.
   --  SIR JOHN HARRINGTON,
       "THE ENGLISHMAN'S DOCTOR", 1609
 Job cpu time:       0 days  0 hours  1 minutes  6.7 seconds.
 Elapsed time:       0 days  0 hours  0 minutes  3.1 seconds.
 File lengths (MBytes):  RWF=    284 Int=      0 D2E=      0 Chk=      1 Scr=      1
 Normal termination of Gaussian 16 at Tue Aug  4 21:38:38 2020.
 Initial command:
 /scratch/scicomp/CentOS/7.3.1611/Haswell/software/Gaussian/g16/l1.exe "/scratch/bochen/cyclohexadiene-dimerization/wb97xd-def2tzvp/xp-pcm/meso/Gau-75602.inp" -scrdir="/scratch/bochen/cyclohexadiene-dimerization/wb97xd-def2tzvp/xp-pcm/meso/"
 Entering Link 1 = /scratch/scicomp/CentOS/7.3.1611/Haswell/software/Gaussian/g16/l1.exe PID=     76089.
  
 Copyright (c) 1988-2017, Gaussian, Inc.  All Rights Reserved.
  
 This is part of the Gaussian(R) 16 program.  It is based on
 the Gaussian(R) 09 system (copyright 2009, Gaussian, Inc.),
 the Gaussian(R) 03 system (copyright 2003, Gaussian, Inc.),
 the Gaussian(R) 98 system (copyright 1998, Gaussian, Inc.),
 the Gaussian(R) 94 system (copyright 1995, Gaussian, Inc.),
 the Gaussian 92(TM) system (copyright 1992, Gaussian, Inc.),
 the Gaussian 90(TM) system (copyright 1990, Gaussian, Inc.),
 the Gaussian 88(TM) system (copyright 1988, Gaussian, Inc.),
 the Gaussian 86(TM) system (copyright 1986, Carnegie Mellon
 University), and the Gaussian 82(TM) system (copyright 1983,
 Carnegie Mellon University). Gaussian is a federally registered
 trademark of Gaussian, Inc.
  
 This software contains proprietary and confidential information,
 including trade secrets, belonging to Gaussian, Inc.
  
 This software is provided under written license and may be
 used, copied, transmitted, or stored only in accord with that
 written license.
  
 The following legend is applicable only to US Government
 contracts under FAR:
  
                    RESTRICTED RIGHTS LEGEND
  
 Use, reproduction and disclosure by the US Government is
 subject to restrictions as set forth in subparagraphs (a)
 and (c) of the Commercial Computer Software - Restricted
 Rights clause in FAR 52.227-19.
  
 Gaussian, Inc.
 340 Quinnipiac St., Bldg. 40, Wallingford CT 06492
  
  
 ---------------------------------------------------------------
 Warning -- This program may not be used in any manner that
 competes with the business of Gaussian, Inc. or will provide
 assistance to any competitor of Gaussian, Inc.  The licensee
 of this program is prohibited from giving any competitor of
 Gaussian, Inc. access to this program.  By using this program,
 the user acknowledges that Gaussian, Inc. is engaged in the
 business of creating and licensing software in the field of
 computational chemistry and represents and warrants to the
 licensee that it is not a competitor of Gaussian, Inc. and that
 it will not use this program in any manner prohibited above.
 ---------------------------------------------------------------
  

 Cite this work as:
 Gaussian 16, Revision B.01,
 M. J. Frisch, G. W. Trucks, H. B. Schlegel, G. E. Scuseria, 
 M. A. Robb, J. R. Cheeseman, G. Scalmani, V. Barone, 
 G. A. Petersson, H. Nakatsuji, X. Li, M. Caricato, A. V. Marenich, 
 J. Bloino, B. G. Janesko, R. Gomperts, B. Mennucci, H. P. Hratchian, 
 J. V. Ortiz, A. F. Izmaylov, J. L. Sonnenberg, D. Williams-Young, 
 F. Ding, F. Lipparini, F. Egidi, J. Goings, B. Peng, A. Petrone, 
 T. Henderson, D. Ranasinghe, V. G. Zakrzewski, J. Gao, N. Rega, 
 G. Zheng, W. Liang, M. Hada, M. Ehara, K. Toyota, R. Fukuda, 
 J. Hasegawa, M. Ishida, T. Nakajima, Y. Honda, O. Kitao, H. Nakai, 
 T. Vreven, K. Throssell, J. A. Montgomery, Jr., J. E. Peralta, 
 F. Ogliaro, M. J. Bearpark, J. J. Heyd, E. N. Brothers, K. N. Kudin, 
 V. N. Staroverov, T. A. Keith, R. Kobayashi, J. Normand, 
 K. Raghavachari, A. P. Rendell, J. C. Burant, S. S. Iyengar, 
 J. Tomasi, M. Cossi, J. M. Millam, M. Klene, C. Adamo, R. Cammi, 
 J. W. Ochterski, R. L. Martin, K. Morokuma, O. Farkas, 
 J. B. Foresman, and D. J. Fox, Gaussian, Inc., Wallingford CT, 2016.
 
 ******************************************
 Gaussian 16:  ES64L-G16RevB.01 20-Dec-2017
                 4-Aug-2020 
 ******************************************
 %chk=scr.chk
 %nproc=24
 Will use up to   24 processors via shared memory.
 %mem=48GB
 ----------------------------------------------------------------------
 #p uwb97xd guess=mix def2tzvp # scrf=(iefpcm,solvent=Cyclohexane,read)
  nosym guess=only pop=none
 ----------------------------------------------------------------------
 1/38=1,40=2,172=1/1;
 2/12=2,15=1,17=6,18=5,40=1/2;
 3/5=44,7=101,11=2,25=1,30=1,70=2203,72=17,74=-58,89=1,116=2/1,2;
 4/13=-1/1;
 99/5=2/99;
 Leave Link    1 at Tue Aug  4 21:38:38 2020, MaxMem=  6442450944 cpu:               1.4 elap:               0.1
 (Enter /scratch/scicomp/CentOS/7.3.1611/Haswell/software/Gaussian/g16/l101.exe)
 -----------------------------------------------
 endo-2 xp-pcm with Vmol=89.84123994485 cm^3/mol
 -----------------------------------------------
 Symbolic Z-matrix:
 Charge =  0 Multiplicity = 1
 6                    -3.12689  -0.44089   0.25512 
 6                    -0.68442  -0.23978  -1.16564 
 1                    -4.08122  -0.54015   0.75934 
[...]
 1                     0.27956  -0.15138  -1.65003 
 6                     1.13715   1.41976   0.75289 
 6                     0.68442   0.23978   1.16564 
 1                     0.5438    2.31661   0.88265 
 1                    -0.27956   0.15138   1.65003 
 6                     1.52714  -0.99901   1.07056 
 1                     2.02746  -1.11996   2.03974 
 1                     0.89477  -1.87785   0.94887 
 6                     2.44322   1.52599   0.10499 
 1                     2.84602   2.51251  -0.09124 
 6                     3.12689   0.44089  -0.25512 
 1                     4.08122   0.54015  -0.75934 
 6                     2.58283  -0.94511  -0.03962 
 1                     2.1641   -1.30486  -0.98762 
 1                     3.39638  -1.63318   0.19866 
 6                    -1.13715  -1.41976  -0.75289 
 1                    -0.5438   -2.31661  -0.88265 
 6                    -2.44322  -1.52599  -0.10499 
 1                    -2.84602  -2.51251   0.09124 
 6                    -1.52714   0.99901  -1.07056 
 1                    -0.89477   1.87785  -0.94887 
 1                    -2.02746   1.11996  -2.03974 
 6                    -2.58283   0.94511   0.03962 
 1                    -3.39638   1.63318  -0.19866 
 1                    -2.1641    1.30486   0.98762 
 
 ITRead=  0  0  0  0  0  0  0  0  0  0  0  0  0  0  0  0  0  0  0  0
 ITRead=  0  0  0  0  0  0  0  0
 MicOpt= -1 -1 -1 -1 -1 -1 -1 -1 -1 -1 -1 -1 -1 -1 -1 -1 -1 -1 -1 -1
 MicOpt= -1 -1 -1 -1 -1 -1 -1 -1
 NAtoms=     28 NQM=       28 NQMF=       0 NMMI=      0 NMMIF=      0
                NMic=       0 NMicF=      0.
                    Isotopes and Nuclear Properties:
 (Nuclear quadrupole moments (NQMom) in fm**2, nuclear magnetic moments (NMagM)
  in nuclear magnetons)

  Atom         1           2           3           4           5           6           7           8           9          10
 IAtWgt=          12          12           1           1          12          12           1           1          12           1
 AtmWgt=  12.0000000  12.0000000   1.0078250   1.0078250  12.0000000  12.0000000   1.0078250   1.0078250  12.0000000   1.0078250
 NucSpn=           0           0           1           1           0           0           1           1           0           1
 AtZEff=  -0.0000000  -0.0000000  -0.0000000  -0.0000000  -0.0000000  -0.0000000  -0.0000000  -0.0000000  -0.0000000  -0.0000000
 NQMom=    0.0000000   0.0000000   0.0000000   0.0000000   0.0000000   0.0000000   0.0000000   0.0000000   0.0000000   0.0000000
 NMagM=    0.0000000   0.0000000   2.7928460   2.7928460   0.0000000   0.0000000   2.7928460   2.7928460   0.0000000   2.7928460
 AtZNuc=   6.0000000   6.0000000   1.0000000   1.0000000   6.0000000   6.0000000   1.0000000   1.0000000   6.0000000   1.0000000

  Atom        11          12          13          14          15          16          17          18          19          20
 IAtWgt=           1          12           1          12           1          12           1           1          12           1
 AtmWgt=   1.0078250  12.0000000   1.0078250  12.0000000   1.0078250  12.0000000   1.0078250   1.0078250  12.0000000   1.0078250
 NucSpn=           1           0           1           0           1           0           1           1           0           1
 AtZEff=  -0.0000000  -0.0000000  -0.0000000  -0.0000000  -0.0000000  -0.0000000  -0.0000000  -0.0000000  -0.0000000  -0.0000000
 NQMom=    0.0000000   0.0000000   0.0000000   0.0000000   0.0000000   0.0000000   0.0000000   0.0000000   0.0000000   0.0000000
 NMagM=    2.7928460   0.0000000   2.7928460   0.0000000   2.7928460   0.0000000   2.7928460   2.7928460   0.0000000   2.7928460
 AtZNuc=   1.0000000   6.0000000   1.0000000   6.0000000   1.0000000   6.0000000   1.0000000   1.0000000   6.0000000   1.0000000

  Atom        21          22          23          24          25          26          27          28
 IAtWgt=          12           1          12           1           1          12           1           1
 AtmWgt=  12.0000000   1.0078250  12.0000000   1.0078250   1.0078250  12.0000000   1.0078250   1.0078250
 NucSpn=           0           1           0           1           1           0           1           1
 AtZEff=  -0.0000000  -0.0000000  -0.0000000  -0.0000000  -0.0000000  -0.0000000  -0.0000000  -0.0000000
 NQMom=    0.0000000   0.0000000   0.0000000   0.0000000   0.0000000   0.0000000   0.0000000   0.0000000
 NMagM=    0.0000000   2.7928460   0.0000000   2.7928460   2.7928460   0.0000000   2.7928460   2.7928460
 AtZNuc=   6.0000000   1.0000000   6.0000000   1.0000000   1.0000000   6.0000000   1.0000000   1.0000000
 Leave Link  101 at Tue Aug  4 21:38:49 2020, MaxMem=  6442450944 cpu:               2.4 elap:               0.1
 (Enter /scratch/scicomp/CentOS/7.3.1611/Haswell/software/Gaussian/g16/l202.exe)
                          Input orientation:                          
 ---------------------------------------------------------------------
 Center     Atomic      Atomic             Coordinates (Angstroms)
 Number     Number       Type             X           Y           Z
 ---------------------------------------------------------------------
      1          6           0       -3.126891   -0.440888    0.255118
      2          6           0       -0.684423   -0.239784   -1.165641
      3          1           0       -4.081225   -0.540147    0.759340
      4          1           0        0.279559   -0.151378   -1.650033
      5          6           0        1.137152    1.419764    0.752892
      6          6           0        0.684423    0.239784    1.165641
      7          1           0        0.543796    2.316608    0.882649
      8          1           0       -0.279559    0.151379    1.650033
      9          6           0        1.527143   -0.999005    1.070559
     10          1           0        2.027460   -1.119961    2.039740
     11          1           0        0.894773   -1.877853    0.948868
     12          6           0        2.443219    1.525992    0.104990
     13          1           0        2.846024    2.512508   -0.091240
     14          6           0        3.126891    0.440888   -0.255118
     15          1           0        4.081225    0.540147   -0.759340
     16          6           0        2.582831   -0.945113   -0.039623
     17          1           0        2.164096   -1.304863   -0.987620
     18          1           0        3.396382   -1.633179    0.198658
     19          6           0       -1.137152   -1.419764   -0.752892
     20          1           0       -0.543796   -2.316608   -0.882649
     21          6           0       -2.443219   -1.525992   -0.104990
     22          1           0       -2.846024   -2.512508    0.091240
     23          6           0       -1.527143    0.999005   -1.070559
     24          1           0       -0.894773    1.877853   -0.948868
     25          1           0       -2.027460    1.119961   -2.039740
     26          6           0       -2.582831    0.945113    0.039623
     27          1           0       -3.396382    1.633179   -0.198658
     28          1           0       -2.164097    1.304863    0.987620
 ---------------------------------------------------------------------
                    Distance matrix (angstroms):
                    1          2          3          4          5
     1  C    0.000000
     2  C    2.832781   0.000000
     3  H    1.083903   3.915869   0.000000
     4  H    3.913735   1.082457   4.997265   0.000000
     5  C    4.678875   3.122980   5.574294   2.996331   0.000000
     6  C    3.977245   2.745651   4.846109   2.871401   1.329541
     7  H    4.633737   3.498450   5.437561   3.546160   1.083161
     8  H    3.225503   2.871401   3.965376   3.360760   2.102554
     9  C    4.757780   3.235434   5.635708   3.110717   2.470516
    10  H    5.496667   4.289929   6.268304   4.196157   2.983091
    11  H    4.326654   3.106168   5.156155   3.180171   3.312315
    12  C    5.909085   3.809805   6.874989   3.251938   1.461805
    13  H    6.672198   4.603640   7.617675   4.014084   2.197019
    14  C    6.336218   3.977245   7.344964   3.225503   2.435846
    15  H    7.344964   4.846109   8.372515   3.965376   3.424637
    16  C    5.739516   3.527089   6.723986   2.920359   2.882830
    17  H    5.503217   3.046333   6.529984   2.306686   3.392284
    18  H    6.631579   4.522812   7.577842   3.915096   3.838197
    19  C    2.435846   1.329541   3.424637   2.102554   3.937355
    20  H    3.388985   2.100728   4.285481   2.440289   4.411469
    21  C    1.332117   2.423360   2.098099   3.419100   4.715135
    22  H    2.096986   3.378986   2.421216   4.286751   5.636154
    23  C    2.527826   1.501271   3.498693   2.218861   3.255838
    24  H    3.436349   2.139071   4.349503   2.447134   2.689712
    25  H    2.985192   2.101596   3.848215   2.662801   4.231246
    26  C    1.504473   2.541770   2.229165   3.500072   3.817371
    27  H    2.140162   3.434788   2.471865   4.336320   4.637232
    28  H    2.123953   3.035112   2.670497   3.879343   3.311577
                    6          7          8          9         10
     6  C    0.000000
     7  H    2.100728   0.000000
     8  H    1.082457   2.440289   0.000000
     9  C    1.501271   3.463462   2.218861   0.000000
    10  H    2.101596   3.917924   2.662802   1.097387   0.000000
    11  H    2.139071   4.209640   2.447135   1.089529   1.745675
    12  C    2.423360   2.199462   3.419099   2.854318   3.304116
    13  H    3.378986   2.507407   4.286751   3.926824   4.290216
    14  C    2.832781   3.388985   3.913734   2.527826   2.985192
    15  H    3.915869   4.285481   4.997265   3.498693   3.848215
    16  C    2.541770   3.955638   3.500073   1.532934   2.159342
    17  H    3.035111   4.386152   3.879343   2.176088   3.036078
    18  H    3.434788   4.919950   4.336321   2.157879   2.350941
    19  C    3.122980   4.411469   2.996332   3.255838   4.231246
    20  H    3.498450   5.076005   3.546161   3.136859   4.072306
    21  C    3.809805   4.966212   3.251938   4.174135   4.975108
    22  H    4.603640   5.952946   4.014084   4.730153   5.430164
    23  C    3.235434   3.136859   3.110716   4.231441   5.176792
    24  H    3.106168   2.369903   3.180171   4.268498   5.143745
    25  H    4.289929   4.072306   4.196157   5.176792   6.172664
    26  C    3.527089   3.516744   2.920359   4.662007   5.433211
    27  H    4.522812   4.142620   3.915096   5.725417   6.481379
    28  H    3.046334   2.892634   2.306686   4.352004   4.955389
                   11         12         13         14         15
    11  H    0.000000
    12  C    3.833533   0.000000
    13  H    4.915737   1.083500   0.000000
    14  C    3.436349   1.332117   2.096986   0.000000
    15  H    4.349503   2.098099   2.421216   1.083903   0.000000
    16  C    2.167177   2.479267   3.468008   1.504473   2.229165
    17  H    2.385264   3.047203   3.980056   2.123954   2.670498
    18  H    2.623114   3.301160   4.192094   2.140162   2.471865
    19  C    2.689712   4.715135   5.636154   4.678875   5.574294
    20  H    2.369903   4.966212   5.952946   4.633737   5.437561
    21  C    3.518041   5.765065   6.654755   5.909085   6.874989
    22  H    3.889971   6.654755   7.594965   6.672198   7.617675
    23  C    4.268498   4.174135   4.730153   4.757780   5.635708
    24  H    4.572658   3.518041   3.889971   4.326654   5.156155
    25  H    5.143745   4.975108   5.430164   5.496667   6.268304
    26  C    4.570513   5.059928   5.652107   5.739516   6.723986
    27  H    5.661994   5.848473   6.304950   6.631579   7.577842
    28  H    4.414507   4.696306   5.265326   5.503218   6.529985
                   16         17         18         19         20
    16  C    0.000000
    17  H    1.097022   0.000000
    18  H    1.091823   1.741716   0.000000
    19  C    3.817371   3.311576   4.637232   0.000000
    20  H    3.516744   2.892633   4.142620   1.083161   0.000000
    21  C    5.059928   4.696305   5.848473   1.461805   2.199462
    22  H    5.652107   5.265325   6.304950   2.197019   2.507407
    23  C    4.662007   4.352003   5.725417   2.470516   3.463462
    24  H    4.570513   4.414506   5.661994   3.312315   4.209640
    25  H    5.433211   4.955388   6.481379   2.983091   3.917924
    26  C    5.501209   5.352657   6.513361   2.882830   3.955638
    27  H    6.513361   6.338254   7.547754   3.838197   4.919950
    28  H    5.352658   5.426371   6.338255   3.392284   4.386152
                   21         22         23         24         25
    21  C    0.000000
    22  H    1.083500   0.000000
    23  C    2.854318   3.926824   0.000000
    24  H    3.833533   4.915737   1.089529   0.000000
    25  H    3.304116   4.290216   1.097387   1.745675   0.000000
    26  C    2.479267   3.468008   1.532934   2.167177   2.159342
    27  H    3.301160   4.192094   2.157879   2.623114   2.350941
    28  H    3.047203   3.980056   2.176088   2.385264   3.036078
                   26         27         28
    26  C    0.000000
    27  H    1.091823   0.000000
    28  H    1.097022   1.741716   0.000000
 Symmetry turned off by external request.
 Stoichiometry    C12H16
 Framework group  CI[X(C12H16)]
 Deg. of freedom    39
 Full point group                 CI      NOp   2
 Rotational constants (GHZ):           1.8059238           0.6061502           0.5409639
 Leave Link  202 at Tue Aug  4 21:38:49 2020, MaxMem=  6442450944 cpu:               0.3 elap:               0.0
 (Enter /scratch/scicomp/CentOS/7.3.1611/Haswell/software/Gaussian/g16/l301.exe)
 Standard basis: def2TZVP (5D, 7F)
 Ernie: Thresh=  0.10000D-02 Tol=  0.10000D-05 Strict=F.
   468 basis functions,   740 primitive gaussians,   528 cartesian basis functions
    44 alpha electrons       44 beta electrons
       nuclear repulsion energy       680.3343633383 Hartrees.
 IExCor= 4639 DFT=T Ex+Corr=wB97XD ExCW=0 ScaHFX=  1.000000
 ScaDFX=  1.000000  1.000000  1.000000  1.000000 ScalE2=  1.000000  1.000000
 IRadAn=      5 IRanWt=     -1 IRanGd=            0 ICorTp=0 IEmpDi=121
 HFx  wShort=  0.000000 wLong=  0.200000 cFull=  0.222036 cShort=  0.000000 cLong=  0.777964
 DFx  wShort=  0.000000 wLong=  0.200000 cFull=  0.000000 cShort=  0.000000 cLong=  1.000000
 NAtoms=   28 NActive=   28 NUniq=   28 SFac= 1.00D+00 NAtFMM=   60 NAOKFM=F Big=F
 Integral buffers will be    131072 words long.
 Raffenetti 2 integral format.
 Two-electron integral symmetry is turned off.
 R6Disp:  Grimme-D2 Dispersion energy=       -0.0226369669 Hartrees.
 Nuclear repulsion after empirical dispersion term =      680.3117263713 Hartrees.
 Using the following non-standard input for PCM:
 norep  pcmdoc geomview  nodis cav g03defaults noaddsph  tsare=0.075
 Warning! Using old PCM defaults because the g03defaults keyword was found.
 These settings can be overridden by following keywords.
 nsfe=28
 Vmol=78.9041178242053 Rsolv=2.815
 --- end of non-standard input.
 Reading user-defined spheres from input:
 ISph  on   Nord    Re0     Alpha      Xe            Ye            Ze
 --- end of user-defined spheres data.
 ------------------------------------------------------------------------------
 Polarizable Continuum Model (PCM)
 =================================
 Model                : PCM.
 Atomic radii         : UA0 (Simple United Atom Topological Model).
 Polarization charges : Total charges.
 Charge compensation  : None.
 Solution method      : On-the-fly selection.
 Cavity type          : VdW (van der Waals Surface) (Alpha=1.000).
 Cavity algorithm     : GePol (No added spheres)
                        User-defined sphere list used, NSphG=   28.
                        Tesserae with average area of 0.075 Ang**2.
                        Smoothing algorithm: None.
                        Polarization charges: point-like.
                        Self-potential: constant (ISelfS= 1).
                        Self-field    : global E.n sum rule (ISelfD= 3).
 Solvent              : CycloHexane, Eps=   2.016500 Eps(inf)=   2.035188
 ------------------------------------------------------------------------------
 GePol: Number of generator spheres                  =      28
 GePol: Total number of spheres                      =      28
 GePol: Number of exposed spheres                    =      28 (100.00%)
 GePol: Number of tesserae                           =    3869
 GePol: Average area of tesserae                     =       0.06 Ang**2
 GePol: Minimum area of tessera                      =   0.10D-02 Ang**2
 GePol: Maximum area of tessera                      =    0.12395 Ang**2
 GePol: Number of small tesserae                     =       0
 GePol: Fraction of small tesserae (<1% of avg)      =       0.00%
 GePol: Total count of vertices                      =   12817
 GePol: Maximum number of vertices in a tessera      =       6
 GePol: Cavity surface area                          =    233.724 Ang**2
 GePol: Cavity volume                                =    241.002 Ang**3
 PCM non-electrostatic energy =         0.1146211130 Hartrees.
 Nuclear repulsion after PCM non-electrostatic terms =      680.4263474843 Hartrees.
 Leave Link  301 at Tue Aug  4 21:38:49 2020, MaxMem=  6442450944 cpu:               3.2 elap:               0.2
 (Enter /scratch/scicomp/CentOS/7.3.1611/Haswell/software/Gaussian/g16/l302.exe)
 NPDir=0 NMtPBC=     1 NCelOv=     1 NCel=       1 NClECP=     1 NCelD=      1
         NCelK=      1 NCelE2=     1 NClLst=     1 CellRange=     0.0.
 One-electron integrals computed using PRISM.
   1 Symmetry operations used in ECPInt.
 ECPInt:  NShTT=   19306 NPrTT=   56928 LenC2=   18486 LenP2D=   42012.
 LDataN:  DoStor=T MaxTD1= 6 Len=  172
 NBasis=   468 RedAO= T EigKep=  2.33D-05  NBF=   468
 NBsUse=   468 1.00D-06 EigRej= -1.00D+00 NBFU=   468
 Precomputing XC quadrature grid using
 IXCGrd= 4 IRadAn=           5 IRanWt=          -1 IRanGd=           0 AccXCQ= 0.00D+00.
 Generated NRdTot=       0 NPtTot=           0 NUsed=           0 NTot=          32
 NSgBfM=   526   526   526   526   526 MxSgAt=    28 MxSgA2=    28.
 Leave Link  302 at Tue Aug  4 21:38:50 2020, MaxMem=  6442450944 cpu:              11.7 elap:               0.5
 (Enter /scratch/scicomp/CentOS/7.3.1611/Haswell/software/Gaussian/g16/l401.exe)
 ExpMin= 9.52D-02 ExpMax= 1.36D+04 ExpMxC= 4.63D+02 IAcc=3 IRadAn=         5 AccDes= 0.00D+00
 Harris functional with IExCor= 4639 and IRadAn=       5 diagonalized for initial guess.
 HarFok:  IExCor= 4639 AccDes= 0.00D+00 IRadAn=         5 IDoV= 1 UseB2=F ITyADJ=14
 ICtDFT=  3500011 ScaDFX=  1.000000  1.000000  1.000000  1.000000
 FoFCou: FMM=F IPFlag=           0 FMFlag=      100000 FMFlg1=           0
         NFxFlg=           0 DoJE=T BraDBF=F KetDBF=T FulRan=T
         wScrn=  0.000000 ICntrl=       500 IOpCl=  0 I1Cent=   200000004 NGrid=           0
         NMat0=    1 NMatS0=      1 NMatT0=    0 NMatD0=    1 NMtDS0=    0 NMtDT0=    0
 Symmetry not used in FoFCou.
 Harris En= -444.514987186445    
 JPrj=0 DoOrth=F DoCkMO=T.
 Mixing orbitals, IMix= 1 IMixAn=  0 NRI=1 NE=   44 Coef=  7.07106781D-01  7.07106781D-01
 Mixing orbitals, IMix= 1 IMixAn=  0 NRI=1 NE=   44 Coef= -7.07106781D-01  7.07106781D-01
 Initial guess <Sx>= 0.0000 <Sy>= 0.0000 <Sz>= 0.0000 <S**2>= 1.0000 S= 0.6180
 Leave Link  401 at Tue Aug  4 21:38:52 2020, MaxMem=  6442450944 cpu:              47.3 elap:               2.0
 (Enter /scratch/scicomp/CentOS/7.3.1611/Haswell/software/Gaussian/g16/l9999.exe)

 This type of calculation cannot be archived.


 A successful marriage requires falling in love
 many times, always with the same person.
                           -- Mignon McLaughlin
 Job cpu time:       0 days  0 hours  1 minutes  7.1 seconds.
 Elapsed time:       0 days  0 hours  0 minutes  3.1 seconds.
 File lengths (MBytes):  RWF=    284 Int=      0 D2E=      0 Chk=      1 Scr=      1
 Normal termination of Gaussian 16 at Tue Aug  4 21:38:52 2020.
