 Entering Gaussian System, Link 0=g16
 Input=meso-TS_30_1_xp-Ger.com
 Output=meso-TS_30_1_xp-Ger.log
 Initial command:
 /scratch/scicomp/CentOS/7.3.1611/Haswell/software/Gaussian/g16/l1.exe "/scratch/bochen/cyclohexadiene-dimerization/wb97xd-def2tzvp/xp-pcm/meso/Gau-45161.inp" -scrdir="/scratch/bochen/cyclohexadiene-dimerization/wb97xd-def2tzvp/xp-pcm/meso/"
 Entering Link 1 = /scratch/scicomp/CentOS/7.3.1611/Haswell/software/Gaussian/g16/l1.exe PID=     45162.
  
 Copyright (c) 1988-2017, Gaussian, Inc.  All Rights Reserved.
  
 This is part of the Gaussian(R) 16 program.  It is based on
 the Gaussian(R) 09 system (copyright 2009, Gaussian, Inc.),
 the Gaussian(R) 03 system (copyright 2003, Gaussian, Inc.),
 the Gaussian(R) 98 system (copyright 1998, Gaussian, Inc.),
 the Gaussian(R) 94 system (copyright 1995, Gaussian, Inc.),
 the Gaussian 92(TM) system (copyright 1992, Gaussian, Inc.),
 the Gaussian 90(TM) system (copyright 1990, Gaussian, Inc.),
 the Gaussian 88(TM) system (copyright 1988, Gaussian, Inc.),
 the Gaussian 86(TM) system (copyright 1986, Carnegie Mellon
 University), and the Gaussian 82(TM) system (copyright 1983,
 Carnegie Mellon University). Gaussian is a federally registered
 trademark of Gaussian, Inc.
  
 This software contains proprietary and confidential information,
 including trade secrets, belonging to Gaussian, Inc.
  
 This software is provided under written license and may be
 used, copied, transmitted, or stored only in accord with that
 written license.
  
 The following legend is applicable only to US Government
 contracts under FAR:
  
                    RESTRICTED RIGHTS LEGEND
  
 Use, reproduction and disclosure by the US Government is
 subject to restrictions as set forth in subparagraphs (a)
 and (c) of the Commercial Computer Software - Restricted
 Rights clause in FAR 52.227-19.
  
 Gaussian, Inc.
 340 Quinnipiac St., Bldg. 40, Wallingford CT 06492
  
  
 ---------------------------------------------------------------
 Warning -- This program may not be used in any manner that
 competes with the business of Gaussian, Inc. or will provide
 assistance to any competitor of Gaussian, Inc.  The licensee
 of this program is prohibited from giving any competitor of
 Gaussian, Inc. access to this program.  By using this program,
 the user acknowledges that Gaussian, Inc. is engaged in the
 business of creating and licensing software in the field of
 computational chemistry and represents and warrants to the
 licensee that it is not a competitor of Gaussian, Inc. and that
 it will not use this program in any manner prohibited above.
 ---------------------------------------------------------------
  

 Cite this work as:
 Gaussian 16, Revision B.01,
 M. J. Frisch, G. W. Trucks, H. B. Schlegel, G. E. Scuseria, 
 M. A. Robb, J. R. Cheeseman, G. Scalmani, V. Barone, 
 G. A. Petersson, H. Nakatsuji, X. Li, M. Caricato, A. V. Marenich, 
 J. Bloino, B. G. Janesko, R. Gomperts, B. Mennucci, H. P. Hratchian, 
 J. V. Ortiz, A. F. Izmaylov, J. L. Sonnenberg, D. Williams-Young, 
 F. Ding, F. Lipparini, F. Egidi, J. Goings, B. Peng, A. Petrone, 
 T. Henderson, D. Ranasinghe, V. G. Zakrzewski, J. Gao, N. Rega, 
 G. Zheng, W. Liang, M. Hada, M. Ehara, K. Toyota, R. Fukuda, 
 J. Hasegawa, M. Ishida, T. Nakajima, Y. Honda, O. Kitao, H. Nakai, 
 T. Vreven, K. Throssell, J. A. Montgomery, Jr., J. E. Peralta, 
 F. Ogliaro, M. J. Bearpark, J. J. Heyd, E. N. Brothers, K. N. Kudin, 
 V. N. Staroverov, T. A. Keith, R. Kobayashi, J. Normand, 
 K. Raghavachari, A. P. Rendell, J. C. Burant, S. S. Iyengar, 
 J. Tomasi, M. Cossi, J. M. Millam, M. Klene, C. Adamo, R. Cammi, 
 J. W. Ochterski, R. L. Martin, K. Morokuma, O. Farkas, 
 J. B. Foresman, and D. J. Fox, Gaussian, Inc., Wallingford CT, 2016.
 
 ******************************************
 Gaussian 16:  ES64L-G16RevB.01 20-Dec-2017
                 4-Aug-2020 
 ******************************************
 %chk=meso-TS_30_1_xp-12.chk
 %nproc=24
 Will use up to   24 processors via shared memory.
 %mem=48GB
 ----------------------------------------------------------------------
 #p uwb97xd guess=mix def2tzvp # scrf=(iefpcm,solvent=Cyclohexane,read)
  nosym 6d 10f
 ----------------------------------------------------------------------
 1/38=1,40=2,172=1/1;
 2/12=2,15=1,17=6,18=5,40=1/2;
 3/5=44,7=101,8=22,11=2,25=1,30=1,70=2203,72=17,74=-58,116=2/1,2,3;
 4/13=-1/1;
 5/5=2,38=5,53=17/2;
 6/7=2,8=2,9=2,10=2,28=1/1;
 99/5=1,9=1/99;
 Leave Link    1 at Tue Aug  4 20:57:26 2020, MaxMem=  6442450944 cpu:               2.3 elap:               0.1
 (Enter /scratch/scicomp/CentOS/7.3.1611/Haswell/software/Gaussian/g16/l101.exe)
 -----------------------
 endo-2 xp-pcm for eta=3
 -----------------------
 Symbolic Z-matrix:
 Charge =  0 Multiplicity = 1
 6                    -3.14099  -0.42504   0.22382 
 6                    -0.4063   -0.1269   -0.65908 
 1                    -4.13565  -0.54469   0.63509 
 1                     0.31741  -0.13066  -1.47881 
 6                     1.10894   1.44553   0.60737 
 6                     0.4063    0.1269    0.65908 
 1                     0.57318   2.34463   0.8844 
 1                    -0.31741   0.13066   1.47881 
 6                     1.42998  -0.98206   0.93298 
 1                     1.83176  -0.82932   1.93798 
 1                     0.94414  -1.95883   0.9306 
 6                     2.4096    1.53504   0.14459 
 1                     2.86887   2.51402   0.06052 
 6                     3.14099   0.42504  -0.22382 
 1                     4.13565   0.54469  -0.63509 
 6                     2.58898  -0.95563  -0.06333 
 1                     2.2607   -1.33761  -1.03945 
 1                     3.37789  -1.63847   0.26323 
 6                    -1.10894  -1.44553  -0.60737 
 1                    -0.57318  -2.34463  -0.8844 
 6                    -2.4096   -1.53504  -0.14459 
 1                    -2.86887  -2.51402  -0.06052 
 6                    -1.42998   0.98206  -0.93298 
 1                    -0.94414   1.95883  -0.9306 
 1                    -1.83176   0.82932  -1.93798 
 6                    -2.58898   0.95563   0.06333 
 1                    -3.37789   1.63847  -0.26323 
 1                    -2.2607    1.33761   1.03945 
 
 ITRead=  0  0  0  0  0  0  0  0  0  0  0  0  0  0  0  0  0  0  0  0
 ITRead=  0  0  0  0  0  0  0  0
 MicOpt= -1 -1 -1 -1 -1 -1 -1 -1 -1 -1 -1 -1 -1 -1 -1 -1 -1 -1 -1 -1
 MicOpt= -1 -1 -1 -1 -1 -1 -1 -1
 NAtoms=     28 NQM=       28 NQMF=       0 NMMI=      0 NMMIF=      0
                NMic=       0 NMicF=      0.
                    Isotopes and Nuclear Properties:
 (Nuclear quadrupole moments (NQMom) in fm**2, nuclear magnetic moments (NMagM)
  in nuclear magnetons)

  Atom         1           2           3           4           5           6           7           8           9          10
 IAtWgt=          12          12           1           1          12          12           1           1          12           1
 AtmWgt=  12.0000000  12.0000000   1.0078250   1.0078250  12.0000000  12.0000000   1.0078250   1.0078250  12.0000000   1.0078250
 NucSpn=           0           0           1           1           0           0           1           1           0           1
 AtZEff=  -0.0000000  -0.0000000  -0.0000000  -0.0000000  -0.0000000  -0.0000000  -0.0000000  -0.0000000  -0.0000000  -0.0000000
 NQMom=    0.0000000   0.0000000   0.0000000   0.0000000   0.0000000   0.0000000   0.0000000   0.0000000   0.0000000   0.0000000
 NMagM=    0.0000000   0.0000000   2.7928460   2.7928460   0.0000000   0.0000000   2.7928460   2.7928460   0.0000000   2.7928460
 AtZNuc=   6.0000000   6.0000000   1.0000000   1.0000000   6.0000000   6.0000000   1.0000000   1.0000000   6.0000000   1.0000000

  Atom        11          12          13          14          15          16          17          18          19          20
 IAtWgt=           1          12           1          12           1          12           1           1          12           1
 AtmWgt=   1.0078250  12.0000000   1.0078250  12.0000000   1.0078250  12.0000000   1.0078250   1.0078250  12.0000000   1.0078250
 NucSpn=           1           0           1           0           1           0           1           1           0           1
 AtZEff=  -0.0000000  -0.0000000  -0.0000000  -0.0000000  -0.0000000  -0.0000000  -0.0000000  -0.0000000  -0.0000000  -0.0000000
 NQMom=    0.0000000   0.0000000   0.0000000   0.0000000   0.0000000   0.0000000   0.0000000   0.0000000   0.0000000   0.0000000
 NMagM=    2.7928460   0.0000000   2.7928460   0.0000000   2.7928460   0.0000000   2.7928460   2.7928460   0.0000000   2.7928460
 AtZNuc=   1.0000000   6.0000000   1.0000000   6.0000000   1.0000000   6.0000000   1.0000000   1.0000000   6.0000000   1.0000000

  Atom        21          22          23          24          25          26          27          28
 IAtWgt=          12           1          12           1           1          12           1           1
 AtmWgt=  12.0000000   1.0078250  12.0000000   1.0078250   1.0078250  12.0000000   1.0078250   1.0078250
 NucSpn=           0           1           0           1           1           0           1           1
 AtZEff=  -0.0000000  -0.0000000  -0.0000000  -0.0000000  -0.0000000  -0.0000000  -0.0000000  -0.0000000
 NQMom=    0.0000000   0.0000000   0.0000000   0.0000000   0.0000000   0.0000000   0.0000000   0.0000000
 NMagM=    0.0000000   2.7928460   0.0000000   2.7928460   2.7928460   0.0000000   2.7928460   2.7928460
 AtZNuc=   6.0000000   1.0000000   6.0000000   1.0000000   1.0000000   6.0000000   1.0000000   1.0000000
 Leave Link  101 at Tue Aug  4 20:57:26 2020, MaxMem=  6442450944 cpu:               2.4 elap:               0.1
 (Enter /scratch/scicomp/CentOS/7.3.1611/Haswell/software/Gaussian/g16/l202.exe)
                          Input orientation:                          
 ---------------------------------------------------------------------
 Center     Atomic      Atomic             Coordinates (Angstroms)
 Number     Number       Type             X           Y           Z
 ---------------------------------------------------------------------
      1          6           0       -3.140994   -0.425040    0.223816
      2          6           0       -0.406297   -0.126897   -0.659080
      3          1           0       -4.135653   -0.544691    0.635088
      4          1           0        0.317409   -0.130657   -1.478814
      5          6           0        1.108935    1.445531    0.607368
      6          6           0        0.406297    0.126897    0.659080
      7          1           0        0.573183    2.344629    0.884397
      8          1           0       -0.317409    0.130657    1.478814
      9          6           0        1.429977   -0.982064    0.932984
     10          1           0        1.831758   -0.829324    1.937981
     11          1           0        0.944143   -1.958831    0.930603
     12          6           0        2.409595    1.535044    0.144587
     13          1           0        2.868872    2.514015    0.060519
     14          6           0        3.140994    0.425040   -0.223816
     15          1           0        4.135653    0.544691   -0.635088
     16          6           0        2.588982   -0.955630   -0.063327
     17          1           0        2.260703   -1.337606   -1.039452
     18          1           0        3.377886   -1.638473    0.263228
     19          6           0       -1.108935   -1.445531   -0.607368
     20          1           0       -0.573183   -2.344629   -0.884397
     21          6           0       -2.409595   -1.535044   -0.144587
     22          1           0       -2.868872   -2.514015   -0.060519
     23          6           0       -1.429977    0.982064   -0.932984
     24          1           0       -0.944143    1.958831   -0.930603
     25          1           0       -1.831758    0.829324   -1.937981
     26          6           0       -2.588982    0.955630    0.063327
     27          1           0       -3.377886    1.638473   -0.263228
     28          1           0       -2.260703    1.337606    1.039452
 ---------------------------------------------------------------------
                    Distance matrix (angstroms):
                    1          2          3          4          5
     1  C    0.000000
     2  C    2.889111   0.000000
     3  H    1.082962   3.969574   0.000000
     4  H    3.866027   1.093494   4.946693   0.000000
     5  C    4.659189   2.524351   5.609586   2.731856   0.000000
     6  C    3.616264   1.569161   4.591396   2.155186   1.495048
     7  H    4.680015   3.074109   5.530232   3.431797   1.082660
     8  H    3.139499   2.155186   3.968243   3.036255   2.126680
     9  C    4.659074   2.576408   5.590731   2.789170   2.470286
    10  H    5.275421   3.499574   6.114617   3.802088   2.732759
    11  H    4.420453   2.776106   5.281236   3.088739   3.423641
    12  C    5.887040   3.367072   6.885213   3.128455   1.383436
    13  H    6.692025   4.268369   7.664802   3.984194   2.130277
    14  C    6.355028   3.616264   7.391054   3.139499   2.421060
    15  H    7.391054   4.591396   8.438875   3.968243   3.393557
    16  C    5.761649   3.164398   6.773284   2.800755   2.899301
    17  H    5.622006   2.953538   6.659292   2.329411   3.432847
    18  H    6.630970   4.177985   7.601836   3.830762   3.844171
    19  C    2.421060   1.495048   3.393557   2.126680   3.840934
    20  H    3.392140   2.235387   4.270808   2.459300   4.406835
    21  C    1.379411   2.502156   2.137281   3.344999   4.672185
    22  H    2.125727   3.481506   2.442712   4.224256   5.652170
    23  C    2.499141   1.533864   3.480016   2.142297   3.005588
    24  H    3.441174   2.171005   4.347959   2.501601   2.616097
    25  H    2.821506   2.140534   3.717060   2.398190   3.937790
    26  C    1.495568   2.541230   2.229364   3.464870   3.769691
    27  H    2.133405   3.479019   2.479393   4.273485   4.574574
    28  H    2.132392   2.910086   2.687376   3.891545   3.398942
                    6          7          8          9         10
     6  C    0.000000
     7  H    2.235387   0.000000
     8  H    1.093494   2.459300   0.000000
     9  C    1.533864   3.435599   2.142297   0.000000
    10  H    2.140534   3.573238   2.398190   1.093058   0.000000
    11  H    2.171005   4.319666   2.501601   1.090924   1.754553
    12  C    2.502156   2.138961   3.344999   2.813726   3.023308
    13  H    3.481506   2.444924   4.224256   3.879972   3.972201
    14  C    2.889111   3.392140   3.866027   2.499141   2.821506
    15  H    3.969574   4.270808   4.946693   3.480016   3.717060
    16  C    2.541230   3.981625   3.464870   1.528603   2.143496
    17  H    2.910086   4.484169   3.891545   2.169567   3.050812
    18  H    3.479019   4.910938   4.273485   2.161896   2.418684
    19  C    2.524351   4.406835   2.731856   3.005588   3.937790
    20  H    3.074109   5.141199   3.431797   3.028549   4.005709
    21  C    3.367072   5.000763   3.128455   4.026072   4.777469
    22  H    4.268369   6.028850   3.984194   4.670549   5.378486
    23  C    2.576408   3.028549   2.789170   3.939413   4.707705
    24  H    2.776106   2.396945   3.088739   4.214056   4.869108
    25  H    3.499574   4.005709   3.802088   4.707705   5.585297
    26  C    3.164398   3.550037   2.800755   4.545656   5.122824
    27  H    4.177985   4.174523   3.830762   5.604791   6.170554
    28  H    2.953538   3.011486   2.329411   4.360427   4.717115
                   11         12         13         14         15
    11  H    0.000000
    12  C    3.869436   0.000000
    13  H    4.946512   1.084614   0.000000
    14  C    3.441174   1.379411   2.125727   0.000000
    15  H    4.347959   2.137281   2.442712   1.082962   0.000000
    16  C    2.167903   2.505766   3.483118   1.495568   2.229364
    17  H    2.449565   3.110665   4.051517   2.132392   2.687376
    18  H    2.543840   3.320071   4.188477   2.133405   2.479393
    19  C    2.616097   4.672185   5.652170   4.659189   5.609586
    20  H    2.396945   5.000763   6.028850   4.680015   5.530232
    21  C    3.547279   5.721333   6.655761   5.887040   6.885213
    22  H    3.978647   6.655761   7.630036   6.692025   7.664802
    23  C    4.214056   4.026072   4.670549   4.659074   5.590731
    24  H    4.730517   3.547279   3.978647   4.420453   5.281236
    25  H    4.869108   4.777469   5.378486   5.275421   6.114617
    26  C    4.661461   5.032703   5.675979   5.761649   6.773284
    27  H    5.748544   5.802753   6.316120   6.630970   7.601836
    28  H    4.598846   4.759354   5.353017   5.622006   6.659292
                   16         17         18         19         20
    16  C    0.000000
    17  H    1.098405   0.000000
    18  H    1.093290   1.742296   0.000000
    19  C    3.769691   3.398942   4.574574   0.000000
    20  H    3.550037   3.011486   4.174523   1.082660   0.000000
    21  C    5.032703   4.759354   5.802753   1.383436   2.138961
    22  H    5.675979   5.353017   6.316120   2.130277   2.444924
    23  C    4.545656   4.360427   5.604791   2.470286   3.435599
    24  H    4.661461   4.598846   5.748544   3.423641   4.319666
    25  H    5.122824   4.717115   6.170554   2.732759   3.573238
    26  C    5.520894   5.476723   6.509443   2.899301   3.981625
    27  H    6.509443   6.422870   7.527017   3.844171   4.910938
    28  H    5.476723   5.649930   6.422870   3.432847   4.484169
                   21         22         23         24         25
    21  C    0.000000
    22  H    1.084614   0.000000
    23  C    2.813726   3.879972   0.000000
    24  H    3.869436   4.946512   1.090924   0.000000
    25  H    3.023308   3.972201   1.093058   1.754553   0.000000
    26  C    2.505766   3.483118   1.528603   2.167903   2.143496
    27  H    3.320071   4.188477   2.161896   2.543840   2.418684
    28  H    3.110665   4.051517   2.169567   2.449565   3.050812
                   26         27         28
    26  C    0.000000
    27  H    1.093290   0.000000
    28  H    1.098405   1.742296   0.000000
 Symmetry turned off by external request.
 Stoichiometry    C12H16
 Framework group  CI[X(C12H16)]
 Deg. of freedom    39
 Full point group                 CI      NOp   2
 Rotational constants (GHZ):           2.0335666           0.6463832           0.5521611
 Leave Link  202 at Tue Aug  4 20:57:26 2020, MaxMem=  6442450944 cpu:               0.3 elap:               0.0
 (Enter /scratch/scicomp/CentOS/7.3.1611/Haswell/software/Gaussian/g16/l301.exe)
 Standard basis: def2TZVP (6D, 10F)
 Ernie: Thresh=  0.10000D-02 Tol=  0.10000D-05 Strict=F.
   528 basis functions,   740 primitive gaussians,   528 cartesian basis functions
    44 alpha electrons       44 beta electrons
       nuclear repulsion energy       697.2046426072 Hartrees.
 IExCor= 4639 DFT=T Ex+Corr=wB97XD ExCW=0 ScaHFX=  1.000000
 ScaDFX=  1.000000  1.000000  1.000000  1.000000 ScalE2=  1.000000  1.000000
 IRadAn=      5 IRanWt=     -1 IRanGd=            0 ICorTp=0 IEmpDi=121
 HFx  wShort=  0.000000 wLong=  0.200000 cFull=  0.222036 cShort=  0.000000 cLong=  0.777964
 DFx  wShort=  0.000000 wLong=  0.200000 cFull=  0.000000 cShort=  0.000000 cLong=  1.000000
 NAtoms=   28 NActive=   28 NUniq=   28 SFac= 1.00D+00 NAtFMM=   60 NAOKFM=F Big=F
 Integral buffers will be    131072 words long.
 Raffenetti 2 integral format.
 Two-electron integral symmetry is turned off.
 R6Disp:  Grimme-D2 Dispersion energy=       -0.0228434541 Hartrees.
 Nuclear repulsion after empirical dispersion term =      697.1817991531 Hartrees.
 Using the following non-standard input for PCM:
 qrep pcmdoc geomview  nodis nocav g03defaults tsare=0.075
 Warning! Using old PCM defaults because the g03defaults keyword was found.
 These settings can be overridden by following keywords.
 nsfe=28
 NVESolv=36  SolvMW=84.1595   Rsolv=2.815
 eps=2.0165 RhoS=0.778099999999998
 --- end of non-standard input.
 Reading user-defined spheres from input:
 ISph  on   Nord    Re0     Alpha      Xe            Ye            Ze
 --- end of user-defined spheres data.
 ------------------------------------------------------------------------------
 Polarizable Continuum Model (PCM)
 =================================
 Model                : PCM.
 Atomic radii         : UA0 (Simple United Atom Topological Model).
 Polarization charges : Total charges.
 Charge compensation  : None.
 Solution method      : On-the-fly selection.
 Cavity type          : SES (Solvent Excluding Surface) (Alpha=1.000).
 Cavity algorithm     : GePol (RMin=0.200 OFac=0.890).
                        User-defined sphere list used, NSphG=   28.
                        Tesserae with average area of 0.075 Ang**2.
                        Smoothing algorithm: None.
                        Polarization charges: point-like.
                        Self-potential: constant (ISelfS= 1).
                        Self-field    : global E.n sum rule (ISelfD= 3).
 Solvent              : CycloHexane, Eps=   2.016500 Eps(inf)=   2.035188
                        RSolv=   2.815000 Ang.
 ------------------------------------------------------------------------------
 GePol: Number of generator spheres                  =      28
 GePol: Total number of spheres                      =     156
 GePol: Number of exposed spheres                    =     116 ( 74.36%)
 GePol: Number of tesserae                           =    4607
 GePol: Average area of tesserae                     =       0.05 Ang**2
 GePol: Minimum area of tessera                      =   0.10D-02 Ang**2
 GePol: Maximum area of tessera                      =    0.12395 Ang**2
 GePol: Number of small tesserae                     =       0
 GePol: Fraction of small tesserae (<1% of avg)      =       0.00%
 GePol: Total count of vertices                      =   16246
 GePol: Maximum number of vertices in a tessera      =       7
 GePol: Cavity surface area                          =    218.195 Ang**2
 GePol: Cavity volume                                =    243.194 Ang**3
 Leave Link  301 at Tue Aug  4 20:57:26 2020, MaxMem=  6442450944 cpu:               7.0 elap:               0.3
 (Enter /scratch/scicomp/CentOS/7.3.1611/Haswell/software/Gaussian/g16/l302.exe)
 NPDir=0 NMtPBC=     1 NCelOv=     1 NCel=       1 NClECP=     1 NCelD=      1
         NCelK=      1 NCelE2=     1 NClLst=     1 CellRange=     0.0.
 One-electron integrals computed using PRISM.
   1 Symmetry operations used in ECPInt.
 ECPInt:  NShTT=   19306 NPrTT=   56928 LenC2=   18534 LenP2D=   42334.
 LDataN:  DoStor=T MaxTD1= 6 Len=  172
 NBasis=   528 RedAO= T EigKep=  2.41D-05  NBF=   528
 NBsUse=   528 1.00D-06 EigRej= -1.00D+00 NBFU=   528
 Precomputing XC quadrature grid using
 IXCGrd= 4 IRadAn=           5 IRanWt=          -1 IRanGd=           0 AccXCQ= 0.00D+00.
 Generated NRdTot=       0 NPtTot=           0 NUsed=           0 NTot=          32
 NSgBfM=   526   526   526   526   526 MxSgAt=    28 MxSgA2=    28.
 Leave Link  302 at Tue Aug  4 20:57:27 2020, MaxMem=  6442450944 cpu:              13.3 elap:               0.6
 (Enter /scratch/scicomp/CentOS/7.3.1611/Haswell/software/Gaussian/g16/l303.exe)
 DipDrv:  MaxL=1.
 Leave Link  303 at Tue Aug  4 20:57:27 2020, MaxMem=  6442450944 cpu:               1.6 elap:               0.1
 (Enter /scratch/scicomp/CentOS/7.3.1611/Haswell/software/Gaussian/g16/l401.exe)
 ExpMin= 9.52D-02 ExpMax= 1.36D+04 ExpMxC= 4.63D+02 IAcc=3 IRadAn=         5 AccDes= 0.00D+00
 Harris functional with IExCor= 4639 and IRadAn=       5 diagonalized for initial guess.
 HarFok:  IExCor= 4639 AccDes= 0.00D+00 IRadAn=         5 IDoV= 1 UseB2=F ITyADJ=14
 ICtDFT=  3500011 ScaDFX=  1.000000  1.000000  1.000000  1.000000
 FoFCou: FMM=F IPFlag=           0 FMFlag=      100000 FMFlg1=           0
         NFxFlg=           0 DoJE=T BraDBF=F KetDBF=T FulRan=T
         wScrn=  0.000000 ICntrl=       500 IOpCl=  0 I1Cent=   200000004 NGrid=           0
         NMat0=    1 NMatS0=      1 NMatT0=    0 NMatD0=    1 NMtDS0=    0 NMtDT0=    0
 Symmetry not used in FoFCou.
 Harris En= -444.598535346483    
 JPrj=0 DoOrth=F DoCkMO=T.
 Mixing orbitals, IMix= 1 IMixAn=  0 NRI=1 NE=   44 Coef=  7.07106781D-01  7.07106781D-01
 Mixing orbitals, IMix= 1 IMixAn=  0 NRI=1 NE=   44 Coef= -7.07106781D-01  7.07106781D-01
 Initial guess <Sx>= 0.0000 <Sy>= 0.0000 <Sz>= 0.0000 <S**2>= 1.0000 S= 0.6180
 Leave Link  401 at Tue Aug  4 20:57:29 2020, MaxMem=  6442450944 cpu:              49.3 elap:               2.1
 (Enter /scratch/scicomp/CentOS/7.3.1611/Haswell/software/Gaussian/g16/l502.exe)
 Two-electron integral symmetry not used.
 UHF open shell SCF:
 Using DIIS extrapolation, IDIIS=  1040.
 NGot=  6442450944 LenX=  6441877030 LenY=  6441597718
 Requested convergence on RMS density matrix=1.00D-08 within 128 cycles.
 Requested convergence on MAX density matrix=1.00D-06.
 Requested convergence on             energy=1.00D-06.
 No special actions if energy rises.
 Fock matrices will be formed incrementally for  20 cycles.

 Cycle   1  Pass 1  IDiag  1:
 FoFJK:  IHMeth= 1 ICntrl=       0 DoSepK=T KAlg= 0 I1Cent=           0 FoldK=F
 IRaf=         1 NMat=       1 IRICut=       1 DoRegI=T DoRafI=F ISym2E= 0 IDoP0=0 IntGTp=1.
 FoFCou: FMM=F IPFlag=           0 FMFlag=      100000 FMFlg1=           0
         NFxFlg=           0 DoJE=T BraDBF=F KetDBF=F FulRan=T
         wScrn=  0.000000 ICntrl=       500 IOpCl=  0 I1Cent=           0 NGrid=           0
         NMat0=    1 NMatS0=      1 NMatT0=    0 NMatD0=    1 NMtDS0=    0 NMtDT0=    0
 Symmetry not used in FoFCou.
 Inv3:  Mode=1 IEnd=    63673347.
 Iteration    1 A*A^-1 deviation from unit magnitude is 1.78D-14 for   1220.
 Iteration    1 A*A^-1 deviation from orthogonality  is 7.11D-15 for   2336   1220.
 Iteration    1 A^-1*A deviation from unit magnitude is 1.78D-14 for   2336.
 Iteration    1 A^-1*A deviation from orthogonality  is 1.24D-14 for   2336   1220.
 E= -466.684876747324    
 DIIS: error= 6.02D-02 at cycle   1 NSaved=   1.
 NSaved= 1 IEnMin= 1 EnMin= -466.684876747324     IErMin= 1 ErrMin= 6.02D-02
 ErrMax= 6.02D-02  0.00D+00 EMaxC= 1.00D-01 BMatC= 4.10D+00 BMatP= 4.10D+00
 IDIUse=3 WtCom= 3.98D-01 WtEn= 6.02D-01
 Coeff-Com:  0.100D+01
 Coeff-En:   0.100D+01
 Coeff:      0.100D+01
 Gap=     0.234 Goal=   None    Shift=    0.000
 Gap=     0.234 Goal=   None    Shift=    0.000
 GapD=    0.234 DampG=1.000 DampE=0.500 DampFc=0.5000 IDamp=-1.
 Damping current iteration by 5.00D-01
 RMSDP=1.45D-03 MaxDP=9.22D-02              OVMax= 4.86D-02

 Cycle   2  Pass 1  IDiag  1:
 RMSU=  7.10D-04    CP:  9.76D-01
 E= -466.754735232801     Delta-E=       -0.069858485478 Rises=F Damp=T
 DIIS: error= 2.85D-02 at cycle   2 NSaved=   2.
 NSaved= 2 IEnMin= 2 EnMin= -466.754735232801     IErMin= 2 ErrMin= 2.85D-02
 ErrMax= 2.85D-02  0.00D+00 EMaxC= 1.00D-01 BMatC= 9.19D-01 BMatP= 4.10D+00
 IDIUse=3 WtCom= 7.15D-01 WtEn= 2.85D-01
 Coeff-Com: -0.863D+00 0.186D+01
 Coeff-En:   0.000D+00 0.100D+01
 Coeff:     -0.617D+00 0.162D+01
 Gap=     0.242 Goal=   None    Shift=    0.000
 Gap=     0.242 Goal=   None    Shift=    0.000
 RMSDP=9.06D-04 MaxDP=4.91D-02 DE=-6.99D-02 OVMax= 3.22D-02

 Cycle   3  Pass 1  IDiag  1:
 RMSU=  4.40D-04    CP:  9.49D-01  2.09D+00
 E= -466.822672915681     Delta-E=       -0.067937682879 Rises=F Damp=F
 DIIS: error= 2.82D-03 at cycle   3 NSaved=   3.
 NSaved= 3 IEnMin= 3 EnMin= -466.822672915681     IErMin= 3 ErrMin= 2.82D-03
 ErrMax= 2.82D-03  0.00D+00 EMaxC= 1.00D-01 BMatC= 1.75D-02 BMatP= 9.19D-01
 IDIUse=3 WtCom= 9.72D-01 WtEn= 2.82D-02
 Coeff-Com: -0.309D+00 0.668D+00 0.641D+00
 Coeff-En:   0.000D+00 0.000D+00 0.100D+01
 Coeff:     -0.301D+00 0.650D+00 0.651D+00
 Gap=     0.246 Goal=   None    Shift=    0.000
 Gap=     0.246 Goal=   None    Shift=    0.000
 RMSDP=1.09D-04 MaxDP=4.62D-03 DE=-6.79D-02 OVMax= 1.27D-02

 Cycle   4  Pass 1  IDiag  1:
 RMSU=  8.70D-05    CP:  9.47D-01  2.15D+00  8.98D-01
 E= -466.827164123983     Delta-E=       -0.004491208302 Rises=F Damp=F
 DIIS: error= 9.88D-04 at cycle   4 NSaved=   4.
 NSaved= 4 IEnMin= 4 EnMin= -466.827164123983     IErMin= 4 ErrMin= 9.88D-04
 ErrMax= 9.88D-04  0.00D+00 EMaxC= 1.00D-01 BMatC= 5.74D-04 BMatP= 1.75D-02
 IDIUse=3 WtCom= 9.90D-01 WtEn= 9.88D-03
 Coeff-Com:  0.103D+00-0.222D+00-0.117D+00 0.124D+01
 Coeff-En:   0.000D+00 0.000D+00 0.000D+00 0.100D+01
 Coeff:      0.102D+00-0.220D+00-0.116D+00 0.123D+01
 Gap=     0.251 Goal=   None    Shift=    0.000
 Gap=     0.251 Goal=   None    Shift=    0.000
 RMSDP=7.94D-05 MaxDP=4.94D-03 DE=-4.49D-03 OVMax= 1.20D-02

 Cycle   5  Pass 1  IDiag  1:
 RMSU=  3.34D-05    CP:  9.45D-01  2.20D+00  1.02D+00  1.41D+00
 E= -466.827792037854     Delta-E=       -0.000627913872 Rises=F Damp=F
 DIIS: error= 5.03D-04 at cycle   5 NSaved=   5.
 NSaved= 5 IEnMin= 5 EnMin= -466.827792037854     IErMin= 5 ErrMin= 5.03D-04
 ErrMax= 5.03D-04  0.00D+00 EMaxC= 1.00D-01 BMatC= 1.74D-04 BMatP= 5.74D-04
 IDIUse=3 WtCom= 9.95D-01 WtEn= 5.03D-03
 Coeff-Com:  0.629D-01-0.136D+00-0.108D+00 0.273D+00 0.908D+00
 Coeff-En:   0.000D+00 0.000D+00 0.000D+00 0.000D+00 0.100D+01
 Coeff:      0.626D-01-0.135D+00-0.107D+00 0.271D+00 0.908D+00
 Gap=     0.253 Goal=   None    Shift=    0.000
 Gap=     0.253 Goal=   None    Shift=    0.000
 RMSDP=2.66D-05 MaxDP=1.59D-03 DE=-6.28D-04 OVMax= 6.53D-03

 Cycle   6  Pass 1  IDiag  1:
 RMSU=  1.72D-05    CP:  9.45D-01  2.20D+00  1.04D+00  1.57D+00  1.34D+00
 E= -466.827941641087     Delta-E=       -0.000149603233 Rises=F Damp=F
 DIIS: error= 2.81D-04 at cycle   6 NSaved=   6.
 NSaved= 6 IEnMin= 6 EnMin= -466.827941641087     IErMin= 6 ErrMin= 2.81D-04
 ErrMax= 2.81D-04  0.00D+00 EMaxC= 1.00D-01 BMatC= 5.80D-05 BMatP= 1.74D-04
 IDIUse=3 WtCom= 9.97D-01 WtEn= 2.81D-03
 Coeff-Com: -0.225D-01 0.482D-01 0.138D-01-0.432D+00 0.329D+00 0.106D+01
 Coeff-En:   0.000D+00 0.000D+00 0.000D+00 0.000D+00 0.000D+00 0.100D+01
 Coeff:     -0.224D-01 0.481D-01 0.137D-01-0.430D+00 0.328D+00 0.106D+01
 Gap=     0.255 Goal=   None    Shift=    0.000
 Gap=     0.255 Goal=   None    Shift=    0.000
 RMSDP=1.95D-05 MaxDP=1.26D-03 DE=-1.50D-04 OVMax= 5.04D-03

 Cycle   7  Pass 1  IDiag  1:
 RMSU=  9.05D-06    CP:  9.45D-01  2.20D+00  1.05D+00  1.65D+00  1.76D+00
                    CP:  1.25D+00
 E= -466.827996436570     Delta-E=       -0.000054795483 Rises=F Damp=F
 DIIS: error= 5.91D-05 at cycle   7 NSaved=   7.
 NSaved= 7 IEnMin= 7 EnMin= -466.827996436570     IErMin= 7 ErrMin= 5.91D-05
 ErrMax= 5.91D-05  0.00D+00 EMaxC= 1.00D-01 BMatC= 3.23D-06 BMatP= 5.80D-05
 IDIUse=1 WtCom= 1.00D+00 WtEn= 0.00D+00
 Coeff-Com: -0.105D-01 0.228D-01 0.126D-01-0.110D+00-0.250D-01 0.204D+00
 Coeff-Com:  0.907D+00
 Coeff:     -0.105D-01 0.228D-01 0.126D-01-0.110D+00-0.250D-01 0.204D+00
 Coeff:      0.907D+00
 Gap=     0.255 Goal=   None    Shift=    0.000
 Gap=     0.255 Goal=   None    Shift=    0.000
 RMSDP=4.99D-06 MaxDP=2.99D-04 DE=-5.48D-05 OVMax= 1.15D-03

 Cycle   8  Pass 1  IDiag  1:
 RMSU=  2.22D-06    CP:  9.45D-01  2.20D+00  1.05D+00  1.65D+00  1.82D+00
                    CP:  1.39D+00  1.23D+00
 E= -466.827999076579     Delta-E=       -0.000002640009 Rises=F Damp=F
 DIIS: error= 2.56D-05 at cycle   8 NSaved=   8.
 NSaved= 8 IEnMin= 8 EnMin= -466.827999076579     IErMin= 8 ErrMin= 2.56D-05
 ErrMax= 2.56D-05  0.00D+00 EMaxC= 1.00D-01 BMatC= 5.34D-07 BMatP= 3.23D-06
 IDIUse=1 WtCom= 1.00D+00 WtEn= 0.00D+00
 Coeff-Com:  0.179D-03-0.363D-03 0.161D-02 0.303D-01-0.525D-01-0.943D-01
 Coeff-Com:  0.234D+00 0.881D+00
 Coeff:      0.179D-03-0.363D-03 0.161D-02 0.303D-01-0.525D-01-0.943D-01
 Coeff:      0.234D+00 0.881D+00
 Gap=     0.255 Goal=   None    Shift=    0.000
 Gap=     0.255 Goal=   None    Shift=    0.000
 RMSDP=2.07D-06 MaxDP=1.32D-04 DE=-2.64D-06 OVMax= 3.58D-04

 Cycle   9  Pass 1  IDiag  1:
 RMSU=  9.18D-07    CP:  9.45D-01  2.20D+00  1.05D+00  1.64D+00  1.82D+00
                    CP:  1.42D+00  1.38D+00  1.30D+00
 E= -466.827999415052     Delta-E=       -0.000000338473 Rises=F Damp=F
 DIIS: error= 1.04D-05 at cycle   9 NSaved=   9.
 NSaved= 9 IEnMin= 9 EnMin= -466.827999415052     IErMin= 9 ErrMin= 1.04D-05
 ErrMax= 1.04D-05  0.00D+00 EMaxC= 1.00D-01 BMatC= 5.60D-08 BMatP= 5.34D-07
 IDIUse=1 WtCom= 1.00D+00 WtEn= 0.00D+00
 Coeff-Com:  0.143D-02-0.309D-02-0.127D-02 0.213D-01-0.873D-02-0.489D-01
 Coeff-Com: -0.613D-01 0.211D+00 0.890D+00
 Coeff:      0.143D-02-0.309D-02-0.127D-02 0.213D-01-0.873D-02-0.489D-01
 Coeff:     -0.613D-01 0.211D+00 0.890D+00
 Gap=     0.255 Goal=   None    Shift=    0.000
 Gap=     0.255 Goal=   None    Shift=    0.000
 RMSDP=7.75D-07 MaxDP=4.27D-05 DE=-3.38D-07 OVMax= 1.51D-04

 Cycle  10  Pass 1  IDiag  1:
 RMSU=  3.15D-07    CP:  9.45D-01  2.20D+00  1.05D+00  1.64D+00  1.82D+00
                    CP:  1.42D+00  1.42D+00  1.49D+00  1.31D+00
 E= -466.827999454210     Delta-E=       -0.000000039158 Rises=F Damp=F
 DIIS: error= 3.18D-06 at cycle  10 NSaved=  10.
 NSaved=10 IEnMin=10 EnMin= -466.827999454210     IErMin=10 ErrMin= 3.18D-06
 ErrMax= 3.18D-06  0.00D+00 EMaxC= 1.00D-01 BMatC= 4.29D-09 BMatP= 5.60D-08
 IDIUse=1 WtCom= 1.00D+00 WtEn= 0.00D+00
 Coeff-Com: -0.854D-04 0.186D-03-0.994D-04-0.382D-02 0.489D-02 0.110D-01
 Coeff-Com: -0.165D-01-0.884D-01-0.444D-01 0.114D+01
 Coeff:     -0.854D-04 0.186D-03-0.994D-04-0.382D-02 0.489D-02 0.110D-01
 Coeff:     -0.165D-01-0.884D-01-0.444D-01 0.114D+01
 Gap=     0.255 Goal=   None    Shift=    0.000
 Gap=     0.255 Goal=   None    Shift=    0.000
 RMSDP=3.08D-07 MaxDP=2.40D-05 DE=-3.92D-08 OVMax= 5.86D-05

 Cycle  11  Pass 1  IDiag  1:
 RMSU=  1.05D-07    CP:  9.45D-01  2.20D+00  1.05D+00  1.64D+00  1.81D+00
                    CP:  1.42D+00  1.42D+00  1.55D+00  1.49D+00  1.38D+00
 E= -466.827999458537     Delta-E=       -0.000000004327 Rises=F Damp=F
 DIIS: error= 6.53D-07 at cycle  11 NSaved=  11.
 NSaved=11 IEnMin=11 EnMin= -466.827999458537     IErMin=11 ErrMin= 6.53D-07
 ErrMax= 6.53D-07  0.00D+00 EMaxC= 1.00D-01 BMatC= 1.10D-09 BMatP= 4.29D-09
 IDIUse=1 WtCom= 1.00D+00 WtEn= 0.00D+00
 Coeff-Com: -0.220D-03 0.477D-03 0.132D-03-0.413D-02 0.283D-02 0.104D-01
 Coeff-Com:  0.174D-02-0.589D-01-0.128D+00 0.403D+00 0.772D+00
 Coeff:     -0.220D-03 0.477D-03 0.132D-03-0.413D-02 0.283D-02 0.104D-01
 Coeff:      0.174D-02-0.589D-01-0.128D+00 0.403D+00 0.772D+00
 Gap=     0.255 Goal=   None    Shift=    0.000
 Gap=     0.255 Goal=   None    Shift=    0.000
 RMSDP=8.97D-08 MaxDP=6.72D-06 DE=-4.33D-09 OVMax= 1.53D-05

 Cycle  12  Pass 1  IDiag  1:
 RMSU=  3.77D-08    CP:  9.45D-01  2.20D+00  1.05D+00  1.64D+00  1.81D+00
                    CP:  1.41D+00  1.42D+00  1.56D+00  1.54D+00  1.51D+00
                    CP:  1.31D+00
 E= -466.827999459191     Delta-E=       -0.000000000654 Rises=F Damp=F
 DIIS: error= 3.12D-07 at cycle  12 NSaved=  12.
 NSaved=12 IEnMin=12 EnMin= -466.827999459191     IErMin=12 ErrMin= 3.12D-07
 ErrMax= 3.12D-07  0.00D+00 EMaxC= 1.00D-01 BMatC= 1.23D-10 BMatP= 1.10D-09
 IDIUse=1 WtCom= 1.00D+00 WtEn= 0.00D+00
 Coeff-Com:  0.310D-04-0.676D-04-0.613D-05 0.811D-03-0.861D-03-0.207D-02
 Coeff-Com:  0.192D-02 0.153D-01 0.157D-01-0.180D+00-0.306D-01 0.118D+01
 Coeff:      0.310D-04-0.676D-04-0.613D-05 0.811D-03-0.861D-03-0.207D-02
 Coeff:      0.192D-02 0.153D-01 0.157D-01-0.180D+00-0.306D-01 0.118D+01
 Gap=     0.255 Goal=   None    Shift=    0.000
 Gap=     0.255 Goal=   None    Shift=    0.000
 RMSDP=4.50D-08 MaxDP=2.34D-06 DE=-6.54D-10 OVMax= 8.94D-06

 Cycle  13  Pass 1  IDiag  1:
 RMSU=  1.83D-08    CP:  9.45D-01  2.20D+00  1.05D+00  1.64D+00  1.81D+00
                    CP:  1.41D+00  1.42D+00  1.56D+00  1.54D+00  1.55D+00
                    CP:  1.61D+00  1.47D+00
 E= -466.827999459384     Delta-E=       -0.000000000193 Rises=F Damp=F
 DIIS: error= 1.96D-07 at cycle  13 NSaved=  13.
 NSaved=13 IEnMin=13 EnMin= -466.827999459384     IErMin=13 ErrMin= 1.96D-07
 ErrMax= 1.96D-07  0.00D+00 EMaxC= 1.00D-01 BMatC= 2.97D-11 BMatP= 1.23D-10
 IDIUse=1 WtCom= 1.00D+00 WtEn= 0.00D+00
 Coeff-Com:  0.374D-04-0.809D-04-0.191D-04 0.725D-03-0.503D-03-0.187D-02
 Coeff-Com: -0.141D-03 0.103D-01 0.227D-01-0.756D-01-0.136D+00 0.684D-02
 Coeff-Com:  0.117D+01
 Coeff:      0.374D-04-0.809D-04-0.191D-04 0.725D-03-0.503D-03-0.187D-02
 Coeff:     -0.141D-03 0.103D-01 0.227D-01-0.756D-01-0.136D+00 0.684D-02
 Coeff:      0.117D+01
 Gap=     0.255 Goal=   None    Shift=    0.000
 Gap=     0.255 Goal=   None    Shift=    0.000
 RMSDP=2.21D-08 MaxDP=1.02D-06 DE=-1.93D-10 OVMax= 5.54D-06

 Cycle  14  Pass 1  IDiag  1:
 RMSU=  7.97D-09    CP:  9.45D-01  2.20D+00  1.05D+00  1.64D+00  1.81D+00
                    CP:  1.41D+00  1.42D+00  1.56D+00  1.54D+00  1.55D+00
                    CP:  1.72D+00  1.72D+00  1.65D+00
 E= -466.827999459436     Delta-E=       -0.000000000052 Rises=F Damp=F
 DIIS: error= 1.18D-07 at cycle  14 NSaved=  14.
 NSaved=14 IEnMin=14 EnMin= -466.827999459436     IErMin=14 ErrMin= 1.18D-07
 ErrMax= 1.18D-07  0.00D+00 EMaxC= 1.00D-01 BMatC= 1.03D-11 BMatP= 2.97D-11
 IDIUse=1 WtCom= 1.00D+00 WtEn= 0.00D+00
 Coeff-Com:  0.500D-06-0.855D-06-0.175D-05-0.431D-04 0.110D-03 0.782D-04
 Coeff-Com: -0.434D-03-0.165D-02 0.144D-02 0.277D-01-0.265D-01-0.311D+00
 Coeff-Com:  0.297D+00 0.101D+01
 Coeff:      0.500D-06-0.855D-06-0.175D-05-0.431D-04 0.110D-03 0.782D-04
 Coeff:     -0.434D-03-0.165D-02 0.144D-02 0.277D-01-0.265D-01-0.311D+00
 Coeff:      0.297D+00 0.101D+01
 Gap=     0.255 Goal=   None    Shift=    0.000
 Gap=     0.255 Goal=   None    Shift=    0.000
 RMSDP=1.17D-08 MaxDP=6.15D-07 DE=-5.21D-11 OVMax= 3.67D-06

 Cycle  15  Pass 1  IDiag  1:
 RMSU=  3.82D-09    CP:  9.45D-01  2.20D+00  1.05D+00  1.64D+00  1.81D+00
                    CP:  1.41D+00  1.42D+00  1.56D+00  1.54D+00  1.55D+00
                    CP:  1.76D+00  1.81D+00  2.08D+00  1.68D+00
 E= -466.827999459453     Delta-E=       -0.000000000016 Rises=F Damp=F
 DIIS: error= 5.32D-08 at cycle  15 NSaved=  15.
 NSaved=15 IEnMin=15 EnMin= -466.827999459453     IErMin=15 ErrMin= 5.32D-08
 ErrMax= 5.32D-08  0.00D+00 EMaxC= 1.00D-01 BMatC= 2.43D-12 BMatP= 1.03D-11
 IDIUse=1 WtCom= 1.00D+00 WtEn= 0.00D+00
 Coeff-Com: -0.124D-04 0.269D-04 0.579D-05-0.253D-03 0.202D-03 0.638D-03
 Coeff-Com: -0.620D-04-0.403D-02-0.727D-02 0.319D-01 0.417D-01-0.684D-01
 Coeff-Com: -0.345D+00 0.200D+00 0.115D+01
 Coeff:     -0.124D-04 0.269D-04 0.579D-05-0.253D-03 0.202D-03 0.638D-03
 Coeff:     -0.620D-04-0.403D-02-0.727D-02 0.319D-01 0.417D-01-0.684D-01
 Coeff:     -0.345D+00 0.200D+00 0.115D+01
 Gap=     0.255 Goal=   None    Shift=    0.000
 Gap=     0.255 Goal=   None    Shift=    0.000
 RMSDP=7.61D-09 MaxDP=3.48D-07 DE=-1.64D-11 OVMax= 2.39D-06

 Error on total polarization charges =  0.01108
 SCF Done:  E(UwB97XD) =  -466.827999459     A.U. after   15 cycles
            NFock= 15  Conv=0.76D-08     -V/T= 2.0058
 <Sx>= 0.0000 <Sy>= 0.0000 <Sz>= 0.0000 <S**2>= 1.0578 S= 0.6436
 <L.S>=  0.00000000000    
 KE= 4.641206338546D+02 PE=-2.476172206456D+03 EE= 8.480417739890D+02
 --------------------------------------------------------------------
 Variational PCM results
 =======================
 <psi(f)|   H    |psi(f)>                     (a.u.) =    -466.835847
 <psi(f)|H+V(f)/2|psi(f)>                     (a.u.) =    -466.837064
 Total free energy in solution:
 - with all non electrostatic terms           (a.u.) =    -466.827999
 --------------------------------------------------------------------
 (Polarized solute)-Solvent               (kcal/mol) =      -0.76
 --------------------------------------------------------------------
 Quantum repulsion energy                 (kcal/mol) =       5.69
 Total non electrostatic                  (kcal/mol) =       5.69
 --------------------------------------------------------------------
 Partition over spheres:
 Sphere  on Atom  Surface  Charge   GEl     GCav    GDR
    1               7.93   0.011   -0.04    0.00    0.00
    2               0.02  -0.000   -0.00    0.00    0.00
    3               7.51  -0.010   -0.04    0.00    0.00
    4               3.69  -0.004   -0.01    0.00    0.00
    5               3.89   0.007   -0.03    0.00    0.00
    6               0.05  -0.000    0.00    0.00    0.00
    7               5.84  -0.008   -0.03    0.00    0.00
    8               3.49  -0.003   -0.01    0.00    0.00
    9               3.17   0.002   -0.00    0.00    0.00
   10               6.19  -0.005   -0.01    0.00    0.00
   11               4.38  -0.004   -0.01    0.00    0.00
   12               7.19   0.012   -0.07    0.00    0.00
   13               7.51  -0.010   -0.03    0.00    0.00
   14               7.50   0.011   -0.04    0.00    0.00
   15               7.51  -0.010   -0.04    0.00    0.00
   16               3.63   0.002    0.00    0.00    0.00
   17               4.55  -0.005   -0.02    0.00    0.00
   18               7.61  -0.008   -0.03    0.00    0.00
   19               4.11   0.007   -0.03    0.00    0.00
   20               5.50  -0.008   -0.03    0.00    0.00
   21               7.22   0.012   -0.07    0.00    0.00
   22               7.51  -0.010   -0.03    0.00    0.00
   23               3.16   0.002   -0.00    0.00    0.00
   24               4.36  -0.003   -0.01    0.00    0.00
   25               6.32  -0.005   -0.00    0.00    0.00
   26               3.96   0.002    0.00    0.00    0.00
   27               7.53  -0.008   -0.03    0.00    0.00
   28               4.55  -0.005   -0.02    0.00    0.00
 Added spheres:    72.32   0.025   -0.17    0.00    0.00
 --------------------------------------------------------------------
 After PCM corrections, the energy is  -466.827999459     a.u.
 --------------------------------------------------------------------
 Annihilation of the first spin contaminant:
 S**2 before annihilation     1.0578,   after     0.5476
 Leave Link  502 at Tue Aug  4 21:02:20 2020, MaxMem=  6442450944 cpu:            6895.7 elap:             290.2
 (Enter /scratch/scicomp/CentOS/7.3.1611/Haswell/software/Gaussian/g16/l601.exe)
 Copying SCF densities to generalized density rwf, IOpCl= 1 IROHF=0.

 **********************************************************************

            Population analysis using the SCF Density.

 **********************************************************************

 Alpha  occ. eigenvalues --  -10.28829 -10.28706 -10.28642 -10.28364 -10.28203
 Alpha  occ. eigenvalues --  -10.28155 -10.27992 -10.27916 -10.27676 -10.27641
 Alpha  occ. eigenvalues --  -10.27548 -10.27530  -0.95468  -0.92542  -0.85957
 Alpha  occ. eigenvalues --   -0.84461  -0.83398  -0.80769  -0.71395  -0.70601
 Alpha  occ. eigenvalues --   -0.69015  -0.67389  -0.60048  -0.59215  -0.58605
 Alpha  occ. eigenvalues --   -0.56082  -0.53471  -0.52473  -0.50882  -0.48888
 Alpha  occ. eigenvalues --   -0.48852  -0.48485  -0.48166  -0.47247  -0.45710
 Alpha  occ. eigenvalues --   -0.44563  -0.41218  -0.40718  -0.39856  -0.38723
 Alpha  occ. eigenvalues --   -0.37579  -0.37258  -0.34570  -0.25131
 Alpha virt. eigenvalues --    0.00393   0.10928   0.11543   0.13287   0.14005
 Alpha virt. eigenvalues --    0.14778   0.15692   0.16383   0.17107   0.17298
 Alpha virt. eigenvalues --    0.17979   0.18198   0.19445   0.20993   0.21162
 Alpha virt. eigenvalues --    0.22237   0.22803   0.23400   0.24184   0.25348
 Alpha virt. eigenvalues --    0.26230   0.26379   0.27191   0.27369   0.27487
 Alpha virt. eigenvalues --    0.29013   0.29273   0.30758   0.31252   0.32214
 Alpha virt. eigenvalues --    0.32387   0.32702   0.32810   0.34499   0.34675
 Alpha virt. eigenvalues --    0.35112   0.36191   0.36893   0.37447   0.37902
 Alpha virt. eigenvalues --    0.38803   0.38955   0.41518   0.41784   0.42376
 Alpha virt. eigenvalues --    0.44258   0.44430   0.46152   0.46336   0.46912
 Alpha virt. eigenvalues --    0.47515   0.48181   0.48282   0.48792   0.49105
 Alpha virt. eigenvalues --    0.49631   0.49983   0.50105   0.50562   0.51326
 Alpha virt. eigenvalues --    0.51766   0.51929   0.52580   0.53183   0.53598
 Alpha virt. eigenvalues --    0.53837   0.54886   0.54911   0.55642   0.56281
 Alpha virt. eigenvalues --    0.57015   0.57748   0.58119   0.59026   0.59067
 Alpha virt. eigenvalues --    0.59412   0.61976   0.62146   0.65086   0.65624
 Alpha virt. eigenvalues --    0.67239   0.67387   0.68152   0.69441   0.70187
 Alpha virt. eigenvalues --    0.71358   0.72032   0.75654   0.76217   0.76500
 Alpha virt. eigenvalues --    0.78389   0.79931   0.80435   0.81839   0.82992
 Alpha virt. eigenvalues --    0.83693   0.84773   0.87206   0.88247   0.89835
 Alpha virt. eigenvalues --    0.91260   0.91583   0.92866   0.93879   0.95121
 Alpha virt. eigenvalues --    0.97125   0.97856   0.99180   0.99688   0.99922
 Alpha virt. eigenvalues --    1.02296   1.02524   1.04618   1.05174   1.05896
 Alpha virt. eigenvalues --    1.06793   1.09029   1.10380   1.10838   1.11210
 Alpha virt. eigenvalues --    1.12345   1.15200   1.16196   1.17494   1.17980
 Alpha virt. eigenvalues --    1.18751   1.19000   1.19972   1.20652   1.21047
 Alpha virt. eigenvalues --    1.22395   1.24917   1.25521   1.26401   1.26954
 Alpha virt. eigenvalues --    1.27759   1.28110   1.29096   1.29295   1.30362
 Alpha virt. eigenvalues --    1.30484   1.31850   1.33935   1.34385   1.35052
 Alpha virt. eigenvalues --    1.35341   1.37139   1.37490   1.38525   1.38737
 Alpha virt. eigenvalues --    1.39490   1.39831   1.40189   1.41642   1.42605
 Alpha virt. eigenvalues --    1.43509   1.43710   1.44594   1.45651   1.46005
 Alpha virt. eigenvalues --    1.47191   1.47858   1.48763   1.51193   1.51732
 Alpha virt. eigenvalues --    1.52672   1.54209   1.55107   1.56860   1.58263
 Alpha virt. eigenvalues --    1.58977   1.60584   1.62687   1.63339   1.64425
 Alpha virt. eigenvalues --    1.68048   1.69099   1.69420   1.69530   1.70380
 Alpha virt. eigenvalues --    1.73787   1.74680   1.77480   1.78735   1.78991
 Alpha virt. eigenvalues --    1.80687   1.82071   1.83350   1.84571   1.88813
 Alpha virt. eigenvalues --    1.89499   1.92152   1.92221   1.94551   1.95792
 Alpha virt. eigenvalues --    1.96452   1.99604   2.01268   2.06444   2.07328
 Alpha virt. eigenvalues --    2.07757   2.09715   2.10938   2.12792   2.13492
 Alpha virt. eigenvalues --    2.14056   2.16316   2.16660   2.18106   2.19080
 Alpha virt. eigenvalues --    2.20876   2.21141   2.21683   2.23468   2.24315
 Alpha virt. eigenvalues --    2.27569   2.28840   2.30991   2.32352   2.35841
 Alpha virt. eigenvalues --    2.36140   2.37146   2.38559   2.41142   2.42228
 Alpha virt. eigenvalues --    2.45638   2.46249   2.47575   2.50331   2.51183
 Alpha virt. eigenvalues --    2.51793   2.53005   2.56220   2.57090   2.57838
 Alpha virt. eigenvalues --    2.59193   2.61620   2.61946   2.63094   2.63253
 Alpha virt. eigenvalues --    2.65462   2.66174   2.67617   2.67927   2.68127
 Alpha virt. eigenvalues --    2.68557   2.70554   2.72862   2.73147   2.73362
 Alpha virt. eigenvalues --    2.74789   2.76115   2.76423   2.78268   2.80150
 Alpha virt. eigenvalues --    2.80496   2.82167   2.82491   2.82756   2.84529
 Alpha virt. eigenvalues --    2.84890   2.85290   2.86860   2.87121   2.88388
 Alpha virt. eigenvalues --    2.88619   2.89931   2.90142   2.90381   2.91621
 Alpha virt. eigenvalues --    2.93351   2.94701   2.95530   2.96304   2.97637
 Alpha virt. eigenvalues --    2.98574   3.02216   3.02416   3.02966   3.04728
 Alpha virt. eigenvalues --    3.06508   3.06676   3.07170   3.08360   3.09138
 Alpha virt. eigenvalues --    3.10759   3.11290   3.11981   3.12855   3.13908
 Alpha virt. eigenvalues --    3.14030   3.14851   3.15865   3.16197   3.16632
 Alpha virt. eigenvalues --    3.16798   3.17601   3.18631   3.19112   3.20553
 Alpha virt. eigenvalues --    3.20764   3.21047   3.22428   3.22991   3.24284
 Alpha virt. eigenvalues --    3.25160   3.25679   3.25716   3.26195   3.26668
 Alpha virt. eigenvalues --    3.26989   3.29930   3.31034   3.31609   3.31922
 Alpha virt. eigenvalues --    3.32552   3.33244   3.33619   3.35088   3.35969
 Alpha virt. eigenvalues --    3.37468   3.37934   3.38421   3.39704   3.39828
 Alpha virt. eigenvalues --    3.41296   3.41529   3.42501   3.43709   3.43978
 Alpha virt. eigenvalues --    3.44773   3.46155   3.47161   3.47329   3.48958
 Alpha virt. eigenvalues --    3.49620   3.50891   3.51455   3.51849   3.53296
 Alpha virt. eigenvalues --    3.53593   3.54374   3.55368   3.57298   3.57989
 Alpha virt. eigenvalues --    3.58986   3.59339   3.59780   3.62029   3.62661
 Alpha virt. eigenvalues --    3.63085   3.64355   3.64584   3.65638   3.67857
 Alpha virt. eigenvalues --    3.69601   3.69750   3.72089   3.72498   3.74266
 Alpha virt. eigenvalues --    3.76154   3.79236   3.80062   3.80871   3.81758
 Alpha virt. eigenvalues --    3.84027   3.84330   3.85085   3.85467   3.87089
 Alpha virt. eigenvalues --    3.88571   3.91807   3.92122   3.94465   3.95006
 Alpha virt. eigenvalues --    3.95940   3.98147   3.99993   4.02590   4.04962
 Alpha virt. eigenvalues --    4.05398   4.07876   4.07997   4.09543   4.09689
 Alpha virt. eigenvalues --    4.12692   4.13464   4.15297   4.16678   4.18656
 Alpha virt. eigenvalues --    4.20438   4.21841   4.23950   4.24596   4.26162
 Alpha virt. eigenvalues --    4.26838   4.28659   4.29042   4.29508   4.30552
 Alpha virt. eigenvalues --    4.33628   4.35507   4.40667   4.41219   4.42306
 Alpha virt. eigenvalues --    4.43492   4.44162   4.45122   4.47694   4.50844
 Alpha virt. eigenvalues --    4.52784   4.55320   4.56664   4.57883   4.59746
 Alpha virt. eigenvalues --    4.61810   4.63482   4.63599   4.66157   4.68269
 Alpha virt. eigenvalues --    4.71384   4.72644   4.75734   4.76488   4.78883
 Alpha virt. eigenvalues --    4.83815   4.85802   4.87771   4.90324   4.91909
 Alpha virt. eigenvalues --    4.92643   4.93288   4.95320   4.99548   5.02181
 Alpha virt. eigenvalues --    5.07655   5.09369   5.10807   5.14358   5.14707
 Alpha virt. eigenvalues --    5.21136   5.25302   5.26612   5.28642   5.32571
 Alpha virt. eigenvalues --    5.34884   5.36345   5.39439   5.39724   5.43454
 Alpha virt. eigenvalues --    5.47674   5.48438   5.53932   5.56374   5.59645
 Alpha virt. eigenvalues --    5.64135   5.73209   5.75400   5.80987   5.82062
 Alpha virt. eigenvalues --    7.94320   7.95244   8.03569   8.04802   8.08871
 Alpha virt. eigenvalues --    8.11251   8.12888   8.16366   8.19346   8.19623
 Alpha virt. eigenvalues --    8.32786   8.37929  34.74831  34.75591  34.82529
 Alpha virt. eigenvalues --   34.82705  34.85603  34.90497  34.99222  35.00380
 Alpha virt. eigenvalues --   35.03091  35.03229  35.15620  35.25830
  Beta  occ. eigenvalues --  -10.28829 -10.28706 -10.28642 -10.28364 -10.28203
  Beta  occ. eigenvalues --  -10.28155 -10.27992 -10.27916 -10.27675 -10.27642
  Beta  occ. eigenvalues --  -10.27547 -10.27531  -0.95468  -0.92542  -0.85957
  Beta  occ. eigenvalues --   -0.84461  -0.83398  -0.80769  -0.71395  -0.70601
  Beta  occ. eigenvalues --   -0.69015  -0.67389  -0.60048  -0.59215  -0.58605
  Beta  occ. eigenvalues --   -0.56082  -0.53471  -0.52473  -0.50882  -0.48888
  Beta  occ. eigenvalues --   -0.48852  -0.48484  -0.48166  -0.47247  -0.45710
  Beta  occ. eigenvalues --   -0.44563  -0.41218  -0.40718  -0.39856  -0.38723
  Beta  occ. eigenvalues --   -0.37579  -0.37258  -0.34569  -0.25131
  Beta virt. eigenvalues --    0.00393   0.10927   0.11544   0.13287   0.14006
  Beta virt. eigenvalues --    0.14778   0.15691   0.16382   0.17107   0.17297
  Beta virt. eigenvalues --    0.17980   0.18197   0.19445   0.20994   0.21162
  Beta virt. eigenvalues --    0.22237   0.22804   0.23399   0.24183   0.25348
  Beta virt. eigenvalues --    0.26231   0.26379   0.27192   0.27369   0.27486
  Beta virt. eigenvalues --    0.29013   0.29273   0.30758   0.31252   0.32214
  Beta virt. eigenvalues --    0.32387   0.32703   0.32810   0.34498   0.34675
  Beta virt. eigenvalues --    0.35112   0.36192   0.36894   0.37446   0.37902
  Beta virt. eigenvalues --    0.38803   0.38955   0.41518   0.41784   0.42375
  Beta virt. eigenvalues --    0.44259   0.44429   0.46152   0.46336   0.46912
  Beta virt. eigenvalues --    0.47516   0.48180   0.48281   0.48792   0.49105
  Beta virt. eigenvalues --    0.49630   0.49981   0.50107   0.50563   0.51326
  Beta virt. eigenvalues --    0.51765   0.51930   0.52580   0.53183   0.53596
  Beta virt. eigenvalues --    0.53838   0.54886   0.54911   0.55642   0.56281
  Beta virt. eigenvalues --    0.57015   0.57748   0.58119   0.59025   0.59068
  Beta virt. eigenvalues --    0.59412   0.61977   0.62145   0.65086   0.65624
  Beta virt. eigenvalues --    0.67240   0.67386   0.68152   0.69441   0.70187
  Beta virt. eigenvalues --    0.71357   0.72033   0.75654   0.76217   0.76500
  Beta virt. eigenvalues --    0.78389   0.79931   0.80435   0.81839   0.82992
  Beta virt. eigenvalues --    0.83693   0.84773   0.87206   0.88247   0.89835
  Beta virt. eigenvalues --    0.91261   0.91581   0.92866   0.93879   0.95121
  Beta virt. eigenvalues --    0.97125   0.97856   0.99181   0.99688   0.99922
  Beta virt. eigenvalues --    1.02296   1.02524   1.04618   1.05174   1.05897
  Beta virt. eigenvalues --    1.06792   1.09029   1.10380   1.10839   1.11210
  Beta virt. eigenvalues --    1.12345   1.15201   1.16195   1.17494   1.17980
  Beta virt. eigenvalues --    1.18751   1.19000   1.19971   1.20652   1.21048
  Beta virt. eigenvalues --    1.22395   1.24917   1.25521   1.26401   1.26954
  Beta virt. eigenvalues --    1.27759   1.28110   1.29096   1.29295   1.30362
  Beta virt. eigenvalues --    1.30484   1.31850   1.33935   1.34385   1.35052
  Beta virt. eigenvalues --    1.35341   1.37139   1.37490   1.38525   1.38737
  Beta virt. eigenvalues --    1.39490   1.39830   1.40189   1.41642   1.42605
  Beta virt. eigenvalues --    1.43508   1.43710   1.44594   1.45651   1.46005
  Beta virt. eigenvalues --    1.47191   1.47858   1.48763   1.51193   1.51732
  Beta virt. eigenvalues --    1.52672   1.54209   1.55107   1.56860   1.58263
  Beta virt. eigenvalues --    1.58977   1.60584   1.62687   1.63339   1.64425
  Beta virt. eigenvalues --    1.68048   1.69099   1.69420   1.69530   1.70381
  Beta virt. eigenvalues --    1.73787   1.74680   1.77480   1.78735   1.78991
  Beta virt. eigenvalues --    1.80687   1.82071   1.83350   1.84571   1.88813
  Beta virt. eigenvalues --    1.89499   1.92152   1.92220   1.94551   1.95792
  Beta virt. eigenvalues --    1.96452   1.99604   2.01268   2.06444   2.07328
  Beta virt. eigenvalues --    2.07757   2.09715   2.10938   2.12792   2.13492
  Beta virt. eigenvalues --    2.14056   2.16316   2.16660   2.18106   2.19080
  Beta virt. eigenvalues --    2.20877   2.21141   2.21682   2.23468   2.24315
  Beta virt. eigenvalues --    2.27569   2.28840   2.30991   2.32352   2.35841
  Beta virt. eigenvalues --    2.36140   2.37146   2.38559   2.41142   2.42228
  Beta virt. eigenvalues --    2.45638   2.46249   2.47575   2.50331   2.51183
  Beta virt. eigenvalues --    2.51793   2.53005   2.56220   2.57090   2.57838
  Beta virt. eigenvalues --    2.59193   2.61620   2.61946   2.63094   2.63253
  Beta virt. eigenvalues --    2.65462   2.66174   2.67617   2.67926   2.68127
  Beta virt. eigenvalues --    2.68557   2.70554   2.72862   2.73147   2.73362
  Beta virt. eigenvalues --    2.74789   2.76115   2.76423   2.78269   2.80150
  Beta virt. eigenvalues --    2.80496   2.82167   2.82491   2.82756   2.84529
  Beta virt. eigenvalues --    2.84890   2.85290   2.86860   2.87121   2.88388
  Beta virt. eigenvalues --    2.88618   2.89931   2.90142   2.90381   2.91621
  Beta virt. eigenvalues --    2.93351   2.94701   2.95530   2.96304   2.97637
  Beta virt. eigenvalues --    2.98574   3.02216   3.02416   3.02966   3.04728
  Beta virt. eigenvalues --    3.06508   3.06676   3.07170   3.08360   3.09138
  Beta virt. eigenvalues --    3.10759   3.11290   3.11981   3.12855   3.13908
  Beta virt. eigenvalues --    3.14030   3.14851   3.15865   3.16197   3.16632
  Beta virt. eigenvalues --    3.16798   3.17601   3.18631   3.19112   3.20553
  Beta virt. eigenvalues --    3.20764   3.21047   3.22428   3.22992   3.24284
  Beta virt. eigenvalues --    3.25160   3.25679   3.25716   3.26195   3.26668
  Beta virt. eigenvalues --    3.26990   3.29930   3.31034   3.31609   3.31922
  Beta virt. eigenvalues --    3.32551   3.33243   3.33619   3.35088   3.35969
  Beta virt. eigenvalues --    3.37468   3.37934   3.38421   3.39704   3.39828
  Beta virt. eigenvalues --    3.41296   3.41529   3.42500   3.43708   3.43978
  Beta virt. eigenvalues --    3.44774   3.46155   3.47161   3.47329   3.48958
  Beta virt. eigenvalues --    3.49620   3.50891   3.51455   3.51849   3.53296
  Beta virt. eigenvalues --    3.53593   3.54374   3.55368   3.57298   3.57989
  Beta virt. eigenvalues --    3.58986   3.59339   3.59780   3.62029   3.62661
  Beta virt. eigenvalues --    3.63085   3.64355   3.64584   3.65638   3.67857
  Beta virt. eigenvalues --    3.69601   3.69750   3.72089   3.72498   3.74266
  Beta virt. eigenvalues --    3.76154   3.79236   3.80062   3.80871   3.81758
  Beta virt. eigenvalues --    3.84027   3.84330   3.85085   3.85467   3.87089
  Beta virt. eigenvalues --    3.88571   3.91807   3.92122   3.94465   3.95006
  Beta virt. eigenvalues --    3.95940   3.98147   3.99993   4.02590   4.04962
  Beta virt. eigenvalues --    4.05398   4.07876   4.07997   4.09543   4.09689
  Beta virt. eigenvalues --    4.12692   4.13464   4.15297   4.16678   4.18656
  Beta virt. eigenvalues --    4.20438   4.21841   4.23950   4.24596   4.26162
  Beta virt. eigenvalues --    4.26838   4.28659   4.29042   4.29508   4.30552
  Beta virt. eigenvalues --    4.33628   4.35507   4.40667   4.41219   4.42306
  Beta virt. eigenvalues --    4.43492   4.44162   4.45122   4.47694   4.50844
  Beta virt. eigenvalues --    4.52784   4.55320   4.56664   4.57883   4.59746
  Beta virt. eigenvalues --    4.61810   4.63482   4.63599   4.66157   4.68269
  Beta virt. eigenvalues --    4.71383   4.72644   4.75734   4.76488   4.78883
  Beta virt. eigenvalues --    4.83815   4.85802   4.87771   4.90324   4.91909
  Beta virt. eigenvalues --    4.92643   4.93288   4.95320   4.99548   5.02181
  Beta virt. eigenvalues --    5.07655   5.09369   5.10807   5.14358   5.14707
  Beta virt. eigenvalues --    5.21136   5.25302   5.26612   5.28642   5.32571
  Beta virt. eigenvalues --    5.34884   5.36345   5.39439   5.39724   5.43454
  Beta virt. eigenvalues --    5.47674   5.48438   5.53932   5.56374   5.59645
  Beta virt. eigenvalues --    5.64135   5.73209   5.75400   5.80987   5.82062
  Beta virt. eigenvalues --    7.94320   7.95244   8.03569   8.04802   8.08871
  Beta virt. eigenvalues --    8.11251   8.12888   8.16366   8.19346   8.19623
  Beta virt. eigenvalues --    8.32786   8.37929  34.74831  34.75592  34.82529
  Beta virt. eigenvalues --   34.82705  34.85603  34.90497  34.99222  35.00380
  Beta virt. eigenvalues --   35.03091  35.03229  35.15620  35.25830
          Condensed to atoms (all electrons):
               1          2          3          4          5          6
     1  C    5.263890   0.033032   0.429696  -0.002948   0.001320  -0.013962
     2  C    0.033032   5.363705  -0.001451   0.429308  -0.109585   0.226691
     3  H    0.429696  -0.001451   0.484444   0.000037   0.000005   0.000126
     4  H   -0.002948   0.429308   0.000037   0.528262  -0.001777  -0.012486
     5  C    0.001320  -0.109585   0.000005  -0.001777   5.359302   0.260020
     6  C   -0.013962   0.226691   0.000126  -0.012486   0.260020   5.364253
     7  H   -0.000037   0.000508   0.000003   0.000338   0.423058  -0.029344
     8  H   -0.001235  -0.012565  -0.000061   0.001898  -0.051141   0.429409
     9  C    0.001690  -0.066667  -0.000003  -0.010862  -0.049347   0.238929
    10  H   -0.000029   0.007605  -0.000001  -0.000201  -0.002076  -0.049415
    11  H   -0.000286  -0.006292   0.000003   0.001168   0.011335  -0.048701
    12  C   -0.000081   0.017021  -0.000001   0.002445   0.433680  -0.077851
    13  H    0.000000  -0.000284   0.000000  -0.000042  -0.025267   0.003428
    14  C    0.000042  -0.014002  -0.000000  -0.001223  -0.055812   0.033112
    15  H   -0.000000   0.000127  -0.000000  -0.000062   0.004153  -0.001465
    16  C   -0.000260   0.025667   0.000000   0.001961  -0.004664  -0.079281
    17  H    0.000036   0.003344  -0.000000  -0.003364   0.004791  -0.013072
    18  H    0.000001  -0.000521   0.000000   0.000398  -0.001413   0.012118
    19  C   -0.055923   0.260317   0.004105  -0.051167   0.013363  -0.109851
    20  H    0.003297  -0.029141  -0.000124  -0.005090  -0.000606   0.000472
    21  C    0.448278  -0.077774  -0.033318   0.005553  -0.001193   0.017095
    22  H   -0.026018   0.003405  -0.004568  -0.000133   0.000047  -0.000283
    23  C   -0.100632   0.239646   0.004928  -0.021594   0.014120  -0.066903
    24  H    0.013224  -0.048762  -0.000037  -0.003045   0.003872  -0.006287
    25  H   -0.002893  -0.049030  -0.000171  -0.005552   0.000138   0.007586
    26  C    0.278823  -0.079666  -0.027100   0.009164  -0.010266   0.025715
    27  H   -0.031314   0.012115  -0.003833  -0.000152   0.000092  -0.000523
    28  H   -0.042183  -0.012939   0.000025  -0.000140  -0.000644   0.003244
               7          8          9         10         11         12
     1  C   -0.000037  -0.001235   0.001690  -0.000029  -0.000286  -0.000081
     2  C    0.000508  -0.012565  -0.066667   0.007605  -0.006292   0.017021
     3  H    0.000003  -0.000061  -0.000003  -0.000001   0.000003  -0.000001
     4  H    0.000338   0.001898  -0.010862  -0.000201   0.001168   0.002445
     5  C    0.423058  -0.051141  -0.049347  -0.002076   0.011335   0.433680
     6  C   -0.029344   0.429409   0.238929  -0.049415  -0.048701  -0.077851
     7  H    0.469747  -0.005090   0.002471   0.000187  -0.000033  -0.025084
     8  H   -0.005090   0.528498  -0.021677  -0.005563  -0.003042   0.005536
     9  C    0.002471  -0.021677   5.060056   0.421557   0.453131   0.035717
    10  H    0.000187  -0.005563   0.421557   0.543348  -0.013286   0.002232
    11  H   -0.000033  -0.003042   0.453131  -0.013286   0.517910  -0.005332
    12  C   -0.025084   0.005536   0.035717   0.002232  -0.005332   4.992814
    13  H   -0.004061  -0.000133   0.000499  -0.000105   0.000026   0.416384
    14  C    0.003285  -0.002948  -0.100753  -0.002849   0.013209   0.447614
    15  H   -0.000124   0.000037   0.004932  -0.000171  -0.000037  -0.033684
    16  C   -0.000995   0.009169   0.322486  -0.026158  -0.056528  -0.047818
    17  H   -0.000046  -0.000141  -0.027744   0.004505  -0.002875  -0.003404
    18  H    0.000056  -0.000153  -0.042125  -0.005413  -0.003296   0.003470
    19  C   -0.000610  -0.001803   0.014199   0.000132   0.003906  -0.001194
    20  H    0.000003   0.000336   0.002330   0.000292  -0.003932   0.000003
    21  C    0.000004   0.002450  -0.003838  -0.000008   0.000128   0.000090
    22  H   -0.000001  -0.000042  -0.000060  -0.000002  -0.000009  -0.000000
    23  C    0.002301  -0.010847   0.008517  -0.000195  -0.000007  -0.003836
    24  H   -0.003931   0.001166  -0.000007  -0.000016  -0.000004   0.000122
    25  H    0.000291  -0.000199  -0.000196   0.000016  -0.000016  -0.000004
    26  C   -0.000706   0.001953  -0.001948   0.000060   0.000044   0.000825
    27  H   -0.000028   0.000400   0.000033  -0.000002  -0.000004   0.000000
    28  H    0.001852  -0.003370   0.000908   0.000012   0.000015  -0.000036
              13         14         15         16         17         18
     1  C    0.000000   0.000042  -0.000000  -0.000260   0.000036   0.000001
     2  C   -0.000284  -0.014002   0.000127   0.025667   0.003344  -0.000521
     3  H    0.000000  -0.000000  -0.000000   0.000000  -0.000000   0.000000
     4  H   -0.000042  -0.001223  -0.000062   0.001961  -0.003364   0.000398
     5  C   -0.025267  -0.055812   0.004153  -0.004664   0.004791  -0.001413
     6  C    0.003428   0.033112  -0.001465  -0.079281  -0.013072   0.012118
     7  H   -0.004061   0.003285  -0.000124  -0.000995  -0.000046   0.000056
     8  H   -0.000133  -0.002948   0.000037   0.009169  -0.000141  -0.000153
     9  C    0.000499  -0.100753   0.004932   0.322486  -0.027744  -0.042125
    10  H   -0.000105  -0.002849  -0.000171  -0.026158   0.004505  -0.005413
    11  H    0.000026   0.013209  -0.000037  -0.056528  -0.002875  -0.003296
    12  C    0.416384   0.447614  -0.033684  -0.047818  -0.003404   0.003470
    13  H    0.492577  -0.026124  -0.004585   0.003542  -0.000297  -0.000126
    14  C   -0.026124   5.264446   0.430020   0.278777  -0.042138  -0.031242
    15  H   -0.004585   0.430020   0.484593  -0.027078   0.000027  -0.003823
    16  C    0.003542   0.278777  -0.027078   4.973871   0.406153   0.423248
    17  H   -0.000297  -0.042138   0.000027   0.406153   0.573812  -0.022290
    18  H   -0.000126  -0.031242  -0.003823   0.423248  -0.022290   0.540559
    19  C    0.000047   0.001334   0.000005  -0.010318  -0.000680   0.000093
    20  H   -0.000001  -0.000035   0.000003  -0.000728   0.001838  -0.000028
    21  C   -0.000000  -0.000079  -0.000001   0.000821  -0.000042   0.000001
    22  H    0.000000   0.000000   0.000000   0.000001  -0.000004  -0.000001
    23  C   -0.000060   0.001686  -0.000003  -0.001936   0.000913   0.000033
    24  H   -0.000008  -0.000284   0.000003   0.000042   0.000015  -0.000004
    25  H   -0.000002  -0.000030  -0.000001   0.000061   0.000012  -0.000002
    26  C    0.000001  -0.000260   0.000000   0.000466  -0.000049  -0.000001
    27  H   -0.000001   0.000001   0.000000  -0.000001   0.000001  -0.000000
    28  H   -0.000004   0.000035  -0.000000  -0.000048  -0.000002   0.000001
              19         20         21         22         23         24
     1  C   -0.055923   0.003297   0.448278  -0.026018  -0.100632   0.013224
     2  C    0.260317  -0.029141  -0.077774   0.003405   0.239646  -0.048762
     3  H    0.004105  -0.000124  -0.033318  -0.004568   0.004928  -0.000037
     4  H   -0.051167  -0.005090   0.005553  -0.000133  -0.021594  -0.003045
     5  C    0.013363  -0.000606  -0.001193   0.000047   0.014120   0.003872
     6  C   -0.109851   0.000472   0.017095  -0.000283  -0.066903  -0.006287
     7  H   -0.000610   0.000003   0.000004  -0.000001   0.002301  -0.003931
     8  H   -0.001803   0.000336   0.002450  -0.000042  -0.010847   0.001166
     9  C    0.014199   0.002330  -0.003838  -0.000060   0.008517  -0.000007
    10  H    0.000132   0.000292  -0.000008  -0.000002  -0.000195  -0.000016
    11  H    0.003906  -0.003932   0.000128  -0.000009  -0.000007  -0.000004
    12  C   -0.001194   0.000003   0.000090  -0.000000  -0.003836   0.000122
    13  H    0.000047  -0.000001  -0.000000   0.000000  -0.000060  -0.000008
    14  C    0.001334  -0.000035  -0.000079   0.000000   0.001686  -0.000284
    15  H    0.000005   0.000003  -0.000001   0.000000  -0.000003   0.000003
    16  C   -0.010318  -0.000728   0.000821   0.000001  -0.001936   0.000042
    17  H   -0.000680   0.001838  -0.000042  -0.000004   0.000913   0.000015
    18  H    0.000093  -0.000028   0.000001  -0.000001   0.000033  -0.000004
    19  C    5.359072   0.423104   0.433822  -0.025262  -0.049527   0.011351
    20  H    0.423104   0.469636  -0.025301  -0.004058   0.002466  -0.000033
    21  C    0.433822  -0.025301   4.992358   0.416282   0.035456  -0.005339
    22  H   -0.025262  -0.004058   0.416282   0.492514   0.000498   0.000026
    23  C   -0.049527   0.002466   0.035456   0.000498   5.059334   0.453239
    24  H    0.011351  -0.000033  -0.005339   0.000026   0.453239   0.517975
    25  H   -0.002178   0.000185   0.002248  -0.000106   0.421131  -0.013319
    26  C   -0.004499  -0.000999  -0.047857   0.003537   0.322752  -0.056593
    27  H   -0.001422   0.000056   0.003543  -0.000125  -0.042037  -0.003293
    28  H    0.004736  -0.000046  -0.003366  -0.000298  -0.027939  -0.002892
              25         26         27         28
     1  C   -0.002893   0.278823  -0.031314  -0.042183
     2  C   -0.049030  -0.079666   0.012115  -0.012939
     3  H   -0.000171  -0.027100  -0.003833   0.000025
     4  H   -0.005552   0.009164  -0.000152  -0.000140
     5  C    0.000138  -0.010266   0.000092  -0.000644
     6  C    0.007586   0.025715  -0.000523   0.003244
     7  H    0.000291  -0.000706  -0.000028   0.001852
     8  H   -0.000199   0.001953   0.000400  -0.003370
     9  C   -0.000196  -0.001948   0.000033   0.000908
    10  H    0.000016   0.000060  -0.000002   0.000012
    11  H   -0.000016   0.000044  -0.000004   0.000015
    12  C   -0.000004   0.000825   0.000000  -0.000036
    13  H   -0.000002   0.000001  -0.000001  -0.000004
    14  C   -0.000030  -0.000260   0.000001   0.000035
    15  H   -0.000001   0.000000   0.000000  -0.000000
    16  C    0.000061   0.000466  -0.000001  -0.000048
    17  H    0.000012  -0.000049   0.000001  -0.000002
    18  H   -0.000002  -0.000001  -0.000000   0.000001
    19  C   -0.002178  -0.004499  -0.001422   0.004736
    20  H    0.000185  -0.000999   0.000056  -0.000046
    21  C    0.002248  -0.047857   0.003543  -0.003366
    22  H   -0.000106   0.003537  -0.000125  -0.000298
    23  C    0.421131   0.322752  -0.042037  -0.027939
    24  H   -0.013319  -0.056593  -0.003293  -0.002892
    25  H    0.543406  -0.025932  -0.005420   0.004508
    26  C   -0.025932   4.973894   0.423180   0.406317
    27  H   -0.005420   0.423180   0.540557  -0.022325
    28  H    0.004508   0.406317  -0.022325   0.573889
          Atomic-Atomic Spin Densities.
               1          2          3          4          5          6
     1  C   -0.709624  -0.005883   0.001187  -0.000125   0.000242  -0.003620
     2  C   -0.005883   0.083956  -0.000171  -0.002500  -0.038511  -0.000041
     3  H    0.001187  -0.000171   0.025245   0.000002   0.000003   0.000033
     4  H   -0.000125  -0.002500   0.000002  -0.011057   0.001758   0.007776
     5  C    0.000242  -0.038511   0.000003   0.001758   0.760454  -0.037084
     6  C   -0.003620  -0.000041   0.000033   0.007776  -0.037084  -0.084342
     7  H    0.000003   0.000982   0.000000  -0.000008  -0.004307   0.001098
     8  H    0.001142  -0.007776   0.000008  -0.000000  -0.000877   0.002525
     9  C   -0.000161  -0.010485   0.000000  -0.001020  -0.005483   0.012141
    10  H   -0.000001   0.000382  -0.000000  -0.000026  -0.001613  -0.000002
    11  H    0.000188   0.000442  -0.000000   0.000030   0.000107   0.000679
    12  C    0.000055   0.005820  -0.000000  -0.001018  -0.005671   0.006974
    13  H    0.000000   0.000114  -0.000000  -0.000018  -0.000945   0.000263
    14  C   -0.000000   0.003574  -0.000000  -0.001133  -0.060015   0.005885
    15  H    0.000000  -0.000034   0.000000  -0.000007  -0.000421   0.000171
    16  C    0.000020  -0.000497   0.000000   0.000960   0.006640  -0.003288
    17  H   -0.000007  -0.002516   0.000000   0.000292   0.003959  -0.002898
    18  H    0.000001   0.000183  -0.000000  -0.000037  -0.000116   0.000820
    19  C    0.060023   0.037368   0.000421   0.000863  -0.000004   0.038554
    20  H    0.000295  -0.001080  -0.000005  -0.000126  -0.000071  -0.000981
    21  C   -0.008198  -0.007021  -0.000568   0.000864   0.000449  -0.005783
    22  H    0.000721  -0.000266  -0.000257   0.000022   0.000006  -0.000114
    23  C   -0.002050  -0.011990   0.000283  -0.003952  -0.004354   0.010492
    24  H   -0.000181  -0.000671  -0.000005   0.000108   0.000541  -0.000446
    25  H    0.000333  -0.000002   0.000007   0.000095   0.000203  -0.000382
    26  C    0.032830   0.003247  -0.000945  -0.000115   0.000155   0.000528
    27  H    0.007139  -0.000818  -0.000223   0.000049   0.000051  -0.000185
    28  H    0.021582   0.002904   0.000103  -0.000214  -0.000148   0.002534
               7          8          9         10         11         12
     1  C    0.000003   0.001142  -0.000161  -0.000001   0.000188   0.000055
     2  C    0.000982  -0.007776  -0.010485   0.000382   0.000442   0.005820
     3  H    0.000000   0.000008   0.000000  -0.000000  -0.000000  -0.000000
     4  H   -0.000008  -0.000000  -0.001020  -0.000026   0.000030  -0.001018
     5  C   -0.004307  -0.000877  -0.005483  -0.001613   0.000107  -0.005671
     6  C    0.001098   0.002525   0.012141  -0.000002   0.000679   0.006974
     7  H   -0.025120   0.000125  -0.000438  -0.000023   0.000007   0.002243
     8  H    0.000125   0.011058   0.003955  -0.000095  -0.000107  -0.000871
     9  C   -0.000438   0.003955   0.001999  -0.000617  -0.000896  -0.002035
    10  H   -0.000023  -0.000095  -0.000617   0.000681   0.000327   0.001182
    11  H    0.000007  -0.000107  -0.000896   0.000327  -0.000304  -0.000135
    12  C    0.002243  -0.000871  -0.002035   0.001182  -0.000135  -0.246807
    13  H    0.000316  -0.000022  -0.000084   0.000016  -0.000001   0.001323
    14  C   -0.000299   0.000129   0.002035  -0.000333   0.000180   0.008214
    15  H    0.000005  -0.000002  -0.000283  -0.000007   0.000005   0.000585
    16  C    0.000033   0.000110   0.007547   0.000412  -0.000013   0.004027
    17  H   -0.000040   0.000214  -0.002994   0.000242  -0.000273  -0.000151
    18  H    0.000006  -0.000049   0.003025  -0.000488   0.000159   0.000511
    19  C    0.000071  -0.001766   0.004367  -0.000202  -0.000546  -0.000455
    20  H    0.000000   0.000008   0.000219   0.000019  -0.000189   0.000027
    21  C   -0.000027   0.001011  -0.000773  -0.000001   0.000045  -0.000000
    22  H   -0.000000   0.000018  -0.000021   0.000000   0.000005  -0.000000
    23  C   -0.000219   0.001028  -0.000005  -0.000009  -0.000115   0.000777
    24  H    0.000189  -0.000030   0.000115   0.000000   0.000000  -0.000044
    25  H   -0.000019   0.000026   0.000009  -0.000000  -0.000000   0.000001
    26  C    0.000158  -0.000969   0.000028  -0.000000  -0.000030  -0.000177
    27  H    0.000003   0.000037   0.000009   0.000000   0.000001   0.000004
    28  H   -0.000091  -0.000294  -0.000081  -0.000004  -0.000030  -0.000091
              13         14         15         16         17         18
     1  C    0.000000  -0.000000   0.000000   0.000020  -0.000007   0.000001
     2  C    0.000114   0.003574  -0.000034  -0.000497  -0.002516   0.000183
     3  H   -0.000000  -0.000000   0.000000   0.000000   0.000000  -0.000000
     4  H   -0.000018  -0.001133  -0.000007   0.000960   0.000292  -0.000037
     5  C   -0.000945  -0.060015  -0.000421   0.006640   0.003959  -0.000116
     6  C    0.000263   0.005885   0.000171  -0.003288  -0.002898   0.000820
     7  H    0.000316  -0.000299   0.000005   0.000033  -0.000040   0.000006
     8  H   -0.000022   0.000129  -0.000002   0.000110   0.000214  -0.000049
     9  C   -0.000084   0.002035  -0.000283   0.007547  -0.002994   0.003025
    10  H    0.000016  -0.000333  -0.000007   0.000412   0.000242  -0.000488
    11  H   -0.000001   0.000180   0.000005  -0.000013  -0.000273   0.000159
    12  C    0.001323   0.008214   0.000585   0.004027  -0.000151   0.000511
    13  H    0.008486  -0.000724   0.000257   0.000070  -0.000038   0.000014
    14  C   -0.000724   0.709551  -0.001198  -0.032770  -0.021559  -0.007154
    15  H    0.000257  -0.001198  -0.025251   0.000943  -0.000098   0.000220
    16  C    0.000070  -0.032770   0.000943  -0.037222   0.011701   0.004767
    17  H   -0.000038  -0.021559  -0.000098   0.011701   0.055975  -0.008506
    18  H    0.000014  -0.007154   0.000220   0.004767  -0.008506   0.020591
    19  C   -0.000006  -0.000233  -0.000003  -0.000165   0.000143  -0.000051
    20  H    0.000000  -0.000002  -0.000000  -0.000158   0.000089  -0.000003
    21  C    0.000000  -0.000055   0.000000   0.000175   0.000090  -0.000004
    22  H   -0.000000  -0.000000   0.000000   0.000002   0.000001  -0.000000
    23  C    0.000021   0.000158  -0.000000  -0.000026   0.000082  -0.000009
    24  H   -0.000005  -0.000187   0.000000   0.000029   0.000030  -0.000001
    25  H   -0.000000   0.000001   0.000000   0.000000   0.000004  -0.000000
    26  C   -0.000002  -0.000020  -0.000000  -0.000000   0.000010  -0.000000
    27  H    0.000000  -0.000001   0.000000   0.000000   0.000000  -0.000000
    28  H   -0.000001   0.000008  -0.000000  -0.000010   0.000000  -0.000000
              19         20         21         22         23         24
     1  C    0.060023   0.000295  -0.008198   0.000721  -0.002050  -0.000181
     2  C    0.037368  -0.001080  -0.007021  -0.000266  -0.011990  -0.000671
     3  H    0.000421  -0.000005  -0.000568  -0.000257   0.000283  -0.000005
     4  H    0.000863  -0.000126   0.000864   0.000022  -0.003952   0.000108
     5  C   -0.000004  -0.000071   0.000449   0.000006  -0.004354   0.000541
     6  C    0.038554  -0.000981  -0.005783  -0.000114   0.010492  -0.000446
     7  H    0.000071   0.000000  -0.000027  -0.000000  -0.000219   0.000189
     8  H   -0.001766   0.000008   0.001011   0.000018   0.001028  -0.000030
     9  C    0.004367   0.000219  -0.000773  -0.000021  -0.000005   0.000115
    10  H   -0.000202   0.000019  -0.000001   0.000000  -0.000009   0.000000
    11  H   -0.000546  -0.000189   0.000045   0.000005  -0.000115   0.000000
    12  C   -0.000455   0.000027  -0.000000  -0.000000   0.000777  -0.000044
    13  H   -0.000006   0.000000   0.000000  -0.000000   0.000021  -0.000005
    14  C   -0.000233  -0.000002  -0.000055  -0.000000   0.000158  -0.000187
    15  H   -0.000003  -0.000000   0.000000   0.000000  -0.000000   0.000000
    16  C   -0.000165  -0.000158   0.000175   0.000002  -0.000026   0.000029
    17  H    0.000143   0.000089   0.000090   0.000001   0.000082   0.000030
    18  H   -0.000051  -0.000003  -0.000004  -0.000000  -0.000009  -0.000001
    19  C   -0.760658   0.004300   0.005668   0.000947   0.005390  -0.000109
    20  H    0.004300   0.025114  -0.002245  -0.000316   0.000435  -0.000007
    21  C    0.005668  -0.002245   0.246846  -0.001321   0.002042   0.000135
    22  H    0.000947  -0.000316  -0.001321  -0.008487   0.000085   0.000001
    23  C    0.005390   0.000435   0.002042   0.000085  -0.002148   0.000894
    24  H   -0.000109  -0.000007   0.000135   0.000001   0.000894   0.000303
    25  H    0.001613   0.000023  -0.001182  -0.000016   0.000624  -0.000326
    26  C   -0.006622  -0.000032  -0.004039  -0.000070  -0.007477   0.000016
    27  H    0.000116  -0.000006  -0.000504  -0.000014  -0.003034  -0.000159
    28  H   -0.003966   0.000040   0.000131   0.000038   0.003007   0.000274
              25         26         27         28
     1  C    0.000333   0.032830   0.007139   0.021582
     2  C   -0.000002   0.003247  -0.000818   0.002904
     3  H    0.000007  -0.000945  -0.000223   0.000103
     4  H    0.000095  -0.000115   0.000049  -0.000214
     5  C    0.000203   0.000155   0.000051  -0.000148
     6  C   -0.000382   0.000528  -0.000185   0.002534
     7  H   -0.000019   0.000158   0.000003  -0.000091
     8  H    0.000026  -0.000969   0.000037  -0.000294
     9  C    0.000009   0.000028   0.000009  -0.000081
    10  H   -0.000000  -0.000000   0.000000  -0.000004
    11  H   -0.000000  -0.000030   0.000001  -0.000030
    12  C    0.000001  -0.000177   0.000004  -0.000091
    13  H   -0.000000  -0.000002   0.000000  -0.000001
    14  C    0.000001  -0.000020  -0.000001   0.000008
    15  H    0.000000  -0.000000   0.000000  -0.000000
    16  C    0.000000  -0.000000   0.000000  -0.000010
    17  H    0.000004   0.000010   0.000000   0.000000
    18  H   -0.000000  -0.000000  -0.000000  -0.000000
    19  C    0.001613  -0.006622   0.000116  -0.003966
    20  H    0.000023  -0.000032  -0.000006   0.000040
    21  C   -0.001182  -0.004039  -0.000504   0.000131
    22  H   -0.000016  -0.000070  -0.000014   0.000038
    23  C    0.000624  -0.007477  -0.003034   0.003007
    24  H   -0.000326   0.000016  -0.000159   0.000274
    25  H   -0.000683  -0.000415   0.000488  -0.000242
    26  C   -0.000415   0.037136  -0.004756  -0.011728
    27  H    0.000488  -0.004756  -0.020572   0.008497
[...]
     2  C    0.000579   0.003820  -0.001272   0.004787
     3  H    0.000006  -0.000783  -0.000206   0.000085
     4  H    0.000091  -0.000043   0.000048  -0.000216
     5  C    0.000229  -0.000261   0.000031   0.000172
     6  C   -0.000428  -0.000450  -0.000031   0.000892
     7  H   -0.000019   0.000201   0.000004  -0.000125
     8  H    0.000029  -0.000856   0.000017   0.000041
     9  C   -0.000003   0.000027   0.000011  -0.000114
    10  H    0.000000  -0.000005   0.000000  -0.000004
    11  H    0.000000  -0.000009   0.000001  -0.000020
    12  C    0.000004  -0.000117   0.000001  -0.000052
    13  H   -0.000000  -0.000002  -0.000000  -0.000001
    14  C   -0.000002  -0.000011  -0.000000   0.000002
    15  H    0.000000  -0.000000   0.000000  -0.000000
    16  C    0.000004  -0.000001  -0.000000  -0.000001
    17  H    0.000004   0.000002   0.000000  -0.000000
    18  H   -0.000000   0.000000   0.000000  -0.000000
    19  C    0.001318  -0.005105   0.000270  -0.004412
    20  H    0.000019  -0.000062  -0.000007   0.000047
    21  C   -0.001198  -0.004425  -0.000538   0.000426
    22  H   -0.000012  -0.000113  -0.000015   0.000040
    23  C   -0.000210  -0.008915  -0.002119   0.001145
    24  H   -0.000322  -0.000174  -0.000152   0.000273
    25  H   -0.000463  -0.000058   0.000420  -0.000216
    26  C   -0.000058   0.039407  -0.005315  -0.009487
    27  H    0.000420  -0.005315  -0.020239   0.008220
    28  H   -0.000216  -0.009487   0.008220  -0.055538
 Mulliken charges and spin densities:
               1          2
     1  C   -0.192525  -0.601561
     2  C   -0.144302   0.050738
     3  H    0.150165   0.024688
     4  H    0.153091  -0.008831
     5  C   -0.222218   0.612855
     6  C   -0.143833  -0.050742
     7  H    0.172500  -0.024891
     8  H    0.152978   0.008821
     9  C   -0.260217   0.009633
    10  H    0.135220  -0.000071
    11  H    0.149845  -0.000176
    12  C   -0.156770  -0.223778
    13  H    0.147405   0.008898
    14  C   -0.191378   0.601620
    15  H    0.150314  -0.024692
    16  C   -0.194940  -0.035627
    17  H    0.125790   0.033905
    18  H    0.135496   0.013870
    19  C   -0.222332  -0.612913
    20  H    0.172470   0.024883
    21  C   -0.155676   0.223857
    22  H    0.147169  -0.008896
    23  C   -0.257982  -0.009671
    24  H    0.149476   0.000189
    25  H    0.134187   0.000071
    26  C   -0.194661   0.035639
    27  H    0.135505  -0.013878
    28  H    0.125224  -0.033938
 Sum of Mulliken charges =  -0.00000  -0.00000
 Mulliken charges and spin densities with hydrogens summed into heavy atoms:
               1          2
     1  C   -0.042361  -0.576874
     2  C    0.008788   0.041906
     5  C   -0.049718   0.587964
     6  C    0.009145  -0.041921
     9  C    0.024848   0.009385
    12  C   -0.009365  -0.214880
    14  C   -0.041063   0.576928
    16  C    0.066346   0.012148
    19  C   -0.049862  -0.588031
    21  C   -0.008507   0.214961
    23  C    0.025681  -0.009411
    26  C    0.066068  -0.012177
 Electronic spatial extent (au):  <R**2>=           2168.4072
 Charge=             -0.0000 electrons
 Dipole moment (field-independent basis, Debye):
    X=             -0.0032    Y=              0.0007    Z=             -0.0031  Tot=              0.0045
 Quadrupole moment (field-independent basis, Debye-Ang):
   XX=            -69.6420   YY=            -69.5601   ZZ=            -75.0017
   XY=             -2.3357   XZ=             -2.5020   YZ=              0.2520
 Traceless Quadrupole moment (field-independent basis, Debye-Ang):
   XX=              1.7593   YY=              1.8411   ZZ=             -3.6004
   XY=             -2.3357   XZ=             -2.5020   YZ=              0.2520
 Octapole moment (field-independent basis, Debye-Ang**2):
  XXX=             -0.0513  YYY=              0.0001  ZZZ=             -0.0074  XYY=             -0.0197
  XXY=              0.0211  XXZ=             -0.0375  XZZ=             -0.0036  YZZ=              0.0044
  YYZ=             -0.0071  XYZ=              0.0229
 Hexadecapole moment (field-independent basis, Debye-Ang**3):
 XXXX=          -1948.6424 YYYY=           -620.9103 ZZZZ=           -269.1035 XXXY=            -85.5441
 XXXZ=           -103.0811 YYYX=            -62.1034 YYYZ=              0.8995 ZZZX=            -57.3724
 ZZZY=             -8.1034 XXYY=           -427.2289 XXZZ=           -406.0673 YYZZ=           -163.0376
 XXYZ=            -17.0206 YYXZ=            -20.2194 ZZXY=            -41.4389
 N-N= 6.971817991531D+02 E-N=-2.476849199691D+03  KE= 4.642313329547D+02
                          Isotropic Fermi Contact Couplings
        Atom                 a.u.       MegaHertz       Gauss      10(-4) cm-1
     1  C(13)             -0.04680     -26.30842      -9.38750      -8.77554
     2  C(13)              0.05419      30.46169      10.86949      10.16093
     3  H(1)               0.00923      20.61862       7.35724       6.87763
     4  H(1)              -0.00451     -10.08694      -3.59927      -3.36464
     5  C(13)              0.04759      26.75189       9.54574       8.92347
     6  C(13)             -0.05420     -30.46712     -10.87143     -10.16274
     7  H(1)              -0.00943     -21.08333      -7.52306      -7.03264
     8  H(1)               0.00451      10.08361       3.59808       3.36353
     9  C(13)              0.00217       1.21759       0.43447       0.40614
    10  H(1)              -0.00028      -0.61723      -0.22024      -0.20589
    11  H(1)              -0.00043      -0.97028      -0.34622      -0.32365
    12  C(13)             -0.04420     -24.84215      -8.86430      -8.28645
    13  H(1)               0.00302       6.75717       2.41113       2.25395
    14  C(13)              0.04681      26.31375       9.38940       8.77732
    15  H(1)              -0.00923     -20.62082      -7.35802      -6.87837
    16  C(13)             -0.01889     -10.61955      -3.78932      -3.54230
    17  H(1)               0.01626      36.34620      12.96923      12.12379
    18  H(1)               0.00657      14.67295       5.23567       4.89437
    19  C(13)             -0.04760     -26.75647      -9.54737      -8.92500
    20  H(1)               0.00943      21.08347       7.52311       7.03269
    21  C(13)              0.04420      24.84262       8.86446       8.28661
    22  H(1)              -0.00302      -6.75631      -2.41082      -2.25366
    23  C(13)             -0.00216      -1.21488      -0.43350      -0.40524
    24  H(1)               0.00043       0.96933       0.34588       0.32333
    25  H(1)               0.00028       0.61726       0.22025       0.20590
    26  C(13)              0.01889      10.61821       3.78884       3.54185
    27  H(1)              -0.00657     -14.68074      -5.23845      -4.89697
    28  H(1)              -0.01626     -36.34865     -12.97010     -12.12461
 --------------------------------------------------------
       Center         ----  Spin Dipole Couplings  ----
                      3XX-RR        3YY-RR        3ZZ-RR
 --------------------------------------------------------
     1   Atom        0.182649      0.359937     -0.542586
     2   Atom        0.001139     -0.017922      0.016783
     3   Atom       -0.037953      0.045825     -0.007872
     4   Atom       -0.003467     -0.003788      0.007255
     5   Atom       -0.259051     -0.350424      0.609475
     6   Atom       -0.001135      0.017931     -0.016796
     7   Atom       -0.020024      0.017414      0.002611
     8   Atom        0.003467      0.003789     -0.007256
     9   Atom       -0.000103      0.006812     -0.006709
    10   Atom       -0.004172      0.003513      0.000660
    11   Atom       -0.006728      0.007490     -0.000761
    12   Atom        0.085537      0.099556     -0.185093
    13   Atom        0.007483     -0.001494     -0.005988
    14   Atom       -0.182663     -0.359999      0.542663
    15   Atom        0.037959     -0.045832      0.007873
    16   Atom       -0.005845      0.002891      0.002954
    17   Atom       -0.008245      0.009064     -0.000818
    18   Atom       -0.006633      0.011173     -0.004540
    19   Atom        0.259067      0.350443     -0.609509
    20   Atom        0.020031     -0.017414     -0.002617
    21   Atom       -0.085549     -0.099569      0.185118
    22   Atom       -0.007486      0.001499      0.005987
    23   Atom        0.000104     -0.006814      0.006710
    24   Atom        0.006729     -0.007489      0.000760
    25   Atom        0.004173     -0.003513     -0.000660
    26   Atom        0.005837     -0.002892     -0.002945
    27   Atom        0.006629     -0.011171      0.004543
    28   Atom        0.008242     -0.009066      0.000824
 --------------------------------------------------------
                        XY            XZ            YZ
 --------------------------------------------------------
     1   Atom        0.013237     -0.385596      0.034226
     2   Atom        0.008058      0.030578      0.014941
     3   Atom       -0.008347      0.016787      0.005550
     4   Atom       -0.004996      0.006220      0.009260
     5   Atom       -0.045715      0.320072     -0.103431
     6   Atom       -0.008061     -0.030587     -0.014942
     7   Atom       -0.043297      0.002518      0.014302
     8   Atom        0.004997     -0.006217     -0.009261
     9   Atom       -0.013971     -0.013125      0.001861
    10   Atom       -0.001112     -0.004006     -0.005891
    11   Atom        0.004658     -0.008551     -0.000020
    12   Atom       -0.006630     -0.114797      0.032710
    13   Atom       -0.007721     -0.007065      0.003182
    14   Atom       -0.013216      0.385678     -0.034178
    15   Atom        0.008347     -0.016790     -0.005549
    16   Atom        0.001713      0.006219     -0.000755
    17   Atom        0.004691      0.001961      0.005811
    18   Atom       -0.002291     -0.000866     -0.002528
    19   Atom        0.045746     -0.320128      0.103518
    20   Atom        0.043297     -0.002513     -0.014315
    21   Atom        0.006624      0.114815     -0.032723
    22   Atom        0.007721      0.007065     -0.003180
    23   Atom        0.013985      0.013126     -0.001867
    24   Atom       -0.004657      0.008551      0.000021
    25   Atom        0.001113      0.004005      0.005891
    26   Atom       -0.001703     -0.006218      0.000770
    27   Atom        0.002294      0.000865      0.002527
    28   Atom       -0.004690     -0.001959     -0.005811
 --------------------------------------------------------


 ---------------------------------------------------------------------------------
              Anisotropic Spin Dipole Couplings in Principal Axis System
 ---------------------------------------------------------------------------------

       Atom             a.u.   MegaHertz   Gauss  10(-4) cm-1        Axes

              Baa    -0.7105   -95.348   -34.022   -31.805  0.3965 -0.0342  0.9174
     1 C(13)  Bbb     0.3492    46.856    16.719    15.630  0.9131  0.1182 -0.3903
              Bcc     0.3614    48.492    17.303    16.175 -0.0951  0.9924  0.0781
 
              Baa    -0.0252    -3.382    -1.207    -1.128  0.4655  0.6705 -0.5777
     2 C(13)  Bbb    -0.0198    -2.655    -0.948    -0.886 -0.6649  0.6957  0.2717
              Bcc     0.0450     6.037     2.154     2.014  0.5841  0.2576  0.7697
 
              Baa    -0.0465   -24.816    -8.855    -8.278  0.9063  0.1065 -0.4090
     3 H(1)   Bbb    -0.0004    -0.230    -0.082    -0.077  0.4145 -0.0343  0.9094
              Bcc     0.0469    25.046     8.937     8.354 -0.0828  0.9937  0.0752
 
              Baa    -0.0143    -7.623    -2.720    -2.543  0.5759  0.6775 -0.4575
     4 H(1)   Bbb     0.0012     0.619     0.221     0.206  0.7918 -0.6015  0.1058
              Bcc     0.0131     7.004     2.499     2.336  0.2035  0.4232  0.8829
 
              Baa    -0.3743   -50.233   -17.924   -16.756  0.7240  0.6697 -0.1651
     5 C(13)  Bbb    -0.3521   -47.249   -16.860   -15.761 -0.6154  0.7353  0.2839
              Bcc     0.7264    97.482    34.784    32.517  0.3116 -0.1039  0.9445
 
              Baa    -0.0450    -6.039    -2.155    -2.014  0.5841  0.2576  0.7698
     6 C(13)  Bbb     0.0198     2.657     0.948     0.886 -0.6650  0.6956  0.2718
              Bcc     0.0252     3.382     1.207     1.128  0.4654  0.6707 -0.5776
 
              Baa    -0.0504   -26.885    -9.593    -8.968  0.8092  0.5565 -0.1886
     7 H(1)   Bbb     0.0020     1.081     0.386     0.361  0.2838 -0.0890  0.9548
              Bcc     0.0484    25.804     9.207     8.607 -0.5145  0.8261  0.2299
 
              Baa    -0.0131    -7.004    -2.499    -2.336  0.2033  0.4233  0.8829
     8 H(1)   Bbb    -0.0012    -0.619    -0.221    -0.206  0.7919 -0.6014  0.1060
              Bcc     0.0143     7.623     2.720     2.543  0.5758  0.6776 -0.4575
 
              Baa    -0.0193    -2.595    -0.926    -0.866  0.6807  0.3166  0.6606
     9 C(13)  Bbb    -0.0020    -0.268    -0.096    -0.089  0.3334  0.6691 -0.6642
              Bcc     0.0213     2.863     1.022     0.955 -0.6523  0.6723  0.3499
 
              Baa    -0.0080    -4.265    -1.522    -1.423  0.7215  0.3695  0.5856
    10 H(1)   Bbb    -0.0004    -0.203    -0.072    -0.068  0.6782 -0.5477 -0.4899
              Bcc     0.0084     4.468     1.594     1.490  0.1397  0.7506 -0.6458
 
              Baa    -0.0135    -7.202    -2.570    -2.402  0.8167 -0.1807  0.5480
    11 H(1)   Bbb     0.0037     1.986     0.709     0.663 -0.4026  0.5019  0.7655
              Bcc     0.0098     5.215     1.861     1.740  0.4134  0.8458 -0.3372
 
              Baa    -0.2297   -30.822   -10.998   -10.281  0.3393 -0.0862  0.9367
    12 C(13)  Bbb     0.0932    12.506     4.463     4.172  0.4507  0.8890 -0.0814
              Bcc     0.1365    18.316     6.535     6.109  0.8257 -0.4498 -0.3405
 
              Baa    -0.0090    -4.811    -1.717    -1.605  0.4048  0.0289  0.9139
    13 H(1)   Bbb    -0.0058    -3.080    -1.099    -1.027  0.4070  0.8894 -0.2084
              Bcc     0.0148     7.891     2.816     2.632  0.8188 -0.4563 -0.3483
 
              Baa    -0.3614   -48.499   -17.306   -16.178 -0.0951  0.9924  0.0781
    14 C(13)  Bbb    -0.3492   -46.864   -16.722   -15.632  0.9131  0.1182 -0.3903
              Bcc     0.7107    95.364    34.028    31.810  0.3966 -0.0342  0.9174
 
              Baa    -0.0469   -25.049    -8.938    -8.356 -0.0828  0.9937  0.0752
    15 H(1)   Bbb     0.0004     0.229     0.082     0.077  0.4145 -0.0343  0.9094
              Bcc     0.0465    24.820     8.856     8.279  0.9063  0.1065 -0.4090
 
              Baa    -0.0093    -1.255    -0.448    -0.418  0.8785 -0.1509 -0.4533
    16 C(13)  Bbb     0.0032     0.426     0.152     0.142  0.1163  0.9878 -0.1035
              Bcc     0.0062     0.829     0.296     0.277  0.4634  0.0382  0.8853
 
              Baa    -0.0095    -5.052    -1.803    -1.685  0.9720 -0.2242 -0.0698
    17 H(1)   Bbb    -0.0035    -1.867    -0.666    -0.623 -0.0293 -0.4106  0.9113
              Bcc     0.0130     6.919     2.469     2.308  0.2330  0.8838  0.4057
 
              Baa    -0.0075    -3.977    -1.419    -1.327  0.8966  0.1660  0.4105
    18 H(1)   Bbb    -0.0044    -2.328    -0.831    -0.776 -0.4276  0.0834  0.9001
              Bcc     0.0118     6.305     2.250     2.103 -0.1152  0.9826 -0.1458
 
              Baa    -0.7265   -97.493   -34.788   -32.520  0.3116 -0.1040  0.9445
    19 C(13)  Bbb     0.3521    47.254    16.862    15.762 -0.6152  0.7354  0.2840
              Bcc     0.3744    50.238    17.926    16.758  0.7241  0.6696 -0.1652
 
              Baa    -0.0484   -25.807    -9.208    -8.608 -0.5144  0.8261  0.2302
    20 H(1)   Bbb    -0.0020    -1.081    -0.386    -0.361  0.2839 -0.0892  0.9547
              Bcc     0.0504    26.888     9.594     8.969  0.8092  0.5565 -0.1886
 
              Baa    -0.1365   -18.318    -6.536    -6.110  0.8257 -0.4497 -0.3405
    21 C(13)  Bbb    -0.0932   -12.509    -4.463    -4.172  0.4506  0.8890 -0.0814
              Bcc     0.2297    30.827    11.000    10.283  0.3393 -0.0863  0.9367
 
              Baa    -0.0148    -7.892    -2.816    -2.632  0.8189 -0.4561 -0.3483
    22 H(1)   Bbb     0.0058     3.081     1.100     1.028  0.4065  0.8894 -0.2089
              Bcc     0.0090     4.810     1.716     1.605  0.4050  0.0295  0.9138
 
              Baa    -0.0214    -2.865    -1.022    -0.956 -0.6523  0.6724  0.3498
    23 C(13)  Bbb     0.0020     0.269     0.096     0.090  0.3332  0.6689 -0.6644
              Bcc     0.0193     2.596     0.926     0.866  0.6808  0.3168  0.6604
 
              Baa    -0.0098    -5.215    -1.861    -1.739  0.4134  0.8457 -0.3373
    24 H(1)   Bbb    -0.0037    -1.986    -0.709    -0.663 -0.4026  0.5021  0.7654
              Bcc     0.0135     7.201     2.570     2.402  0.8167 -0.1807  0.5480
 
              Baa    -0.0084    -4.468    -1.594    -1.490  0.1396  0.7507 -0.6458
    25 H(1)   Bbb     0.0004     0.203     0.072     0.068  0.6782 -0.5477 -0.4900
              Bcc     0.0080     4.265     1.522     1.423  0.7215  0.3696  0.5855
 
              Baa    -0.0062    -0.828    -0.295    -0.276  0.4633  0.0325  0.8856
    26 C(13)  Bbb    -0.0032    -0.426    -0.152    -0.142  0.1188  0.9880 -0.0984
              Bcc     0.0093     1.254     0.447     0.418  0.8782 -0.1508 -0.4539
 
              Baa    -0.0118    -6.304    -2.250    -2.103 -0.1154  0.9826 -0.1457
    27 H(1)   Bbb     0.0044     2.329     0.831     0.777 -0.4281  0.0832  0.8999
              Bcc     0.0075     3.975     1.418     1.326  0.8964  0.1662  0.4110
 
              Baa    -0.0130    -6.919    -2.469    -2.308  0.2329  0.8839  0.4055
    28 H(1)   Bbb     0.0035     1.869     0.667     0.624 -0.0294 -0.4104  0.9114
              Bcc     0.0095     5.050     1.802     1.684  0.9720 -0.2242 -0.0696
 

 ---------------------------------------------------------------------------------

 No NMR shielding tensors so no spin-rotation constants.
 Leave Link  601 at Tue Aug  4 21:30:45 2020, MaxMem=  6442450944 cpu:               8.2 elap:               0.4
 (Enter /scratch/scicomp/CentOS/7.3.1611/Haswell/software/Gaussian/g16/l9999.exe)
 1\1\GINC-ATLAS-205\SP\UwB97XD\def2TZVP\C12H16\BOCHEN\04-Aug-2020\0\\#p
  uwb97xd guess=mix def2tzvp # scrf=(iefpcm,solvent=Cyclohexane,read) n
 osym 6d 10f\\endo-2 xp-pcm for eta=3\\0,1\C,0,-3.140994,-0.42504,0.223
 816\C,0,-0.406297,-0.126897,-0.65908\H,0,-4.135653,-0.544691,0.635088\
 H,0,0.317409,-0.130657,-1.478814\C,0,1.108935,1.445531,0.607368\C,0,0.
 406297,0.126897,0.65908\H,0,0.573183,2.344629,0.884397\H,0,-0.317409,0
 .130657,1.478814\C,0,1.429977,-0.982064,0.932984\H,0,1.831758,-0.82932
 4,1.937981\H,0,0.944143,-1.958831,0.930603\C,0,2.409595,1.535044,0.144
 587\H,0,2.868872,2.514015,0.060519\C,0,3.140994,0.42504,-0.223816\H,0,
 4.135653,0.544691,-0.635088\C,0,2.588982,-0.95563,-0.063327\H,0,2.2607
 03,-1.337606,-1.039452\H,0,3.377886,-1.638473,0.263228\C,0,-1.108935,-
 1.445531,-0.607368\H,0,-0.573183,-2.344629,-0.884397\C,0,-2.409595,-1.
 535044,-0.144587\H,0,-2.868872,-2.514015,-0.060519\C,0,-1.429977,0.982
 064,-0.932984\H,0,-0.944143,1.958831,-0.930603\H,0,-1.831758,0.829324,
 -1.937981\C,0,-2.588982,0.95563,0.063327\H,0,-3.377886,1.638473,-0.263
 228\H,0,-2.260703,1.337606,1.039452\\Version=ES64L-G16RevB.01\HF=-466.
 7896338\S2=1.05846\S2-1=0.\S2A=0.551976\RMSD=8.707e-09\Dipole=-0.00126
 92,0.0002661,-0.0012246\Quadrupole=1.3079816,1.3688483,-2.6768299,-1.7
 365137,-1.8601706,0.1873418\PG=CI [X(C12H16)]\\@


 A MAN IS NEVER SO BRILLIANT AS WHEN HE TAKES THE WORDS RIGHT OUT
 OF YOUR MOUTH. -- ARNOT SHEPPARD, JR.
 Job cpu time:       0 days  1 hours 48 minutes 24.7 seconds.
 Elapsed time:       0 days  0 hours  4 minutes 34.0 seconds.
 File lengths (MBytes):  RWF=    640 Int=      0 D2E=      0 Chk=     24 Scr=      1
 Normal termination of Gaussian 16 at Tue Aug  4 21:30:45 2020.
