 Entering Gaussian System, Link 0=g16
 Input=meso-TS_55_2_pcm.com
 Output=meso-TS_55_2_pcm.log
 Initial command:
 /scratch/scicomp/CentOS/7.3.1611/Haswell/software/Gaussian/g16/l1.exe "/scratch/bochen/cyclohexadiene-dimerization/wb97xd-def2tzvp/xp-pcm/meso/Gau-23339.inp" -scrdir="/scratch/bochen/cyclohexadiene-dimerization/wb97xd-def2tzvp/xp-pcm/meso/"
 Entering Link 1 = /scratch/scicomp/CentOS/7.3.1611/Haswell/software/Gaussian/g16/l1.exe PID=     23340.
  
 Copyright (c) 1988-2017, Gaussian, Inc.  All Rights Reserved.
  
 This is part of the Gaussian(R) 16 program.  It is based on
 the Gaussian(R) 09 system (copyright 2009, Gaussian, Inc.),
 the Gaussian(R) 03 system (copyright 2003, Gaussian, Inc.),
 the Gaussian(R) 98 system (copyright 1998, Gaussian, Inc.),
 the Gaussian(R) 94 system (copyright 1995, Gaussian, Inc.),
 the Gaussian 92(TM) system (copyright 1992, Gaussian, Inc.),
 the Gaussian 90(TM) system (copyright 1990, Gaussian, Inc.),
 the Gaussian 88(TM) system (copyright 1988, Gaussian, Inc.),
 the Gaussian 86(TM) system (copyright 1986, Carnegie Mellon
 University), and the Gaussian 82(TM) system (copyright 1983,
 Carnegie Mellon University). Gaussian is a federally registered
 trademark of Gaussian, Inc.
  
 This software contains proprietary and confidential information,
 including trade secrets, belonging to Gaussian, Inc.
  
 This software is provided under written license and may be
 used, copied, transmitted, or stored only in accord with that
 written license.
  
 The following legend is applicable only to US Government
 contracts under FAR:
  
                    RESTRICTED RIGHTS LEGEND
  
 Use, reproduction and disclosure by the US Government is
 subject to restrictions as set forth in subparagraphs (a)
 and (c) of the Commercial Computer Software - Restricted
 Rights clause in FAR 52.227-19.
  
 Gaussian, Inc.
 340 Quinnipiac St., Bldg. 40, Wallingford CT 06492
  
  
 ---------------------------------------------------------------
 Warning -- This program may not be used in any manner that
 competes with the business of Gaussian, Inc. or will provide
 assistance to any competitor of Gaussian, Inc.  The licensee
 of this program is prohibited from giving any competitor of
 Gaussian, Inc. access to this program.  By using this program,
 the user acknowledges that Gaussian, Inc. is engaged in the
 business of creating and licensing software in the field of
 computational chemistry and represents and warrants to the
 licensee that it is not a competitor of Gaussian, Inc. and that
 it will not use this program in any manner prohibited above.
 ---------------------------------------------------------------
  

 Cite this work as:
 Gaussian 16, Revision B.01,
 M. J. Frisch, G. W. Trucks, H. B. Schlegel, G. E. Scuseria, 
 M. A. Robb, J. R. Cheeseman, G. Scalmani, V. Barone, 
 G. A. Petersson, H. Nakatsuji, X. Li, M. Caricato, A. V. Marenich, 
 J. Bloino, B. G. Janesko, R. Gomperts, B. Mennucci, H. P. Hratchian, 
 J. V. Ortiz, A. F. Izmaylov, J. L. Sonnenberg, D. Williams-Young, 
 F. Ding, F. Lipparini, F. Egidi, J. Goings, B. Peng, A. Petrone, 
 T. Henderson, D. Ranasinghe, V. G. Zakrzewski, J. Gao, N. Rega, 
 G. Zheng, W. Liang, M. Hada, M. Ehara, K. Toyota, R. Fukuda, 
 J. Hasegawa, M. Ishida, T. Nakajima, Y. Honda, O. Kitao, H. Nakai, 
 T. Vreven, K. Throssell, J. A. Montgomery, Jr., J. E. Peralta, 
 F. Ogliaro, M. J. Bearpark, J. J. Heyd, E. N. Brothers, K. N. Kudin, 
 V. N. Staroverov, T. A. Keith, R. Kobayashi, J. Normand, 
 K. Raghavachari, A. P. Rendell, J. C. Burant, S. S. Iyengar, 
 J. Tomasi, M. Cossi, J. M. Millam, M. Klene, C. Adamo, R. Cammi, 
 J. W. Ochterski, R. L. Martin, K. Morokuma, O. Farkas, 
 J. B. Foresman, and D. J. Fox, Gaussian, Inc., Wallingford CT, 2016.
 
 ******************************************
 Gaussian 16:  ES64L-G16RevB.01 20-Dec-2017
                 3-Aug-2020 
 ******************************************
 %nproc=24
 Will use up to   24 processors via shared memory.
 %mem=48GB
 ----------------------------------------------------------------------
 #p uwb97xd guess=mix def2tzvp # scrf=(iefpcm,solvent=Cyclohexane,read)
  nosym 6d 10f
 ----------------------------------------------------------------------
 1/38=1,40=2,172=1/1;
 2/12=2,15=1,17=6,18=5,40=1/2;
 3/5=44,7=101,8=22,11=2,25=1,30=1,70=2203,72=17,74=-58,116=2/1,2,3;
 4/13=-1/1;
 5/5=2,38=5,53=17/2;
 6/7=2,8=2,9=2,10=2,28=1/1;
 99/5=1,9=1/99;
 Leave Link    1 at Mon Aug  3 14:33:06 2020, MaxMem=  6442450944 cpu:               1.6 elap:               0.1
 (Enter /scratch/scicomp/CentOS/7.3.1611/Haswell/software/Gaussian/g16/l101.exe)
 -----------------------
 endo-2 xp-pcm for eta=3
 -----------------------
 Symbolic Z-matrix:
 Charge =  0 Multiplicity = 1
 6                    -3.12716  -0.44139   0.26581 
 6                    -0.74278  -0.25368  -1.25379 
 1                    -4.06659  -0.53163   0.79885 
 1                     0.20497  -0.1725   -1.77163 
 6                     1.17538   1.42747   0.80302 
 6                     0.74278   0.25368   1.25379 
 1                     0.58291   2.32407   0.941 
 1                    -0.20497   0.1725    1.77163 
 6                     1.57459  -0.98981   1.12726 
 1                     2.11611  -1.12215   2.07269 
 1                     0.92754  -1.86179   1.02529 
 6                     2.46088   1.53095   0.11177 
 1                     2.86025   2.51601  -0.0982 
 6                     3.12716   0.44139  -0.26581 
 1                     4.06659   0.53163  -0.79885 
 6                     2.57273  -0.93795  -0.03439 
 1                     2.09129  -1.274    -0.96099 
 1                     3.38476  -1.64457   0.14749 
 6                    -1.17538  -1.42747  -0.80302 
 1                    -0.58291  -2.32407  -0.941 
 6                    -2.46088  -1.53095  -0.11177 
 1                    -2.86025  -2.51601   0.0982 
 6                    -1.57459   0.98981  -1.12726 
 1                    -0.92754   1.86179  -1.02529 
 1                    -2.11611   1.12215  -2.07269 
 6                    -2.57273   0.93795   0.03439 
 1                    -3.38476   1.64457  -0.14749 
 1                    -2.09129   1.274     0.96099 
 
 ITRead=  0  0  0  0  0  0  0  0  0  0  0  0  0  0  0  0  0  0  0  0
 ITRead=  0  0  0  0  0  0  0  0
 MicOpt= -1 -1 -1 -1 -1 -1 -1 -1 -1 -1 -1 -1 -1 -1 -1 -1 -1 -1 -1 -1
 MicOpt= -1 -1 -1 -1 -1 -1 -1 -1
 NAtoms=     28 NQM=       28 NQMF=       0 NMMI=      0 NMMIF=      0
                NMic=       0 NMicF=      0.
                    Isotopes and Nuclear Properties:
 (Nuclear quadrupole moments (NQMom) in fm**2, nuclear magnetic moments (NMagM)
  in nuclear magnetons)

  Atom         1           2           3           4           5           6           7           8           9          10
 IAtWgt=          12          12           1           1          12          12           1           1          12           1
 AtmWgt=  12.0000000  12.0000000   1.0078250   1.0078250  12.0000000  12.0000000   1.0078250   1.0078250  12.0000000   1.0078250
 NucSpn=           0           0           1           1           0           0           1           1           0           1
 AtZEff=  -0.0000000  -0.0000000  -0.0000000  -0.0000000  -0.0000000  -0.0000000  -0.0000000  -0.0000000  -0.0000000  -0.0000000
 NQMom=    0.0000000   0.0000000   0.0000000   0.0000000   0.0000000   0.0000000   0.0000000   0.0000000   0.0000000   0.0000000
 NMagM=    0.0000000   0.0000000   2.7928460   2.7928460   0.0000000   0.0000000   2.7928460   2.7928460   0.0000000   2.7928460
 AtZNuc=   6.0000000   6.0000000   1.0000000   1.0000000   6.0000000   6.0000000   1.0000000   1.0000000   6.0000000   1.0000000

  Atom        11          12          13          14          15          16          17          18          19          20
 IAtWgt=           1          12           1          12           1          12           1           1          12           1
 AtmWgt=   1.0078250  12.0000000   1.0078250  12.0000000   1.0078250  12.0000000   1.0078250   1.0078250  12.0000000   1.0078250
 NucSpn=           1           0           1           0           1           0           1           1           0           1
 AtZEff=  -0.0000000  -0.0000000  -0.0000000  -0.0000000  -0.0000000  -0.0000000  -0.0000000  -0.0000000  -0.0000000  -0.0000000
 NQMom=    0.0000000   0.0000000   0.0000000   0.0000000   0.0000000   0.0000000   0.0000000   0.0000000   0.0000000   0.0000000
 NMagM=    2.7928460   0.0000000   2.7928460   0.0000000   2.7928460   0.0000000   2.7928460   2.7928460   0.0000000   2.7928460
 AtZNuc=   1.0000000   6.0000000   1.0000000   6.0000000   1.0000000   6.0000000   1.0000000   1.0000000   6.0000000   1.0000000

  Atom        21          22          23          24          25          26          27          28
 IAtWgt=          12           1          12           1           1          12           1           1
 AtmWgt=  12.0000000   1.0078250  12.0000000   1.0078250   1.0078250  12.0000000   1.0078250   1.0078250
 NucSpn=           0           1           0           1           1           0           1           1
 AtZEff=  -0.0000000  -0.0000000  -0.0000000  -0.0000000  -0.0000000  -0.0000000  -0.0000000  -0.0000000
 NQMom=    0.0000000   0.0000000   0.0000000   0.0000000   0.0000000   0.0000000   0.0000000   0.0000000
 NMagM=    0.0000000   2.7928460   0.0000000   2.7928460   2.7928460   0.0000000   2.7928460   2.7928460
 AtZNuc=   6.0000000   1.0000000   6.0000000   1.0000000   1.0000000   6.0000000   1.0000000   1.0000000
 Leave Link  101 at Mon Aug  3 14:33:06 2020, MaxMem=  6442450944 cpu:               2.4 elap:               0.1
 (Enter /scratch/scicomp/CentOS/7.3.1611/Haswell/software/Gaussian/g16/l202.exe)
                          Input orientation:                          
 ---------------------------------------------------------------------
 Center     Atomic      Atomic             Coordinates (Angstroms)
 Number     Number       Type             X           Y           Z
 ---------------------------------------------------------------------
      1          6           0       -3.127160   -0.441387    0.265808
      2          6           0       -0.742781   -0.253682   -1.253790
      3          1           0       -4.066590   -0.531634    0.798854
      4          1           0        0.204971   -0.172502   -1.771631
      5          6           0        1.175378    1.427467    0.803019
      6          6           0        0.742781    0.253682    1.253790
      7          1           0        0.582914    2.324068    0.940997
      8          1           0       -0.204971    0.172502    1.771631
      9          6           0        1.574588   -0.989808    1.127258
     10          1           0        2.116105   -1.122154    2.072691
     11          1           0        0.927535   -1.861790    1.025285
     12          6           0        2.460878    1.530950    0.111768
     13          1           0        2.860246    2.516008   -0.098202
     14          6           0        3.127160    0.441387   -0.265808
     15          1           0        4.066590    0.531634   -0.798854
     16          6           0        2.572730   -0.937949   -0.034385
     17          1           0        2.091291   -1.273998   -0.960989
     18          1           0        3.384763   -1.644565    0.147485
     19          6           0       -1.175378   -1.427467   -0.803019
     20          1           0       -0.582914   -2.324068   -0.940997
     21          6           0       -2.460878   -1.530950   -0.111768
     22          1           0       -2.860246   -2.516008    0.098202
     23          6           0       -1.574588    0.989808   -1.127258
     24          1           0       -0.927535    1.861790   -1.025285
     25          1           0       -2.116105    1.122154   -2.072691
     26          6           0       -2.572730    0.937949    0.034385
     27          1           0       -3.384763    1.644565   -0.147485
     28          1           0       -2.091291    1.273998    0.960989
 ---------------------------------------------------------------------
                    Distance matrix (angstroms):
                    1          2          3          4          5
     1  C    0.000000
     2  C    2.833668   0.000000
     3  H    1.083887   3.916416   0.000000
     4  H    3.914914   1.083044   4.998260   0.000000
     5  C    4.721551   3.276593   5.596099   3.182831   0.000000
     6  C    4.054093   2.958424   4.894256   3.102264   1.329701
     7  H    4.676352   3.635843   5.458308   3.705948   1.083487
     8  H    3.344182   3.102264   4.044033   3.583544   2.102025
     9  C    4.811372   3.403156   5.669273   3.308685   2.471380
    10  H    5.587495   4.471348   6.340118   4.396940   2.999600
    11  H    4.362901   3.251177   5.173188   3.346421   3.306061
    12  C    5.927901   3.913194   6.879984   3.396772   1.463232
    13  H    6.687879   4.689176   7.620623   4.132667   2.199068
    14  C    6.338645   4.054093   7.336914   3.344182   2.433968
    15  H    7.336914   4.894256   8.356544   4.044033   3.424561
    16  C    5.729349   3.598303   6.703727   3.034834   2.872113
    17  H    5.424989   3.026341   6.447298   2.329944   3.353883
    18  H    6.623200   4.575450   7.562113   3.995129   3.840376
    19  C    2.433968   1.329701   3.424561   2.102025   4.031880
    20  H    3.387337   2.099975   4.286712   2.437202   4.495242
    21  C    1.331782   2.426414   2.099089   3.421590   4.776131
    22  H    2.098425   3.380778   2.425679   4.287639   5.686301
    23  C    2.529710   1.501393   3.497823   2.221038   3.388189
    24  H    3.436553   2.135783   4.348520   2.444984   2.820208
    25  H    2.989226   2.109394   3.845150   2.674727   4.381414
    26  C    1.504499   2.535368   2.230629   3.494341   3.857297
    27  H    2.142047   3.436178   2.469066   4.338868   4.663204
    28  H    2.121049   3.009573   2.681119   3.851285   3.274085
                    6          7          8          9         10
     6  C    0.000000
     7  H    2.099975   0.000000
     8  H    1.083044   2.437202   0.000000
     9  C    1.501393   3.464085   2.221038   0.000000
    10  H    2.109394   3.938001   2.674727   1.097543   0.000000
    11  H    2.135783   4.200866   2.444984   1.090609   1.748376
    12  C    2.426414   2.200774   3.421590   2.858488   3.317084
    13  H    3.380778   2.510581   4.287639   3.930065   4.301482
    14  C    2.833668   3.387337   3.914914   2.529710   2.989226
    15  H    3.916416   4.286712   4.998260   3.497823   3.845150
    16  C    2.535368   3.943538   3.494341   1.532446   2.163841
    17  H    3.009573   4.340372   3.851285   2.169913   3.037579
    18  H    3.436178   4.922405   4.338868   2.159953   2.364069
    19  C    3.276593   4.495242   3.182831   3.388189   4.381414
    20  H    3.635843   5.148420   3.705948   3.273033   4.220381
    21  C    3.913194   5.023360   3.396772   4.255938   5.088000
    22  H    4.689176   5.999332   4.132667   4.801666   5.532224
    23  C    3.403156   3.273033   3.308685   4.349601   5.321773
    24  H    3.251177   2.522186   3.346421   4.361843   5.269262
    25  H    4.471348   4.220381   4.396940   5.321773   6.335038
    26  C    3.598303   3.563897   3.034834   4.702219   5.512158
    27  H    4.575450   4.170009   3.995129   5.758477   6.545492
    28  H    3.026341   2.873050   2.329944   4.311743   4.967857
                   11         12         13         14         15
    11  H    0.000000
    12  C    3.833580   0.000000
    13  H    4.915558   1.083477   0.000000
    14  C    3.436553   1.331782   2.098425   0.000000
    15  H    4.348520   2.099089   2.425679   1.083887   0.000000
    16  C    2.164035   2.475749   3.466491   1.504499   2.230629
    17  H    2.375944   3.025745   3.962302   2.121049   2.681119
    18  H    2.618337   3.307376   4.200696   2.142047   2.469066
    19  C    2.820208   4.776131   5.686301   4.721551   5.596099
    20  H    2.522186   5.023360   5.999332   4.676352   5.458308
    21  C    3.589385   5.800766   6.685238   5.927901   6.879984
    22  H    3.954083   6.685238   7.621272   6.687879   7.620623
    23  C    4.361843   4.255938   4.801666   4.811372   5.669273
    24  H    4.638014   3.589385   3.954083   4.362901   5.173188
    25  H    5.269262   5.088000   5.532224   5.587495   6.340118
    26  C    4.590455   5.069009   5.659070   5.729349   6.703727
    27  H    5.680302   5.852490   6.305710   6.623200   7.562113
    28  H    4.353230   4.637827   5.213654   5.424989   6.447298
                   16         17         18         19         20
    16  C    0.000000
    17  H    1.096954   0.000000
    18  H    1.091687   1.743303   0.000000
    19  C    3.857297   3.274085   4.663204   0.000000
    20  H    3.563897   2.873050   4.170009   1.083487   0.000000
    21  C    5.069009   4.637827   5.852490   1.463232   2.200774
    22  H    5.659070   5.213654   6.305710   2.199068   2.510581
    23  C    4.702219   4.311743   5.758477   2.471380   3.464085
    24  H    4.590455   4.353230   5.680302   3.306061   4.200866
    25  H    5.512158   4.967857   6.545492   2.999600   3.938001
    26  C    5.477178   5.257050   6.494143   2.872113   3.943538
    27  H    6.494143   6.258352   7.532056   3.840376   4.922405
    28  H    5.257050   5.261205   6.258352   3.353883   4.340372
                   21         22         23         24         25
    21  C    0.000000
    22  H    1.083477   0.000000
    23  C    2.858488   3.930065   0.000000
    24  H    3.833580   4.915558   1.090609   0.000000
    25  H    3.317084   4.301482   1.097543   1.748376   0.000000
    26  C    2.475749   3.466491   1.532446   2.164035   2.163841
    27  H    3.307376   4.200696   2.159953   2.618337   2.364069
    28  H    3.025745   3.962302   2.169913   2.375944   3.037579
                   26         27         28
    26  C    0.000000
    27  H    1.091687   0.000000
    28  H    1.096954   1.743303   0.000000
 Symmetry turned off by external request.
 Stoichiometry    C12H16
 Framework group  CI[X(C12H16)]
 Deg. of freedom    39
 Full point group                 CI      NOp   2
 Rotational constants (GHZ):           1.7477464           0.5912905           0.5348176
 Leave Link  202 at Mon Aug  3 14:33:06 2020, MaxMem=  6442450944 cpu:               0.3 elap:               0.0
 (Enter /scratch/scicomp/CentOS/7.3.1611/Haswell/software/Gaussian/g16/l301.exe)
 Standard basis: def2TZVP (6D, 10F)
 Ernie: Thresh=  0.10000D-02 Tol=  0.10000D-05 Strict=F.
   528 basis functions,   740 primitive gaussians,   528 cartesian basis functions
    44 alpha electrons       44 beta electrons
       nuclear repulsion energy       675.2444009835 Hartrees.
 IExCor= 4639 DFT=T Ex+Corr=wB97XD ExCW=0 ScaHFX=  1.000000
 ScaDFX=  1.000000  1.000000  1.000000  1.000000 ScalE2=  1.000000  1.000000
 IRadAn=      5 IRanWt=     -1 IRanGd=            0 ICorTp=0 IEmpDi=121
 HFx  wShort=  0.000000 wLong=  0.200000 cFull=  0.222036 cShort=  0.000000 cLong=  0.777964
 DFx  wShort=  0.000000 wLong=  0.200000 cFull=  0.000000 cShort=  0.000000 cLong=  1.000000
 NAtoms=   28 NActive=   28 NUniq=   28 SFac= 1.00D+00 NAtFMM=   60 NAOKFM=F Big=F
 Integral buffers will be    131072 words long.
 Raffenetti 2 integral format.
 Two-electron integral symmetry is turned off.
 R6Disp:  Grimme-D2 Dispersion energy=       -0.0220448925 Hartrees.
 Nuclear repulsion after empirical dispersion term =      675.2223560911 Hartrees.
 Using the following non-standard input for PCM:
 norep pcmdoc geomview  nodis nocav g03defaults tsare=0.075
 Warning! Using old PCM defaults because the g03defaults keyword was found.
 These settings can be overridden by following keywords.
 nsfe=28
 NVESolv=36  SolvMW=84.1595   Rsolv=2.815
 eps=2.0165 RhoS=0.7781
 --- end of non-standard input.
 Reading user-defined spheres from input:
 ISph  on   Nord    Re0     Alpha      Xe            Ye            Ze
 --- end of user-defined spheres data.
 ------------------------------------------------------------------------------
 Polarizable Continuum Model (PCM)
 =================================
 Model                : PCM.
 Atomic radii         : UA0 (Simple United Atom Topological Model).
 Polarization charges : Total charges.
 Charge compensation  : None.
 Solution method      : On-the-fly selection.
 Cavity type          : SES (Solvent Excluding Surface) (Alpha=1.000).
 Cavity algorithm     : GePol (RMin=0.200 OFac=0.890).
                        User-defined sphere list used, NSphG=   28.
                        Tesserae with average area of 0.075 Ang**2.
                        Smoothing algorithm: None.
                        Polarization charges: point-like.
                        Self-potential: constant (ISelfS= 1).
                        Self-field    : global E.n sum rule (ISelfD= 3).
 Solvent              : CycloHexane, Eps=   2.016500 Eps(inf)=   2.035188
                        RSolv=   2.815000 Ang.
 ------------------------------------------------------------------------------
 GePol: Number of generator spheres                  =      28
 GePol: Total number of spheres                      =     185
 GePol: Number of exposed spheres                    =     129 ( 69.73%)
 GePol: Number of tesserae                           =    4650
 GePol: Average area of tesserae                     =       0.05 Ang**2
 GePol: Minimum area of tessera                      =   0.10D-02 Ang**2
 GePol: Maximum area of tessera                      =    0.12395 Ang**2
 GePol: Number of small tesserae                     =       0
 GePol: Fraction of small tesserae (<1% of avg)      =       0.00%
 GePol: Total count of vertices                      =   16490
 GePol: Maximum number of vertices in a tessera      =       8
 GePol: Cavity surface area                          =    222.647 Ang**2
 GePol: Cavity volume                                =    253.543 Ang**3
 Leave Link  301 at Mon Aug  3 14:33:07 2020, MaxMem=  6442450944 cpu:               8.1 elap:               0.4
 (Enter /scratch/scicomp/CentOS/7.3.1611/Haswell/software/Gaussian/g16/l302.exe)
 NPDir=0 NMtPBC=     1 NCelOv=     1 NCel=       1 NClECP=     1 NCelD=      1
         NCelK=      1 NCelE2=     1 NClLst=     1 CellRange=     0.0.
 One-electron integrals computed using PRISM.
   1 Symmetry operations used in ECPInt.
 ECPInt:  NShTT=   19306 NPrTT=   56928 LenC2=   18475 LenP2D=   41881.
 LDataN:  DoStor=T MaxTD1= 6 Len=  172
 NBasis=   528 RedAO= T EigKep=  1.87D-05  NBF=   528
 NBsUse=   528 1.00D-06 EigRej= -1.00D+00 NBFU=   528
 Precomputing XC quadrature grid using
 IXCGrd= 4 IRadAn=           5 IRanWt=          -1 IRanGd=           0 AccXCQ= 0.00D+00.
 Generated NRdTot=       0 NPtTot=           0 NUsed=           0 NTot=          32
 NSgBfM=   526   526   526   526   526 MxSgAt=    28 MxSgA2=    28.
 Leave Link  302 at Mon Aug  3 14:33:08 2020, MaxMem=  6442450944 cpu:              12.8 elap:               0.6
 (Enter /scratch/scicomp/CentOS/7.3.1611/Haswell/software/Gaussian/g16/l303.exe)
 DipDrv:  MaxL=1.
 Leave Link  303 at Mon Aug  3 14:33:08 2020, MaxMem=  6442450944 cpu:               1.6 elap:               0.1
 (Enter /scratch/scicomp/CentOS/7.3.1611/Haswell/software/Gaussian/g16/l401.exe)
 ExpMin= 9.52D-02 ExpMax= 1.36D+04 ExpMxC= 4.63D+02 IAcc=3 IRadAn=         5 AccDes= 0.00D+00
 Harris functional with IExCor= 4639 and IRadAn=       5 diagonalized for initial guess.
 HarFok:  IExCor= 4639 AccDes= 0.00D+00 IRadAn=         5 IDoV= 1 UseB2=F ITyADJ=14
 ICtDFT=  3500011 ScaDFX=  1.000000  1.000000  1.000000  1.000000
 FoFCou: FMM=F IPFlag=           0 FMFlag=      100000 FMFlg1=           0
         NFxFlg=           0 DoJE=T BraDBF=F KetDBF=T FulRan=T
         wScrn=  0.000000 ICntrl=       500 IOpCl=  0 I1Cent=   200000004 NGrid=           0
         NMat0=    1 NMatS0=      1 NMatT0=    0 NMatD0=    1 NMtDS0=    0 NMtDT0=    0
 Symmetry not used in FoFCou.
 Harris En= -444.657542760145    
 JPrj=0 DoOrth=F DoCkMO=T.
 Mixing orbitals, IMix= 1 IMixAn=  0 NRI=1 NE=   44 Coef=  7.07106781D-01  7.07106781D-01
 Mixing orbitals, IMix= 1 IMixAn=  0 NRI=1 NE=   44 Coef= -7.07106781D-01  7.07106781D-01
 Initial guess <Sx>= 0.0000 <Sy>= 0.0000 <Sz>= 0.0000 <S**2>= 1.0000 S= 0.6180
 Leave Link  401 at Mon Aug  3 14:33:10 2020, MaxMem=  6442450944 cpu:              48.2 elap:               2.1
 (Enter /scratch/scicomp/CentOS/7.3.1611/Haswell/software/Gaussian/g16/l502.exe)
 Two-electron integral symmetry not used.
 UHF open shell SCF:
 Using DIIS extrapolation, IDIIS=  1040.
 NGot=  6442450944 LenX=  6441877030 LenY=  6441597718
 Requested convergence on RMS density matrix=1.00D-08 within 128 cycles.
 Requested convergence on MAX density matrix=1.00D-06.
 Requested convergence on             energy=1.00D-06.
 No special actions if energy rises.
 Fock matrices will be formed incrementally for  20 cycles.

 Cycle   1  Pass 1  IDiag  1:
 FoFJK:  IHMeth= 1 ICntrl=       0 DoSepK=T KAlg= 0 I1Cent=           0 FoldK=F
 IRaf=         1 NMat=       1 IRICut=       1 DoRegI=T DoRafI=F ISym2E= 0 IDoP0=0 IntGTp=1.
 FoFCou: FMM=F IPFlag=           0 FMFlag=      100000 FMFlg1=           0
         NFxFlg=           0 DoJE=T BraDBF=F KetDBF=F FulRan=T
         wScrn=  0.000000 ICntrl=       500 IOpCl=  0 I1Cent=           0 NGrid=           0
         NMat0=    1 NMatS0=      1 NMatT0=    0 NMatD0=    1 NMtDS0=    0 NMtDT0=    0
 Symmetry not used in FoFCou.
 Inv3:  Mode=1 IEnd=    64867500.
 Iteration    1 A*A^-1 deviation from unit magnitude is 3.33D-15 for   2864.
 Iteration    1 A*A^-1 deviation from orthogonality  is 1.67D-15 for    254     57.
 Iteration    1 A^-1*A deviation from unit magnitude is 3.11D-15 for   1278.
 Iteration    1 A^-1*A deviation from orthogonality  is 1.89D-15 for   4351   2253.
 E= -466.578289816349    
 DIIS: error= 5.25D-02 at cycle   1 NSaved=   1.
 NSaved= 1 IEnMin= 1 EnMin= -466.578289816349     IErMin= 1 ErrMin= 5.25D-02
 ErrMax= 5.25D-02  0.00D+00 EMaxC= 1.00D-01 BMatC= 4.11D+00 BMatP= 4.11D+00
 IDIUse=3 WtCom= 4.75D-01 WtEn= 5.25D-01
 Coeff-Com:  0.100D+01
 Coeff-En:   0.100D+01
 Coeff:      0.100D+01
 Gap=     0.181 Goal=   None    Shift=    0.000
 Gap=     0.181 Goal=   None    Shift=    0.000
 GapD=    0.181 DampG=1.000 DampE=0.500 DampFc=0.5000 IDamp=-1.
 Damping current iteration by 5.00D-01
 RMSDP=1.64D-03 MaxDP=9.28D-02              OVMax= 3.51D-01

 Cycle   2  Pass 1  IDiag  1:
 RMSU=  7.85D-04    CP:  9.63D-01
 E= -466.690537308433     Delta-E=       -0.112247492084 Rises=F Damp=T
 DIIS: error= 2.50D-02 at cycle   2 NSaved=   2.
 NSaved= 2 IEnMin= 2 EnMin= -466.690537308433     IErMin= 2 ErrMin= 2.50D-02
 ErrMax= 2.50D-02  0.00D+00 EMaxC= 1.00D-01 BMatC= 9.36D-01 BMatP= 4.11D+00
 IDIUse=3 WtCom= 7.50D-01 WtEn= 2.50D-01
 Coeff-Com: -0.868D+00 0.187D+01
 Coeff-En:   0.000D+00 0.100D+01
 Coeff:     -0.650D+00 0.165D+01
 Gap=     0.278 Goal=   None    Shift=    0.000
 Gap=     0.278 Goal=   None    Shift=    0.000
 RMSDP=1.17D-03 MaxDP=5.29D-02 DE=-1.12D-01 OVMax= 1.39D-01

 Cycle   3  Pass 1  IDiag  1:
 RMSU=  6.15D-04    CP:  9.09D-01  2.19D+00
 E= -466.837220546753     Delta-E=       -0.146683238321 Rises=F Damp=F
 DIIS: error= 7.84D-03 at cycle   3 NSaved=   3.
 NSaved= 3 IEnMin= 3 EnMin= -466.837220546753     IErMin= 3 ErrMin= 7.84D-03
 ErrMax= 7.84D-03  0.00D+00 EMaxC= 1.00D-01 BMatC= 2.42D-02 BMatP= 9.36D-01
 IDIUse=3 WtCom= 9.22D-01 WtEn= 7.84D-02
 Coeff-Com: -0.314D+00 0.674D+00 0.641D+00
 Coeff-En:   0.000D+00 0.000D+00 0.100D+01
 Coeff:     -0.289D+00 0.621D+00 0.669D+00
 Gap=     0.300 Goal=   None    Shift=    0.000
 Gap=     0.300 Goal=   None    Shift=    0.000
 RMSDP=2.18D-04 MaxDP=1.12D-02 DE=-1.47D-01 OVMax= 6.50D-02

 Cycle   4  Pass 1  IDiag  1:
 RMSU=  1.99D-04    CP:  9.01D-01  2.28D+00  9.96D-01
 E= -466.848110901879     Delta-E=       -0.010890355125 Rises=F Damp=F
 DIIS: error= 5.16D-03 at cycle   4 NSaved=   4.
 NSaved= 4 IEnMin= 4 EnMin= -466.848110901879     IErMin= 4 ErrMin= 5.16D-03
 ErrMax= 5.16D-03  0.00D+00 EMaxC= 1.00D-01 BMatC= 2.09D-03 BMatP= 2.42D-02
 IDIUse=3 WtCom= 9.48D-01 WtEn= 5.16D-02
 Coeff-Com:  0.144D+00-0.309D+00-0.736D-01 0.124D+01
 Coeff-En:   0.000D+00 0.000D+00 0.000D+00 0.100D+01
 Coeff:      0.137D+00-0.293D+00-0.698D-01 0.123D+01
 Gap=     0.312 Goal=   None    Shift=    0.000
 Gap=     0.312 Goal=   None    Shift=    0.000
 RMSDP=2.16D-04 MaxDP=1.30D-02 DE=-1.09D-02 OVMax= 7.79D-02

 Cycle   5  Pass 1  IDiag  1:
 RMSU=  8.73D-05    CP:  8.95D-01  2.34D+00  1.22D+00  1.64D+00
 E= -466.852838818818     Delta-E=       -0.004727916939 Rises=F Damp=F
 DIIS: error= 2.34D-03 at cycle   5 NSaved=   5.
 NSaved= 5 IEnMin= 5 EnMin= -466.852838818818     IErMin= 5 ErrMin= 2.34D-03
 ErrMax= 2.34D-03  0.00D+00 EMaxC= 1.00D-01 BMatC= 8.60D-04 BMatP= 2.09D-03
 IDIUse=3 WtCom= 9.77D-01 WtEn= 2.34D-02
 Coeff-Com:  0.666D-01-0.143D+00-0.724D-01 0.378D+00 0.771D+00
 Coeff-En:   0.000D+00 0.000D+00 0.000D+00 0.000D+00 0.100D+01
 Coeff:      0.650D-01-0.140D+00-0.707D-01 0.369D+00 0.776D+00
 Gap=     0.314 Goal=   None    Shift=    0.000
 Gap=     0.314 Goal=   None    Shift=    0.000
 RMSDP=7.54D-05 MaxDP=3.22D-03 DE=-4.73D-03 OVMax= 2.78D-02

 Cycle   6  Pass 1  IDiag  1:
 RMSU=  3.23D-05    CP:  8.93D-01  2.35D+00  1.26D+00  1.91D+00  1.38D+00
 E= -466.854190470704     Delta-E=       -0.001351651886 Rises=F Damp=F
 DIIS: error= 1.71D-03 at cycle   6 NSaved=   6.
 NSaved= 6 IEnMin= 6 EnMin= -466.854190470704     IErMin= 6 ErrMin= 1.71D-03
 ErrMax= 1.71D-03  0.00D+00 EMaxC= 1.00D-01 BMatC= 5.27D-04 BMatP= 8.60D-04
 IDIUse=3 WtCom= 9.83D-01 WtEn= 1.71D-02
 Coeff-Com: -0.798D-01 0.171D+00 0.573D-01-0.592D+00 0.527D-01 0.139D+01
 Coeff-En:   0.000D+00 0.000D+00 0.000D+00 0.000D+00 0.000D+00 0.100D+01
 Coeff:     -0.785D-01 0.168D+00 0.563D-01-0.582D+00 0.518D-01 0.138D+01
 Gap=     0.310 Goal=   None    Shift=    0.000
 Gap=     0.310 Goal=   None    Shift=    0.000
 RMSDP=1.01D-04 MaxDP=4.09D-03 DE=-1.35D-03 OVMax= 3.79D-02

 Cycle   7  Pass 1  IDiag  1:
 RMSU=  3.21D-05    CP:  8.91D-01  2.35D+00  1.29D+00  2.20D+00  2.07D+00
                    CP:  2.25D+00
 E= -466.855815143852     Delta-E=       -0.001624673149 Rises=F Damp=F
 DIIS: error= 1.09D-03 at cycle   7 NSaved=   7.
 NSaved= 7 IEnMin= 7 EnMin= -466.855815143852     IErMin= 7 ErrMin= 1.09D-03
 ErrMax= 1.09D-03  0.00D+00 EMaxC= 1.00D-01 BMatC= 2.69D-04 BMatP= 5.27D-04
 IDIUse=3 WtCom= 9.89D-01 WtEn= 1.09D-02
 Coeff-Com: -0.259D-01 0.561D-01 0.437D-01-0.533D-02-0.695D+00-0.532D+00
 Coeff-Com:  0.216D+01
 Coeff-En:   0.000D+00 0.000D+00 0.000D+00 0.000D+00 0.000D+00 0.000D+00
 Coeff-En:   0.100D+01
 Coeff:     -0.256D-01 0.555D-01 0.432D-01-0.527D-02-0.687D+00-0.527D+00
 Coeff:      0.215D+01
 Gap=     0.310 Goal=   None    Shift=    0.000
 Gap=     0.310 Goal=   None    Shift=    0.000
 RMSDP=1.39D-04 MaxDP=6.66D-03 DE=-1.62D-03 OVMax= 5.22D-02

 Cycle   8  Pass 1  IDiag  1:
 RMSU=  5.43D-05    CP:  8.89D-01  2.35D+00  1.33D+00  2.52D+00  2.94D+00
                    CP:  3.00D+00  2.68D+00
 E= -466.857248990891     Delta-E=       -0.001433847039 Rises=F Damp=F
 DIIS: error= 3.92D-04 at cycle   8 NSaved=   8.
 NSaved= 8 IEnMin= 8 EnMin= -466.857248990891     IErMin= 8 ErrMin= 3.92D-04
 ErrMax= 3.92D-04  0.00D+00 EMaxC= 1.00D-01 BMatC= 6.74D-05 BMatP= 2.69D-04
 IDIUse=3 WtCom= 9.96D-01 WtEn= 3.92D-03
 Coeff-Com:  0.242D-01-0.520D-01-0.678D-02 0.262D+00-0.228D+00-0.751D+00
 Coeff-Com:  0.637D+00 0.111D+01
 Coeff-En:   0.000D+00 0.000D+00 0.000D+00 0.000D+00 0.000D+00 0.000D+00
 Coeff-En:   0.000D+00 0.100D+01
 Coeff:      0.241D-01-0.518D-01-0.675D-02 0.261D+00-0.227D+00-0.748D+00
 Coeff:      0.634D+00 0.111D+01
 Gap=     0.312 Goal=   None    Shift=    0.000
 Gap=     0.312 Goal=   None    Shift=    0.000
 RMSDP=6.54D-05 MaxDP=3.24D-03 DE=-1.43D-03 OVMax= 2.46D-02

 Cycle   9  Pass 1  IDiag  1:
 RMSU=  3.54D-05    CP:  8.87D-01  2.35D+00  1.35D+00  2.63D+00  3.00D+00
                    CP:  3.00D+00  3.00D+00  1.72D+00
 E= -466.857516138158     Delta-E=       -0.000267147266 Rises=F Damp=F
 DIIS: error= 1.29D-04 at cycle   9 NSaved=   9.
 NSaved= 9 IEnMin= 9 EnMin= -466.857516138158     IErMin= 9 ErrMin= 1.29D-04
 ErrMax= 1.29D-04  0.00D+00 EMaxC= 1.00D-01 BMatC= 1.11D-05 BMatP= 6.74D-05
 IDIUse=3 WtCom= 9.99D-01 WtEn= 1.29D-03
 Coeff-Com:  0.136D-01-0.293D-01-0.939D-02 0.983D-01 0.314D-01-0.185D+00
 Coeff-Com: -0.125D+00 0.340D+00 0.866D+00
 Coeff-En:   0.000D+00 0.000D+00 0.000D+00 0.000D+00 0.000D+00 0.000D+00
 Coeff-En:   0.000D+00 0.000D+00 0.100D+01
 Coeff:      0.136D-01-0.293D-01-0.938D-02 0.981D-01 0.314D-01-0.185D+00
 Coeff:     -0.125D+00 0.339D+00 0.866D+00
 Gap=     0.312 Goal=   None    Shift=    0.000
 Gap=     0.312 Goal=   None    Shift=    0.000
 RMSDP=1.75D-05 MaxDP=8.62D-04 DE=-2.67D-04 OVMax= 6.51D-03

 Cycle  10  Pass 1  IDiag  1:
 RMSU=  4.89D-06    CP:  8.87D-01  2.35D+00  1.35D+00  2.65D+00  3.00D+00
                    CP:  3.00D+00  3.00D+00  1.91D+00  1.34D+00
 E= -466.857537943153     Delta-E=       -0.000021804996 Rises=F Damp=F
 DIIS: error= 5.55D-05 at cycle  10 NSaved=  10.
 NSaved=10 IEnMin=10 EnMin= -466.857537943153     IErMin=10 ErrMin= 5.55D-05
 ErrMax= 5.55D-05  0.00D+00 EMaxC= 1.00D-01 BMatC= 1.81D-06 BMatP= 1.11D-05
 IDIUse=1 WtCom= 1.00D+00 WtEn= 0.00D+00
 Coeff-Com: -0.632D-03 0.138D-02-0.108D-02-0.216D-01 0.416D-01 0.799D-01
 Coeff-Com: -0.120D+00-0.155D+00 0.200D+00 0.975D+00
 Coeff:     -0.632D-03 0.138D-02-0.108D-02-0.216D-01 0.416D-01 0.799D-01
 Coeff:     -0.120D+00-0.155D+00 0.200D+00 0.975D+00
 Gap=     0.311 Goal=   None    Shift=    0.000
 Gap=     0.311 Goal=   None    Shift=    0.000
 RMSDP=7.47D-06 MaxDP=3.48D-04 DE=-2.18D-05 OVMax= 2.75D-03

 Cycle  11  Pass 1  IDiag  1:
 RMSU=  2.70D-06    CP:  8.87D-01  2.35D+00  1.35D+00  2.66D+00  3.00D+00
                    CP:  3.00D+00  3.00D+00  1.98D+00  1.48D+00  1.38D+00
 E= -466.857540727561     Delta-E=       -0.000002784408 Rises=F Damp=F
 DIIS: error= 2.30D-05 at cycle  11 NSaved=  11.
 NSaved=11 IEnMin=11 EnMin= -466.857540727561     IErMin=11 ErrMin= 2.30D-05
 ErrMax= 2.30D-05  0.00D+00 EMaxC= 1.00D-01 BMatC= 3.87D-07 BMatP= 1.81D-06
 IDIUse=1 WtCom= 1.00D+00 WtEn= 0.00D+00
 Coeff-Com: -0.112D-02 0.242D-02 0.190D-03-0.146D-01 0.124D-01 0.402D-01
 Coeff-Com: -0.287D-01-0.851D-01-0.682D-02 0.368D+00 0.714D+00
 Coeff:     -0.112D-02 0.242D-02 0.190D-03-0.146D-01 0.124D-01 0.402D-01
 Coeff:     -0.287D-01-0.851D-01-0.682D-02 0.368D+00 0.714D+00
 Gap=     0.311 Goal=   None    Shift=    0.000
 Gap=     0.311 Goal=   None    Shift=    0.000
 RMSDP=1.30D-06 MaxDP=6.66D-05 DE=-2.78D-06 OVMax= 3.58D-04

 Cycle  12  Pass 1  IDiag  1:
 RMSU=  7.75D-07    CP:  8.87D-01  2.35D+00  1.36D+00  2.66D+00  3.00D+00
                    CP:  3.00D+00  3.00D+00  1.98D+00  1.49D+00  1.45D+00
                    CP:  1.23D+00
 E= -466.857540950952     Delta-E=       -0.000000223390 Rises=F Damp=F
 DIIS: error= 1.29D-05 at cycle  12 NSaved=  12.
 NSaved=12 IEnMin=12 EnMin= -466.857540950952     IErMin=12 ErrMin= 1.29D-05
 ErrMax= 1.29D-05  0.00D+00 EMaxC= 1.00D-01 BMatC= 6.97D-08 BMatP= 3.87D-07
 IDIUse=1 WtCom= 1.00D+00 WtEn= 0.00D+00
 Coeff-Com:  0.367D-03-0.800D-03-0.393D-04 0.578D-02-0.621D-02-0.186D-01
 Coeff-Com:  0.222D-01 0.352D-01-0.398D-01-0.226D+00 0.697D-01 0.116D+01
 Coeff:      0.367D-03-0.800D-03-0.393D-04 0.578D-02-0.621D-02-0.186D-01
 Coeff:      0.222D-01 0.352D-01-0.398D-01-0.226D+00 0.697D-01 0.116D+01
 Gap=     0.311 Goal=   None    Shift=    0.000
 Gap=     0.311 Goal=   None    Shift=    0.000
 RMSDP=7.92D-07 MaxDP=3.02D-05 DE=-2.23D-07 OVMax= 1.48D-04

 Cycle  13  Pass 1  IDiag  1:
 RMSU=  4.91D-07    CP:  8.87D-01  2.35D+00  1.36D+00  2.66D+00  3.00D+00
                    CP:  3.00D+00  3.00D+00  1.98D+00  1.49D+00  1.48D+00
                    CP:  1.40D+00  1.48D+00
 E= -466.857541044226     Delta-E=       -0.000000093274 Rises=F Damp=F
 DIIS: error= 6.81D-06 at cycle  13 NSaved=  13.
 NSaved=13 IEnMin=13 EnMin= -466.857541044226     IErMin=13 ErrMin= 6.81D-06
 ErrMax= 6.81D-06  0.00D+00 EMaxC= 1.00D-01 BMatC= 1.47D-08 BMatP= 6.97D-08
 IDIUse=1 WtCom= 1.00D+00 WtEn= 0.00D+00
 Coeff-Com: -0.170D-03 0.371D-03 0.114D-03-0.157D-02 0.796D-03 0.403D-02
 Coeff-Com: -0.402D-02-0.496D-02 0.691D-02 0.272D-01-0.100D+00-0.312D+00
 Coeff-Com:  0.138D+01
 Coeff:     -0.170D-03 0.371D-03 0.114D-03-0.157D-02 0.796D-03 0.403D-02
 Coeff:     -0.402D-02-0.496D-02 0.691D-02 0.272D-01-0.100D+00-0.312D+00
 Coeff:      0.138D+01
 Gap=     0.311 Goal=   None    Shift=    0.000
 Gap=     0.311 Goal=   None    Shift=    0.000
 RMSDP=4.18D-07 MaxDP=2.23D-05 DE=-9.33D-08 OVMax= 9.34D-05

 Cycle  14  Pass 1  IDiag  1:
 RMSU=  2.66D-07    CP:  8.87D-01  2.35D+00  1.36D+00  2.66D+00  3.00D+00
                    CP:  3.00D+00  3.00D+00  1.98D+00  1.49D+00  1.49D+00
                    CP:  1.39D+00  1.60D+00  1.61D+00
 E= -466.857541074723     Delta-E=       -0.000000030498 Rises=F Damp=F
 DIIS: error= 3.82D-06 at cycle  14 NSaved=  14.
 NSaved=14 IEnMin=14 EnMin= -466.857541074723     IErMin=14 ErrMin= 3.82D-06
 ErrMax= 3.82D-06  0.00D+00 EMaxC= 1.00D-01 BMatC= 4.90D-09 BMatP= 1.47D-08
 IDIUse=1 WtCom= 1.00D+00 WtEn= 0.00D+00
 Coeff-Com: -0.193D-03 0.417D-03 0.914D-04-0.227D-02 0.182D-02 0.668D-02
 Coeff-Com: -0.746D-02-0.120D-01 0.146D-01 0.806D-01-0.438D-01-0.450D+00
 Coeff-Com:  0.175D+00 0.124D+01
 Coeff:     -0.193D-03 0.417D-03 0.914D-04-0.227D-02 0.182D-02 0.668D-02
 Coeff:     -0.746D-02-0.120D-01 0.146D-01 0.806D-01-0.438D-01-0.450D+00
 Coeff:      0.175D+00 0.124D+01
 Gap=     0.311 Goal=   None    Shift=    0.000
 Gap=     0.311 Goal=   None    Shift=    0.000
 RMSDP=3.02D-07 MaxDP=1.33D-05 DE=-3.05D-08 OVMax= 6.90D-05

 Cycle  15  Pass 1  IDiag  1:
 RMSU=  1.16D-07    CP:  8.87D-01  2.35D+00  1.36D+00  2.66D+00  3.00D+00
                    CP:  3.00D+00  3.00D+00  1.98D+00  1.49D+00  1.49D+00
                    CP:  1.38D+00  1.67D+00  2.01D+00  1.69D+00
 E= -466.857541085593     Delta-E=       -0.000000010869 Rises=F Damp=F
 DIIS: error= 1.41D-06 at cycle  15 NSaved=  15.
 NSaved=15 IEnMin=15 EnMin= -466.857541085593     IErMin=15 ErrMin= 1.41D-06
 ErrMax= 1.41D-06  0.00D+00 EMaxC= 1.00D-01 BMatC= 7.44D-10 BMatP= 4.90D-09
 IDIUse=1 WtCom= 1.00D+00 WtEn= 0.00D+00
 Coeff-Com:  0.458D-04-0.992D-04-0.385D-04 0.343D-03 0.101D-04-0.631D-03
 Coeff-Com: -0.114D-03 0.809D-03 0.183D-02 0.213D-02 0.124D-01 0.712D-02
 Coeff-Com: -0.285D+00 0.160D+00 0.110D+01
 Coeff:      0.458D-04-0.992D-04-0.385D-04 0.343D-03 0.101D-04-0.631D-03
 Coeff:     -0.114D-03 0.809D-03 0.183D-02 0.213D-02 0.124D-01 0.712D-02
 Coeff:     -0.285D+00 0.160D+00 0.110D+01
 Gap=     0.311 Goal=   None    Shift=    0.000
 Gap=     0.311 Goal=   None    Shift=    0.000
 RMSDP=1.29D-07 MaxDP=5.32D-06 DE=-1.09D-08 OVMax= 3.02D-05

 Cycle  16  Pass 1  IDiag  1:
 RMSU=  5.07D-08    CP:  8.87D-01  2.35D+00  1.36D+00  2.66D+00  3.00D+00
                    CP:  3.00D+00  3.00D+00  1.98D+00  1.49D+00  1.49D+00
                    CP:  1.38D+00  1.68D+00  2.11D+00  1.95D+00  1.62D+00
 E= -466.857541086937     Delta-E=       -0.000000001344 Rises=F Damp=F
 DIIS: error= 3.29D-07 at cycle  16 NSaved=  16.
 NSaved=16 IEnMin=16 EnMin= -466.857541086937     IErMin=16 ErrMin= 3.29D-07
 ErrMax= 3.29D-07  0.00D+00 EMaxC= 1.00D-01 BMatC= 8.11D-11 BMatP= 7.44D-10
 IDIUse=1 WtCom= 1.00D+00 WtEn= 0.00D+00
 Coeff-Com:  0.231D-04-0.499D-04-0.144D-04 0.255D-03-0.151D-03-0.662D-03
 Coeff-Com:  0.582D-03 0.130D-02-0.118D-02-0.799D-02 0.782D-02 0.491D-01
 Coeff-Com: -0.819D-01-0.105D+00 0.254D+00 0.884D+00
 Coeff:      0.231D-04-0.499D-04-0.144D-04 0.255D-03-0.151D-03-0.662D-03
 Coeff:      0.582D-03 0.130D-02-0.118D-02-0.799D-02 0.782D-02 0.491D-01
 Coeff:     -0.819D-01-0.105D+00 0.254D+00 0.884D+00
 Gap=     0.311 Goal=   None    Shift=    0.000
 Gap=     0.311 Goal=   None    Shift=    0.000
 RMSDP=3.37D-08 MaxDP=1.52D-06 DE=-1.34D-09 OVMax= 5.85D-06

 Cycle  17  Pass 1  IDiag  1:
 RMSU=  1.41D-08    CP:  8.87D-01  2.35D+00  1.36D+00  2.66D+00  3.00D+00
                    CP:  3.00D+00  3.00D+00  1.98D+00  1.49D+00  1.49D+00
                    CP:  1.38D+00  1.68D+00  2.11D+00  2.00D+00  1.78D+00
                    CP:  1.29D+00
 E= -466.857541086998     Delta-E=       -0.000000000061 Rises=F Damp=F
 DIIS: error= 7.91D-08 at cycle  17 NSaved=  17.
 NSaved=17 IEnMin=17 EnMin= -466.857541086998     IErMin=17 ErrMin= 7.91D-08
 ErrMax= 7.91D-08  0.00D+00 EMaxC= 1.00D-01 BMatC= 8.85D-12 BMatP= 8.11D-11
 IDIUse=1 WtCom= 1.00D+00 WtEn= 0.00D+00
 Coeff-Com: -0.475D-06 0.109D-05 0.145D-06-0.224D-05-0.130D-04 0.139D-04
 Coeff-Com:  0.305D-04 0.789D-04-0.402D-03-0.139D-02 0.447D-03 0.750D-02
 Coeff-Com:  0.154D-01-0.366D-01-0.762D-01 0.173D+00 0.918D+00
 Coeff:     -0.475D-06 0.109D-05 0.145D-06-0.224D-05-0.130D-04 0.139D-04
 Coeff:      0.305D-04 0.789D-04-0.402D-03-0.139D-02 0.447D-03 0.750D-02
 Coeff:      0.154D-01-0.366D-01-0.762D-01 0.173D+00 0.918D+00
 Gap=     0.311 Goal=   None    Shift=    0.000
 Gap=     0.311 Goal=   None    Shift=    0.000
 RMSDP=1.07D-08 MaxDP=3.67D-07 DE=-6.14D-11 OVMax= 1.93D-06

 Cycle  18  Pass 1  IDiag  1:
 RMSU=  5.72D-09    CP:  8.87D-01  2.35D+00  1.36D+00  2.66D+00  3.00D+00
                    CP:  3.00D+00  3.00D+00  1.98D+00  1.49D+00  1.50D+00
                    CP:  1.38D+00  1.68D+00  2.11D+00  2.00D+00  1.83D+00
                    CP:  1.37D+00  1.25D+00
 E= -466.857541087008     Delta-E=       -0.000000000010 Rises=F Damp=F
 DIIS: error= 3.22D-08 at cycle  18 NSaved=  18.
 NSaved=18 IEnMin=18 EnMin= -466.857541087008     IErMin=18 ErrMin= 3.22D-08
 ErrMax= 3.22D-08  0.00D+00 EMaxC= 1.00D-01 BMatC= 8.95D-13 BMatP= 8.85D-12
 IDIUse=1 WtCom= 1.00D+00 WtEn= 0.00D+00
 Coeff-Com: -0.948D-06 0.204D-05 0.766D-06-0.129D-04 0.811D-06 0.418D-04
 Coeff-Com: -0.333D-04-0.727D-04 0.612D-04 0.470D-03-0.589D-03-0.338D-02
 Coeff-Com:  0.895D-02 0.550D-02-0.313D-01-0.705D-01 0.106D+00 0.985D+00
 Coeff:     -0.948D-06 0.204D-05 0.766D-06-0.129D-04 0.811D-06 0.418D-04
 Coeff:     -0.333D-04-0.727D-04 0.612D-04 0.470D-03-0.589D-03-0.338D-02
 Coeff:      0.895D-02 0.550D-02-0.313D-01-0.705D-01 0.106D+00 0.985D+00
 Gap=     0.311 Goal=   None    Shift=    0.000
 Gap=     0.311 Goal=   None    Shift=    0.000
 RMSDP=3.38D-09 MaxDP=1.25D-07 DE=-9.89D-12 OVMax= 5.03D-07

 Error on total polarization charges =  0.01182
 SCF Done:  E(UwB97XD) =  -466.857541087     A.U. after   18 cycles
            NFock= 18  Conv=0.34D-08     -V/T= 2.0058
 <Sx>= 0.0000 <Sy>= 0.0000 <Sz>= 0.0000 <S**2>= 0.0000 S= 0.0000
 <L.S>=  0.00000000000    
 KE= 4.641707572925D+02 PE=-2.432197778518D+03 EE= 8.259471240471D+02
 --------------------------------------------------------------------
 Variational PCM results
 =======================
 <psi(f)|   H    |psi(f)>                     (a.u.) =    -466.856014
 <psi(f)|H+V(f)/2|psi(f)>                     (a.u.) =    -466.857541
 (Polarized solute)-Solvent               (kcal/mol) =      -0.96
 --------------------------------------------------------------------
 Partition over spheres:
 Sphere  on Atom  Surface  Charge   GEl     GCav    GDR
    1      C1       7.08   0.010   -0.05    0.00    0.00
    2      C2       4.96   0.007   -0.04    0.00    0.00
    3      H3       7.52  -0.010   -0.04    0.00    0.00
    4      H4       3.24  -0.004   -0.01    0.00    0.00
    5      C5       4.55   0.009   -0.06    0.00    0.00
    6      C6       4.79   0.007   -0.04    0.00    0.00
    7      H7       4.59  -0.006   -0.03    0.00    0.00
    8      H8       4.06  -0.005   -0.01    0.00    0.00
    9      C9       3.11   0.002    0.00    0.00    0.00
   10      H10      6.99  -0.007   -0.01    0.00    0.00
   11      H11      2.68  -0.002   -0.01    0.00    0.00
   12      C12      6.35   0.010   -0.06    0.00    0.00
   13      H13      7.52  -0.010   -0.03    0.00    0.00
   14      C14      7.27   0.010   -0.05    0.00    0.00
   15      H15      7.52  -0.010   -0.04    0.00    0.00
   16      C16      3.67   0.001    0.00    0.00    0.00
   17      H17      3.11  -0.003   -0.01    0.00    0.00
   18      H18      6.96  -0.008   -0.03    0.00    0.00
   19      C19      5.10   0.009   -0.06    0.00    0.00
   20      H20      5.36  -0.008   -0.03    0.00    0.00
   21      C21      6.21   0.010   -0.06    0.00    0.00
   22      H22      7.51  -0.010   -0.03    0.00    0.00
   23      C23      3.80   0.002    0.00    0.00    0.00
   24      H24      4.02  -0.003   -0.01    0.00    0.00
   25      H25      6.90  -0.007   -0.01    0.00    0.00
   26      C26      3.46   0.001    0.00    0.00    0.00
   27      H27      7.06  -0.008   -0.03    0.00    0.00
   28      H28      3.18  -0.003   -0.01    0.00    0.00
 Added spheres:    74.08   0.012   -0.21    0.00    0.00
 --------------------------------------------------------------------
 After PCM corrections, the energy is  -466.857541087     a.u.
 --------------------------------------------------------------------
 Annihilation of the first spin contaminant:
 S**2 before annihilation     0.0000,   after     0.0000
 Leave Link  502 at Mon Aug  3 14:38:23 2020, MaxMem=  6442450944 cpu:            7446.4 elap:             313.0
 (Enter /scratch/scicomp/CentOS/7.3.1611/Haswell/software/Gaussian/g16/l601.exe)
 Copying SCF densities to generalized density rwf, IOpCl= 1 IROHF=0.

 **********************************************************************

            Population analysis using the SCF Density.

 **********************************************************************

 Alpha  occ. eigenvalues --  -10.28537 -10.28537 -10.28312 -10.28311 -10.28308
 Alpha  occ. eigenvalues --  -10.28308 -10.28215 -10.28214 -10.28021 -10.28021
 Alpha  occ. eigenvalues --  -10.27612 -10.27612  -0.94228  -0.93658  -0.84317
 Alpha  occ. eigenvalues --   -0.84211  -0.83879  -0.83748  -0.71484  -0.71248
 Alpha  occ. eigenvalues --   -0.68045  -0.67973  -0.59811  -0.59664  -0.57435
 Alpha  occ. eigenvalues --   -0.56737  -0.53670  -0.52829  -0.51021  -0.50977
 Alpha  occ. eigenvalues --   -0.49950  -0.49463  -0.47419  -0.46959  -0.45260
 Alpha  occ. eigenvalues --   -0.45109  -0.41344  -0.41062  -0.39786  -0.39342
 Alpha  occ. eigenvalues --   -0.39280  -0.39035  -0.29860  -0.27639
 Alpha virt. eigenvalues --    0.03479   0.04916   0.10513   0.12263   0.13347
 Alpha virt. eigenvalues --    0.14442   0.14821   0.15623   0.15677   0.15845
 Alpha virt. eigenvalues --    0.16784   0.16898   0.17166   0.18204   0.19948
 Alpha virt. eigenvalues --    0.21113   0.21370   0.22844   0.23567   0.23614
 Alpha virt. eigenvalues --    0.24680   0.25494   0.25748   0.26778   0.28090
 Alpha virt. eigenvalues --    0.28095   0.28934   0.29286   0.29989   0.30544
 Alpha virt. eigenvalues --    0.31411   0.31546   0.32245   0.32399   0.33258
 Alpha virt. eigenvalues --    0.33673   0.34186   0.35507   0.35907   0.37253
 Alpha virt. eigenvalues --    0.37695   0.39047   0.39460   0.41185   0.41359
 Alpha virt. eigenvalues --    0.41576   0.43529   0.43977   0.45087   0.45800
 Alpha virt. eigenvalues --    0.46378   0.46549   0.47657   0.47809   0.48375
 Alpha virt. eigenvalues --    0.48512   0.48867   0.49144   0.49572   0.49921
 Alpha virt. eigenvalues --    0.50306   0.50392   0.51662   0.51945   0.52540
 Alpha virt. eigenvalues --    0.53036   0.53921   0.54148   0.54689   0.55018
 Alpha virt. eigenvalues --    0.56849   0.57435   0.57805   0.58676   0.59625
 Alpha virt. eigenvalues --    0.59987   0.60624   0.62410   0.62776   0.64469
 Alpha virt. eigenvalues --    0.65490   0.66804   0.67799   0.68234   0.68562
 Alpha virt. eigenvalues --    0.70474   0.72398   0.72473   0.73421   0.74613
 Alpha virt. eigenvalues --    0.76992   0.78209   0.78244   0.80283   0.80423
 Alpha virt. eigenvalues --    0.81516   0.82239   0.82997   0.87450   0.87949
 Alpha virt. eigenvalues --    0.88534   0.89848   0.90077   0.91469   0.92651
 Alpha virt. eigenvalues --    0.92739   0.94862   0.96204   0.98451   0.98709
 Alpha virt. eigenvalues --    1.00585   1.03543   1.04546   1.04686   1.04731
 Alpha virt. eigenvalues --    1.06454   1.07573   1.07697   1.08773   1.11415
 Alpha virt. eigenvalues --    1.12812   1.13527   1.14055   1.14775   1.15621
 Alpha virt. eigenvalues --    1.15862   1.16777   1.17289   1.18695   1.20394
 Alpha virt. eigenvalues --    1.20569   1.21456   1.24172   1.24273   1.24623
 Alpha virt. eigenvalues --    1.25285   1.25838   1.27027   1.27763   1.28501
 Alpha virt. eigenvalues --    1.28896   1.30750   1.31504   1.32488   1.32592
 Alpha virt. eigenvalues --    1.33936   1.34670   1.37055   1.37078   1.37640
 Alpha virt. eigenvalues --    1.38629   1.39237   1.40424   1.41100   1.41546
 Alpha virt. eigenvalues --    1.42808   1.43281   1.43555   1.43733   1.45003
 Alpha virt. eigenvalues --    1.45798   1.46803   1.46819   1.47577   1.48176
 Alpha virt. eigenvalues --    1.49296   1.50756   1.51320   1.54084   1.55696
 Alpha virt. eigenvalues --    1.57058   1.57991   1.58534   1.59340   1.61102
 Alpha virt. eigenvalues --    1.61655   1.63131   1.63509   1.65766   1.67685
 Alpha virt. eigenvalues --    1.68492   1.70346   1.72026   1.74236   1.77750
 Alpha virt. eigenvalues --    1.77946   1.80361   1.80447   1.83842   1.83964
 Alpha virt. eigenvalues --    1.86358   1.87614   1.90093   1.91001   1.91567
 Alpha virt. eigenvalues --    1.92930   1.96774   1.98615   2.00408   2.01108
 Alpha virt. eigenvalues --    2.03766   2.04237   2.06698   2.08366   2.08680
 Alpha virt. eigenvalues --    2.09601   2.11780   2.12838   2.13474   2.15431
 Alpha virt. eigenvalues --    2.17750   2.19915   2.20425   2.21072   2.22479
 Alpha virt. eigenvalues --    2.23119   2.24622   2.25037   2.26825   2.26826
 Alpha virt. eigenvalues --    2.30691   2.34905   2.37340   2.38446   2.41207
 Alpha virt. eigenvalues --    2.43292   2.45112   2.45583   2.49099   2.49913
 Alpha virt. eigenvalues --    2.49943   2.50561   2.53609   2.54323   2.55244
 Alpha virt. eigenvalues --    2.55761   2.57680   2.58281   2.60919   2.61666
 Alpha virt. eigenvalues --    2.62436   2.64617   2.64772   2.65254   2.66051
 Alpha virt. eigenvalues --    2.66852   2.67771   2.70747   2.72243   2.72660
 Alpha virt. eigenvalues --    2.73215   2.73533   2.74731   2.75816   2.76923
 Alpha virt. eigenvalues --    2.77445   2.78531   2.79511   2.80689   2.81100
 Alpha virt. eigenvalues --    2.81176   2.82605   2.82881   2.83899   2.85042
 Alpha virt. eigenvalues --    2.85847   2.86408   2.87211   2.87709   2.89905
 Alpha virt. eigenvalues --    2.90775   2.90960   2.92479   2.92569   2.93937
 Alpha virt. eigenvalues --    2.94863   2.95385   2.95582   2.96471   3.00461
 Alpha virt. eigenvalues --    3.01320   3.02178   3.03074   3.04602   3.05916
 Alpha virt. eigenvalues --    3.07377   3.09135   3.09579   3.09866   3.10327
 Alpha virt. eigenvalues --    3.11801   3.13006   3.13343   3.14500   3.15112
 Alpha virt. eigenvalues --    3.15284   3.16606   3.17102   3.18616   3.19213
 Alpha virt. eigenvalues --    3.19885   3.20138   3.20502   3.20837   3.21595
 Alpha virt. eigenvalues --    3.21889   3.22774   3.23316   3.23859   3.24170
 Alpha virt. eigenvalues --    3.25810   3.26120   3.26535   3.26745   3.27967
 Alpha virt. eigenvalues --    3.28020   3.30301   3.30661   3.31406   3.31487
 Alpha virt. eigenvalues --    3.32428   3.32794   3.33314   3.33866   3.34178
 Alpha virt. eigenvalues --    3.35596   3.35933   3.36479   3.37701   3.38907
 Alpha virt. eigenvalues --    3.39100   3.41506   3.42684   3.43254   3.43833
 Alpha virt. eigenvalues --    3.45153   3.45436   3.46514   3.46691   3.46983
 Alpha virt. eigenvalues --    3.48217   3.49349   3.49800   3.50516   3.51167
 Alpha virt. eigenvalues --    3.51792   3.53085   3.53305   3.54903   3.54938
 Alpha virt. eigenvalues --    3.56983   3.57394   3.57611   3.59981   3.64541
 Alpha virt. eigenvalues --    3.65091   3.65468   3.65625   3.67000   3.67778
 Alpha virt. eigenvalues --    3.68400   3.68820   3.71554   3.71885   3.73604
 Alpha virt. eigenvalues --    3.76274   3.76345   3.78268   3.80404   3.81841
 Alpha virt. eigenvalues --    3.84967   3.85577   3.85693   3.86425   3.86610
 Alpha virt. eigenvalues --    3.88644   3.91253   3.91777   3.93898   3.94622
 Alpha virt. eigenvalues --    3.96395   3.97455   4.01186   4.01296   4.03595
 Alpha virt. eigenvalues --    4.05459   4.08076   4.08828   4.08955   4.10456
 Alpha virt. eigenvalues --    4.11833   4.12936   4.14234   4.14994   4.18309
 Alpha virt. eigenvalues --    4.18457   4.19990   4.20628   4.23276   4.24756
 Alpha virt. eigenvalues --    4.24973   4.27349   4.30702   4.30947   4.34263
 Alpha virt. eigenvalues --    4.34968   4.38291   4.38553   4.39264   4.42049
 Alpha virt. eigenvalues --    4.43011   4.44006   4.47224   4.48723   4.51088
 Alpha virt. eigenvalues --    4.52778   4.58908   4.61063   4.63444   4.67008
 Alpha virt. eigenvalues --    4.67811   4.68890   4.72895   4.73495   4.76055
 Alpha virt. eigenvalues --    4.76744   4.79348   4.79975   4.83015   4.84526
 Alpha virt. eigenvalues --    4.85168   4.85891   4.90549   4.93576   4.93995
 Alpha virt. eigenvalues --    4.94606   4.97331   4.99439   5.06520   5.07729
 Alpha virt. eigenvalues --    5.13504   5.14416   5.19280   5.19487   5.22626
 Alpha virt. eigenvalues --    5.23205   5.31946   5.32638   5.41101   5.41756
 Alpha virt. eigenvalues --    5.43246   5.44424   5.49848   5.50612   5.68605
 Alpha virt. eigenvalues --    5.70925   5.76013   5.78640   5.94187   6.01700
 Alpha virt. eigenvalues --    7.93908   7.95369   8.01110   8.04653   8.05518
 Alpha virt. eigenvalues --    8.07448   8.09808   8.11852   8.17785   8.18241
 Alpha virt. eigenvalues --    8.34917   8.35822  34.76080  34.77615  34.80910
 Alpha virt. eigenvalues --   34.81738  34.85763  34.88219  34.96488  34.98451
 Alpha virt. eigenvalues --   35.00950  35.01812  35.16019  35.18691
  Beta  occ. eigenvalues --  -10.28537 -10.28537 -10.28312 -10.28311 -10.28308
  Beta  occ. eigenvalues --  -10.28308 -10.28215 -10.28214 -10.28021 -10.28021
  Beta  occ. eigenvalues --  -10.27612 -10.27612  -0.94228  -0.93658  -0.84317
  Beta  occ. eigenvalues --   -0.84211  -0.83879  -0.83748  -0.71484  -0.71248
  Beta  occ. eigenvalues --   -0.68045  -0.67973  -0.59811  -0.59664  -0.57435
  Beta  occ. eigenvalues --   -0.56737  -0.53670  -0.52829  -0.51021  -0.50977
  Beta  occ. eigenvalues --   -0.49950  -0.49463  -0.47419  -0.46959  -0.45260
  Beta  occ. eigenvalues --   -0.45109  -0.41344  -0.41062  -0.39786  -0.39342
  Beta  occ. eigenvalues --   -0.39280  -0.39035  -0.29860  -0.27639
  Beta virt. eigenvalues --    0.03479   0.04916   0.10513   0.12263   0.13347
  Beta virt. eigenvalues --    0.14442   0.14821   0.15623   0.15677   0.15845
  Beta virt. eigenvalues --    0.16784   0.16898   0.17166   0.18204   0.19948
  Beta virt. eigenvalues --    0.21113   0.21370   0.22844   0.23567   0.23614
  Beta virt. eigenvalues --    0.24680   0.25494   0.25748   0.26778   0.28090
  Beta virt. eigenvalues --    0.28095   0.28934   0.29286   0.29989   0.30544
  Beta virt. eigenvalues --    0.31411   0.31546   0.32245   0.32399   0.33258
  Beta virt. eigenvalues --    0.33673   0.34186   0.35507   0.35907   0.37253
  Beta virt. eigenvalues --    0.37695   0.39047   0.39460   0.41185   0.41359
  Beta virt. eigenvalues --    0.41576   0.43529   0.43977   0.45087   0.45800
  Beta virt. eigenvalues --    0.46378   0.46549   0.47657   0.47809   0.48375
  Beta virt. eigenvalues --    0.48512   0.48867   0.49144   0.49572   0.49921
  Beta virt. eigenvalues --    0.50306   0.50392   0.51662   0.51945   0.52540
  Beta virt. eigenvalues --    0.53036   0.53921   0.54148   0.54689   0.55018
  Beta virt. eigenvalues --    0.56849   0.57435   0.57805   0.58676   0.59625
  Beta virt. eigenvalues --    0.59987   0.60624   0.62410   0.62776   0.64469
  Beta virt. eigenvalues --    0.65490   0.66804   0.67799   0.68234   0.68562
  Beta virt. eigenvalues --    0.70474   0.72398   0.72473   0.73421   0.74613
  Beta virt. eigenvalues --    0.76992   0.78209   0.78244   0.80283   0.80423
  Beta virt. eigenvalues --    0.81516   0.82239   0.82997   0.87450   0.87949
  Beta virt. eigenvalues --    0.88534   0.89848   0.90077   0.91469   0.92651
  Beta virt. eigenvalues --    0.92739   0.94862   0.96204   0.98451   0.98709
  Beta virt. eigenvalues --    1.00585   1.03543   1.04546   1.04686   1.04731
  Beta virt. eigenvalues --    1.06454   1.07573   1.07697   1.08773   1.11415
  Beta virt. eigenvalues --    1.12812   1.13527   1.14055   1.14775   1.15621
  Beta virt. eigenvalues --    1.15862   1.16777   1.17289   1.18695   1.20394
  Beta virt. eigenvalues --    1.20569   1.21456   1.24172   1.24273   1.24623
  Beta virt. eigenvalues --    1.25285   1.25838   1.27027   1.27763   1.28501
  Beta virt. eigenvalues --    1.28896   1.30750   1.31504   1.32488   1.32592
  Beta virt. eigenvalues --    1.33936   1.34670   1.37055   1.37078   1.37640
  Beta virt. eigenvalues --    1.38629   1.39237   1.40424   1.41100   1.41546
  Beta virt. eigenvalues --    1.42808   1.43281   1.43555   1.43733   1.45003
  Beta virt. eigenvalues --    1.45798   1.46803   1.46819   1.47577   1.48176
  Beta virt. eigenvalues --    1.49296   1.50756   1.51320   1.54084   1.55696
  Beta virt. eigenvalues --    1.57058   1.57991   1.58534   1.59340   1.61102
  Beta virt. eigenvalues --    1.61655   1.63131   1.63509   1.65766   1.67685
  Beta virt. eigenvalues --    1.68492   1.70346   1.72026   1.74236   1.77750
  Beta virt. eigenvalues --    1.77946   1.80361   1.80447   1.83842   1.83964
  Beta virt. eigenvalues --    1.86358   1.87614   1.90093   1.91001   1.91567
  Beta virt. eigenvalues --    1.92930   1.96774   1.98615   2.00408   2.01108
  Beta virt. eigenvalues --    2.03766   2.04237   2.06698   2.08366   2.08680
  Beta virt. eigenvalues --    2.09601   2.11780   2.12838   2.13474   2.15431
  Beta virt. eigenvalues --    2.17750   2.19915   2.20425   2.21072   2.22479
  Beta virt. eigenvalues --    2.23119   2.24622   2.25037   2.26825   2.26826
  Beta virt. eigenvalues --    2.30691   2.34905   2.37340   2.38446   2.41207
  Beta virt. eigenvalues --    2.43292   2.45112   2.45583   2.49099   2.49913
  Beta virt. eigenvalues --    2.49943   2.50561   2.53609   2.54323   2.55244
  Beta virt. eigenvalues --    2.55761   2.57680   2.58281   2.60919   2.61666
  Beta virt. eigenvalues --    2.62436   2.64617   2.64772   2.65254   2.66051
  Beta virt. eigenvalues --    2.66852   2.67771   2.70747   2.72243   2.72660
  Beta virt. eigenvalues --    2.73215   2.73533   2.74731   2.75816   2.76923
  Beta virt. eigenvalues --    2.77445   2.78531   2.79511   2.80689   2.81100
  Beta virt. eigenvalues --    2.81176   2.82605   2.82881   2.83899   2.85042
  Beta virt. eigenvalues --    2.85847   2.86408   2.87211   2.87709   2.89905
  Beta virt. eigenvalues --    2.90775   2.90960   2.92479   2.92569   2.93937
  Beta virt. eigenvalues --    2.94863   2.95385   2.95582   2.96471   3.00461
  Beta virt. eigenvalues --    3.01320   3.02178   3.03074   3.04602   3.05916
  Beta virt. eigenvalues --    3.07377   3.09135   3.09579   3.09866   3.10327
  Beta virt. eigenvalues --    3.11801   3.13006   3.13343   3.14500   3.15112
  Beta virt. eigenvalues --    3.15284   3.16606   3.17102   3.18616   3.19213
  Beta virt. eigenvalues --    3.19885   3.20138   3.20502   3.20837   3.21595
  Beta virt. eigenvalues --    3.21889   3.22774   3.23316   3.23859   3.24170
  Beta virt. eigenvalues --    3.25810   3.26120   3.26535   3.26745   3.27967
  Beta virt. eigenvalues --    3.28020   3.30301   3.30661   3.31406   3.31487
  Beta virt. eigenvalues --    3.32428   3.32794   3.33314   3.33866   3.34178
  Beta virt. eigenvalues --    3.35596   3.35933   3.36479   3.37701   3.38907
  Beta virt. eigenvalues --    3.39100   3.41506   3.42684   3.43254   3.43833
  Beta virt. eigenvalues --    3.45153   3.45436   3.46514   3.46691   3.46983
  Beta virt. eigenvalues --    3.48217   3.49349   3.49800   3.50516   3.51167
  Beta virt. eigenvalues --    3.51792   3.53085   3.53305   3.54903   3.54938
  Beta virt. eigenvalues --    3.56983   3.57394   3.57611   3.59981   3.64541
  Beta virt. eigenvalues --    3.65091   3.65468   3.65625   3.67000   3.67778
  Beta virt. eigenvalues --    3.68400   3.68820   3.71554   3.71885   3.73604
  Beta virt. eigenvalues --    3.76274   3.76345   3.78268   3.80404   3.81841
  Beta virt. eigenvalues --    3.84967   3.85577   3.85693   3.86425   3.86610
  Beta virt. eigenvalues --    3.88644   3.91253   3.91777   3.93898   3.94622
  Beta virt. eigenvalues --    3.96395   3.97455   4.01186   4.01296   4.03595
  Beta virt. eigenvalues --    4.05459   4.08076   4.08828   4.08955   4.10456
  Beta virt. eigenvalues --    4.11833   4.12936   4.14234   4.14994   4.18309
  Beta virt. eigenvalues --    4.18457   4.19990   4.20628   4.23276   4.24756
  Beta virt. eigenvalues --    4.24973   4.27349   4.30702   4.30947   4.34263
  Beta virt. eigenvalues --    4.34968   4.38291   4.38553   4.39264   4.42049
  Beta virt. eigenvalues --    4.43011   4.44006   4.47224   4.48723   4.51088
  Beta virt. eigenvalues --    4.52778   4.58908   4.61063   4.63444   4.67008
  Beta virt. eigenvalues --    4.67811   4.68890   4.72895   4.73495   4.76055
  Beta virt. eigenvalues --    4.76744   4.79348   4.79975   4.83015   4.84526
  Beta virt. eigenvalues --    4.85168   4.85891   4.90549   4.93576   4.93995
  Beta virt. eigenvalues --    4.94606   4.97331   4.99439   5.06520   5.07729
  Beta virt. eigenvalues --    5.13504   5.14416   5.19280   5.19487   5.22626
  Beta virt. eigenvalues --    5.23205   5.31946   5.32638   5.41101   5.41756
  Beta virt. eigenvalues --    5.43246   5.44424   5.49848   5.50612   5.68605
  Beta virt. eigenvalues --    5.70925   5.76013   5.78640   5.94187   6.01700
  Beta virt. eigenvalues --    7.93908   7.95369   8.01110   8.04653   8.05518
  Beta virt. eigenvalues --    8.07448   8.09808   8.11852   8.17785   8.18241
  Beta virt. eigenvalues --    8.34917   8.35822  34.76080  34.77615  34.80910
  Beta virt. eigenvalues --   34.81738  34.85763  34.88219  34.96488  34.98451
  Beta virt. eigenvalues --   35.00950  35.01812  35.16019  35.18691
          Condensed to atoms (all electrons):
               1          2          3          4          5          6
     1  C    5.121230   0.005956   0.424572  -0.001776   0.000719  -0.004384
     2  C    0.005956   5.295024  -0.002307   0.425372  -0.029391  -0.050766
     3  H    0.424572  -0.002307   0.498098   0.000035  -0.000046  -0.000002
     4  H   -0.001776   0.425372   0.000035   0.475759  -0.003395   0.003483
     5  C    0.000719  -0.029391  -0.000046  -0.003395   5.138101   0.530308
     6  C   -0.004384  -0.050766  -0.000002   0.003483   0.530308   5.295229
     7  H    0.000299  -0.001448   0.000001  -0.000097   0.424965  -0.028361
     8  H   -0.001305   0.003483  -0.000018   0.000016  -0.042275   0.425358
     9  C    0.001689  -0.001671  -0.000005  -0.001180  -0.065518   0.244319
    10  H   -0.000036   0.000108  -0.000001  -0.000099  -0.004567  -0.034096
    11  H    0.000103  -0.003598   0.000001   0.000097   0.007590  -0.055394
    12  C   -0.000136   0.008683   0.000002   0.001815   0.301878  -0.076623
    13  H   -0.000001   0.000010   0.000000   0.000017  -0.039713   0.005520
    14  C    0.000137  -0.004379  -0.000000  -0.001301  -0.058910   0.005933
    15  H   -0.000000  -0.000002  -0.000000  -0.000018   0.007718  -0.002303
    16  C   -0.000588   0.010565   0.000000   0.000311  -0.000832  -0.068342
    17  H   -0.000051  -0.000702  -0.000001  -0.001269   0.010281  -0.000868
    18  H    0.000003   0.000534   0.000000   0.000174  -0.002530   0.011124
    19  C   -0.058870   0.530371   0.007721  -0.042311  -0.007103  -0.029401
    20  H    0.004052  -0.028184  -0.000110  -0.005331   0.000308  -0.001449
    21  C    0.599262  -0.076650  -0.033870   0.005555   0.000965   0.008697
    22  H   -0.028676   0.005527  -0.006589  -0.000074   0.000021   0.000010
    23  C   -0.087873   0.244306   0.005753  -0.015518   0.005511  -0.001681
    24  H    0.012784  -0.055395  -0.000130  -0.004064   0.001208  -0.003603
    25  H    0.004970  -0.034134  -0.000037  -0.000155   0.000502   0.000108
    26  C    0.288076  -0.068311  -0.032043   0.004083  -0.004147   0.010568
    27  H   -0.036012   0.011121  -0.004501  -0.000129   0.000302   0.000534
    28  H   -0.034180  -0.000877   0.001459  -0.000153  -0.003635  -0.000710
               7          8          9         10         11         12
     1  C    0.000299  -0.001305   0.001689  -0.000036   0.000103  -0.000136
     2  C   -0.001448   0.003483  -0.001671   0.000108  -0.003598   0.008683
     3  H    0.000001  -0.000018  -0.000005  -0.000001   0.000001   0.000002
     4  H   -0.000097   0.000016  -0.001180  -0.000099   0.000097   0.001815
     5  C    0.424965  -0.042275  -0.065518  -0.004567   0.007590   0.301878
     6  C   -0.028361   0.425358   0.244319  -0.034096  -0.055394  -0.076623
     7  H    0.484203  -0.005325   0.003607  -0.000306  -0.000057  -0.032218
     8  H   -0.005325   0.475402  -0.015476  -0.000156  -0.004061   0.005546
     9  C    0.003607  -0.015476   4.949965   0.380434   0.453498   0.035592
    10  H   -0.000306  -0.000156   0.380434   0.580453  -0.022318   0.001854
    11  H   -0.000057  -0.004061   0.453498  -0.022318   0.541614  -0.003814
    12  C   -0.032218   0.005546   0.035592   0.001854  -0.003814   4.992421
    13  H   -0.003576  -0.000074  -0.000583  -0.000049   0.000036   0.427568
    14  C    0.004056  -0.001773  -0.087859   0.004972   0.012784   0.599357
    15  H   -0.000110   0.000035   0.005752  -0.000037  -0.000130  -0.033822
    16  C   -0.000894   0.004076   0.365820  -0.023650  -0.052672  -0.061482
    17  H    0.000016  -0.000153  -0.033999   0.007484  -0.009118  -0.015663
    18  H    0.000038  -0.000128  -0.042057  -0.009324  -0.000807   0.005583
    19  C    0.000309  -0.003395   0.005489   0.000502   0.001208   0.000971
    20  H    0.000009  -0.000097   0.002272   0.000188  -0.000892  -0.000162
    21  C   -0.000162   0.001819  -0.001064  -0.000001  -0.000068  -0.000230
    22  H   -0.000001   0.000017  -0.000057  -0.000001   0.000012   0.000000
    23  C    0.002268  -0.001178   0.000825  -0.000027   0.000163  -0.001065
    24  H   -0.000890   0.000098   0.000163  -0.000004  -0.000019  -0.000068
    25  H    0.000188  -0.000099  -0.000027   0.000003  -0.000004  -0.000001
    26  C   -0.001689   0.000308  -0.000889   0.000077  -0.000110   0.000721
    27  H   -0.000025   0.000174  -0.000027   0.000001  -0.000002  -0.000047
    28  H    0.001712  -0.001275   0.000435  -0.000012   0.000015   0.000505
              13         14         15         16         17         18
     1  C   -0.000001   0.000137  -0.000000  -0.000588  -0.000051   0.000003
     2  C    0.000010  -0.004379  -0.000002   0.010565  -0.000702   0.000534
     3  H    0.000000  -0.000000  -0.000000   0.000000  -0.000001   0.000000
     4  H    0.000017  -0.001301  -0.000018   0.000311  -0.001269   0.000174
     5  C   -0.039713  -0.058910   0.007718  -0.000832   0.010281  -0.002530
     6  C    0.005520   0.005933  -0.002303  -0.068342  -0.000868   0.011124
     7  H   -0.003576   0.004056  -0.000110  -0.000894   0.000016   0.000038
     8  H   -0.000074  -0.001773   0.000035   0.004076  -0.000153  -0.000128
     9  C   -0.000583  -0.087859   0.005752   0.365820  -0.033999  -0.042057
    10  H   -0.000049   0.004972  -0.000037  -0.023650   0.007484  -0.009324
    11  H    0.000036   0.012784  -0.000130  -0.052672  -0.009118  -0.000807
    12  C    0.427568   0.599357  -0.033822  -0.061482  -0.015663   0.005583
    13  H    0.495842  -0.028695  -0.006588   0.005283  -0.000417  -0.000137
    14  C   -0.028695   5.121029   0.424524   0.288105  -0.034186  -0.036022
    15  H   -0.006588   0.424524   0.498115  -0.032047   0.001460  -0.004502
    16  C    0.005283   0.288105  -0.032047   4.919623   0.397390   0.428890
    17  H   -0.000417  -0.034186   0.001460   0.397390   0.592749  -0.022880
    18  H   -0.000137  -0.036022  -0.004502   0.428890  -0.022880   0.546342
    19  C    0.000021   0.000717  -0.000046  -0.004142  -0.003647   0.000302
    20  H   -0.000001   0.000298   0.000001  -0.001692   0.001710  -0.000025
    21  C    0.000000  -0.000135   0.000002   0.000720   0.000504  -0.000047
    22  H    0.000000  -0.000001   0.000000   0.000014  -0.000002  -0.000001
    23  C   -0.000057   0.001686  -0.000005  -0.000888   0.000436  -0.000027
    24  H    0.000012   0.000104   0.000001  -0.000110   0.000015  -0.000002
    25  H   -0.000001  -0.000036  -0.000001   0.000077  -0.000012   0.000001
    26  C    0.000014  -0.000588   0.000000   0.000882   0.000095  -0.000003
    27  H   -0.000001   0.000003   0.000000  -0.000003   0.000002  -0.000000
    28  H   -0.000002  -0.000051  -0.000001   0.000095  -0.000024   0.000002
              19         20         21         22         23         24
     1  C   -0.058870   0.004052   0.599262  -0.028676  -0.087873   0.012784
     2  C    0.530371  -0.028184  -0.076650   0.005527   0.244306  -0.055395
     3  H    0.007721  -0.000110  -0.033870  -0.006589   0.005753  -0.000130
     4  H   -0.042311  -0.005331   0.005555  -0.000074  -0.015518  -0.004064
     5  C   -0.007103   0.000308   0.000965   0.000021   0.005511   0.001208
     6  C   -0.029401  -0.001449   0.008697   0.000010  -0.001681  -0.003603
     7  H    0.000309   0.000009  -0.000162  -0.000001   0.002268  -0.000890
     8  H   -0.003395  -0.000097   0.001819   0.000017  -0.001178   0.000098
     9  C    0.005489   0.002272  -0.001064  -0.000057   0.000825   0.000163
    10  H    0.000502   0.000188  -0.000001  -0.000001  -0.000027  -0.000004
    11  H    0.001208  -0.000892  -0.000068   0.000012   0.000163  -0.000019
    12  C    0.000971  -0.000162  -0.000230   0.000000  -0.001065  -0.000068
    13  H    0.000021  -0.000001   0.000000   0.000000  -0.000057   0.000012
    14  C    0.000717   0.000298  -0.000135  -0.000001   0.001686   0.000104
    15  H   -0.000046   0.000001   0.000002   0.000000  -0.000005   0.000001
    16  C   -0.004142  -0.001692   0.000720   0.000014  -0.000888  -0.000110
    17  H   -0.003647   0.001710   0.000504  -0.000002   0.000436   0.000015
    18  H    0.000302  -0.000025  -0.000047  -0.000001  -0.000027  -0.000002
    19  C    5.138242   0.424870   0.301746  -0.039746  -0.065544   0.007600
    20  H    0.424870   0.484017  -0.032270  -0.003571   0.003607  -0.000057
    21  C    0.301746  -0.032270   4.992514   0.427570   0.035598  -0.003814
    22  H   -0.039746  -0.003571   0.427570   0.495861  -0.000582   0.000036
    23  C   -0.065544   0.003607   0.035598  -0.000582   4.950086   0.453517
    24  H    0.007600  -0.000057  -0.003814   0.000036   0.453517   0.541503
    25  H   -0.004553  -0.000306   0.001852  -0.000049   0.380450  -0.022301
    26  C   -0.000865  -0.000895  -0.061466   0.005285   0.365823  -0.052674
    27  H   -0.002527   0.000038   0.005572  -0.000137  -0.042057  -0.000806
    28  H    0.010281   0.000016  -0.015647  -0.000417  -0.033992  -0.009115
              25         26         27         28
     1  C    0.004970   0.288076  -0.036012  -0.034180
     2  C   -0.034134  -0.068311   0.011121  -0.000877
     3  H   -0.000037  -0.032043  -0.004501   0.001459
     4  H   -0.000155   0.004083  -0.000129  -0.000153
     5  C    0.000502  -0.004147   0.000302  -0.003635
     6  C    0.000108   0.010568   0.000534  -0.000710
     7  H    0.000188  -0.001689  -0.000025   0.001712
     8  H   -0.000099   0.000308   0.000174  -0.001275
     9  C   -0.000027  -0.000889  -0.000027   0.000435
    10  H    0.000003   0.000077   0.000001  -0.000012
    11  H   -0.000004  -0.000110  -0.000002   0.000015
    12  C   -0.000001   0.000721  -0.000047   0.000505
    13  H   -0.000001   0.000014  -0.000001  -0.000002
    14  C   -0.000036  -0.000588   0.000003  -0.000051
    15  H   -0.000001   0.000000   0.000000  -0.000001
    16  C    0.000077   0.000882  -0.000003   0.000095
    17  H   -0.000012   0.000095   0.000002  -0.000024
    18  H    0.000001  -0.000003  -0.000000   0.000002
    19  C   -0.004553  -0.000865  -0.002527   0.010281
    20  H   -0.000306  -0.000895   0.000038   0.000016
    21  C    0.001852  -0.061466   0.005572  -0.015647
    22  H   -0.000049   0.005285  -0.000137  -0.000417
    23  C    0.380450   0.365823  -0.042057  -0.033992
    24  H   -0.022301  -0.052674  -0.000806  -0.009115
    25  H    0.580506  -0.023663  -0.009326   0.007483
    26  C   -0.023663   4.919585   0.428886   0.397399
    27  H   -0.009326   0.428886   0.546326  -0.022874
    28  H    0.007483   0.397399  -0.022874   0.592682
          Atomic-Atomic Spin Densities.
               1          2          3          4          5          6
     1  C    0.000000   0.000000  -0.000000  -0.000000  -0.000000  -0.000000
     2  C    0.000000  -0.000000  -0.000000  -0.000000   0.000000   0.000000
     3  H   -0.000000  -0.000000  -0.000000   0.000000   0.000000  -0.000000
     4  H   -0.000000  -0.000000   0.000000   0.000000  -0.000000   0.000000
     5  C   -0.000000   0.000000   0.000000  -0.000000   0.000000  -0.000000
     6  C   -0.000000   0.000000  -0.000000   0.000000  -0.000000  -0.000000
     7  H    0.000000  -0.000000  -0.000000   0.000000   0.000000   0.000000
     8  H   -0.000000  -0.000000   0.000000   0.000000  -0.000000   0.000000
     9  C    0.000000  -0.000000   0.000000   0.000000  -0.000000  -0.000000
    10  H   -0.000000   0.000000   0.000000  -0.000000   0.000000  -0.000000
    11  H   -0.000000   0.000000  -0.000000  -0.000000  -0.000000   0.000000
    12  C    0.000000  -0.000000  -0.000000   0.000000   0.000000  -0.000000
    13  H    0.000000  -0.000000  -0.000000  -0.000000  -0.000000   0.000000
    14  C    0.000000   0.000000   0.000000   0.000000   0.000000  -0.000000
    15  H   -0.000000   0.000000   0.000000  -0.000000   0.000000   0.000000
    16  C    0.000000  -0.000000  -0.000000  -0.000000   0.000000   0.000000
    17  H   -0.000000   0.000000   0.000000  -0.000000  -0.000000   0.000000
    18  H    0.000000  -0.000000  -0.000000  -0.000000   0.000000   0.000000
    19  C   -0.000000  -0.000000  -0.000000   0.000000   0.000000  -0.000000
    20  H    0.000000  -0.000000  -0.000000  -0.000000   0.000000   0.000000
    21  C   -0.000000   0.000000  -0.000000   0.000000  -0.000000   0.000000
    22  H    0.000000  -0.000000   0.000000   0.000000  -0.000000   0.000000
    23  C    0.000000   0.000000  -0.000000   0.000000   0.000000   0.000000
    24  H    0.000000  -0.000000   0.000000   0.000000  -0.000000  -0.000000
    25  H    0.000000   0.000000  -0.000000  -0.000000   0.000000  -0.000000
    26  C   -0.000000  -0.000000   0.000000   0.000000  -0.000000   0.000000
    27  H   -0.000000  -0.000000   0.000000  -0.000000  -0.000000  -0.000000
    28  H   -0.000000  -0.000000   0.000000  -0.000000   0.000000  -0.000000
               7          8          9         10         11         12
     1  C    0.000000  -0.000000   0.000000  -0.000000  -0.000000   0.000000
     2  C   -0.000000  -0.000000  -0.000000   0.000000   0.000000  -0.000000
     3  H   -0.000000   0.000000   0.000000   0.000000  -0.000000  -0.000000
     4  H    0.000000   0.000000   0.000000  -0.000000  -0.000000   0.000000
     5  C    0.000000  -0.000000  -0.000000   0.000000  -0.000000   0.000000
     6  C    0.000000   0.000000  -0.000000  -0.000000   0.000000  -0.000000
     7  H   -0.000000   0.000000  -0.000000   0.000000   0.000000   0.000000
     8  H    0.000000   0.000000  -0.000000   0.000000  -0.000000  -0.000000
     9  C   -0.000000  -0.000000   0.000001   0.000000  -0.000000   0.000000
    10  H    0.000000   0.000000   0.000000  -0.000000   0.000000  -0.000000
    11  H    0.000000  -0.000000  -0.000000   0.000000  -0.000000   0.000000
    12  C    0.000000  -0.000000   0.000000  -0.000000   0.000000  -0.000000
    13  H   -0.000000  -0.000000  -0.000000   0.000000   0.000000   0.000000
    14  C   -0.000000   0.000000  -0.000000  -0.000000  -0.000000   0.000000
    15  H    0.000000  -0.000000   0.000000   0.000000   0.000000   0.000000
    16  C    0.000000  -0.000000  -0.000000   0.000000   0.000000  -0.000000
    17  H    0.000000   0.000000  -0.000000  -0.000000   0.000000  -0.000000
    18  H   -0.000000   0.000000  -0.000000   0.000000   0.000000   0.000000
    19  C   -0.000000  -0.000000  -0.000000  -0.000000   0.000000   0.000000
    20  H   -0.000000  -0.000000  -0.000000   0.000000  -0.000000  -0.000000
    21  C    0.000000   0.000000   0.000000   0.000000  -0.000000   0.000000
    22  H    0.000000   0.000000   0.000000  -0.000000  -0.000000  -0.000000
    23  C    0.000000  -0.000000   0.000000   0.000000  -0.000000  -0.000000
    24  H    0.000000   0.000000   0.000000  -0.000000  -0.000000   0.000000
    25  H   -0.000000   0.000000  -0.000000   0.000000   0.000000  -0.000000
    26  C    0.000000   0.000000  -0.000000  -0.000000  -0.000000   0.000000
    27  H    0.000000   0.000000   0.000000  -0.000000   0.000000   0.000000
    28  H   -0.000000   0.000000  -0.000000   0.000000   0.000000  -0.000000
              13         14         15         16         17         18
     1  C    0.000000   0.000000  -0.000000   0.000000  -0.000000   0.000000
     2  C   -0.000000   0.000000   0.000000  -0.000000   0.000000  -0.000000
     3  H   -0.000000   0.000000   0.000000  -0.000000   0.000000  -0.000000
     4  H   -0.000000   0.000000  -0.000000  -0.000000  -0.000000  -0.000000
     5  C   -0.000000   0.000000   0.000000   0.000000  -0.000000   0.000000
     6  C    0.000000  -0.000000   0.000000   0.000000   0.000000   0.000000
     7  H   -0.000000  -0.000000   0.000000   0.000000   0.000000  -0.000000
     8  H   -0.000000   0.000000  -0.000000  -0.000000   0.000000   0.000000
     9  C   -0.000000  -0.000000   0.000000  -0.000000  -0.000000  -0.000000
    10  H    0.000000  -0.000000   0.000000   0.000000  -0.000000   0.000000
    11  H    0.000000  -0.000000   0.000000   0.000000   0.000000   0.000000
    12  C    0.000000   0.000000   0.000000  -0.000000  -0.000000   0.000000
    13  H    0.000000  -0.000000  -0.000000   0.000000   0.000000  -0.000000
    14  C   -0.000000  -0.000000   0.000000   0.000000  -0.000000   0.000000
    15  H   -0.000000   0.000000   0.000000  -0.000000  -0.000000  -0.000000
    16  C    0.000000   0.000000  -0.000000  -0.000000   0.000000   0.000000
    17  H    0.000000  -0.000000  -0.000000   0.000000   0.000000  -0.000000
    18  H   -0.000000   0.000000  -0.000000   0.000000  -0.000000   0.000000
    19  C    0.000000   0.000000  -0.000000   0.000000  -0.000000   0.000000
    20  H   -0.000000  -0.000000   0.000000  -0.000000   0.000000  -0.000000
    21  C    0.000000  -0.000000   0.000000  -0.000000   0.000000  -0.000000
    22  H    0.000000   0.000000   0.000000  -0.000000   0.000000  -0.000000
    23  C   -0.000000  -0.000000  -0.000000   0.000000   0.000000  -0.000000
    24  H    0.000000   0.000000   0.000000   0.000000  -0.000000  -0.000000
    25  H    0.000000   0.000000  -0.000000   0.000000  -0.000000   0.000000
    26  C    0.000000  -0.000000   0.000000   0.000000  -0.000000  -0.000000
    27  H    0.000000  -0.000000   0.000000   0.000000  -0.000000  -0.000000
    28  H   -0.000000   0.000000  -0.000000   0.000000  -0.000000   0.000000
              19         20         21         22         23         24
     1  C   -0.000000   0.000000  -0.000000   0.000000   0.000000   0.000000
     2  C   -0.000000  -0.000000   0.000000  -0.000000   0.000000  -0.000000
     3  H   -0.000000  -0.000000  -0.000000   0.000000  -0.000000   0.000000
     4  H    0.000000  -0.000000   0.000000   0.000000   0.000000   0.000000
[...]
     1  C    0.000000  -0.000000  -0.000000  -0.000000
     2  C    0.000000  -0.000000  -0.000000  -0.000000
     3  H   -0.000000   0.000000   0.000000   0.000000
     4  H   -0.000000   0.000000  -0.000000  -0.000000
     5  C    0.000000  -0.000000  -0.000000   0.000000
     6  C   -0.000000   0.000000  -0.000000  -0.000000
     7  H   -0.000000   0.000000   0.000000  -0.000000
     8  H    0.000000   0.000000   0.000000   0.000000
     9  C   -0.000000  -0.000000   0.000000  -0.000000
    10  H    0.000000  -0.000000  -0.000000   0.000000
    11  H    0.000000  -0.000000   0.000000   0.000000
    12  C   -0.000000   0.000000   0.000000  -0.000000
    13  H    0.000000   0.000000   0.000000  -0.000000
    14  C    0.000000  -0.000000  -0.000000   0.000000
    15  H   -0.000000   0.000000   0.000000  -0.000000
    16  C    0.000000   0.000000   0.000000   0.000000
    17  H   -0.000000  -0.000000  -0.000000  -0.000000
    18  H    0.000000  -0.000000  -0.000000   0.000000
    19  C   -0.000000  -0.000000  -0.000000   0.000000
    20  H   -0.000000  -0.000000   0.000000  -0.000000
    21  C    0.000000   0.000000  -0.000000   0.000000
    22  H   -0.000000  -0.000000   0.000000  -0.000000
    23  C   -0.000000   0.000000   0.000000   0.000000
    24  H   -0.000000  -0.000000  -0.000000  -0.000000
    25  H    0.000000  -0.000000  -0.000000   0.000000
    26  C   -0.000000   0.000000  -0.000000  -0.000000
    27  H   -0.000000  -0.000000  -0.000000   0.000000
    28  H    0.000000  -0.000000   0.000000   0.000000
 Mulliken charges and spin densities:
               1          2
     1  C   -0.209964   0.000000
     2  C   -0.183246  -0.000000
     3  H    0.142019  -0.000000
     4  H    0.160152   0.000000
     5  C   -0.168314   0.000000
     6  C   -0.183208  -0.000000
     7  H    0.153488  -0.000000
     8  H    0.160455   0.000000
     9  C   -0.199448   0.000001
    10  H    0.118607  -0.000000
    11  H    0.135943  -0.000000
    12  C   -0.157165  -0.000000
    13  H    0.145571   0.000000
    14  C   -0.209769  -0.000000
    15  H    0.142006   0.000000
    16  C   -0.174510  -0.000000
    17  H    0.110851   0.000000
    18  H    0.125501   0.000000
    19  C   -0.168200   0.000000
    20  H    0.153656   0.000000
    21  C   -0.156952  -0.000000
    22  H    0.145551  -0.000000
    23  C   -0.199534  -0.000001
    24  H    0.136011   0.000000
    25  H    0.118564   0.000000
    26  C   -0.174461   0.000000
    27  H    0.125516  -0.000000
    28  H    0.110880  -0.000000
 Sum of Mulliken charges =  -0.00000  -0.00000
 Mulliken charges and spin densities with hydrogens summed into heavy atoms:
               1          2
     1  C   -0.067945   0.000000
     2  C   -0.023094  -0.000000
     5  C   -0.014826   0.000000
     6  C   -0.022752  -0.000000
     9  C    0.055102   0.000000
    12  C   -0.011595   0.000000
    14  C   -0.067764  -0.000000
    16  C    0.061842  -0.000000
    19  C   -0.014544   0.000000
    21  C   -0.011401  -0.000000
    23  C    0.055041  -0.000000
    26  C    0.061935   0.000000
 Electronic spatial extent (au):  <R**2>=           2305.2662
 Charge=              0.0000 electrons
 Dipole moment (field-independent basis, Debye):
    X=             -0.0005    Y=              0.0003    Z=              0.0005  Tot=              0.0008
 Quadrupole moment (field-independent basis, Debye-Ang):
   XX=            -72.4439   YY=            -69.8066   ZZ=            -76.8621
   XY=             -3.2939   XZ=             -3.7955   YZ=             -1.7309
 Traceless Quadrupole moment (field-independent basis, Debye-Ang):
   XX=              0.5936   YY=              3.2310   ZZ=             -3.8246
   XY=             -3.2939   XZ=             -3.7955   YZ=             -1.7309
 Octapole moment (field-independent basis, Debye-Ang**2):
  XXX=             -0.0111  YYY=              0.0022  ZZZ=              0.0038  XYY=              0.0016
  XXY=              0.0041  XXZ=              0.0021  XZZ=              0.0001  YZZ=             -0.0006
  YYZ=             -0.0014  XYZ=             -0.0013
 Hexadecapole moment (field-independent basis, Debye-Ang**3):
 XXXX=          -2102.5363 YYYY=           -629.9801 ZZZZ=           -419.8298 XXXY=           -115.5649
 XXXZ=           -156.0176 YYYX=            -66.7907 YYYZ=             -6.8036 ZZZX=           -101.2220
 ZZZY=            -19.0094 XXYY=           -451.9728 XXZZ=           -441.2973 YYZZ=           -190.1547
 XXYZ=            -24.9274 YYXZ=            -36.6834 ZZXY=            -46.6364
 N-N= 6.752223560911D+02 E-N=-2.432197780098D+03  KE= 4.641707572925D+02
                          Isotropic Fermi Contact Couplings
        Atom                 a.u.       MegaHertz       Gauss      10(-4) cm-1
     1  C(13)              0.00000       0.00002       0.00001       0.00001
     2  C(13)              0.00000       0.00001       0.00000       0.00000
     3  H(1)              -0.00000      -0.00001      -0.00001      -0.00000
     4  H(1)              -0.00000      -0.00001      -0.00000      -0.00000
     5  C(13)              0.00000       0.00005       0.00002       0.00002
     6  C(13)             -0.00000      -0.00003      -0.00001      -0.00001
     7  H(1)              -0.00000      -0.00009      -0.00003      -0.00003
     8  H(1)               0.00000       0.00002       0.00001       0.00001
     9  C(13)              0.00000       0.00014       0.00005       0.00005
    10  H(1)              -0.00000      -0.00008      -0.00003      -0.00003
    11  H(1)              -0.00000      -0.00009      -0.00003      -0.00003
    12  C(13)             -0.00000      -0.00005      -0.00002      -0.00002
    13  H(1)               0.00000       0.00007       0.00003       0.00002
    14  C(13)             -0.00000      -0.00000      -0.00000      -0.00000
    15  H(1)               0.00000       0.00000       0.00000       0.00000
    16  C(13)             -0.00000      -0.00008      -0.00003      -0.00003
    17  H(1)               0.00000       0.00002       0.00001       0.00001
    18  H(1)               0.00000       0.00001       0.00000       0.00000
    19  C(13)             -0.00000      -0.00003      -0.00001      -0.00001
    20  H(1)               0.00000       0.00008       0.00003       0.00003
    21  C(13)              0.00000       0.00003       0.00001       0.00001
    22  H(1)              -0.00000      -0.00006      -0.00002      -0.00002
    23  C(13)             -0.00000      -0.00014      -0.00005      -0.00005
    24  H(1)               0.00000       0.00009       0.00003       0.00003
    25  H(1)               0.00000       0.00006       0.00002       0.00002
    26  C(13)              0.00000       0.00007       0.00002       0.00002
    27  H(1)              -0.00000      -0.00001      -0.00000      -0.00000
    28  H(1)              -0.00000      -0.00000      -0.00000      -0.00000
 --------------------------------------------------------
       Center         ----  Spin Dipole Couplings  ----
                      3XX-RR        3YY-RR        3ZZ-RR
 --------------------------------------------------------
     1   Atom        0.000000     -0.000000      0.000000
     2   Atom       -0.000000      0.000000     -0.000000
     3   Atom       -0.000000     -0.000000      0.000000
     4   Atom        0.000000      0.000000     -0.000000
     5   Atom        0.000000      0.000000     -0.000000
     6   Atom        0.000000     -0.000000     -0.000000
     7   Atom       -0.000000      0.000000     -0.000000
     8   Atom       -0.000000     -0.000000      0.000000
     9   Atom        0.000000     -0.000000      0.000000
    10   Atom       -0.000000     -0.000000      0.000000
    11   Atom       -0.000000      0.000000     -0.000000
    12   Atom       -0.000000     -0.000000      0.000000
    13   Atom        0.000000     -0.000000      0.000000
    14   Atom       -0.000000      0.000000      0.000000
    15   Atom        0.000000      0.000000     -0.000000
    16   Atom       -0.000000      0.000000     -0.000000
    17   Atom        0.000000      0.000000     -0.000000
    18   Atom       -0.000000     -0.000000      0.000000
    19   Atom       -0.000000     -0.000000      0.000000
    20   Atom        0.000000     -0.000000      0.000000
    21   Atom        0.000000      0.000000     -0.000000
    22   Atom       -0.000000      0.000000     -0.000000
    23   Atom       -0.000000      0.000000     -0.000000
    24   Atom        0.000000     -0.000000      0.000000
    25   Atom        0.000000      0.000000     -0.000000
    26   Atom        0.000000     -0.000000      0.000000
    27   Atom        0.000000      0.000000     -0.000000
    28   Atom       -0.000000     -0.000000      0.000000
 --------------------------------------------------------
                        XY            XZ            YZ
 --------------------------------------------------------
     1   Atom       -0.000000      0.000000     -0.000000
     2   Atom       -0.000000     -0.000000     -0.000000
     3   Atom        0.000000     -0.000000     -0.000000
     4   Atom        0.000000      0.000000     -0.000000
     5   Atom       -0.000000      0.000000      0.000000
     6   Atom        0.000000      0.000000     -0.000000
     7   Atom       -0.000000     -0.000000      0.000000
     8   Atom       -0.000000     -0.000000      0.000000
     9   Atom        0.000000     -0.000000      0.000000
    10   Atom       -0.000000      0.000000     -0.000000
    11   Atom        0.000000      0.000000      0.000000
    12   Atom       -0.000000     -0.000000      0.000000
    13   Atom       -0.000000      0.000000      0.000000
    14   Atom        0.000000     -0.000000      0.000000
    15   Atom        0.000000      0.000000      0.000000
    16   Atom        0.000000      0.000000      0.000000
    17   Atom       -0.000000     -0.000000     -0.000000
    18   Atom        0.000000     -0.000000      0.000000
    19   Atom        0.000000      0.000000      0.000000
    20   Atom        0.000000      0.000000     -0.000000
    21   Atom       -0.000000     -0.000000     -0.000000
    22   Atom       -0.000000     -0.000000     -0.000000
    23   Atom       -0.000000      0.000000     -0.000000
    24   Atom       -0.000000     -0.000000     -0.000000
    25   Atom        0.000000     -0.000000      0.000000
    26   Atom       -0.000000     -0.000000     -0.000000
    27   Atom       -0.000000      0.000000     -0.000000
    28   Atom        0.000000      0.000000      0.000000
 --------------------------------------------------------


 ---------------------------------------------------------------------------------
              Anisotropic Spin Dipole Couplings in Principal Axis System
 ---------------------------------------------------------------------------------

       Atom             a.u.   MegaHertz   Gauss  10(-4) cm-1        Axes

              Baa    -0.0000    -0.000    -0.000    -0.000 -0.5255  0.4878  0.6971
     1 C(13)  Bbb    -0.0000    -0.000    -0.000    -0.000  0.4358  0.8580 -0.2719
              Bcc     0.0000     0.000     0.000     0.000  0.7307 -0.1609  0.6634
 
              Baa    -0.0000    -0.000    -0.000    -0.000  0.6892  0.2057  0.6948
     2 C(13)  Bbb     0.0000     0.000     0.000     0.000  0.3644  0.7304 -0.5777
              Bcc     0.0000     0.000     0.000     0.000 -0.6263  0.6513  0.4285
 
              Baa    -0.0000    -0.000    -0.000    -0.000  0.0562  0.9756  0.2121
     3 H(1)   Bbb    -0.0000    -0.000    -0.000    -0.000  0.8905 -0.1451  0.4313
              Bcc     0.0000     0.000     0.000     0.000 -0.4515 -0.1647  0.8769
 
              Baa    -0.0000    -0.000    -0.000    -0.000 -0.4982  0.1270  0.8577
     4 H(1)   Bbb     0.0000     0.000     0.000     0.000  0.8661  0.1189  0.4855
              Bcc     0.0000     0.000     0.000     0.000 -0.0403  0.9847 -0.1693
 
              Baa    -0.0000    -0.000    -0.000    -0.000 -0.1383 -0.1098  0.9843
     5 C(13)  Bbb     0.0000     0.000     0.000     0.000  0.6657  0.7255  0.1745
              Bcc     0.0000     0.000     0.000     0.000  0.7333 -0.6794  0.0272
 
              Baa    -0.0000    -0.000    -0.000    -0.000 -0.4766  0.3957  0.7850
     6 C(13)  Bbb    -0.0000    -0.000    -0.000    -0.000 -0.0343  0.8839 -0.4664
              Bcc     0.0000     0.000     0.000     0.000  0.8784  0.2493  0.4077
 
              Baa    -0.0000    -0.000    -0.000    -0.000  0.3068 -0.0893  0.9476
     7 H(1)   Bbb    -0.0000    -0.000    -0.000    -0.000  0.8173  0.5349 -0.2142
              Bcc     0.0000     0.000     0.000     0.000 -0.4878  0.8402  0.2371
 
              Baa    -0.0000    -0.000    -0.000    -0.000  0.9269  0.2493  0.2804
     8 H(1)   Bbb    -0.0000    -0.000    -0.000    -0.000 -0.1584  0.9375 -0.3098
              Bcc     0.0000     0.000     0.000     0.000 -0.3401  0.2427  0.9085
 
              Baa    -0.0000    -0.000    -0.000    -0.000 -0.4161  0.8995 -0.1335
     9 C(13)  Bbb     0.0000     0.000     0.000     0.000  0.0922  0.1878  0.9779
              Bcc     0.0000     0.000     0.000     0.000  0.9046  0.3946 -0.1611
 
              Baa    -0.0000    -0.000    -0.000    -0.000  0.7447  0.6022 -0.2876
    10 H(1)   Bbb    -0.0000    -0.000    -0.000    -0.000 -0.4917  0.7865  0.3736
              Bcc     0.0000     0.000     0.000     0.000  0.4512 -0.1368  0.8819
 
              Baa    -0.0000    -0.000    -0.000    -0.000  0.7181 -0.5791  0.3859
    11 H(1)   Bbb    -0.0000    -0.000    -0.000    -0.000 -0.3840  0.1328  0.9137
              Bcc     0.0000     0.000     0.000     0.000  0.5804  0.8044  0.1270
 
              Baa    -0.0000    -0.000    -0.000    -0.000  0.9469 -0.2640  0.1835
    12 C(13)  Bbb    -0.0000    -0.000    -0.000    -0.000  0.2905  0.9471 -0.1364
              Bcc     0.0000     0.000     0.000     0.000 -0.1378  0.1825  0.9735
 
              Baa    -0.0000    -0.000    -0.000    -0.000  0.2591  0.9196 -0.2954
    13 H(1)   Bbb     0.0000     0.000     0.000     0.000  0.9644 -0.2295  0.1314
              Bcc     0.0000     0.000     0.000     0.000 -0.0531  0.3189  0.9463
 
              Baa    -0.0000    -0.000    -0.000    -0.000  0.8613 -0.2544  0.4399
    14 C(13)  Bbb     0.0000     0.000     0.000     0.000  0.3639  0.9129 -0.1846
              Bcc     0.0000     0.000     0.000     0.000 -0.3547  0.3191  0.8789
 
              Baa    -0.0000    -0.000    -0.000    -0.000 -0.2973 -0.1939  0.9349
    15 H(1)   Bbb     0.0000     0.000     0.000     0.000 -0.3225  0.9420  0.0928
              Bcc     0.0000     0.000     0.000     0.000  0.8987  0.2739  0.3426
 
              Baa    -0.0000    -0.000    -0.000    -0.000  0.7242  0.0030 -0.6896
    16 C(13)  Bbb     0.0000     0.000     0.000     0.000  0.6701 -0.2392  0.7027
              Bcc     0.0000     0.000     0.000     0.000  0.1629  0.9710  0.1752
 
              Baa    -0.0000    -0.000    -0.000    -0.000  0.4539  0.3543  0.8176
    17 H(1)   Bbb     0.0000     0.000     0.000     0.000  0.8911 -0.1796 -0.4168
              Bcc     0.0000     0.000     0.000     0.000 -0.0009  0.9177 -0.3972
 
              Baa    -0.0000    -0.000    -0.000    -0.000 -0.6448  0.7098 -0.2837
    18 H(1)   Bbb     0.0000     0.000     0.000     0.000 -0.5017 -0.1129  0.8577
              Bcc     0.0000     0.000     0.000     0.000  0.5767  0.6953  0.4289
 
              Baa    -0.0000    -0.000    -0.000    -0.000 -0.4699  0.8819  0.0374
    19 C(13)  Bbb    -0.0000    -0.000    -0.000    -0.000  0.8714  0.4702 -0.1401
              Bcc     0.0000     0.000     0.000     0.000  0.1412  0.0333  0.9894
 
              Baa    -0.0000    -0.000    -0.000    -0.000 -0.4167  0.8791  0.2313
    20 H(1)   Bbb     0.0000     0.000     0.000     0.000  0.7698  0.4766 -0.4245
              Bcc     0.0000     0.000     0.000     0.000  0.4834 -0.0012  0.8754
 
              Baa    -0.0000    -0.000    -0.000    -0.000  0.1316  0.0979  0.9865
    21 C(13)  Bbb     0.0000     0.000     0.000     0.000  0.9873 -0.1020 -0.1216
              Bcc     0.0000     0.000     0.000     0.000  0.0887  0.9900 -0.1101
 
              Baa    -0.0000    -0.000    -0.000    -0.000  0.3224  0.2269  0.9190
    22 H(1)   Bbb     0.0000     0.000     0.000     0.000  0.9459 -0.1156 -0.3033
              Bcc     0.0000     0.000     0.000     0.000  0.0374  0.9670 -0.2519
 
              Baa    -0.0000    -0.000    -0.000    -0.000  0.9142  0.3998 -0.0660
    23 C(13)  Bbb    -0.0000    -0.000    -0.000    -0.000  0.0113  0.1375  0.9904
              Bcc     0.0000     0.000     0.000     0.000 -0.4050  0.9062 -0.1212
 
              Baa    -0.0000    -0.000    -0.000    -0.000  0.5495  0.8258  0.1271
    24 H(1)   Bbb     0.0000     0.000     0.000     0.000 -0.5405  0.2354  0.8077
              Bcc     0.0000     0.000     0.000     0.000  0.6371 -0.5125  0.5757
 
              Baa    -0.0000    -0.000    -0.000    -0.000  0.4737 -0.1552  0.8669
    25 H(1)   Bbb     0.0000     0.000     0.000     0.000 -0.4388  0.8118  0.3852
              Bcc     0.0000     0.000     0.000     0.000  0.7636  0.5629 -0.3164
 
              Baa    -0.0000    -0.000    -0.000    -0.000  0.1451  0.9755  0.1656
    26 C(13)  Bbb    -0.0000    -0.000    -0.000    -0.000  0.6737 -0.2200  0.7055
              Bcc     0.0000     0.000     0.000     0.000  0.7246  0.0092 -0.6891
 
              Baa    -0.0000    -0.000    -0.000    -0.000  0.4733  0.6129  0.6327
    27 H(1)   Bbb    -0.0000    -0.000    -0.000    -0.000 -0.6620 -0.2264  0.7145
              Bcc     0.0000     0.000     0.000     0.000 -0.5812  0.7570 -0.2986
 
              Baa    -0.0000    -0.000    -0.000    -0.000 -0.6645  0.7472  0.0116
    28 H(1)   Bbb    -0.0000    -0.000    -0.000    -0.000 -0.5614 -0.5094  0.6522
              Bcc     0.0000     0.000     0.000     0.000  0.4932  0.4269  0.7579
 

 ---------------------------------------------------------------------------------

 No NMR shielding tensors so no spin-rotation constants.
 Leave Link  601 at Mon Aug  3 14:38:23 2020, MaxMem=  6442450944 cpu:               7.9 elap:               0.4
 (Enter /scratch/scicomp/CentOS/7.3.1611/Haswell/software/Gaussian/g16/l9999.exe)
 1\1\GINC-ATLAS-205\SP\UwB97XD\def2TZVP\C12H16\BOCHEN\03-Aug-2020\0\\#p
  uwb97xd guess=mix def2tzvp # scrf=(iefpcm,solvent=Cyclohexane,read) n
 osym 6d 10f\\endo-2 xp-pcm for eta=3\\0,1\C,0,-3.12716,-0.441387,0.265
 808\C,0,-0.742781,-0.253682,-1.25379\H,0,-4.06659,-0.531634,0.798854\H
 ,0,0.204971,-0.172502,-1.771631\C,0,1.175378,1.427467,0.803019\C,0,0.7
 42781,0.253682,1.25379\H,0,0.582914,2.324068,0.940997\H,0,-0.204971,0.
 172502,1.771631\C,0,1.574588,-0.989808,1.127258\H,0,2.116105,-1.122154
 ,2.072691\H,0,0.927535,-1.86179,1.025285\C,0,2.460878,1.53095,0.111768
 \H,0,2.860246,2.516008,-0.098202\C,0,3.12716,0.441387,-0.265808\H,0,4.
 06659,0.531634,-0.798854\C,0,2.57273,-0.937949,-0.034385\H,0,2.091291,
 -1.273998,-0.960989\H,0,3.384763,-1.644565,0.147485\C,0,-1.175378,-1.4
 27467,-0.803019\H,0,-0.582914,-2.324068,-0.940997\C,0,-2.460878,-1.530
 95,-0.111768\H,0,-2.860246,-2.516008,0.098202\C,0,-1.574588,0.989808,-
 1.127258\H,0,-0.927535,1.86179,-1.025285\H,0,-2.116105,1.122154,-2.072
 691\C,0,-2.57273,0.937949,0.034385\H,0,-3.384763,1.644565,-0.147485\H,
 0,-2.091291,1.273998,0.960989\\Version=ES64L-G16RevB.01\HF=-466.857541
 1\S2=0.\S2-1=0.\S2A=0.\RMSD=3.384e-09\Dipole=-0.000216,0.0001015,0.000
 2125\Quadrupole=0.4413246,2.4021444,-2.843469,-2.4489256,-2.8218834,-1
 .2868683\PG=CI [X(C12H16)]\\@


 Sacred cows make the best hamburger.
                               -- Mark Twain
 Job cpu time:       0 days  2 hours  5 minutes 31.1 seconds.
 Elapsed time:       0 days  0 hours  5 minutes 16.9 seconds.
 File lengths (MBytes):  RWF=    635 Int=      0 D2E=      0 Chk=     23 Scr=      1
 Normal termination of Gaussian 16 at Mon Aug  3 14:38:24 2020.
