 Entering Gaussian System, Link 0=g16
 Input=meso-TS_49_2_xp-Gcav.com
 Output=meso-TS_49_2_xp-Gcav.log
 Initial command:
 /scratch/scicomp/CentOS/7.3.1611/Haswell/software/Gaussian/g16/l1.exe "/scratch/bochen/cyclohexadiene-dimerization/wb97xd-def2tzvp/xp-pcm/meso/Gau-72175.inp" -scrdir="/scratch/bochen/cyclohexadiene-dimerization/wb97xd-def2tzvp/xp-pcm/meso/"
 Entering Link 1 = /scratch/scicomp/CentOS/7.3.1611/Haswell/software/Gaussian/g16/l1.exe PID=     72176.
  
 Copyright (c) 1988-2017, Gaussian, Inc.  All Rights Reserved.
  
 This is part of the Gaussian(R) 16 program.  It is based on
 the Gaussian(R) 09 system (copyright 2009, Gaussian, Inc.),
 the Gaussian(R) 03 system (copyright 2003, Gaussian, Inc.),
 the Gaussian(R) 98 system (copyright 1998, Gaussian, Inc.),
 the Gaussian(R) 94 system (copyright 1995, Gaussian, Inc.),
 the Gaussian 92(TM) system (copyright 1992, Gaussian, Inc.),
 the Gaussian 90(TM) system (copyright 1990, Gaussian, Inc.),
 the Gaussian 88(TM) system (copyright 1988, Gaussian, Inc.),
 the Gaussian 86(TM) system (copyright 1986, Carnegie Mellon
 University), and the Gaussian 82(TM) system (copyright 1983,
 Carnegie Mellon University). Gaussian is a federally registered
 trademark of Gaussian, Inc.
  
 This software contains proprietary and confidential information,
 including trade secrets, belonging to Gaussian, Inc.
  
 This software is provided under written license and may be
 used, copied, transmitted, or stored only in accord with that
 written license.
  
 The following legend is applicable only to US Government
 contracts under FAR:
  
                    RESTRICTED RIGHTS LEGEND
  
 Use, reproduction and disclosure by the US Government is
 subject to restrictions as set forth in subparagraphs (a)
 and (c) of the Commercial Computer Software - Restricted
 Rights clause in FAR 52.227-19.
  
 Gaussian, Inc.
 340 Quinnipiac St., Bldg. 40, Wallingford CT 06492
  
  
 ---------------------------------------------------------------
 Warning -- This program may not be used in any manner that
 competes with the business of Gaussian, Inc. or will provide
 assistance to any competitor of Gaussian, Inc.  The licensee
 of this program is prohibited from giving any competitor of
 Gaussian, Inc. access to this program.  By using this program,
 the user acknowledges that Gaussian, Inc. is engaged in the
 business of creating and licensing software in the field of
 computational chemistry and represents and warrants to the
 licensee that it is not a competitor of Gaussian, Inc. and that
 it will not use this program in any manner prohibited above.
 ---------------------------------------------------------------
  

 Cite this work as:
 Gaussian 16, Revision B.01,
 M. J. Frisch, G. W. Trucks, H. B. Schlegel, G. E. Scuseria, 
 M. A. Robb, J. R. Cheeseman, G. Scalmani, V. Barone, 
 G. A. Petersson, H. Nakatsuji, X. Li, M. Caricato, A. V. Marenich, 
 J. Bloino, B. G. Janesko, R. Gomperts, B. Mennucci, H. P. Hratchian, 
 J. V. Ortiz, A. F. Izmaylov, J. L. Sonnenberg, D. Williams-Young, 
 F. Ding, F. Lipparini, F. Egidi, J. Goings, B. Peng, A. Petrone, 
 T. Henderson, D. Ranasinghe, V. G. Zakrzewski, J. Gao, N. Rega, 
 G. Zheng, W. Liang, M. Hada, M. Ehara, K. Toyota, R. Fukuda, 
 J. Hasegawa, M. Ishida, T. Nakajima, Y. Honda, O. Kitao, H. Nakai, 
 T. Vreven, K. Throssell, J. A. Montgomery, Jr., J. E. Peralta, 
 F. Ogliaro, M. J. Bearpark, J. J. Heyd, E. N. Brothers, K. N. Kudin, 
 V. N. Staroverov, T. A. Keith, R. Kobayashi, J. Normand, 
 K. Raghavachari, A. P. Rendell, J. C. Burant, S. S. Iyengar, 
 J. Tomasi, M. Cossi, J. M. Millam, M. Klene, C. Adamo, R. Cammi, 
 J. W. Ochterski, R. L. Martin, K. Morokuma, O. Farkas, 
 J. B. Foresman, and D. J. Fox, Gaussian, Inc., Wallingford CT, 2016.
 
 ******************************************
 Gaussian 16:  ES64L-G16RevB.01 20-Dec-2017
                 4-Aug-2020 
 ******************************************
 %chk=scr.chk
 %nproc=24
 Will use up to   24 processors via shared memory.
 %mem=48GB
 ----------------------------------------------------------------------
 #p uwb97xd guess=mix def2tzvp # scrf=(iefpcm,solvent=Cyclohexane,read)
  nosym guess=only pop=none
 ----------------------------------------------------------------------
 1/38=1,40=2,172=1/1;
 2/12=2,15=1,17=6,18=5,40=1/2;
 3/5=44,7=101,11=2,25=1,30=1,70=2203,72=17,74=-58,89=1,116=2/1,2;
 4/13=-1/1;
 99/5=2/99;
 Leave Link    1 at Tue Aug  4 21:37:15 2020, MaxMem=  6442450944 cpu:               1.4 elap:               0.1
 (Enter /scratch/scicomp/CentOS/7.3.1611/Haswell/software/Gaussian/g16/l101.exe)
 -------------------------------------------------
 endo-2 xp-pcm with Vmol=108.160262177098 cm^3/mol
 -------------------------------------------------
 Symbolic Z-matrix:
 Charge =  0 Multiplicity = 1
 6                    -3.12775  -0.44152   0.26112 
 6                    -0.71992  -0.24822  -1.21984 
 1                    -4.0736   -0.53513   0.78213 
 1                     0.23413  -0.16473  -1.7252 
 6                     1.16007   1.42422   0.7826 
 6                     0.71992   0.24822   1.21984 
 1                     0.56693   2.32073   0.91735 
 1                    -0.23413   0.16473   1.7252 
 6                     1.55459  -0.99429   1.10423 
 1                     2.07784  -1.12631   2.05986 
 1                     0.91189  -1.86751   0.99096 
 6                     2.45364   1.5293    0.10781 
 1                     2.85378   2.51504  -0.09747 
 6                     3.12775   0.44152  -0.26112 
 1                     4.0736    0.53513  -0.78213 
 6                     2.57732  -0.94051  -0.03613 
 1                     2.12125  -1.28557  -0.97224 
 1                     3.39036  -1.6399    0.16813 
 6                    -1.16007  -1.42422  -0.7826 
 1                    -0.56693  -2.32073  -0.91735 
 6                    -2.45364  -1.5293   -0.10781 
 1                    -2.85378  -2.51504   0.09747 
 6                    -1.55459   0.99429  -1.10423 
 1                    -0.91189   1.86751  -0.99096 
 1                    -2.07784   1.12631  -2.05986 
 6                    -2.57732   0.94051   0.03613 
 1                    -3.39036   1.6399   -0.16813 
 1                    -2.12125   1.28557   0.97224 
 
 ITRead=  0  0  0  0  0  0  0  0  0  0  0  0  0  0  0  0  0  0  0  0
 ITRead=  0  0  0  0  0  0  0  0
 MicOpt= -1 -1 -1 -1 -1 -1 -1 -1 -1 -1 -1 -1 -1 -1 -1 -1 -1 -1 -1 -1
 MicOpt= -1 -1 -1 -1 -1 -1 -1 -1
 NAtoms=     28 NQM=       28 NQMF=       0 NMMI=      0 NMMIF=      0
                NMic=       0 NMicF=      0.
                    Isotopes and Nuclear Properties:
 (Nuclear quadrupole moments (NQMom) in fm**2, nuclear magnetic moments (NMagM)
  in nuclear magnetons)

  Atom         1           2           3           4           5           6           7           8           9          10
 IAtWgt=          12          12           1           1          12          12           1           1          12           1
 AtmWgt=  12.0000000  12.0000000   1.0078250   1.0078250  12.0000000  12.0000000   1.0078250   1.0078250  12.0000000   1.0078250
 NucSpn=           0           0           1           1           0           0           1           1           0           1
 AtZEff=  -0.0000000  -0.0000000  -0.0000000  -0.0000000  -0.0000000  -0.0000000  -0.0000000  -0.0000000  -0.0000000  -0.0000000
 NQMom=    0.0000000   0.0000000   0.0000000   0.0000000   0.0000000   0.0000000   0.0000000   0.0000000   0.0000000   0.0000000
 NMagM=    0.0000000   0.0000000   2.7928460   2.7928460   0.0000000   0.0000000   2.7928460   2.7928460   0.0000000   2.7928460
 AtZNuc=   6.0000000   6.0000000   1.0000000   1.0000000   6.0000000   6.0000000   1.0000000   1.0000000   6.0000000   1.0000000

  Atom        11          12          13          14          15          16          17          18          19          20
 IAtWgt=           1          12           1          12           1          12           1           1          12           1
 AtmWgt=   1.0078250  12.0000000   1.0078250  12.0000000   1.0078250  12.0000000   1.0078250   1.0078250  12.0000000   1.0078250
 NucSpn=           1           0           1           0           1           0           1           1           0           1
 AtZEff=  -0.0000000  -0.0000000  -0.0000000  -0.0000000  -0.0000000  -0.0000000  -0.0000000  -0.0000000  -0.0000000  -0.0000000
 NQMom=    0.0000000   0.0000000   0.0000000   0.0000000   0.0000000   0.0000000   0.0000000   0.0000000   0.0000000   0.0000000
 NMagM=    2.7928460   0.0000000   2.7928460   0.0000000   2.7928460   0.0000000   2.7928460   2.7928460   0.0000000   2.7928460
 AtZNuc=   1.0000000   6.0000000   1.0000000   6.0000000   1.0000000   6.0000000   1.0000000   1.0000000   6.0000000   1.0000000

  Atom        21          22          23          24          25          26          27          28
 IAtWgt=          12           1          12           1           1          12           1           1
 AtmWgt=  12.0000000   1.0078250  12.0000000   1.0078250   1.0078250  12.0000000   1.0078250   1.0078250
 NucSpn=           0           1           0           1           1           0           1           1
 AtZEff=  -0.0000000  -0.0000000  -0.0000000  -0.0000000  -0.0000000  -0.0000000  -0.0000000  -0.0000000
 NQMom=    0.0000000   0.0000000   0.0000000   0.0000000   0.0000000   0.0000000   0.0000000   0.0000000
 NMagM=    0.0000000   2.7928460   0.0000000   2.7928460   2.7928460   0.0000000   2.7928460   2.7928460
 AtZNuc=   6.0000000   1.0000000   6.0000000   1.0000000   1.0000000   6.0000000   1.0000000   1.0000000
 Leave Link  101 at Tue Aug  4 21:37:15 2020, MaxMem=  6442450944 cpu:               2.4 elap:               0.1
 (Enter /scratch/scicomp/CentOS/7.3.1611/Haswell/software/Gaussian/g16/l202.exe)
                          Input orientation:                          
 ---------------------------------------------------------------------
 Center     Atomic      Atomic             Coordinates (Angstroms)
 Number     Number       Type             X           Y           Z
 ---------------------------------------------------------------------
      1          6           0       -3.127753   -0.441522    0.261122
      2          6           0       -0.719921   -0.248221   -1.219838
      3          1           0       -4.073595   -0.535125    0.782132
      4          1           0        0.234126   -0.164733   -1.725204
      5          6           0        1.160074    1.424218    0.782600
      6          6           0        0.719921    0.248221    1.219838
      7          1           0        0.566933    2.320735    0.917353
      8          1           0       -0.234126    0.164733    1.725204
      9          6           0        1.554591   -0.994289    1.104230
     10          1           0        2.077836   -1.126314    2.059864
     11          1           0        0.911886   -1.867512    0.990956
     12          6           0        2.453641    1.529303    0.107811
     13          1           0        2.853781    2.515042   -0.097470
     14          6           0        3.127753    0.441522   -0.261122
     15          1           0        4.073595    0.535125   -0.782132
     16          6           0        2.577324   -0.940508   -0.036133
     17          1           0        2.121249   -1.285571   -0.972240
     18          1           0        3.390356   -1.639895    0.168128
     19          6           0       -1.160074   -1.424218   -0.782600
     20          1           0       -0.566933   -2.320735   -0.917353
     21          6           0       -2.453641   -1.529303   -0.107811
     22          1           0       -2.853781   -2.515042    0.097470
     23          6           0       -1.554591    0.994289   -1.104230
     24          1           0       -0.911886    1.867512   -0.990956
     25          1           0       -2.077836    1.126314   -2.059864
     26          6           0       -2.577324    0.940508    0.036133
     27          1           0       -3.390356    1.639895   -0.168129
     28          1           0       -2.121249    1.285571    0.972240
 ---------------------------------------------------------------------
                    Distance matrix (angstroms):
                    1          2          3          4          5
     1  C    0.000000
     2  C    2.833419   0.000000
     3  H    1.083896   3.916290   0.000000
     4  H    3.914631   1.082853   4.998038   0.000000
     5  C    4.705145   3.215772   5.588409   3.109859   0.000000
     6  C    4.024857   2.876042   4.876783   3.013271   1.329617
     7  H    4.659550   3.580938   5.450571   3.642996   1.083382
     8  H    3.299115   3.013271   4.015060   3.497588   2.102046
     9  C    4.789648   3.336362   5.656064   3.230710   2.471491
    10  H    5.550006   4.399425   6.310484   4.318639   2.996482
    11  H    4.345663   3.189437   5.164677   3.276635   3.307642
    12  C    5.921116   3.872175   6.879054   3.340052   1.462771
    13  H    6.681961   4.654748   7.620089   4.085744   2.198423
    14  C    6.339074   4.024857   7.341773   3.299115   2.434504
    15  H    7.341773   4.876783   8.364751   4.015060   3.424540
    16  C    5.734566   3.571028   6.713316   2.990880   2.875909
    17  H    5.457621   3.034740   6.482059   2.320445   3.368424
    18  H    6.628008   4.556049   7.570210   3.965173   3.839339
    19  C    2.434504   1.329617   3.424540   2.102046   3.993310
    20  H    3.387926   2.100052   4.286412   2.437758   4.460613
    21  C    1.331843   2.425605   2.098723   3.420834   4.751321
    22  H    2.097934   3.380405   2.424207   4.287337   5.665528
    23  C    2.529936   1.501290   3.498978   2.220011   3.333822
    24  H    3.436481   2.136718   4.348897   2.445912   2.763156
    25  H    2.991222   2.106875   3.849724   2.669076   4.318844
    26  C    1.504526   2.537811   2.229985   3.496872   3.841788
    27  H    2.141381   3.435447   2.469924   4.337976   4.653688
    28  H    2.121695   3.020173   2.676328   3.863596   3.289721
                    6          7          8          9         10
     6  C    0.000000
     7  H    2.100052   0.000000
     8  H    1.082853   2.437758   0.000000
     9  C    1.501290   3.464069   2.220011   0.000000
    10  H    2.106875   3.933231   2.669076   1.097475   0.000000
    11  H    2.136718   4.203073   2.445912   1.090146   1.746819
    12  C    2.425605   2.200316   3.420834   2.858261   3.317234
    13  H    3.380405   2.509441   4.287337   3.930316   4.302982
    14  C    2.833419   3.387926   3.914631   2.529936   2.991222
    15  H    3.916290   4.286412   4.998038   3.498978   3.849724
    16  C    2.537811   3.947976   3.496872   1.532744   2.162687
    17  H    3.020173   4.357970   3.863596   2.172021   3.036594
    18  H    3.435447   4.921346   4.337976   2.159428   2.359055
    19  C    3.215772   4.460613   3.109859   3.333822   4.318844
    20  H    3.580938   5.118109   3.642996   3.216694   4.157555
    21  C    3.872175   4.999762   3.340052   4.221517   5.039395
    22  H    4.654748   5.979819   4.085744   4.770744   5.486383
    23  C    3.336362   3.216694   3.230710   4.301017   5.263361
    24  H    3.189437   2.456412   3.276635   4.320095   5.216218
    25  H    4.399425   4.157555   4.318639   5.263361   6.270255
    26  C    3.571028   3.545127   2.990880   4.685829   5.480671
    27  H    4.556049   4.159561   3.965173   5.745461   6.520505
    28  H    3.034740   2.881128   2.320445   4.327468   4.963107
                   11         12         13         14         15
    11  H    0.000000
    12  C    3.833446   0.000000
    13  H    4.915527   1.083482   0.000000
    14  C    3.436481   1.331843   2.097934   0.000000
    15  H    4.348897   2.098723   2.424207   1.083896   0.000000
    16  C    2.165163   2.477092   3.467134   1.504526   2.229985
    17  H    2.378099   3.033234   3.968184   2.121695   2.676328
    18  H    2.621387   3.305282   4.197851   2.141381   2.469923
    19  C    2.763156   4.751321   5.665528   4.705145   5.588409
    20  H    2.456412   4.999762   5.979819   4.659550   5.450571
    21  C    3.556465   5.786448   6.672748   5.921116   6.879054
    22  H    3.924011   6.672748   7.610257   6.681961   7.620089
    23  C    4.320095   4.221517   4.770744   4.789648   5.656064
    24  H    4.604837   3.556465   3.924011   4.345663   5.164677
    25  H    5.216218   5.039395   5.486383   5.550006   6.310484
    26  C    4.579438   5.065810   5.656316   5.734566   6.713316
    27  H    5.670509   5.851553   6.305563   6.628008   7.570210
    28  H    4.375179   4.662216   5.235151   5.457621   6.482059
                   16         17         18         19         20
    16  C    0.000000
    17  H    1.096982   0.000000
    18  H    1.091735   1.742589   0.000000
    19  C    3.841788   3.289721   4.653688   0.000000
    20  H    3.545127   2.881128   4.159561   1.083382   0.000000
    21  C    5.065810   4.662216   5.851553   1.462771   2.200316
    22  H    5.656316   5.235151   6.305563   2.198423   2.509441
    23  C    4.685829   4.327468   5.745461   2.471491   3.464069
    24  H    4.579438   4.375179   5.670508   3.307642   4.203073
    25  H    5.480671   4.963107   6.520505   2.996482   3.933231
    26  C    5.487608   5.296115   6.503008   2.875909   3.947976
    27  H    6.503008   6.291481   7.539771   3.839339   4.921346
    28  H    5.296115   5.328280   6.291481   3.368424   4.357970
                   21         22         23         24         25
    21  C    0.000000
    22  H    1.083482   0.000000
    23  C    2.858261   3.930316   0.000000
    24  H    3.833446   4.915527   1.090146   0.000000
    25  H    3.317234   4.302982   1.097475   1.746819   0.000000
    26  C    2.477092   3.467134   1.532744   2.165163   2.162687
    27  H    3.305282   4.197851   2.159427   2.621387   2.359054
    28  H    3.033234   3.968184   2.172021   2.378099   3.036594
                   26         27         28
    26  C    0.000000
    27  H    1.091735   0.000000
    28  H    1.096982   1.742590   0.000000
 Symmetry turned off by external request.
 Stoichiometry    C12H16
 Framework group  CI[X(C12H16)]
 Deg. of freedom    39
 Full point group                 CI      NOp   2
 Rotational constants (GHZ):           1.7702073           0.5971610           0.5372422
 Leave Link  202 at Tue Aug  4 21:37:15 2020, MaxMem=  6442450944 cpu:               0.3 elap:               0.0
 (Enter /scratch/scicomp/CentOS/7.3.1611/Haswell/software/Gaussian/g16/l301.exe)
 Standard basis: def2TZVP (5D, 7F)
 Ernie: Thresh=  0.10000D-02 Tol=  0.10000D-05 Strict=F.
   468 basis functions,   740 primitive gaussians,   528 cartesian basis functions
    44 alpha electrons       44 beta electrons
       nuclear repulsion energy       677.2008204301 Hartrees.
 IExCor= 4639 DFT=T Ex+Corr=wB97XD ExCW=0 ScaHFX=  1.000000
 ScaDFX=  1.000000  1.000000  1.000000  1.000000 ScalE2=  1.000000  1.000000
 IRadAn=      5 IRanWt=     -1 IRanGd=            0 ICorTp=0 IEmpDi=121
 HFx  wShort=  0.000000 wLong=  0.200000 cFull=  0.222036 cShort=  0.000000 cLong=  0.777964
 DFx  wShort=  0.000000 wLong=  0.200000 cFull=  0.000000 cShort=  0.000000 cLong=  1.000000
 NAtoms=   28 NActive=   28 NUniq=   28 SFac= 1.00D+00 NAtFMM=   60 NAOKFM=F Big=F
 Integral buffers will be    131072 words long.
 Raffenetti 2 integral format.
 Two-electron integral symmetry is turned off.
 R6Disp:  Grimme-D2 Dispersion energy=       -0.0223066379 Hartrees.
 Nuclear repulsion after empirical dispersion term =      677.1785137922 Hartrees.
 Using the following non-standard input for PCM:
 norep  pcmdoc geomview  nodis cav g03defaults noaddsph  tsare=0.075
 Warning! Using old PCM defaults because the g03defaults keyword was found.
 These settings can be overridden by following keywords.
 nsfe=28
 Vmol=108.160262177098 Rsolv=2.815
 --- end of non-standard input.
 Reading user-defined spheres from input:
 ISph  on   Nord    Re0     Alpha      Xe            Ye            Ze
 --- end of user-defined spheres data.
 ------------------------------------------------------------------------------
 Polarizable Continuum Model (PCM)
 =================================
 Model                : PCM.
 Atomic radii         : UA0 (Simple United Atom Topological Model).
 Polarization charges : Total charges.
 Charge compensation  : None.
 Solution method      : On-the-fly selection.
 Cavity type          : VdW (van der Waals Surface) (Alpha=1.000).
 Cavity algorithm     : GePol (No added spheres)
                        User-defined sphere list used, NSphG=   28.
                        Tesserae with average area of 0.075 Ang**2.
                        Smoothing algorithm: None.
                        Polarization charges: point-like.
                        Self-potential: constant (ISelfS= 1).
                        Self-field    : global E.n sum rule (ISelfD= 3).
 Solvent              : CycloHexane, Eps=   2.016500 Eps(inf)=   2.035188
 ------------------------------------------------------------------------------
 GePol: Number of generator spheres                  =      28
 GePol: Total number of spheres                      =      28
 GePol: Number of exposed spheres                    =      28 (100.00%)
 GePol: Number of tesserae                           =    3915
 GePol: Average area of tesserae                     =       0.06 Ang**2
 GePol: Minimum area of tessera                      =   0.10D-02 Ang**2
 GePol: Maximum area of tessera                      =    0.12395 Ang**2
 GePol: Number of small tesserae                     =       0
 GePol: Fraction of small tesserae (<1% of avg)      =       0.00%
 GePol: Total count of vertices                      =   12954
 GePol: Maximum number of vertices in a tessera      =       6
 GePol: Cavity surface area                          =    235.744 Ang**2
 GePol: Cavity volume                                =    242.510 Ang**3
 PCM non-electrostatic energy =         0.0363898957 Hartrees.
 Nuclear repulsion after PCM non-electrostatic terms =      677.2149036880 Hartrees.
 Leave Link  301 at Tue Aug  4 21:37:15 2020, MaxMem=  6442450944 cpu:               3.3 elap:               0.2
 (Enter /scratch/scicomp/CentOS/7.3.1611/Haswell/software/Gaussian/g16/l302.exe)
 NPDir=0 NMtPBC=     1 NCelOv=     1 NCel=       1 NClECP=     1 NCelD=      1
         NCelK=      1 NCelE2=     1 NClLst=     1 CellRange=     0.0.
 One-electron integrals computed using PRISM.
   1 Symmetry operations used in ECPInt.
 ECPInt:  NShTT=   19306 NPrTT=   56928 LenC2=   18478 LenP2D=   41942.
 LDataN:  DoStor=T MaxTD1= 6 Len=  172
 NBasis=   468 RedAO= T EigKep=  2.40D-05  NBF=   468
 NBsUse=   468 1.00D-06 EigRej= -1.00D+00 NBFU=   468
 Precomputing XC quadrature grid using
 IXCGrd= 4 IRadAn=           5 IRanWt=          -1 IRanGd=           0 AccXCQ= 0.00D+00.
 Generated NRdTot=       0 NPtTot=           0 NUsed=           0 NTot=          32
 NSgBfM=   526   526   526   526   526 MxSgAt=    28 MxSgA2=    28.
 Leave Link  302 at Tue Aug  4 21:37:16 2020, MaxMem=  6442450944 cpu:              12.9 elap:               0.6
 (Enter /scratch/scicomp/CentOS/7.3.1611/Haswell/software/Gaussian/g16/l401.exe)
 ExpMin= 9.52D-02 ExpMax= 1.36D+04 ExpMxC= 4.63D+02 IAcc=3 IRadAn=         5 AccDes= 0.00D+00
 Harris functional with IExCor= 4639 and IRadAn=       5 diagonalized for initial guess.
 HarFok:  IExCor= 4639 AccDes= 0.00D+00 IRadAn=         5 IDoV= 1 UseB2=F ITyADJ=14
 ICtDFT=  3500011 ScaDFX=  1.000000  1.000000  1.000000  1.000000
 FoFCou: FMM=F IPFlag=           0 FMFlag=      100000 FMFlg1=           0
         NFxFlg=           0 DoJE=T BraDBF=F KetDBF=T FulRan=T
         wScrn=  0.000000 ICntrl=       500 IOpCl=  0 I1Cent=   200000004 NGrid=           0
         NMat0=    1 NMatS0=      1 NMatT0=    0 NMatD0=    1 NMtDS0=    0 NMtDT0=    0
 Symmetry not used in FoFCou.
 Harris En= -444.597131889753    
 JPrj=0 DoOrth=F DoCkMO=T.
 Mixing orbitals, IMix= 1 IMixAn=  0 NRI=1 NE=   44 Coef=  7.07106781D-01  7.07106781D-01
 Mixing orbitals, IMix= 1 IMixAn=  0 NRI=1 NE=   44 Coef= -7.07106781D-01  7.07106781D-01
 Initial guess <Sx>= 0.0000 <Sy>= 0.0000 <Sz>= 0.0000 <S**2>= 1.0000 S= 0.6180
 Leave Link  401 at Tue Aug  4 21:37:18 2020, MaxMem=  6442450944 cpu:              47.0 elap:               2.0
 (Enter /scratch/scicomp/CentOS/7.3.1611/Haswell/software/Gaussian/g16/l9999.exe)

 This type of calculation cannot be archived.


 LET US PLACE AT THE END OF EVERY CHAPTER.....THE
 TWO LETTERS USED BY THE ROMAN JUDGES WHEN THEY DID
 NOT UNDERSTAND A PLEADING.
 N. L. -NON LIQUET- IT IS NOT CLEAR.
                                              -- VOLTAIRE
 Job cpu time:       0 days  0 hours  1 minutes  8.2 seconds.
 Elapsed time:       0 days  0 hours  0 minutes  3.1 seconds.
 File lengths (MBytes):  RWF=    291 Int=      0 D2E=      0 Chk=      1 Scr=      1
 Normal termination of Gaussian 16 at Tue Aug  4 21:37:18 2020.
 Initial command:
 /scratch/scicomp/CentOS/7.3.1611/Haswell/software/Gaussian/g16/l1.exe "/scratch/bochen/cyclohexadiene-dimerization/wb97xd-def2tzvp/xp-pcm/meso/Gau-72175.inp" -scrdir="/scratch/bochen/cyclohexadiene-dimerization/wb97xd-def2tzvp/xp-pcm/meso/"
 Entering Link 1 = /scratch/scicomp/CentOS/7.3.1611/Haswell/software/Gaussian/g16/l1.exe PID=     72339.
  
 Copyright (c) 1988-2017, Gaussian, Inc.  All Rights Reserved.
  
 This is part of the Gaussian(R) 16 program.  It is based on
 the Gaussian(R) 09 system (copyright 2009, Gaussian, Inc.),
 the Gaussian(R) 03 system (copyright 2003, Gaussian, Inc.),
 the Gaussian(R) 98 system (copyright 1998, Gaussian, Inc.),
 the Gaussian(R) 94 system (copyright 1995, Gaussian, Inc.),
 the Gaussian 92(TM) system (copyright 1992, Gaussian, Inc.),
 the Gaussian 90(TM) system (copyright 1990, Gaussian, Inc.),
 the Gaussian 88(TM) system (copyright 1988, Gaussian, Inc.),
 the Gaussian 86(TM) system (copyright 1986, Carnegie Mellon
 University), and the Gaussian 82(TM) system (copyright 1983,
 Carnegie Mellon University). Gaussian is a federally registered
 trademark of Gaussian, Inc.
  
 This software contains proprietary and confidential information,
 including trade secrets, belonging to Gaussian, Inc.
  
 This software is provided under written license and may be
 used, copied, transmitted, or stored only in accord with that
 written license.
  
 The following legend is applicable only to US Government
 contracts under FAR:
  
                    RESTRICTED RIGHTS LEGEND
  
 Use, reproduction and disclosure by the US Government is
 subject to restrictions as set forth in subparagraphs (a)
 and (c) of the Commercial Computer Software - Restricted
 Rights clause in FAR 52.227-19.
  
 Gaussian, Inc.
 340 Quinnipiac St., Bldg. 40, Wallingford CT 06492
  
  
 ---------------------------------------------------------------
 Warning -- This program may not be used in any manner that
 competes with the business of Gaussian, Inc. or will provide
 assistance to any competitor of Gaussian, Inc.  The licensee
 of this program is prohibited from giving any competitor of
 Gaussian, Inc. access to this program.  By using this program,
 the user acknowledges that Gaussian, Inc. is engaged in the
 business of creating and licensing software in the field of
 computational chemistry and represents and warrants to the
 licensee that it is not a competitor of Gaussian, Inc. and that
 it will not use this program in any manner prohibited above.
 ---------------------------------------------------------------
  

 Cite this work as:
 Gaussian 16, Revision B.01,
 M. J. Frisch, G. W. Trucks, H. B. Schlegel, G. E. Scuseria, 
 M. A. Robb, J. R. Cheeseman, G. Scalmani, V. Barone, 
 G. A. Petersson, H. Nakatsuji, X. Li, M. Caricato, A. V. Marenich, 
 J. Bloino, B. G. Janesko, R. Gomperts, B. Mennucci, H. P. Hratchian, 
 J. V. Ortiz, A. F. Izmaylov, J. L. Sonnenberg, D. Williams-Young, 
 F. Ding, F. Lipparini, F. Egidi, J. Goings, B. Peng, A. Petrone, 
 T. Henderson, D. Ranasinghe, V. G. Zakrzewski, J. Gao, N. Rega, 
 G. Zheng, W. Liang, M. Hada, M. Ehara, K. Toyota, R. Fukuda, 
 J. Hasegawa, M. Ishida, T. Nakajima, Y. Honda, O. Kitao, H. Nakai, 
 T. Vreven, K. Throssell, J. A. Montgomery, Jr., J. E. Peralta, 
 F. Ogliaro, M. J. Bearpark, J. J. Heyd, E. N. Brothers, K. N. Kudin, 
 V. N. Staroverov, T. A. Keith, R. Kobayashi, J. Normand, 
 K. Raghavachari, A. P. Rendell, J. C. Burant, S. S. Iyengar, 
 J. Tomasi, M. Cossi, J. M. Millam, M. Klene, C. Adamo, R. Cammi, 
 J. W. Ochterski, R. L. Martin, K. Morokuma, O. Farkas, 
 J. B. Foresman, and D. J. Fox, Gaussian, Inc., Wallingford CT, 2016.
 
 ******************************************
 Gaussian 16:  ES64L-G16RevB.01 20-Dec-2017
                 4-Aug-2020 
 ******************************************
 %chk=scr.chk
 %nproc=24
 Will use up to   24 processors via shared memory.
 %mem=48GB
 ----------------------------------------------------------------------
 #p uwb97xd guess=mix def2tzvp # scrf=(iefpcm,solvent=Cyclohexane,read)
  nosym guess=only pop=none
 ----------------------------------------------------------------------
 1/38=1,40=2,172=1/1;
 2/12=2,15=1,17=6,18=5,40=1/2;
 3/5=44,7=101,11=2,25=1,30=1,70=2203,72=17,74=-58,89=1,116=2/1,2;
 4/13=-1/1;
 99/5=2/99;
 Leave Link    1 at Tue Aug  4 21:37:18 2020, MaxMem=  6442450944 cpu:               1.4 elap:               0.1
 (Enter /scratch/scicomp/CentOS/7.3.1611/Haswell/software/Gaussian/g16/l101.exe)
 -------------------------------------------------
 endo-2 xp-pcm with Vmol=101.730197792279 cm^3/mol
 -------------------------------------------------
 Symbolic Z-matrix:
 Charge =  0 Multiplicity = 1
 6                    -3.12775  -0.44152   0.26112 
 6                    -0.71992  -0.24822  -1.21984 
 1                    -4.0736   -0.53513   0.78213 
 1                     0.23413  -0.16473  -1.7252 
 6                     1.16007   1.42422   0.7826 
 6                     0.71992   0.24822   1.21984 
 1                     0.56693   2.32073   0.91735 
 1                    -0.23413   0.16473   1.7252 
 6                     1.55459  -0.99429   1.10423 
 1                     2.07784  -1.12631   2.05986 
 1                     0.91189  -1.86751   0.99096 
 6                     2.45364   1.5293    0.10781 
 1                     2.85378   2.51504  -0.09747 
 6                     3.12775   0.44152  -0.26112 
 1                     4.0736    0.53513  -0.78213 
 6                     2.57732  -0.94051  -0.03613 
 1                     2.12125  -1.28557  -0.97224 
 1                     3.39036  -1.6399    0.16813 
 6                    -1.16007  -1.42422  -0.7826 
 1                    -0.56693  -2.32073  -0.91735 
 6                    -2.45364  -1.5293   -0.10781 
 1                    -2.85378  -2.51504   0.09747 
 6                    -1.55459   0.99429  -1.10423 
 1                    -0.91189   1.86751  -0.99096 
 1                    -2.07784   1.12631  -2.05986 
 6                    -2.57732   0.94051   0.03613 
 1                    -3.39036   1.6399   -0.16813 
 1                    -2.12125   1.28557   0.97224 
 
 ITRead=  0  0  0  0  0  0  0  0  0  0  0  0  0  0  0  0  0  0  0  0
 ITRead=  0  0  0  0  0  0  0  0
 MicOpt= -1 -1 -1 -1 -1 -1 -1 -1 -1 -1 -1 -1 -1 -1 -1 -1 -1 -1 -1 -1
 MicOpt= -1 -1 -1 -1 -1 -1 -1 -1
 NAtoms=     28 NQM=       28 NQMF=       0 NMMI=      0 NMMIF=      0
                NMic=       0 NMicF=      0.
                    Isotopes and Nuclear Properties:
 (Nuclear quadrupole moments (NQMom) in fm**2, nuclear magnetic moments (NMagM)
  in nuclear magnetons)

  Atom         1           2           3           4           5           6           7           8           9          10
 IAtWgt=          12          12           1           1          12          12           1           1          12           1
 AtmWgt=  12.0000000  12.0000000   1.0078250   1.0078250  12.0000000  12.0000000   1.0078250   1.0078250  12.0000000   1.0078250
 NucSpn=           0           0           1           1           0           0           1           1           0           1
 AtZEff=  -0.0000000  -0.0000000  -0.0000000  -0.0000000  -0.0000000  -0.0000000  -0.0000000  -0.0000000  -0.0000000  -0.0000000
 NQMom=    0.0000000   0.0000000   0.0000000   0.0000000   0.0000000   0.0000000   0.0000000   0.0000000   0.0000000   0.0000000
 NMagM=    0.0000000   0.0000000   2.7928460   2.7928460   0.0000000   0.0000000   2.7928460   2.7928460   0.0000000   2.7928460
 AtZNuc=   6.0000000   6.0000000   1.0000000   1.0000000   6.0000000   6.0000000   1.0000000   1.0000000   6.0000000   1.0000000

  Atom        11          12          13          14          15          16          17          18          19          20
 IAtWgt=           1          12           1          12           1          12           1           1          12           1
 AtmWgt=   1.0078250  12.0000000   1.0078250  12.0000000   1.0078250  12.0000000   1.0078250   1.0078250  12.0000000   1.0078250
 NucSpn=           1           0           1           0           1           0           1           1           0           1
 AtZEff=  -0.0000000  -0.0000000  -0.0000000  -0.0000000  -0.0000000  -0.0000000  -0.0000000  -0.0000000  -0.0000000  -0.0000000
 NQMom=    0.0000000   0.0000000   0.0000000   0.0000000   0.0000000   0.0000000   0.0000000   0.0000000   0.0000000   0.0000000
 NMagM=    2.7928460   0.0000000   2.7928460   0.0000000   2.7928460   0.0000000   2.7928460   2.7928460   0.0000000   2.7928460
 AtZNuc=   1.0000000   6.0000000   1.0000000   6.0000000   1.0000000   6.0000000   1.0000000   1.0000000   6.0000000   1.0000000

  Atom        21          22          23          24          25          26          27          28
 IAtWgt=          12           1          12           1           1          12           1           1
 AtmWgt=  12.0000000   1.0078250  12.0000000   1.0078250   1.0078250  12.0000000   1.0078250   1.0078250
 NucSpn=           0           1           0           1           1           0           1           1
 AtZEff=  -0.0000000  -0.0000000  -0.0000000  -0.0000000  -0.0000000  -0.0000000  -0.0000000  -0.0000000
 NQMom=    0.0000000   0.0000000   0.0000000   0.0000000   0.0000000   0.0000000   0.0000000   0.0000000
 NMagM=    0.0000000   2.7928460   0.0000000   2.7928460   2.7928460   0.0000000   2.7928460   2.7928460
 AtZNuc=   6.0000000   1.0000000   6.0000000   1.0000000   1.0000000   6.0000000   1.0000000   1.0000000
 Leave Link  101 at Tue Aug  4 21:37:18 2020, MaxMem=  6442450944 cpu:               2.4 elap:               0.1
 (Enter /scratch/scicomp/CentOS/7.3.1611/Haswell/software/Gaussian/g16/l202.exe)
                          Input orientation:                          
 ---------------------------------------------------------------------
 Center     Atomic      Atomic             Coordinates (Angstroms)
 Number     Number       Type             X           Y           Z
 ---------------------------------------------------------------------
      1          6           0       -3.127753   -0.441522    0.261122
      2          6           0       -0.719921   -0.248221   -1.219838
      3          1           0       -4.073595   -0.535125    0.782132
      4          1           0        0.234126   -0.164733   -1.725204
      5          6           0        1.160074    1.424218    0.782600
      6          6           0        0.719921    0.248221    1.219838
      7          1           0        0.566933    2.320735    0.917353
      8          1           0       -0.234126    0.164733    1.725204
      9          6           0        1.554591   -0.994289    1.104230
     10          1           0        2.077836   -1.126314    2.059864
     11          1           0        0.911886   -1.867512    0.990956
     12          6           0        2.453641    1.529303    0.107811
     13          1           0        2.853781    2.515042   -0.097470
     14          6           0        3.127753    0.441522   -0.261122
     15          1           0        4.073595    0.535125   -0.782132
     16          6           0        2.577324   -0.940508   -0.036133
     17          1           0        2.121249   -1.285571   -0.972240
     18          1           0        3.390356   -1.639895    0.168128
     19          6           0       -1.160074   -1.424218   -0.782600
     20          1           0       -0.566933   -2.320735   -0.917353
     21          6           0       -2.453641   -1.529303   -0.107811
     22          1           0       -2.853781   -2.515042    0.097470
     23          6           0       -1.554591    0.994289   -1.104230
     24          1           0       -0.911886    1.867512   -0.990956
     25          1           0       -2.077836    1.126314   -2.059864
     26          6           0       -2.577324    0.940508    0.036133
     27          1           0       -3.390356    1.639895   -0.168129
     28          1           0       -2.121249    1.285571    0.972240
 ---------------------------------------------------------------------
                    Distance matrix (angstroms):
                    1          2          3          4          5
     1  C    0.000000
     2  C    2.833419   0.000000
     3  H    1.083896   3.916290   0.000000
     4  H    3.914631   1.082853   4.998038   0.000000
     5  C    4.705145   3.215772   5.588409   3.109859   0.000000
     6  C    4.024857   2.876042   4.876783   3.013271   1.329617
     7  H    4.659550   3.580938   5.450571   3.642996   1.083382
     8  H    3.299115   3.013271   4.015060   3.497588   2.102046
     9  C    4.789648   3.336362   5.656064   3.230710   2.471491
    10  H    5.550006   4.399425   6.310484   4.318639   2.996482
    11  H    4.345663   3.189437   5.164677   3.276635   3.307642
    12  C    5.921116   3.872175   6.879054   3.340052   1.462771
    13  H    6.681961   4.654748   7.620089   4.085744   2.198423
    14  C    6.339074   4.024857   7.341773   3.299115   2.434504
    15  H    7.341773   4.876783   8.364751   4.015060   3.424540
    16  C    5.734566   3.571028   6.713316   2.990880   2.875909
    17  H    5.457621   3.034740   6.482059   2.320445   3.368424
    18  H    6.628008   4.556049   7.570210   3.965173   3.839339
    19  C    2.434504   1.329617   3.424540   2.102046   3.993310
    20  H    3.387926   2.100052   4.286412   2.437758   4.460613
    21  C    1.331843   2.425605   2.098723   3.420834   4.751321
    22  H    2.097934   3.380405   2.424207   4.287337   5.665528
    23  C    2.529936   1.501290   3.498978   2.220011   3.333822
    24  H    3.436481   2.136718   4.348897   2.445912   2.763156
    25  H    2.991222   2.106875   3.849724   2.669076   4.318844
    26  C    1.504526   2.537811   2.229985   3.496872   3.841788
    27  H    2.141381   3.435447   2.469924   4.337976   4.653688
    28  H    2.121695   3.020173   2.676328   3.863596   3.289721
                    6          7          8          9         10
     6  C    0.000000
     7  H    2.100052   0.000000
     8  H    1.082853   2.437758   0.000000
     9  C    1.501290   3.464069   2.220011   0.000000
    10  H    2.106875   3.933231   2.669076   1.097475   0.000000
    11  H    2.136718   4.203073   2.445912   1.090146   1.746819
    12  C    2.425605   2.200316   3.420834   2.858261   3.317234
    13  H    3.380405   2.509441   4.287337   3.930316   4.302982
    14  C    2.833419   3.387926   3.914631   2.529936   2.991222
    15  H    3.916290   4.286412   4.998038   3.498978   3.849724
    16  C    2.537811   3.947976   3.496872   1.532744   2.162687
    17  H    3.020173   4.357970   3.863596   2.172021   3.036594
    18  H    3.435447   4.921346   4.337976   2.159428   2.359055
    19  C    3.215772   4.460613   3.109859   3.333822   4.318844
    20  H    3.580938   5.118109   3.642996   3.216694   4.157555
    21  C    3.872175   4.999762   3.340052   4.221517   5.039395
    22  H    4.654748   5.979819   4.085744   4.770744   5.486383
    23  C    3.336362   3.216694   3.230710   4.301017   5.263361
    24  H    3.189437   2.456412   3.276635   4.320095   5.216218
    25  H    4.399425   4.157555   4.318639   5.263361   6.270255
    26  C    3.571028   3.545127   2.990880   4.685829   5.480671
    27  H    4.556049   4.159561   3.965173   5.745461   6.520505
    28  H    3.034740   2.881128   2.320445   4.327468   4.963107
                   11         12         13         14         15
    11  H    0.000000
    12  C    3.833446   0.000000
    13  H    4.915527   1.083482   0.000000
    14  C    3.436481   1.331843   2.097934   0.000000
    15  H    4.348897   2.098723   2.424207   1.083896   0.000000
    16  C    2.165163   2.477092   3.467134   1.504526   2.229985
    17  H    2.378099   3.033234   3.968184   2.121695   2.676328
    18  H    2.621387   3.305282   4.197851   2.141381   2.469923
    19  C    2.763156   4.751321   5.665528   4.705145   5.588409
    20  H    2.456412   4.999762   5.979819   4.659550   5.450571
    21  C    3.556465   5.786448   6.672748   5.921116   6.879054
    22  H    3.924011   6.672748   7.610257   6.681961   7.620089
    23  C    4.320095   4.221517   4.770744   4.789648   5.656064
    24  H    4.604837   3.556465   3.924011   4.345663   5.164677
    25  H    5.216218   5.039395   5.486383   5.550006   6.310484
    26  C    4.579438   5.065810   5.656316   5.734566   6.713316
    27  H    5.670509   5.851553   6.305563   6.628008   7.570210
    28  H    4.375179   4.662216   5.235151   5.457621   6.482059
                   16         17         18         19         20
    16  C    0.000000
    17  H    1.096982   0.000000
    18  H    1.091735   1.742589   0.000000
    19  C    3.841788   3.289721   4.653688   0.000000
    20  H    3.545127   2.881128   4.159561   1.083382   0.000000
    21  C    5.065810   4.662216   5.851553   1.462771   2.200316
    22  H    5.656316   5.235151   6.305563   2.198423   2.509441
    23  C    4.685829   4.327468   5.745461   2.471491   3.464069
    24  H    4.579438   4.375179   5.670508   3.307642   4.203073
    25  H    5.480671   4.963107   6.520505   2.996482   3.933231
    26  C    5.487608   5.296115   6.503008   2.875909   3.947976
    27  H    6.503008   6.291481   7.539771   3.839339   4.921346
    28  H    5.296115   5.328280   6.291481   3.368424   4.357970
                   21         22         23         24         25
    21  C    0.000000
    22  H    1.083482   0.000000
    23  C    2.858261   3.930316   0.000000
    24  H    3.833446   4.915527   1.090146   0.000000
    25  H    3.317234   4.302982   1.097475   1.746819   0.000000
    26  C    2.477092   3.467134   1.532744   2.165163   2.162687
    27  H    3.305282   4.197851   2.159427   2.621387   2.359054
    28  H    3.033234   3.968184   2.172021   2.378099   3.036594
                   26         27         28
    26  C    0.000000
    27  H    1.091735   0.000000
    28  H    1.096982   1.742590   0.000000
 Symmetry turned off by external request.
 Stoichiometry    C12H16
 Framework group  CI[X(C12H16)]
 Deg. of freedom    39
 Full point group                 CI      NOp   2
 Rotational constants (GHZ):           1.7702073           0.5971610           0.5372422
 Leave Link  202 at Tue Aug  4 21:37:18 2020, MaxMem=  6442450944 cpu:               0.3 elap:               0.0
 (Enter /scratch/scicomp/CentOS/7.3.1611/Haswell/software/Gaussian/g16/l301.exe)
 Standard basis: def2TZVP (5D, 7F)
 Ernie: Thresh=  0.10000D-02 Tol=  0.10000D-05 Strict=F.
   468 basis functions,   740 primitive gaussians,   528 cartesian basis functions
    44 alpha electrons       44 beta electrons
       nuclear repulsion energy       677.2008204301 Hartrees.
 IExCor= 4639 DFT=T Ex+Corr=wB97XD ExCW=0 ScaHFX=  1.000000
 ScaDFX=  1.000000  1.000000  1.000000  1.000000 ScalE2=  1.000000  1.000000
 IRadAn=      5 IRanWt=     -1 IRanGd=            0 ICorTp=0 IEmpDi=121
 HFx  wShort=  0.000000 wLong=  0.200000 cFull=  0.222036 cShort=  0.000000 cLong=  0.777964
 DFx  wShort=  0.000000 wLong=  0.200000 cFull=  0.000000 cShort=  0.000000 cLong=  1.000000
 NAtoms=   28 NActive=   28 NUniq=   28 SFac= 1.00D+00 NAtFMM=   60 NAOKFM=F Big=F
 Integral buffers will be    131072 words long.
 Raffenetti 2 integral format.
 Two-electron integral symmetry is turned off.
 R6Disp:  Grimme-D2 Dispersion energy=       -0.0223066379 Hartrees.
 Nuclear repulsion after empirical dispersion term =      677.1785137922 Hartrees.
 Using the following non-standard input for PCM:
 norep  pcmdoc geomview  nodis cav g03defaults noaddsph  tsare=0.075
 Warning! Using old PCM defaults because the g03defaults keyword was found.
 These settings can be overridden by following keywords.
 nsfe=28
 Vmol=101.730197792279 Rsolv=2.815
 --- end of non-standard input.
 Reading user-defined spheres from input:
 ISph  on   Nord    Re0     Alpha      Xe            Ye            Ze
 --- end of user-defined spheres data.
 ------------------------------------------------------------------------------
 Polarizable Continuum Model (PCM)
 =================================
 Model                : PCM.
 Atomic radii         : UA0 (Simple United Atom Topological Model).
 Polarization charges : Total charges.
 Charge compensation  : None.
 Solution method      : On-the-fly selection.
 Cavity type          : VdW (van der Waals Surface) (Alpha=1.000).
 Cavity algorithm     : GePol (No added spheres)
                        User-defined sphere list used, NSphG=   28.
                        Tesserae with average area of 0.075 Ang**2.
                        Smoothing algorithm: None.
                        Polarization charges: point-like.
                        Self-potential: constant (ISelfS= 1).
                        Self-field    : global E.n sum rule (ISelfD= 3).
 Solvent              : CycloHexane, Eps=   2.016500 Eps(inf)=   2.035188
 ------------------------------------------------------------------------------
 GePol: Number of generator spheres                  =      28
 GePol: Total number of spheres                      =      28
 GePol: Number of exposed spheres                    =      28 (100.00%)
 GePol: Number of tesserae                           =    3915
 GePol: Average area of tesserae                     =       0.06 Ang**2
 GePol: Minimum area of tessera                      =   0.10D-02 Ang**2
 GePol: Maximum area of tessera                      =    0.12395 Ang**2
 GePol: Number of small tesserae                     =       0
 GePol: Fraction of small tesserae (<1% of avg)      =       0.00%
 GePol: Total count of vertices                      =   12954
 GePol: Maximum number of vertices in a tessera      =       6
 GePol: Cavity surface area                          =    235.744 Ang**2
 GePol: Cavity volume                                =    242.510 Ang**3
 PCM non-electrostatic energy =         0.0432283144 Hartrees.
 Nuclear repulsion after PCM non-electrostatic terms =      677.2217421066 Hartrees.
 Leave Link  301 at Tue Aug  4 21:37:19 2020, MaxMem=  6442450944 cpu:               3.2 elap:               0.2
 (Enter /scratch/scicomp/CentOS/7.3.1611/Haswell/software/Gaussian/g16/l302.exe)
 NPDir=0 NMtPBC=     1 NCelOv=     1 NCel=       1 NClECP=     1 NCelD=      1
         NCelK=      1 NCelE2=     1 NClLst=     1 CellRange=     0.0.
 One-electron integrals computed using PRISM.
   1 Symmetry operations used in ECPInt.
 ECPInt:  NShTT=   19306 NPrTT=   56928 LenC2=   18478 LenP2D=   41942.
 LDataN:  DoStor=T MaxTD1= 6 Len=  172
 NBasis=   468 RedAO= T EigKep=  2.40D-05  NBF=   468
 NBsUse=   468 1.00D-06 EigRej= -1.00D+00 NBFU=   468
 Precomputing XC quadrature grid using
 IXCGrd= 4 IRadAn=           5 IRanWt=          -1 IRanGd=           0 AccXCQ= 0.00D+00.
 Generated NRdTot=       0 NPtTot=           0 NUsed=           0 NTot=          32
 NSgBfM=   526   526   526   526   526 MxSgAt=    28 MxSgA2=    28.
 Leave Link  302 at Tue Aug  4 21:37:19 2020, MaxMem=  6442450944 cpu:              11.7 elap:               0.5
 (Enter /scratch/scicomp/CentOS/7.3.1611/Haswell/software/Gaussian/g16/l401.exe)
 ExpMin= 9.52D-02 ExpMax= 1.36D+04 ExpMxC= 4.63D+02 IAcc=3 IRadAn=         5 AccDes= 0.00D+00
 Harris functional with IExCor= 4639 and IRadAn=       5 diagonalized for initial guess.
 HarFok:  IExCor= 4639 AccDes= 0.00D+00 IRadAn=         5 IDoV= 1 UseB2=F ITyADJ=14
 ICtDFT=  3500011 ScaDFX=  1.000000  1.000000  1.000000  1.000000
 FoFCou: FMM=F IPFlag=           0 FMFlag=      100000 FMFlg1=           0
         NFxFlg=           0 DoJE=T BraDBF=F KetDBF=T FulRan=T
         wScrn=  0.000000 ICntrl=       500 IOpCl=  0 I1Cent=   200000004 NGrid=           0
         NMat0=    1 NMatS0=      1 NMatT0=    0 NMatD0=    1 NMtDS0=    0 NMtDT0=    0
 Symmetry not used in FoFCou.
 Harris En= -444.590293471107    
 JPrj=0 DoOrth=F DoCkMO=T.
 Mixing orbitals, IMix= 1 IMixAn=  0 NRI=1 NE=   44 Coef=  7.07106781D-01  7.07106781D-01
 Mixing orbitals, IMix= 1 IMixAn=  0 NRI=1 NE=   44 Coef= -7.07106781D-01  7.07106781D-01
 Initial guess <Sx>= 0.0000 <Sy>= 0.0000 <Sz>= 0.0000 <S**2>= 1.0000 S= 0.6180
 Leave Link  401 at Tue Aug  4 21:37:21 2020, MaxMem=  6442450944 cpu:              47.1 elap:               2.0
 (Enter /scratch/scicomp/CentOS/7.3.1611/Haswell/software/Gaussian/g16/l9999.exe)

 This type of calculation cannot be archived.


 STEINBACH'S GUIDELINES FOR SYSTEMS PROGRAMMING:
 NEVER TEST FOR AN ERROR CONDITION YOU DON'T KNOW HOW
 TO HANDLE.
 Job cpu time:       0 days  0 hours  1 minutes  7.0 seconds.
 Elapsed time:       0 days  0 hours  0 minutes  3.1 seconds.
 File lengths (MBytes):  RWF=    291 Int=      0 D2E=      0 Chk=      1 Scr=      1
 Normal termination of Gaussian 16 at Tue Aug  4 21:37:21 2020.
 Initial command:
 /scratch/scicomp/CentOS/7.3.1611/Haswell/software/Gaussian/g16/l1.exe "/scratch/bochen/cyclohexadiene-dimerization/wb97xd-def2tzvp/xp-pcm/meso/Gau-72175.inp" -scrdir="/scratch/bochen/cyclohexadiene-dimerization/wb97xd-def2tzvp/xp-pcm/meso/"
 Entering Link 1 = /scratch/scicomp/CentOS/7.3.1611/Haswell/software/Gaussian/g16/l1.exe PID=     72514.
  
 Copyright (c) 1988-2017, Gaussian, Inc.  All Rights Reserved.
  
 This is part of the Gaussian(R) 16 program.  It is based on
 the Gaussian(R) 09 system (copyright 2009, Gaussian, Inc.),
 the Gaussian(R) 03 system (copyright 2003, Gaussian, Inc.),
 the Gaussian(R) 98 system (copyright 1998, Gaussian, Inc.),
 the Gaussian(R) 94 system (copyright 1995, Gaussian, Inc.),
 the Gaussian 92(TM) system (copyright 1992, Gaussian, Inc.),
 the Gaussian 90(TM) system (copyright 1990, Gaussian, Inc.),
 the Gaussian 88(TM) system (copyright 1988, Gaussian, Inc.),
 the Gaussian 86(TM) system (copyright 1986, Carnegie Mellon
 University), and the Gaussian 82(TM) system (copyright 1983,
 Carnegie Mellon University). Gaussian is a federally registered
 trademark of Gaussian, Inc.
  
 This software contains proprietary and confidential information,
 including trade secrets, belonging to Gaussian, Inc.
  
 This software is provided under written license and may be
 used, copied, transmitted, or stored only in accord with that
 written license.
  
 The following legend is applicable only to US Government
 contracts under FAR:
  
                    RESTRICTED RIGHTS LEGEND
  
 Use, reproduction and disclosure by the US Government is
 subject to restrictions as set forth in subparagraphs (a)
 and (c) of the Commercial Computer Software - Restricted
 Rights clause in FAR 52.227-19.
  
 Gaussian, Inc.
 340 Quinnipiac St., Bldg. 40, Wallingford CT 06492
  
  
 ---------------------------------------------------------------
 Warning -- This program may not be used in any manner that
 competes with the business of Gaussian, Inc. or will provide
 assistance to any competitor of Gaussian, Inc.  The licensee
 of this program is prohibited from giving any competitor of
 Gaussian, Inc. access to this program.  By using this program,
 the user acknowledges that Gaussian, Inc. is engaged in the
 business of creating and licensing software in the field of
 computational chemistry and represents and warrants to the
 licensee that it is not a competitor of Gaussian, Inc. and that
 it will not use this program in any manner prohibited above.
 ---------------------------------------------------------------
  

 Cite this work as:
 Gaussian 16, Revision B.01,
 M. J. Frisch, G. W. Trucks, H. B. Schlegel, G. E. Scuseria, 
 M. A. Robb, J. R. Cheeseman, G. Scalmani, V. Barone, 
 G. A. Petersson, H. Nakatsuji, X. Li, M. Caricato, A. V. Marenich, 
 J. Bloino, B. G. Janesko, R. Gomperts, B. Mennucci, H. P. Hratchian, 
 J. V. Ortiz, A. F. Izmaylov, J. L. Sonnenberg, D. Williams-Young, 
 F. Ding, F. Lipparini, F. Egidi, J. Goings, B. Peng, A. Petrone, 
 T. Henderson, D. Ranasinghe, V. G. Zakrzewski, J. Gao, N. Rega, 
 G. Zheng, W. Liang, M. Hada, M. Ehara, K. Toyota, R. Fukuda, 
 J. Hasegawa, M. Ishida, T. Nakajima, Y. Honda, O. Kitao, H. Nakai, 
 T. Vreven, K. Throssell, J. A. Montgomery, Jr., J. E. Peralta, 
 F. Ogliaro, M. J. Bearpark, J. J. Heyd, E. N. Brothers, K. N. Kudin, 
 V. N. Staroverov, T. A. Keith, R. Kobayashi, J. Normand, 
 K. Raghavachari, A. P. Rendell, J. C. Burant, S. S. Iyengar, 
 J. Tomasi, M. Cossi, J. M. Millam, M. Klene, C. Adamo, R. Cammi, 
 J. W. Ochterski, R. L. Martin, K. Morokuma, O. Farkas, 
 J. B. Foresman, and D. J. Fox, Gaussian, Inc., Wallingford CT, 2016.
 
 ******************************************
 Gaussian 16:  ES64L-G16RevB.01 20-Dec-2017
                 4-Aug-2020 
 ******************************************
 %chk=scr.chk
 %nproc=24
 Will use up to   24 processors via shared memory.
 %mem=48GB
 ----------------------------------------------------------------------
 #p uwb97xd guess=mix def2tzvp # scrf=(iefpcm,solvent=Cyclohexane,read)
  nosym guess=only pop=none
 ----------------------------------------------------------------------
 1/38=1,40=2,172=1/1;
 2/12=2,15=1,17=6,18=5,40=1/2;
 3/5=44,7=101,11=2,25=1,30=1,70=2203,72=17,74=-58,89=1,116=2/1,2;
 4/13=-1/1;
 99/5=2/99;
 Leave Link    1 at Tue Aug  4 21:37:21 2020, MaxMem=  6442450944 cpu:               1.3 elap:               0.1
 (Enter /scratch/scicomp/CentOS/7.3.1611/Haswell/software/Gaussian/g16/l101.exe)
 -------------------------------------------------
 endo-2 xp-pcm with Vmol=95.7726100512575 cm^3/mol
 -------------------------------------------------
 Symbolic Z-matrix:
 Charge =  0 Multiplicity = 1
 6                    -3.12775  -0.44152   0.26112 
 6                    -0.71992  -0.24822  -1.21984 
 1                    -4.0736   -0.53513   0.78213 
 1                     0.23413  -0.16473  -1.7252 
 6                     1.16007   1.42422   0.7826 
 6                     0.71992   0.24822   1.21984 
 1                     0.56693   2.32073   0.91735 
 1                    -0.23413   0.16473   1.7252 
 6                     1.55459  -0.99429   1.10423 
 1                     2.07784  -1.12631   2.05986 
 1                     0.91189  -1.86751   0.99096 
 6                     2.45364   1.5293    0.10781 
 1                     2.85378   2.51504  -0.09747 
 6                     3.12775   0.44152  -0.26112 
 1                     4.0736    0.53513  -0.78213 
 6                     2.57732  -0.94051  -0.03613 
 1                     2.12125  -1.28557  -0.97224 
 1                     3.39036  -1.6399    0.16813 
 6                    -1.16007  -1.42422  -0.7826 
 1                    -0.56693  -2.32073  -0.91735 
 6                    -2.45364  -1.5293   -0.10781 
 1                    -2.85378  -2.51504   0.09747 
 6                    -1.55459   0.99429  -1.10423 
 1                    -0.91189   1.86751  -0.99096 
 1                    -2.07784   1.12631  -2.05986 
 6                    -2.57732   0.94051   0.03613 
 1                    -3.39036   1.6399   -0.16813 
 1                    -2.12125   1.28557   0.97224 
 
 ITRead=  0  0  0  0  0  0  0  0  0  0  0  0  0  0  0  0  0  0  0  0
 ITRead=  0  0  0  0  0  0  0  0
 MicOpt= -1 -1 -1 -1 -1 -1 -1 -1 -1 -1 -1 -1 -1 -1 -1 -1 -1 -1 -1 -1
 MicOpt= -1 -1 -1 -1 -1 -1 -1 -1
 NAtoms=     28 NQM=       28 NQMF=       0 NMMI=      0 NMMIF=      0
                NMic=       0 NMicF=      0.
                    Isotopes and Nuclear Properties:
 (Nuclear quadrupole moments (NQMom) in fm**2, nuclear magnetic moments (NMagM)
  in nuclear magnetons)

  Atom         1           2           3           4           5           6           7           8           9          10
 IAtWgt=          12          12           1           1          12          12           1           1          12           1
 AtmWgt=  12.0000000  12.0000000   1.0078250   1.0078250  12.0000000  12.0000000   1.0078250   1.0078250  12.0000000   1.0078250
 NucSpn=           0           0           1           1           0           0           1           1           0           1
 AtZEff=  -0.0000000  -0.0000000  -0.0000000  -0.0000000  -0.0000000  -0.0000000  -0.0000000  -0.0000000  -0.0000000  -0.0000000
 NQMom=    0.0000000   0.0000000   0.0000000   0.0000000   0.0000000   0.0000000   0.0000000   0.0000000   0.0000000   0.0000000
 NMagM=    0.0000000   0.0000000   2.7928460   2.7928460   0.0000000   0.0000000   2.7928460   2.7928460   0.0000000   2.7928460
 AtZNuc=   6.0000000   6.0000000   1.0000000   1.0000000   6.0000000   6.0000000   1.0000000   1.0000000   6.0000000   1.0000000

  Atom        11          12          13          14          15          16          17          18          19          20
 IAtWgt=           1          12           1          12           1          12           1           1          12           1
 AtmWgt=   1.0078250  12.0000000   1.0078250  12.0000000   1.0078250  12.0000000   1.0078250   1.0078250  12.0000000   1.0078250
 NucSpn=           1           0           1           0           1           0           1           1           0           1
 AtZEff=  -0.0000000  -0.0000000  -0.0000000  -0.0000000  -0.0000000  -0.0000000  -0.0000000  -0.0000000  -0.0000000  -0.0000000
 NQMom=    0.0000000   0.0000000   0.0000000   0.0000000   0.0000000   0.0000000   0.0000000   0.0000000   0.0000000   0.0000000
 NMagM=    2.7928460   0.0000000   2.7928460   0.0000000   2.7928460   0.0000000   2.7928460   2.7928460   0.0000000   2.7928460
 AtZNuc=   1.0000000   6.0000000   1.0000000   6.0000000   1.0000000   6.0000000   1.0000000   1.0000000   6.0000000   1.0000000

  Atom        21          22          23          24          25          26          27          28
 IAtWgt=          12           1          12           1           1          12           1           1
 AtmWgt=  12.0000000   1.0078250  12.0000000   1.0078250   1.0078250  12.0000000   1.0078250   1.0078250
 NucSpn=           0           1           0           1           1           0           1           1
 AtZEff=  -0.0000000  -0.0000000  -0.0000000  -0.0000000  -0.0000000  -0.0000000  -0.0000000  -0.0000000
 NQMom=    0.0000000   0.0000000   0.0000000   0.0000000   0.0000000   0.0000000   0.0000000   0.0000000
 NMagM=    0.0000000   2.7928460   0.0000000   2.7928460   2.7928460   0.0000000   2.7928460   2.7928460
 AtZNuc=   6.0000000   1.0000000   6.0000000   1.0000000   1.0000000   6.0000000   1.0000000   1.0000000
 Leave Link  101 at Tue Aug  4 21:37:22 2020, MaxMem=  6442450944 cpu:               2.4 elap:               0.1
 (Enter /scratch/scicomp/CentOS/7.3.1611/Haswell/software/Gaussian/g16/l202.exe)
                          Input orientation:                          
 ---------------------------------------------------------------------
 Center     Atomic      Atomic             Coordinates (Angstroms)
 Number     Number       Type             X           Y           Z
 ---------------------------------------------------------------------
      1          6           0       -3.127753   -0.441522    0.261122
      2          6           0       -0.719921   -0.248221   -1.219838
      3          1           0       -4.073595   -0.535125    0.782132
      4          1           0        0.234126   -0.164733   -1.725204
      5          6           0        1.160074    1.424218    0.782600
      6          6           0        0.719921    0.248221    1.219838
      7          1           0        0.566933    2.320735    0.917353
      8          1           0       -0.234126    0.164733    1.725204
      9          6           0        1.554591   -0.994289    1.104230
     10          1           0        2.077836   -1.126314    2.059864
     11          1           0        0.911886   -1.867512    0.990956
     12          6           0        2.453641    1.529303    0.107811
     13          1           0        2.853781    2.515042   -0.097470
     14          6           0        3.127753    0.441522   -0.261122
     15          1           0        4.073595    0.535125   -0.782132
     16          6           0        2.577324   -0.940508   -0.036133
     17          1           0        2.121249   -1.285571   -0.972240
     18          1           0        3.390356   -1.639895    0.168128
     19          6           0       -1.160074   -1.424218   -0.782600
     20          1           0       -0.566933   -2.320735   -0.917353
     21          6           0       -2.453641   -1.529303   -0.107811
     22          1           0       -2.853781   -2.515042    0.097470
     23          6           0       -1.554591    0.994289   -1.104230
     24          1           0       -0.911886    1.867512   -0.990956
     25          1           0       -2.077836    1.126314   -2.059864
     26          6           0       -2.577324    0.940508    0.036133
     27          1           0       -3.390356    1.639895   -0.168129
     28          1           0       -2.121249    1.285571    0.972240
 ---------------------------------------------------------------------
                    Distance matrix (angstroms):
                    1          2          3          4          5
     1  C    0.000000
     2  C    2.833419   0.000000
     3  H    1.083896   3.916290   0.000000
     4  H    3.914631   1.082853   4.998038   0.000000
     5  C    4.705145   3.215772   5.588409   3.109859   0.000000
     6  C    4.024857   2.876042   4.876783   3.013271   1.329617
     7  H    4.659550   3.580938   5.450571   3.642996   1.083382
     8  H    3.299115   3.013271   4.015060   3.497588   2.102046
     9  C    4.789648   3.336362   5.656064   3.230710   2.471491
    10  H    5.550006   4.399425   6.310484   4.318639   2.996482
    11  H    4.345663   3.189437   5.164677   3.276635   3.307642
    12  C    5.921116   3.872175   6.879054   3.340052   1.462771
    13  H    6.681961   4.654748   7.620089   4.085744   2.198423
    14  C    6.339074   4.024857   7.341773   3.299115   2.434504
    15  H    7.341773   4.876783   8.364751   4.015060   3.424540
    16  C    5.734566   3.571028   6.713316   2.990880   2.875909
    17  H    5.457621   3.034740   6.482059   2.320445   3.368424
    18  H    6.628008   4.556049   7.570210   3.965173   3.839339
    19  C    2.434504   1.329617   3.424540   2.102046   3.993310
    20  H    3.387926   2.100052   4.286412   2.437758   4.460613
    21  C    1.331843   2.425605   2.098723   3.420834   4.751321
    22  H    2.097934   3.380405   2.424207   4.287337   5.665528
    23  C    2.529936   1.501290   3.498978   2.220011   3.333822
    24  H    3.436481   2.136718   4.348897   2.445912   2.763156
    25  H    2.991222   2.106875   3.849724   2.669076   4.318844
    26  C    1.504526   2.537811   2.229985   3.496872   3.841788
    27  H    2.141381   3.435447   2.469924   4.337976   4.653688
    28  H    2.121695   3.020173   2.676328   3.863596   3.289721
                    6          7          8          9         10
     6  C    0.000000
     7  H    2.100052   0.000000
     8  H    1.082853   2.437758   0.000000
     9  C    1.501290   3.464069   2.220011   0.000000
    10  H    2.106875   3.933231   2.669076   1.097475   0.000000
    11  H    2.136718   4.203073   2.445912   1.090146   1.746819
    12  C    2.425605   2.200316   3.420834   2.858261   3.317234
    13  H    3.380405   2.509441   4.287337   3.930316   4.302982
    14  C    2.833419   3.387926   3.914631   2.529936   2.991222
    15  H    3.916290   4.286412   4.998038   3.498978   3.849724
    16  C    2.537811   3.947976   3.496872   1.532744   2.162687
    17  H    3.020173   4.357970   3.863596   2.172021   3.036594
    18  H    3.435447   4.921346   4.337976   2.159428   2.359055
    19  C    3.215772   4.460613   3.109859   3.333822   4.318844
    20  H    3.580938   5.118109   3.642996   3.216694   4.157555
    21  C    3.872175   4.999762   3.340052   4.221517   5.039395
    22  H    4.654748   5.979819   4.085744   4.770744   5.486383
    23  C    3.336362   3.216694   3.230710   4.301017   5.263361
    24  H    3.189437   2.456412   3.276635   4.320095   5.216218
    25  H    4.399425   4.157555   4.318639   5.263361   6.270255
    26  C    3.571028   3.545127   2.990880   4.685829   5.480671
    27  H    4.556049   4.159561   3.965173   5.745461   6.520505
    28  H    3.034740   2.881128   2.320445   4.327468   4.963107
                   11         12         13         14         15
    11  H    0.000000
    12  C    3.833446   0.000000
    13  H    4.915527   1.083482   0.000000
    14  C    3.436481   1.331843   2.097934   0.000000
    15  H    4.348897   2.098723   2.424207   1.083896   0.000000
    16  C    2.165163   2.477092   3.467134   1.504526   2.229985
    17  H    2.378099   3.033234   3.968184   2.121695   2.676328
    18  H    2.621387   3.305282   4.197851   2.141381   2.469923
    19  C    2.763156   4.751321   5.665528   4.705145   5.588409
    20  H    2.456412   4.999762   5.979819   4.659550   5.450571
    21  C    3.556465   5.786448   6.672748   5.921116   6.879054
    22  H    3.924011   6.672748   7.610257   6.681961   7.620089
    23  C    4.320095   4.221517   4.770744   4.789648   5.656064
    24  H    4.604837   3.556465   3.924011   4.345663   5.164677
    25  H    5.216218   5.039395   5.486383   5.550006   6.310484
    26  C    4.579438   5.065810   5.656316   5.734566   6.713316
    27  H    5.670509   5.851553   6.305563   6.628008   7.570210
    28  H    4.375179   4.662216   5.235151   5.457621   6.482059
                   16         17         18         19         20
    16  C    0.000000
    17  H    1.096982   0.000000
    18  H    1.091735   1.742589   0.000000
    19  C    3.841788   3.289721   4.653688   0.000000
    20  H    3.545127   2.881128   4.159561   1.083382   0.000000
    21  C    5.065810   4.662216   5.851553   1.462771   2.200316
    22  H    5.656316   5.235151   6.305563   2.198423   2.509441
    23  C    4.685829   4.327468   5.745461   2.471491   3.464069
    24  H    4.579438   4.375179   5.670508   3.307642   4.203073
    25  H    5.480671   4.963107   6.520505   2.996482   3.933231
    26  C    5.487608   5.296115   6.503008   2.875909   3.947976
    27  H    6.503008   6.291481   7.539771   3.839339   4.921346
    28  H    5.296115   5.328280   6.291481   3.368424   4.357970
                   21         22         23         24         25
    21  C    0.000000
    22  H    1.083482   0.000000
    23  C    2.858261   3.930316   0.000000
    24  H    3.833446   4.915527   1.090146   0.000000
    25  H    3.317234   4.302982   1.097475   1.746819   0.000000
    26  C    2.477092   3.467134   1.532744   2.165163   2.162687
    27  H    3.305282   4.197851   2.159427   2.621387   2.359054
    28  H    3.033234   3.968184   2.172021   2.378099   3.036594
                   26         27         28
    26  C    0.000000
    27  H    1.091735   0.000000
    28  H    1.096982   1.742590   0.000000
 Symmetry turned off by external request.
 Stoichiometry    C12H16
 Framework group  CI[X(C12H16)]
 Deg. of freedom    39
 Full point group                 CI      NOp   2
 Rotational constants (GHZ):           1.7702073           0.5971610           0.5372422
 Leave Link  202 at Tue Aug  4 21:37:22 2020, MaxMem=  6442450944 cpu:               0.3 elap:               0.0
 (Enter /scratch/scicomp/CentOS/7.3.1611/Haswell/software/Gaussian/g16/l301.exe)
 Standard basis: def2TZVP (5D, 7F)
 Ernie: Thresh=  0.10000D-02 Tol=  0.10000D-05 Strict=F.
   468 basis functions,   740 primitive gaussians,   528 cartesian basis functions
    44 alpha electrons       44 beta electrons
       nuclear repulsion energy       677.2008204301 Hartrees.
 IExCor= 4639 DFT=T Ex+Corr=wB97XD ExCW=0 ScaHFX=  1.000000
 ScaDFX=  1.000000  1.000000  1.000000  1.000000 ScalE2=  1.000000  1.000000
 IRadAn=      5 IRanWt=     -1 IRanGd=            0 ICorTp=0 IEmpDi=121
 HFx  wShort=  0.000000 wLong=  0.200000 cFull=  0.222036 cShort=  0.000000 cLong=  0.777964
 DFx  wShort=  0.000000 wLong=  0.200000 cFull=  0.000000 cShort=  0.000000 cLong=  1.000000
 NAtoms=   28 NActive=   28 NUniq=   28 SFac= 1.00D+00 NAtFMM=   60 NAOKFM=F Big=F
 Integral buffers will be    131072 words long.
 Raffenetti 2 integral format.
 Two-electron integral symmetry is turned off.
 R6Disp:  Grimme-D2 Dispersion energy=       -0.0223066379 Hartrees.
 Nuclear repulsion after empirical dispersion term =      677.1785137922 Hartrees.
 Using the following non-standard input for PCM:
 norep  pcmdoc geomview  nodis cav g03defaults noaddsph  tsare=0.075
 Warning! Using old PCM defaults because the g03defaults keyword was found.
 These settings can be overridden by following keywords.
 nsfe=28
 Vmol=95.7726100512575 Rsolv=2.815
 --- end of non-standard input.
 Reading user-defined spheres from input:
 ISph  on   Nord    Re0     Alpha      Xe            Ye            Ze
 --- end of user-defined spheres data.
 ------------------------------------------------------------------------------
 Polarizable Continuum Model (PCM)
 =================================
 Model                : PCM.
 Atomic radii         : UA0 (Simple United Atom Topological Model).
 Polarization charges : Total charges.
 Charge compensation  : None.
 Solution method      : On-the-fly selection.
 Cavity type          : VdW (van der Waals Surface) (Alpha=1.000).
 Cavity algorithm     : GePol (No added spheres)
                        User-defined sphere list used, NSphG=   28.
                        Tesserae with average area of 0.075 Ang**2.
                        Smoothing algorithm: None.
                        Polarization charges: point-like.
                        Self-potential: constant (ISelfS= 1).
                        Self-field    : global E.n sum rule (ISelfD= 3).
 Solvent              : CycloHexane, Eps=   2.016500 Eps(inf)=   2.035188
 ------------------------------------------------------------------------------
 GePol: Number of generator spheres                  =      28
 GePol: Total number of spheres                      =      28
 GePol: Number of exposed spheres                    =      28 (100.00%)
 GePol: Number of tesserae                           =    3915
 GePol: Average area of tesserae                     =       0.06 Ang**2
 GePol: Minimum area of tessera                      =   0.10D-02 Ang**2
 GePol: Maximum area of tessera                      =    0.12395 Ang**2
 GePol: Number of small tesserae                     =       0
 GePol: Fraction of small tesserae (<1% of avg)      =       0.00%
 GePol: Total count of vertices                      =   12954
 GePol: Maximum number of vertices in a tessera      =       6
 GePol: Cavity surface area                          =    235.744 Ang**2
 GePol: Cavity volume                                =    242.510 Ang**3
 PCM non-electrostatic energy =         0.0521482054 Hartrees.
 Nuclear repulsion after PCM non-electrostatic terms =      677.2306619976 Hartrees.
 Leave Link  301 at Tue Aug  4 21:37:22 2020, MaxMem=  6442450944 cpu:               3.2 elap:               0.2
 (Enter /scratch/scicomp/CentOS/7.3.1611/Haswell/software/Gaussian/g16/l302.exe)
 NPDir=0 NMtPBC=     1 NCelOv=     1 NCel=       1 NClECP=     1 NCelD=      1
         NCelK=      1 NCelE2=     1 NClLst=     1 CellRange=     0.0.
 One-electron integrals computed using PRISM.
   1 Symmetry operations used in ECPInt.
 ECPInt:  NShTT=   19306 NPrTT=   56928 LenC2=   18478 LenP2D=   41942.
 LDataN:  DoStor=T MaxTD1= 6 Len=  172
 NBasis=   468 RedAO= T EigKep=  2.40D-05  NBF=   468
 NBsUse=   468 1.00D-06 EigRej= -1.00D+00 NBFU=   468
 Precomputing XC quadrature grid using
 IXCGrd= 4 IRadAn=           5 IRanWt=          -1 IRanGd=           0 AccXCQ= 0.00D+00.
 Generated NRdTot=       0 NPtTot=           0 NUsed=           0 NTot=          32
 NSgBfM=   526   526   526   526   526 MxSgAt=    28 MxSgA2=    28.
 Leave Link  302 at Tue Aug  4 21:37:23 2020, MaxMem=  6442450944 cpu:              11.7 elap:               0.5
 (Enter /scratch/scicomp/CentOS/7.3.1611/Haswell/software/Gaussian/g16/l401.exe)
 ExpMin= 9.52D-02 ExpMax= 1.36D+04 ExpMxC= 4.63D+02 IAcc=3 IRadAn=         5 AccDes= 0.00D+00
 Harris functional with IExCor= 4639 and IRadAn=       5 diagonalized for initial guess.
 HarFok:  IExCor= 4639 AccDes= 0.00D+00 IRadAn=         5 IDoV= 1 UseB2=F ITyADJ=14
 ICtDFT=  3500011 ScaDFX=  1.000000  1.000000  1.000000  1.000000
 FoFCou: FMM=F IPFlag=           0 FMFlag=      100000 FMFlg1=           0
         NFxFlg=           0 DoJE=T BraDBF=F KetDBF=T FulRan=T
         wScrn=  0.000000 ICntrl=       500 IOpCl=  0 I1Cent=   200000004 NGrid=           0
         NMat0=    1 NMatS0=      1 NMatT0=    0 NMatD0=    1 NMtDS0=    0 NMtDT0=    0
 Symmetry not used in FoFCou.
 Harris En= -444.581373580070    
 JPrj=0 DoOrth=F DoCkMO=T.
 Mixing orbitals, IMix= 1 IMixAn=  0 NRI=1 NE=   44 Coef=  7.07106781D-01  7.07106781D-01
 Mixing orbitals, IMix= 1 IMixAn=  0 NRI=1 NE=   44 Coef= -7.07106781D-01  7.07106781D-01
 Initial guess <Sx>= 0.0000 <Sy>= 0.0000 <Sz>= 0.0000 <S**2>= 1.0000 S= 0.6180
 Leave Link  401 at Tue Aug  4 21:37:25 2020, MaxMem=  6442450944 cpu:              46.8 elap:               2.0
 (Enter /scratch/scicomp/CentOS/7.3.1611/Haswell/software/Gaussian/g16/l9999.exe)

 This type of calculation cannot be archived.


      LET US REMEMBER, PLEASE, THAT THE SEARCH FOR THE CONSTITUTION
      OF THE WORLD IS ONE OF THE GREATEST AND NOBLEST PROBLEMS PRESENTED 
      BY NATURE.

                                                  -- GALILEO
 Job cpu time:       0 days  0 hours  1 minutes  6.7 seconds.
 Elapsed time:       0 days  0 hours  0 minutes  3.0 seconds.
 File lengths (MBytes):  RWF=    291 Int=      0 D2E=      0 Chk=      1 Scr=      1
 Normal termination of Gaussian 16 at Tue Aug  4 21:37:25 2020.
 Initial command:
 /scratch/scicomp/CentOS/7.3.1611/Haswell/software/Gaussian/g16/l1.exe "/scratch/bochen/cyclohexadiene-dimerization/wb97xd-def2tzvp/xp-pcm/meso/Gau-72175.inp" -scrdir="/scratch/bochen/cyclohexadiene-dimerization/wb97xd-def2tzvp/xp-pcm/meso/"
 Entering Link 1 = /scratch/scicomp/CentOS/7.3.1611/Haswell/software/Gaussian/g16/l1.exe PID=     72678.
  
 Copyright (c) 1988-2017, Gaussian, Inc.  All Rights Reserved.
  
 This is part of the Gaussian(R) 16 program.  It is based on
 the Gaussian(R) 09 system (copyright 2009, Gaussian, Inc.),
 the Gaussian(R) 03 system (copyright 2003, Gaussian, Inc.),
 the Gaussian(R) 98 system (copyright 1998, Gaussian, Inc.),
 the Gaussian(R) 94 system (copyright 1995, Gaussian, Inc.),
 the Gaussian 92(TM) system (copyright 1992, Gaussian, Inc.),
 the Gaussian 90(TM) system (copyright 1990, Gaussian, Inc.),
 the Gaussian 88(TM) system (copyright 1988, Gaussian, Inc.),
 the Gaussian 86(TM) system (copyright 1986, Carnegie Mellon
 University), and the Gaussian 82(TM) system (copyright 1983,
 Carnegie Mellon University). Gaussian is a federally registered
 trademark of Gaussian, Inc.
  
 This software contains proprietary and confidential information,
 including trade secrets, belonging to Gaussian, Inc.
  
 This software is provided under written license and may be
 used, copied, transmitted, or stored only in accord with that
 written license.
  
 The following legend is applicable only to US Government
 contracts under FAR:
  
                    RESTRICTED RIGHTS LEGEND
  
 Use, reproduction and disclosure by the US Government is
 subject to restrictions as set forth in subparagraphs (a)
 and (c) of the Commercial Computer Software - Restricted
 Rights clause in FAR 52.227-19.
  
 Gaussian, Inc.
 340 Quinnipiac St., Bldg. 40, Wallingford CT 06492
  
  
 ---------------------------------------------------------------
 Warning -- This program may not be used in any manner that
 competes with the business of Gaussian, Inc. or will provide
 assistance to any competitor of Gaussian, Inc.  The licensee
 of this program is prohibited from giving any competitor of
 Gaussian, Inc. access to this program.  By using this program,
 the user acknowledges that Gaussian, Inc. is engaged in the
 business of creating and licensing software in the field of
 computational chemistry and represents and warrants to the
 licensee that it is not a competitor of Gaussian, Inc. and that
 it will not use this program in any manner prohibited above.
 ---------------------------------------------------------------
  

 Cite this work as:
 Gaussian 16, Revision B.01,
 M. J. Frisch, G. W. Trucks, H. B. Schlegel, G. E. Scuseria, 
 M. A. Robb, J. R. Cheeseman, G. Scalmani, V. Barone, 
 G. A. Petersson, H. Nakatsuji, X. Li, M. Caricato, A. V. Marenich, 
 J. Bloino, B. G. Janesko, R. Gomperts, B. Mennucci, H. P. Hratchian, 
 J. V. Ortiz, A. F. Izmaylov, J. L. Sonnenberg, D. Williams-Young, 
 F. Ding, F. Lipparini, F. Egidi, J. Goings, B. Peng, A. Petrone, 
 T. Henderson, D. Ranasinghe, V. G. Zakrzewski, J. Gao, N. Rega, 
 G. Zheng, W. Liang, M. Hada, M. Ehara, K. Toyota, R. Fukuda, 
 J. Hasegawa, M. Ishida, T. Nakajima, Y. Honda, O. Kitao, H. Nakai, 
 T. Vreven, K. Throssell, J. A. Montgomery, Jr., J. E. Peralta, 
 F. Ogliaro, M. J. Bearpark, J. J. Heyd, E. N. Brothers, K. N. Kudin, 
 V. N. Staroverov, T. A. Keith, R. Kobayashi, J. Normand, 
 K. Raghavachari, A. P. Rendell, J. C. Burant, S. S. Iyengar, 
 J. Tomasi, M. Cossi, J. M. Millam, M. Klene, C. Adamo, R. Cammi, 
 J. W. Ochterski, R. L. Martin, K. Morokuma, O. Farkas, 
 J. B. Foresman, and D. J. Fox, Gaussian, Inc., Wallingford CT, 2016.
 
 ******************************************
 Gaussian 16:  ES64L-G16RevB.01 20-Dec-2017
                 4-Aug-2020 
 ******************************************
 %chk=scr.chk
 %nproc=24
 Will use up to   24 processors via shared memory.
 %mem=48GB
 ----------------------------------------------------------------------
 #p uwb97xd guess=mix def2tzvp # scrf=(iefpcm,solvent=Cyclohexane,read)
  nosym guess=only pop=none
 ----------------------------------------------------------------------
 1/38=1,40=2,172=1/1;
 2/12=2,15=1,17=6,18=5,40=1/2;
 3/5=44,7=101,11=2,25=1,30=1,70=2203,72=17,74=-58,89=1,116=2/1,2;
 4/13=-1/1;
 99/5=2/99;
 Leave Link    1 at Tue Aug  4 21:37:25 2020, MaxMem=  6442450944 cpu:               1.7 elap:               0.1
 (Enter /scratch/scicomp/CentOS/7.3.1611/Haswell/software/Gaussian/g16/l101.exe)
 -----------------------------------------------
 endo-2 xp-pcm with Vmol=89.84123994485 cm^3/mol
 -----------------------------------------------
 Symbolic Z-matrix:
 Charge =  0 Multiplicity = 1
 6                    -3.12775  -0.44152   0.26112 
 6                    -0.71992  -0.24822  -1.21984 
 1                    -4.0736   -0.53513   0.78213 
 1                     0.23413  -0.16473  -1.7252 
 6                     1.16007   1.42422   0.7826 
 6                     0.71992   0.24822   1.21984 
 1                     0.56693   2.32073   0.91735 
 1                    -0.23413   0.16473   1.7252 
 6                     1.55459  -0.99429   1.10423 
 1                     2.07784  -1.12631   2.05986 
[...]
 1                    -4.0736   -0.53513   0.78213 
 1                     0.23413  -0.16473  -1.7252 
 6                     1.16007   1.42422   0.7826 
 6                     0.71992   0.24822   1.21984 
 1                     0.56693   2.32073   0.91735 
 1                    -0.23413   0.16473   1.7252 
 6                     1.55459  -0.99429   1.10423 
 1                     2.07784  -1.12631   2.05986 
 1                     0.91189  -1.86751   0.99096 
 6                     2.45364   1.5293    0.10781 
 1                     2.85378   2.51504  -0.09747 
 6                     3.12775   0.44152  -0.26112 
 1                     4.0736    0.53513  -0.78213 
 6                     2.57732  -0.94051  -0.03613 
 1                     2.12125  -1.28557  -0.97224 
 1                     3.39036  -1.6399    0.16813 
 6                    -1.16007  -1.42422  -0.7826 
 1                    -0.56693  -2.32073  -0.91735 
 6                    -2.45364  -1.5293   -0.10781 
 1                    -2.85378  -2.51504   0.09747 
 6                    -1.55459   0.99429  -1.10423 
 1                    -0.91189   1.86751  -0.99096 
 1                    -2.07784   1.12631  -2.05986 
 6                    -2.57732   0.94051   0.03613 
 1                    -3.39036   1.6399   -0.16813 
 1                    -2.12125   1.28557   0.97224 
 
 ITRead=  0  0  0  0  0  0  0  0  0  0  0  0  0  0  0  0  0  0  0  0
 ITRead=  0  0  0  0  0  0  0  0
 MicOpt= -1 -1 -1 -1 -1 -1 -1 -1 -1 -1 -1 -1 -1 -1 -1 -1 -1 -1 -1 -1
 MicOpt= -1 -1 -1 -1 -1 -1 -1 -1
 NAtoms=     28 NQM=       28 NQMF=       0 NMMI=      0 NMMIF=      0
                NMic=       0 NMicF=      0.
                    Isotopes and Nuclear Properties:
 (Nuclear quadrupole moments (NQMom) in fm**2, nuclear magnetic moments (NMagM)
  in nuclear magnetons)

  Atom         1           2           3           4           5           6           7           8           9          10
 IAtWgt=          12          12           1           1          12          12           1           1          12           1
 AtmWgt=  12.0000000  12.0000000   1.0078250   1.0078250  12.0000000  12.0000000   1.0078250   1.0078250  12.0000000   1.0078250
 NucSpn=           0           0           1           1           0           0           1           1           0           1
 AtZEff=  -0.0000000  -0.0000000  -0.0000000  -0.0000000  -0.0000000  -0.0000000  -0.0000000  -0.0000000  -0.0000000  -0.0000000
 NQMom=    0.0000000   0.0000000   0.0000000   0.0000000   0.0000000   0.0000000   0.0000000   0.0000000   0.0000000   0.0000000
 NMagM=    0.0000000   0.0000000   2.7928460   2.7928460   0.0000000   0.0000000   2.7928460   2.7928460   0.0000000   2.7928460
 AtZNuc=   6.0000000   6.0000000   1.0000000   1.0000000   6.0000000   6.0000000   1.0000000   1.0000000   6.0000000   1.0000000

  Atom        11          12          13          14          15          16          17          18          19          20
 IAtWgt=           1          12           1          12           1          12           1           1          12           1
 AtmWgt=   1.0078250  12.0000000   1.0078250  12.0000000   1.0078250  12.0000000   1.0078250   1.0078250  12.0000000   1.0078250
 NucSpn=           1           0           1           0           1           0           1           1           0           1
 AtZEff=  -0.0000000  -0.0000000  -0.0000000  -0.0000000  -0.0000000  -0.0000000  -0.0000000  -0.0000000  -0.0000000  -0.0000000
 NQMom=    0.0000000   0.0000000   0.0000000   0.0000000   0.0000000   0.0000000   0.0000000   0.0000000   0.0000000   0.0000000
 NMagM=    2.7928460   0.0000000   2.7928460   0.0000000   2.7928460   0.0000000   2.7928460   2.7928460   0.0000000   2.7928460
 AtZNuc=   1.0000000   6.0000000   1.0000000   6.0000000   1.0000000   6.0000000   1.0000000   1.0000000   6.0000000   1.0000000

  Atom        21          22          23          24          25          26          27          28
 IAtWgt=          12           1          12           1           1          12           1           1
 AtmWgt=  12.0000000   1.0078250  12.0000000   1.0078250   1.0078250  12.0000000   1.0078250   1.0078250
 NucSpn=           0           1           0           1           1           0           1           1
 AtZEff=  -0.0000000  -0.0000000  -0.0000000  -0.0000000  -0.0000000  -0.0000000  -0.0000000  -0.0000000
 NQMom=    0.0000000   0.0000000   0.0000000   0.0000000   0.0000000   0.0000000   0.0000000   0.0000000
 NMagM=    0.0000000   2.7928460   0.0000000   2.7928460   2.7928460   0.0000000   2.7928460   2.7928460
 AtZNuc=   6.0000000   1.0000000   6.0000000   1.0000000   1.0000000   6.0000000   1.0000000   1.0000000
 Leave Link  101 at Tue Aug  4 21:37:35 2020, MaxMem=  6442450944 cpu:               2.4 elap:               0.1
 (Enter /scratch/scicomp/CentOS/7.3.1611/Haswell/software/Gaussian/g16/l202.exe)
                          Input orientation:                          
 ---------------------------------------------------------------------
 Center     Atomic      Atomic             Coordinates (Angstroms)
 Number     Number       Type             X           Y           Z
 ---------------------------------------------------------------------
      1          6           0       -3.127753   -0.441522    0.261122
      2          6           0       -0.719921   -0.248221   -1.219838
      3          1           0       -4.073595   -0.535125    0.782132
      4          1           0        0.234126   -0.164733   -1.725204
      5          6           0        1.160074    1.424218    0.782600
      6          6           0        0.719921    0.248221    1.219838
      7          1           0        0.566933    2.320735    0.917353
      8          1           0       -0.234126    0.164733    1.725204
      9          6           0        1.554591   -0.994289    1.104230
     10          1           0        2.077836   -1.126314    2.059864
     11          1           0        0.911886   -1.867512    0.990956
     12          6           0        2.453641    1.529303    0.107811
     13          1           0        2.853781    2.515042   -0.097470
     14          6           0        3.127753    0.441522   -0.261122
     15          1           0        4.073595    0.535125   -0.782132
     16          6           0        2.577324   -0.940508   -0.036133
     17          1           0        2.121249   -1.285571   -0.972240
     18          1           0        3.390356   -1.639895    0.168128
     19          6           0       -1.160074   -1.424218   -0.782600
     20          1           0       -0.566933   -2.320735   -0.917353
     21          6           0       -2.453641   -1.529303   -0.107811
     22          1           0       -2.853781   -2.515042    0.097470
     23          6           0       -1.554591    0.994289   -1.104230
     24          1           0       -0.911886    1.867512   -0.990956
     25          1           0       -2.077836    1.126314   -2.059864
     26          6           0       -2.577324    0.940508    0.036133
     27          1           0       -3.390356    1.639895   -0.168129
     28          1           0       -2.121249    1.285571    0.972240
 ---------------------------------------------------------------------
                    Distance matrix (angstroms):
                    1          2          3          4          5
     1  C    0.000000
     2  C    2.833419   0.000000
     3  H    1.083896   3.916290   0.000000
     4  H    3.914631   1.082853   4.998038   0.000000
     5  C    4.705145   3.215772   5.588409   3.109859   0.000000
     6  C    4.024857   2.876042   4.876783   3.013271   1.329617
     7  H    4.659550   3.580938   5.450571   3.642996   1.083382
     8  H    3.299115   3.013271   4.015060   3.497588   2.102046
     9  C    4.789648   3.336362   5.656064   3.230710   2.471491
    10  H    5.550006   4.399425   6.310484   4.318639   2.996482
    11  H    4.345663   3.189437   5.164677   3.276635   3.307642
    12  C    5.921116   3.872175   6.879054   3.340052   1.462771
    13  H    6.681961   4.654748   7.620089   4.085744   2.198423
    14  C    6.339074   4.024857   7.341773   3.299115   2.434504
    15  H    7.341773   4.876783   8.364751   4.015060   3.424540
    16  C    5.734566   3.571028   6.713316   2.990880   2.875909
    17  H    5.457621   3.034740   6.482059   2.320445   3.368424
    18  H    6.628008   4.556049   7.570210   3.965173   3.839339
    19  C    2.434504   1.329617   3.424540   2.102046   3.993310
    20  H    3.387926   2.100052   4.286412   2.437758   4.460613
    21  C    1.331843   2.425605   2.098723   3.420834   4.751321
    22  H    2.097934   3.380405   2.424207   4.287337   5.665528
    23  C    2.529936   1.501290   3.498978   2.220011   3.333822
    24  H    3.436481   2.136718   4.348897   2.445912   2.763156
    25  H    2.991222   2.106875   3.849724   2.669076   4.318844
    26  C    1.504526   2.537811   2.229985   3.496872   3.841788
    27  H    2.141381   3.435447   2.469924   4.337976   4.653688
    28  H    2.121695   3.020173   2.676328   3.863596   3.289721
                    6          7          8          9         10
     6  C    0.000000
     7  H    2.100052   0.000000
     8  H    1.082853   2.437758   0.000000
     9  C    1.501290   3.464069   2.220011   0.000000
    10  H    2.106875   3.933231   2.669076   1.097475   0.000000
    11  H    2.136718   4.203073   2.445912   1.090146   1.746819
    12  C    2.425605   2.200316   3.420834   2.858261   3.317234
    13  H    3.380405   2.509441   4.287337   3.930316   4.302982
    14  C    2.833419   3.387926   3.914631   2.529936   2.991222
    15  H    3.916290   4.286412   4.998038   3.498978   3.849724
    16  C    2.537811   3.947976   3.496872   1.532744   2.162687
    17  H    3.020173   4.357970   3.863596   2.172021   3.036594
    18  H    3.435447   4.921346   4.337976   2.159428   2.359055
    19  C    3.215772   4.460613   3.109859   3.333822   4.318844
    20  H    3.580938   5.118109   3.642996   3.216694   4.157555
    21  C    3.872175   4.999762   3.340052   4.221517   5.039395
    22  H    4.654748   5.979819   4.085744   4.770744   5.486383
    23  C    3.336362   3.216694   3.230710   4.301017   5.263361
    24  H    3.189437   2.456412   3.276635   4.320095   5.216218
    25  H    4.399425   4.157555   4.318639   5.263361   6.270255
    26  C    3.571028   3.545127   2.990880   4.685829   5.480671
    27  H    4.556049   4.159561   3.965173   5.745461   6.520505
    28  H    3.034740   2.881128   2.320445   4.327468   4.963107
                   11         12         13         14         15
    11  H    0.000000
    12  C    3.833446   0.000000
    13  H    4.915527   1.083482   0.000000
    14  C    3.436481   1.331843   2.097934   0.000000
    15  H    4.348897   2.098723   2.424207   1.083896   0.000000
    16  C    2.165163   2.477092   3.467134   1.504526   2.229985
    17  H    2.378099   3.033234   3.968184   2.121695   2.676328
    18  H    2.621387   3.305282   4.197851   2.141381   2.469923
    19  C    2.763156   4.751321   5.665528   4.705145   5.588409
    20  H    2.456412   4.999762   5.979819   4.659550   5.450571
    21  C    3.556465   5.786448   6.672748   5.921116   6.879054
    22  H    3.924011   6.672748   7.610257   6.681961   7.620089
    23  C    4.320095   4.221517   4.770744   4.789648   5.656064
    24  H    4.604837   3.556465   3.924011   4.345663   5.164677
    25  H    5.216218   5.039395   5.486383   5.550006   6.310484
    26  C    4.579438   5.065810   5.656316   5.734566   6.713316
    27  H    5.670509   5.851553   6.305563   6.628008   7.570210
    28  H    4.375179   4.662216   5.235151   5.457621   6.482059
                   16         17         18         19         20
    16  C    0.000000
    17  H    1.096982   0.000000
    18  H    1.091735   1.742589   0.000000
    19  C    3.841788   3.289721   4.653688   0.000000
    20  H    3.545127   2.881128   4.159561   1.083382   0.000000
    21  C    5.065810   4.662216   5.851553   1.462771   2.200316
    22  H    5.656316   5.235151   6.305563   2.198423   2.509441
    23  C    4.685829   4.327468   5.745461   2.471491   3.464069
    24  H    4.579438   4.375179   5.670508   3.307642   4.203073
    25  H    5.480671   4.963107   6.520505   2.996482   3.933231
    26  C    5.487608   5.296115   6.503008   2.875909   3.947976
    27  H    6.503008   6.291481   7.539771   3.839339   4.921346
    28  H    5.296115   5.328280   6.291481   3.368424   4.357970
                   21         22         23         24         25
    21  C    0.000000
    22  H    1.083482   0.000000
    23  C    2.858261   3.930316   0.000000
    24  H    3.833446   4.915527   1.090146   0.000000
    25  H    3.317234   4.302982   1.097475   1.746819   0.000000
    26  C    2.477092   3.467134   1.532744   2.165163   2.162687
    27  H    3.305282   4.197851   2.159427   2.621387   2.359054
    28  H    3.033234   3.968184   2.172021   2.378099   3.036594
                   26         27         28
    26  C    0.000000
    27  H    1.091735   0.000000
    28  H    1.096982   1.742590   0.000000
 Symmetry turned off by external request.
 Stoichiometry    C12H16
 Framework group  CI[X(C12H16)]
 Deg. of freedom    39
 Full point group                 CI      NOp   2
 Rotational constants (GHZ):           1.7702073           0.5971610           0.5372422
 Leave Link  202 at Tue Aug  4 21:37:35 2020, MaxMem=  6442450944 cpu:               0.3 elap:               0.0
 (Enter /scratch/scicomp/CentOS/7.3.1611/Haswell/software/Gaussian/g16/l301.exe)
 Standard basis: def2TZVP (5D, 7F)
 Ernie: Thresh=  0.10000D-02 Tol=  0.10000D-05 Strict=F.
   468 basis functions,   740 primitive gaussians,   528 cartesian basis functions
    44 alpha electrons       44 beta electrons
       nuclear repulsion energy       677.2008204301 Hartrees.
 IExCor= 4639 DFT=T Ex+Corr=wB97XD ExCW=0 ScaHFX=  1.000000
 ScaDFX=  1.000000  1.000000  1.000000  1.000000 ScalE2=  1.000000  1.000000
 IRadAn=      5 IRanWt=     -1 IRanGd=            0 ICorTp=0 IEmpDi=121
 HFx  wShort=  0.000000 wLong=  0.200000 cFull=  0.222036 cShort=  0.000000 cLong=  0.777964
 DFx  wShort=  0.000000 wLong=  0.200000 cFull=  0.000000 cShort=  0.000000 cLong=  1.000000
 NAtoms=   28 NActive=   28 NUniq=   28 SFac= 1.00D+00 NAtFMM=   60 NAOKFM=F Big=F
 Integral buffers will be    131072 words long.
 Raffenetti 2 integral format.
 Two-electron integral symmetry is turned off.
 R6Disp:  Grimme-D2 Dispersion energy=       -0.0223066379 Hartrees.
 Nuclear repulsion after empirical dispersion term =      677.1785137922 Hartrees.
 Using the following non-standard input for PCM:
 norep  pcmdoc geomview  nodis cav g03defaults noaddsph  tsare=0.075
 Warning! Using old PCM defaults because the g03defaults keyword was found.
 These settings can be overridden by following keywords.
 nsfe=28
 Vmol=78.9041178242053 Rsolv=2.815
 --- end of non-standard input.
 Reading user-defined spheres from input:
 ISph  on   Nord    Re0     Alpha      Xe            Ye            Ze
 --- end of user-defined spheres data.
 ------------------------------------------------------------------------------
 Polarizable Continuum Model (PCM)
 =================================
 Model                : PCM.
 Atomic radii         : UA0 (Simple United Atom Topological Model).
 Polarization charges : Total charges.
 Charge compensation  : None.
 Solution method      : On-the-fly selection.
 Cavity type          : VdW (van der Waals Surface) (Alpha=1.000).
 Cavity algorithm     : GePol (No added spheres)
                        User-defined sphere list used, NSphG=   28.
                        Tesserae with average area of 0.075 Ang**2.
                        Smoothing algorithm: None.
                        Polarization charges: point-like.
                        Self-potential: constant (ISelfS= 1).
                        Self-field    : global E.n sum rule (ISelfD= 3).
 Solvent              : CycloHexane, Eps=   2.016500 Eps(inf)=   2.035188
 ------------------------------------------------------------------------------
 GePol: Number of generator spheres                  =      28
 GePol: Total number of spheres                      =      28
 GePol: Number of exposed spheres                    =      28 (100.00%)
 GePol: Number of tesserae                           =    3915
 GePol: Average area of tesserae                     =       0.06 Ang**2
 GePol: Minimum area of tessera                      =   0.10D-02 Ang**2
 GePol: Maximum area of tessera                      =    0.12395 Ang**2
 GePol: Number of small tesserae                     =       0
 GePol: Fraction of small tesserae (<1% of avg)      =       0.00%
 GePol: Total count of vertices                      =   12954
 GePol: Maximum number of vertices in a tessera      =       6
 GePol: Cavity surface area                          =    235.744 Ang**2
 GePol: Cavity volume                                =    242.510 Ang**3
 PCM non-electrostatic energy =         0.1156017959 Hartrees.
 Nuclear repulsion after PCM non-electrostatic terms =      677.2941155881 Hartrees.
 Leave Link  301 at Tue Aug  4 21:37:36 2020, MaxMem=  6442450944 cpu:               3.2 elap:               0.2
 (Enter /scratch/scicomp/CentOS/7.3.1611/Haswell/software/Gaussian/g16/l302.exe)
 NPDir=0 NMtPBC=     1 NCelOv=     1 NCel=       1 NClECP=     1 NCelD=      1
         NCelK=      1 NCelE2=     1 NClLst=     1 CellRange=     0.0.
 One-electron integrals computed using PRISM.
   1 Symmetry operations used in ECPInt.
 ECPInt:  NShTT=   19306 NPrTT=   56928 LenC2=   18478 LenP2D=   41942.
 LDataN:  DoStor=T MaxTD1= 6 Len=  172
 NBasis=   468 RedAO= T EigKep=  2.40D-05  NBF=   468
 NBsUse=   468 1.00D-06 EigRej= -1.00D+00 NBFU=   468
 Precomputing XC quadrature grid using
 IXCGrd= 4 IRadAn=           5 IRanWt=          -1 IRanGd=           0 AccXCQ= 0.00D+00.
 Generated NRdTot=       0 NPtTot=           0 NUsed=           0 NTot=          32
 NSgBfM=   526   526   526   526   526 MxSgAt=    28 MxSgA2=    28.
 Leave Link  302 at Tue Aug  4 21:37:36 2020, MaxMem=  6442450944 cpu:              11.7 elap:               0.5
 (Enter /scratch/scicomp/CentOS/7.3.1611/Haswell/software/Gaussian/g16/l401.exe)
 ExpMin= 9.52D-02 ExpMax= 1.36D+04 ExpMxC= 4.63D+02 IAcc=3 IRadAn=         5 AccDes= 0.00D+00
 Harris functional with IExCor= 4639 and IRadAn=       5 diagonalized for initial guess.
 HarFok:  IExCor= 4639 AccDes= 0.00D+00 IRadAn=         5 IDoV= 1 UseB2=F ITyADJ=14
 ICtDFT=  3500011 ScaDFX=  1.000000  1.000000  1.000000  1.000000
 FoFCou: FMM=F IPFlag=           0 FMFlag=      100000 FMFlg1=           0
         NFxFlg=           0 DoJE=T BraDBF=F KetDBF=T FulRan=T
         wScrn=  0.000000 ICntrl=       500 IOpCl=  0 I1Cent=   200000004 NGrid=           0
         NMat0=    1 NMatS0=      1 NMatT0=    0 NMatD0=    1 NMtDS0=    0 NMtDT0=    0
 Symmetry not used in FoFCou.
 Harris En= -444.517919989619    
 JPrj=0 DoOrth=F DoCkMO=T.
 Mixing orbitals, IMix= 1 IMixAn=  0 NRI=1 NE=   44 Coef=  7.07106781D-01  7.07106781D-01
 Mixing orbitals, IMix= 1 IMixAn=  0 NRI=1 NE=   44 Coef= -7.07106781D-01  7.07106781D-01
 Initial guess <Sx>= 0.0000 <Sy>= 0.0000 <Sz>= 0.0000 <S**2>= 1.0000 S= 0.6180
 Leave Link  401 at Tue Aug  4 21:37:38 2020, MaxMem=  6442450944 cpu:              47.2 elap:               2.0
 (Enter /scratch/scicomp/CentOS/7.3.1611/Haswell/software/Gaussian/g16/l9999.exe)

 This type of calculation cannot be archived.


 A MATHEMATICIAN IS A MACHINE FOR TURNING COFFEE INTO THEOREMS.
     -- QUOTED BY PAUL ERDOS
 Job cpu time:       0 days  0 hours  1 minutes  7.1 seconds.
 Elapsed time:       0 days  0 hours  0 minutes  3.1 seconds.
 File lengths (MBytes):  RWF=    291 Int=      0 D2E=      0 Chk=      1 Scr=      1
 Normal termination of Gaussian 16 at Tue Aug  4 21:37:38 2020.
