 Entering Gaussian System, Link 0=g16
 Input=meso-TS_37_2_xp-Ger.com
 Output=meso-TS_37_2_xp-Ger.log
 Initial command:
 /scratch/scicomp/CentOS/7.3.1611/Haswell/software/Gaussian/g16/l1.exe "/scratch/bochen/cyclohexadiene-dimerization/wb97xd-def2tzvp/xp-pcm/meso/Gau-297788.inp" -scrdir="/scratch/bochen/cyclohexadiene-dimerization/wb97xd-def2tzvp/xp-pcm/meso/"
 Entering Link 1 = /scratch/scicomp/CentOS/7.3.1611/Haswell/software/Gaussian/g16/l1.exe PID=    297789.
  
 Copyright (c) 1988-2017, Gaussian, Inc.  All Rights Reserved.
  
 This is part of the Gaussian(R) 16 program.  It is based on
 the Gaussian(R) 09 system (copyright 2009, Gaussian, Inc.),
 the Gaussian(R) 03 system (copyright 2003, Gaussian, Inc.),
 the Gaussian(R) 98 system (copyright 1998, Gaussian, Inc.),
 the Gaussian(R) 94 system (copyright 1995, Gaussian, Inc.),
 the Gaussian 92(TM) system (copyright 1992, Gaussian, Inc.),
 the Gaussian 90(TM) system (copyright 1990, Gaussian, Inc.),
 the Gaussian 88(TM) system (copyright 1988, Gaussian, Inc.),
 the Gaussian 86(TM) system (copyright 1986, Carnegie Mellon
 University), and the Gaussian 82(TM) system (copyright 1983,
 Carnegie Mellon University). Gaussian is a federally registered
 trademark of Gaussian, Inc.
  
 This software contains proprietary and confidential information,
 including trade secrets, belonging to Gaussian, Inc.
  
 This software is provided under written license and may be
 used, copied, transmitted, or stored only in accord with that
 written license.
  
 The following legend is applicable only to US Government
 contracts under FAR:
  
                    RESTRICTED RIGHTS LEGEND
  
 Use, reproduction and disclosure by the US Government is
 subject to restrictions as set forth in subparagraphs (a)
 and (c) of the Commercial Computer Software - Restricted
 Rights clause in FAR 52.227-19.
  
 Gaussian, Inc.
 340 Quinnipiac St., Bldg. 40, Wallingford CT 06492
  
  
 ---------------------------------------------------------------
 Warning -- This program may not be used in any manner that
 competes with the business of Gaussian, Inc. or will provide
 assistance to any competitor of Gaussian, Inc.  The licensee
 of this program is prohibited from giving any competitor of
 Gaussian, Inc. access to this program.  By using this program,
 the user acknowledges that Gaussian, Inc. is engaged in the
 business of creating and licensing software in the field of
 computational chemistry and represents and warrants to the
 licensee that it is not a competitor of Gaussian, Inc. and that
 it will not use this program in any manner prohibited above.
 ---------------------------------------------------------------
  

 Cite this work as:
 Gaussian 16, Revision B.01,
 M. J. Frisch, G. W. Trucks, H. B. Schlegel, G. E. Scuseria, 
 M. A. Robb, J. R. Cheeseman, G. Scalmani, V. Barone, 
 G. A. Petersson, H. Nakatsuji, X. Li, M. Caricato, A. V. Marenich, 
 J. Bloino, B. G. Janesko, R. Gomperts, B. Mennucci, H. P. Hratchian, 
 J. V. Ortiz, A. F. Izmaylov, J. L. Sonnenberg, D. Williams-Young, 
 F. Ding, F. Lipparini, F. Egidi, J. Goings, B. Peng, A. Petrone, 
 T. Henderson, D. Ranasinghe, V. G. Zakrzewski, J. Gao, N. Rega, 
 G. Zheng, W. Liang, M. Hada, M. Ehara, K. Toyota, R. Fukuda, 
 J. Hasegawa, M. Ishida, T. Nakajima, Y. Honda, O. Kitao, H. Nakai, 
 T. Vreven, K. Throssell, J. A. Montgomery, Jr., J. E. Peralta, 
 F. Ogliaro, M. J. Bearpark, J. J. Heyd, E. N. Brothers, K. N. Kudin, 
 V. N. Staroverov, T. A. Keith, R. Kobayashi, J. Normand, 
 K. Raghavachari, A. P. Rendell, J. C. Burant, S. S. Iyengar, 
 J. Tomasi, M. Cossi, J. M. Millam, M. Klene, C. Adamo, R. Cammi, 
 J. W. Ochterski, R. L. Martin, K. Morokuma, O. Farkas, 
 J. B. Foresman, and D. J. Fox, Gaussian, Inc., Wallingford CT, 2016.
 
 ******************************************
 Gaussian 16:  ES64L-G16RevB.01 20-Dec-2017
                 4-Aug-2020 
 ******************************************
 %chk=meso-TS_37_2_xp-12.chk
 %nproc=24
 Will use up to   24 processors via shared memory.
 %mem=48GB
 ----------------------------------------------------------------------
 #p uwb97xd guess=mix def2tzvp # scrf=(iefpcm,solvent=Cyclohexane,read)
  nosym 6d 10f
 ----------------------------------------------------------------------
 1/38=1,40=2,172=1/1;
 2/12=2,15=1,17=6,18=5,40=1/2;
 3/5=44,7=101,8=22,11=2,25=1,30=1,70=2203,72=17,74=-58,116=2/1,2,3;
 4/13=-1/1;
 5/5=2,38=5,53=17/2;
 6/7=2,8=2,9=2,10=2,28=1/1;
 99/5=1,9=1/99;
 Leave Link    1 at Tue Aug  4 05:18:23 2020, MaxMem=  6442450944 cpu:               2.6 elap:               0.1
 (Enter /scratch/scicomp/CentOS/7.3.1611/Haswell/software/Gaussian/g16/l101.exe)
 -----------------------
 endo-2 xp-pcm for eta=3
 -----------------------
 Symbolic Z-matrix:
 Charge =  0 Multiplicity = 1
 6                    -3.12622  -0.44049   0.25349 
 6                    -0.67222  -0.23682  -1.14636 
 1                    -4.08296  -0.54175   0.75273 
 1                     0.29421  -0.14682  -1.62513 
 6                     1.12979   1.41843   0.74352 
 6                     0.67222   0.23682   1.14636 
 1                     0.53682   2.31558   0.87217 
 1                    -0.29421   0.14682   1.62513 
 6                     1.51865  -1.        1.05961 
 1                     2.01232  -1.1142    2.03299 
 1                     0.89114  -1.882     0.93796 
 6                     2.43995   1.52471   0.1049 
 1                     2.84394   2.51143  -0.0879 
 6                     3.12622   0.44049  -0.25349 
 1                     4.08296   0.54175  -0.75273 
 6                     2.58441  -0.94681  -0.04091 
 1                     2.17791  -1.31185  -0.99221 
 1                     3.39788  -1.63095   0.20883 
 6                    -1.12979  -1.41843  -0.74352 
 1                    -0.53682  -2.31558  -0.87217 
 6                    -2.43995  -1.52471  -0.1049 
 1                    -2.84394  -2.51143   0.0879 
 6                    -1.51865   1.       -1.05961 
 1                    -0.89114   1.882    -0.93796 
 1                    -2.01232   1.11421  -2.03299 
 6                    -2.58441   0.94681   0.04091 
 1                    -3.39788   1.63095  -0.20883 
 1                    -2.17791   1.31185   0.99221 
 
 ITRead=  0  0  0  0  0  0  0  0  0  0  0  0  0  0  0  0  0  0  0  0
 ITRead=  0  0  0  0  0  0  0  0
 MicOpt= -1 -1 -1 -1 -1 -1 -1 -1 -1 -1 -1 -1 -1 -1 -1 -1 -1 -1 -1 -1
 MicOpt= -1 -1 -1 -1 -1 -1 -1 -1
 NAtoms=     28 NQM=       28 NQMF=       0 NMMI=      0 NMMIF=      0
                NMic=       0 NMicF=      0.
                    Isotopes and Nuclear Properties:
 (Nuclear quadrupole moments (NQMom) in fm**2, nuclear magnetic moments (NMagM)
  in nuclear magnetons)

  Atom         1           2           3           4           5           6           7           8           9          10
 IAtWgt=          12          12           1           1          12          12           1           1          12           1
 AtmWgt=  12.0000000  12.0000000   1.0078250   1.0078250  12.0000000  12.0000000   1.0078250   1.0078250  12.0000000   1.0078250
 NucSpn=           0           0           1           1           0           0           1           1           0           1
 AtZEff=  -0.0000000  -0.0000000  -0.0000000  -0.0000000  -0.0000000  -0.0000000  -0.0000000  -0.0000000  -0.0000000  -0.0000000
 NQMom=    0.0000000   0.0000000   0.0000000   0.0000000   0.0000000   0.0000000   0.0000000   0.0000000   0.0000000   0.0000000
 NMagM=    0.0000000   0.0000000   2.7928460   2.7928460   0.0000000   0.0000000   2.7928460   2.7928460   0.0000000   2.7928460
 AtZNuc=   6.0000000   6.0000000   1.0000000   1.0000000   6.0000000   6.0000000   1.0000000   1.0000000   6.0000000   1.0000000

  Atom        11          12          13          14          15          16          17          18          19          20
 IAtWgt=           1          12           1          12           1          12           1           1          12           1
 AtmWgt=   1.0078250  12.0000000   1.0078250  12.0000000   1.0078250  12.0000000   1.0078250   1.0078250  12.0000000   1.0078250
 NucSpn=           1           0           1           0           1           0           1           1           0           1
 AtZEff=  -0.0000000  -0.0000000  -0.0000000  -0.0000000  -0.0000000  -0.0000000  -0.0000000  -0.0000000  -0.0000000  -0.0000000
 NQMom=    0.0000000   0.0000000   0.0000000   0.0000000   0.0000000   0.0000000   0.0000000   0.0000000   0.0000000   0.0000000
 NMagM=    2.7928460   0.0000000   2.7928460   0.0000000   2.7928460   0.0000000   2.7928460   2.7928460   0.0000000   2.7928460
 AtZNuc=   1.0000000   6.0000000   1.0000000   6.0000000   1.0000000   6.0000000   1.0000000   1.0000000   6.0000000   1.0000000

  Atom        21          22          23          24          25          26          27          28
 IAtWgt=          12           1          12           1           1          12           1           1
 AtmWgt=  12.0000000   1.0078250  12.0000000   1.0078250   1.0078250  12.0000000   1.0078250   1.0078250
 NucSpn=           0           1           0           1           1           0           1           1
 AtZEff=  -0.0000000  -0.0000000  -0.0000000  -0.0000000  -0.0000000  -0.0000000  -0.0000000  -0.0000000
 NQMom=    0.0000000   0.0000000   0.0000000   0.0000000   0.0000000   0.0000000   0.0000000   0.0000000
 NMagM=    0.0000000   2.7928460   0.0000000   2.7928460   2.7928460   0.0000000   2.7928460   2.7928460
 AtZNuc=   6.0000000   1.0000000   6.0000000   1.0000000   1.0000000   6.0000000   1.0000000   1.0000000
 Leave Link  101 at Tue Aug  4 05:18:23 2020, MaxMem=  6442450944 cpu:               2.4 elap:               0.1
 (Enter /scratch/scicomp/CentOS/7.3.1611/Haswell/software/Gaussian/g16/l202.exe)
                          Input orientation:                          
 ---------------------------------------------------------------------
 Center     Atomic      Atomic             Coordinates (Angstroms)
 Number     Number       Type             X           Y           Z
 ---------------------------------------------------------------------
      1          6           0       -3.126220   -0.440488    0.253489
      2          6           0       -0.672219   -0.236821   -1.146356
      3          1           0       -4.082957   -0.541745    0.752734
      4          1           0        0.294206   -0.146815   -1.625125
      5          6           0        1.129787    1.418428    0.743520
      6          6           0        0.672219    0.236821    1.146356
      7          1           0        0.536815    2.315578    0.872168
      8          1           0       -0.294206    0.146815    1.625125
      9          6           0        1.518650   -0.999998    1.059609
     10          1           0        2.012318   -1.114204    2.032991
     11          1           0        0.891136   -1.882004    0.937960
     12          6           0        2.439953    1.524706    0.104897
     13          1           0        2.843940    2.511426   -0.087900
     14          6           0        3.126220    0.440488   -0.253489
     15          1           0        4.082957    0.541745   -0.752734
     16          6           0        2.584411   -0.946808   -0.040911
     17          1           0        2.177912   -1.311853   -0.992206
     18          1           0        3.397883   -1.630946    0.208832
     19          6           0       -1.129787   -1.418428   -0.743520
     20          1           0       -0.536815   -2.315578   -0.872168
     21          6           0       -2.439953   -1.524706   -0.104897
     22          1           0       -2.843940   -2.511426    0.087900
     23          6           0       -1.518650    0.999998   -1.059609
     24          1           0       -0.891135    1.882004   -0.937960
     25          1           0       -2.012317    1.114205   -2.032991
     26          6           0       -2.584411    0.946808    0.040911
     27          1           0       -3.397883    1.630946   -0.208832
     28          1           0       -2.177912    1.311853    0.992206
 ---------------------------------------------------------------------
                    Distance matrix (angstroms):
                    1          2          3          4          5
     1  C    0.000000
     2  C    2.832520   0.000000
     3  H    1.083902   3.915693   0.000000
     4  H    3.913406   1.082265   4.996973   0.000000
     5  C    4.670042   3.091716   5.569117   2.959503   0.000000
     6  C    3.960315   2.699700   4.834543   2.823327   1.329602
     7  H    4.625634   3.471447   5.433310   3.515496   1.083072
     8  H    3.201033   2.823327   3.948394   3.316108   2.102851
     9  C    4.747389   3.201348   5.628692   3.071641   2.469800
    10  H    5.479516   4.252621   6.254530   4.155666   2.975873
    11  H    4.322686   3.081409   5.154823   3.152239   3.314757
    12  C    5.904773   3.788697   6.873010   3.223537   1.461393
    13  H    6.668819   4.586564   7.616457   3.991297   2.196412
    14  C    6.334521   3.960315   7.345032   3.201033   2.436419
    15  H    7.345032   4.834543   8.373920   3.948394   3.424699
    16  C    5.740587   3.511656   6.726644   2.897372   2.885412
    17  H    5.517685   3.050033   6.544949   2.303530   3.400845
    18  H    6.631976   4.510637   7.579258   3.898571   3.837816
    19  C    2.436419   1.329602   3.424699   2.102851   3.919785
    20  H    3.389408   2.101129   4.285080   2.441531   4.396682
    21  C    1.332266   2.422430   2.097905   3.418377   4.703711
    22  H    2.096637   3.378400   2.420085   4.286467   5.627086
    23  C    2.526560   1.501230   3.498175   2.218431   3.231188
    24  H    3.436441   2.140274   4.349797   2.448129   2.669532
    25  H    2.980913   2.099346   3.845775   2.660183   4.204091
    26  C    1.504439   2.543041   2.228928   3.501160   3.809377
    27  H    2.139715   3.434640   2.472756   4.335648   4.631623
    28  H    2.125015   3.039564   2.668777   3.884521   3.318746
                    6          7          8          9         10
     6  C    0.000000
     7  H    2.101129   0.000000
     8  H    1.082265   2.441531   0.000000
     9  C    1.501230   3.462972   2.218431   0.000000
    10  H    2.099346   3.909990   2.660184   1.097371   0.000000
    11  H    2.140274   4.213023   2.448129   1.089269   1.745182
    12  C    2.422430   2.199117   3.418377   2.852088   3.296098
    13  H    3.378400   2.506574   4.286467   3.924700   4.281935
    14  C    2.832520   3.389408   3.913406   2.526560   2.980912
    15  H    3.915693   4.285080   4.996973   3.498175   3.845774
    16  C    2.543041   3.958475   3.501160   1.532912   2.157865
    17  H    3.039564   4.396288   3.884521   2.177573   3.036166
    18  H    3.434640   4.919428   4.335648   2.157182   2.348269
    19  C    3.091716   4.396682   2.959503   3.231188   4.204092
    20  H    3.471447   5.063891   3.515496   3.112467   4.047385
    21  C    3.788697   4.956166   3.223537   4.159559   4.955986
    22  H    4.586564   5.945128   3.991297   4.718138   5.414688
    23  C    3.201348   3.112467   3.071641   4.209069   5.147986
    24  H    3.081408   2.345973   3.152239   4.254795   5.121899
    25  H    4.252621   4.047384   4.155666   5.147986   6.139683
    26  C    3.511656   3.508072   2.897372   4.654343   5.417201
    27  H    4.510637   4.137527   3.898571   5.718663   6.467758
    28  H    3.050033   2.896829   2.303530   4.360478   4.952475
                   11         12         13         14         15
    11  H    0.000000
    12  C    3.833862   0.000000
    13  H    4.916102   1.083509   0.000000
    14  C    3.436440   1.332266   2.096637   0.000000
    15  H    4.349796   2.097905   2.420085   1.083902   0.000000
    16  C    2.167939   2.480022   3.468277   1.504439   2.228928
    17  H    2.388808   3.052600   3.984824   2.125015   2.668777
    18  H    2.622678   3.299481   4.189767   2.139715   2.472756
    19  C    2.669533   4.703711   5.627086   4.670042   5.569117
    20  H    2.345974   4.956166   5.945128   4.625634   5.433310
    21  C    3.508756   5.758160   6.649073   5.904773   6.873010
    22  H    3.881954   6.649073   7.590252   6.668819   7.616457
    23  C    4.254796   4.159559   4.718138   4.747389   5.628692
    24  H    4.567639   3.508755   3.881953   4.322686   5.154822
    25  H    5.121900   4.955985   5.414687   5.479515   6.254529
    26  C    4.570153   5.057894   5.650807   5.740587   6.726644
    27  H    5.661416   5.847225   6.304778   6.631976   7.579258
    28  H    4.429754   4.707154   5.274903   5.517685   6.544949
                   16         17         18         19         20
    16  C    0.000000
    17  H    1.097024   0.000000
    18  H    1.091858   1.741448   0.000000
    19  C    3.809377   3.318746   4.631623   0.000000
    20  H    3.508072   2.896829   4.137527   1.083072   0.000000
    21  C    5.057894   4.707154   5.847225   1.461393   2.199117
    22  H    5.650807   5.274903   6.304778   2.196412   2.506574
    23  C    4.654343   4.360478   5.718663   2.469800   3.462972
    24  H    4.570153   4.429753   5.661415   3.314757   4.213023
    25  H    5.417201   4.952475   6.467758   2.975874   3.909991
    26  C    5.505379   5.371089   6.516199   2.885412   3.958475
    27  H    6.516199   6.353206   7.549624   3.837816   4.919428
    28  H    5.371089   5.458473   6.353206   3.400845   4.396288
                   21         22         23         24         25
    21  C    0.000000
    22  H    1.083509   0.000000
    23  C    2.852088   3.924700   0.000000
    24  H    3.833863   4.916102   1.089270   0.000000
    25  H    3.296099   4.281936   1.097371   1.745181   0.000000
    26  C    2.480022   3.468277   1.532912   2.167940   2.157865
    27  H    3.299481   4.189767   2.157182   2.622679   2.348270
    28  H    3.052600   3.984824   2.177573   2.388809   3.036166
                   26         27         28
    26  C    0.000000
    27  H    1.091858   0.000000
    28  H    1.097024   1.741448   0.000000
 Symmetry turned off by external request.
 Stoichiometry    C12H16
 Framework group  CI[X(C12H16)]
 Deg. of freedom    39
 Full point group                 CI      NOp   2
 Rotational constants (GHZ):           1.8182963           0.6091474           0.5421992
 Leave Link  202 at Tue Aug  4 05:18:23 2020, MaxMem=  6442450944 cpu:               0.3 elap:               0.0
 (Enter /scratch/scicomp/CentOS/7.3.1611/Haswell/software/Gaussian/g16/l301.exe)
 Standard basis: def2TZVP (6D, 10F)
 Ernie: Thresh=  0.10000D-02 Tol=  0.10000D-05 Strict=F.
   528 basis functions,   740 primitive gaussians,   528 cartesian basis functions
    44 alpha electrons       44 beta electrons
       nuclear repulsion energy       681.4184138780 Hartrees.
 IExCor= 4639 DFT=T Ex+Corr=wB97XD ExCW=0 ScaHFX=  1.000000
 ScaDFX=  1.000000  1.000000  1.000000  1.000000 ScalE2=  1.000000  1.000000
 IRadAn=      5 IRanWt=     -1 IRanGd=            0 ICorTp=0 IEmpDi=121
 HFx  wShort=  0.000000 wLong=  0.200000 cFull=  0.222036 cShort=  0.000000 cLong=  0.777964
 DFx  wShort=  0.000000 wLong=  0.200000 cFull=  0.000000 cShort=  0.000000 cLong=  1.000000
 NAtoms=   28 NActive=   28 NUniq=   28 SFac= 1.00D+00 NAtFMM=   60 NAOKFM=F Big=F
 Integral buffers will be    131072 words long.
 Raffenetti 2 integral format.
 Two-electron integral symmetry is turned off.
 R6Disp:  Grimme-D2 Dispersion energy=       -0.0227217399 Hartrees.
 Nuclear repulsion after empirical dispersion term =      681.3956921381 Hartrees.
 Using the following non-standard input for PCM:
 qrep pcmdoc geomview  nodis nocav g03defaults tsare=0.075
 Warning! Using old PCM defaults because the g03defaults keyword was found.
 These settings can be overridden by following keywords.
 nsfe=28
 NVESolv=36  SolvMW=84.1595   Rsolv=2.815
 eps=2.0165 RhoS=0.778099999999998
 --- end of non-standard input.
 Reading user-defined spheres from input:
 ISph  on   Nord    Re0     Alpha      Xe            Ye            Ze
 --- end of user-defined spheres data.
 ------------------------------------------------------------------------------
 Polarizable Continuum Model (PCM)
 =================================
 Model                : PCM.
 Atomic radii         : UA0 (Simple United Atom Topological Model).
 Polarization charges : Total charges.
 Charge compensation  : None.
 Solution method      : On-the-fly selection.
 Cavity type          : SES (Solvent Excluding Surface) (Alpha=1.000).
 Cavity algorithm     : GePol (RMin=0.200 OFac=0.890).
                        User-defined sphere list used, NSphG=   28.
                        Tesserae with average area of 0.075 Ang**2.
                        Smoothing algorithm: None.
                        Polarization charges: point-like.
                        Self-potential: constant (ISelfS= 1).
                        Self-field    : global E.n sum rule (ISelfD= 3).
 Solvent              : CycloHexane, Eps=   2.016500 Eps(inf)=   2.035188
                        RSolv=   2.815000 Ang.
 ------------------------------------------------------------------------------
 GePol: Number of generator spheres                  =      28
 GePol: Total number of spheres                      =     192
 GePol: Number of exposed spheres                    =     139 ( 72.40%)
 GePol: Number of tesserae                           =    4693
 GePol: Average area of tesserae                     =       0.05 Ang**2
 GePol: Minimum area of tessera                      =   0.10D-02 Ang**2
 GePol: Maximum area of tessera                      =    0.12395 Ang**2
 GePol: Number of small tesserae                     =       0
 GePol: Fraction of small tesserae (<1% of avg)      =       0.00%
 GePol: Total count of vertices                      =   16655
 GePol: Maximum number of vertices in a tessera      =       7
 GePol: Cavity surface area                          =    220.451 Ang**2
 GePol: Cavity volume                                =    249.885 Ang**3
 Leave Link  301 at Tue Aug  4 05:18:24 2020, MaxMem=  6442450944 cpu:               8.3 elap:               0.4
 (Enter /scratch/scicomp/CentOS/7.3.1611/Haswell/software/Gaussian/g16/l302.exe)
 NPDir=0 NMtPBC=     1 NCelOv=     1 NCel=       1 NClECP=     1 NCelD=      1
         NCelK=      1 NCelE2=     1 NClLst=     1 CellRange=     0.0.
 One-electron integrals computed using PRISM.
   1 Symmetry operations used in ECPInt.
 ECPInt:  NShTT=   19306 NPrTT=   56928 LenC2=   18494 LenP2D=   42038.
 LDataN:  DoStor=T MaxTD1= 6 Len=  172
 NBasis=   528 RedAO= T EigKep=  1.78D-05  NBF=   528
 NBsUse=   528 1.00D-06 EigRej= -1.00D+00 NBFU=   528
 Precomputing XC quadrature grid using
 IXCGrd= 4 IRadAn=           5 IRanWt=          -1 IRanGd=           0 AccXCQ= 0.00D+00.
 Generated NRdTot=       0 NPtTot=           0 NUsed=           0 NTot=          32
 NSgBfM=   526   526   526   526   526 MxSgAt=    28 MxSgA2=    28.
 Leave Link  302 at Tue Aug  4 05:18:25 2020, MaxMem=  6442450944 cpu:              12.7 elap:               0.6
 (Enter /scratch/scicomp/CentOS/7.3.1611/Haswell/software/Gaussian/g16/l303.exe)
 DipDrv:  MaxL=1.
 Leave Link  303 at Tue Aug  4 05:18:25 2020, MaxMem=  6442450944 cpu:               1.5 elap:               0.1
 (Enter /scratch/scicomp/CentOS/7.3.1611/Haswell/software/Gaussian/g16/l401.exe)
 ExpMin= 9.52D-02 ExpMax= 1.36D+04 ExpMxC= 4.63D+02 IAcc=3 IRadAn=         5 AccDes= 0.00D+00
 Harris functional with IExCor= 4639 and IRadAn=       5 diagonalized for initial guess.
 HarFok:  IExCor= 4639 AccDes= 0.00D+00 IRadAn=         5 IDoV= 1 UseB2=F ITyADJ=14
 ICtDFT=  3500011 ScaDFX=  1.000000  1.000000  1.000000  1.000000
 FoFCou: FMM=F IPFlag=           0 FMFlag=      100000 FMFlg1=           0
         NFxFlg=           0 DoJE=T BraDBF=F KetDBF=T FulRan=T
         wScrn=  0.000000 ICntrl=       500 IOpCl=  0 I1Cent=   200000004 NGrid=           0
         NMat0=    1 NMatS0=      1 NMatT0=    0 NMatD0=    1 NMtDS0=    0 NMtDT0=    0
 Symmetry not used in FoFCou.
 Harris En= -444.649973669833    
 JPrj=0 DoOrth=F DoCkMO=T.
 Mixing orbitals, IMix= 1 IMixAn=  0 NRI=1 NE=   44 Coef=  7.07106781D-01  7.07106781D-01
 Mixing orbitals, IMix= 1 IMixAn=  0 NRI=1 NE=   44 Coef= -7.07106781D-01  7.07106781D-01
 Initial guess <Sx>= 0.0000 <Sy>= 0.0000 <Sz>= 0.0000 <S**2>= 1.0000 S= 0.6180
 Leave Link  401 at Tue Aug  4 05:18:27 2020, MaxMem=  6442450944 cpu:              48.9 elap:               2.1
 (Enter /scratch/scicomp/CentOS/7.3.1611/Haswell/software/Gaussian/g16/l502.exe)
 Two-electron integral symmetry not used.
 UHF open shell SCF:
 Using DIIS extrapolation, IDIIS=  1040.
 NGot=  6442450944 LenX=  6441877030 LenY=  6441597718
 Requested convergence on RMS density matrix=1.00D-08 within 128 cycles.
 Requested convergence on MAX density matrix=1.00D-06.
 Requested convergence on             energy=1.00D-06.
 No special actions if energy rises.
 Fock matrices will be formed incrementally for  20 cycles.

 Cycle   1  Pass 1  IDiag  1:
 FoFJK:  IHMeth= 1 ICntrl=       0 DoSepK=T KAlg= 0 I1Cent=           0 FoldK=F
 IRaf=         1 NMat=       1 IRICut=       1 DoRegI=T DoRafI=F ISym2E= 0 IDoP0=0 IntGTp=1.
 FoFCou: FMM=F IPFlag=           0 FMFlag=      100000 FMFlg1=           0
         NFxFlg=           0 DoJE=T BraDBF=F KetDBF=F FulRan=T
         wScrn=  0.000000 ICntrl=       500 IOpCl=  0 I1Cent=           0 NGrid=           0
         NMat0=    1 NMatS0=      1 NMatT0=    0 NMatD0=    1 NMtDS0=    0 NMtDT0=    0
 Symmetry not used in FoFCou.
 Inv3:  Mode=1 IEnd=    66072747.
 Iteration    1 A*A^-1 deviation from unit magnitude is 3.55D-15 for   2799.
 Iteration    1 A*A^-1 deviation from orthogonality  is 1.84D-15 for   3367   2913.
 Iteration    1 A^-1*A deviation from unit magnitude is 3.66D-15 for    102.
 Iteration    1 A^-1*A deviation from orthogonality  is 2.22D-15 for   4288   2192.
 E= -466.574413689869    
 DIIS: error= 5.30D-02 at cycle   1 NSaved=   1.
 NSaved= 1 IEnMin= 1 EnMin= -466.574413689869     IErMin= 1 ErrMin= 5.30D-02
 ErrMax= 5.30D-02  0.00D+00 EMaxC= 1.00D-01 BMatC= 4.11D+00 BMatP= 4.11D+00
 IDIUse=3 WtCom= 4.70D-01 WtEn= 5.30D-01
 Coeff-Com:  0.100D+01
 Coeff-En:   0.100D+01
 Coeff:      0.100D+01
 Gap=     0.184 Goal=   None    Shift=    0.000
 Gap=     0.184 Goal=   None    Shift=    0.000
 GapD=    0.184 DampG=1.000 DampE=0.500 DampFc=0.5000 IDamp=-1.
 Damping current iteration by 5.00D-01
 RMSDP=1.70D-03 MaxDP=9.25D-02              OVMax= 3.31D-01

 Cycle   2  Pass 1  IDiag  1:
 RMSU=  8.21D-04    CP:  9.66D-01
 E= -466.681830076885     Delta-E=       -0.107416387016 Rises=F Damp=T
 DIIS: error= 2.51D-02 at cycle   2 NSaved=   2.
 NSaved= 2 IEnMin= 2 EnMin= -466.681830076885     IErMin= 2 ErrMin= 2.51D-02
 ErrMax= 2.51D-02  0.00D+00 EMaxC= 1.00D-01 BMatC= 9.35D-01 BMatP= 4.11D+00
 IDIUse=3 WtCom= 7.49D-01 WtEn= 2.51D-01
 Coeff-Com: -0.868D+00 0.187D+01
 Coeff-En:   0.000D+00 0.100D+01
 Coeff:     -0.650D+00 0.165D+01
 Gap=     0.271 Goal=   None    Shift=    0.000
 Gap=     0.271 Goal=   None    Shift=    0.000
 RMSDP=1.21D-03 MaxDP=4.93D-02 DE=-1.07D-01 OVMax= 1.38D-01

 Cycle   3  Pass 1  IDiag  1:
 RMSU=  6.09D-04    CP:  9.16D-01  2.21D+00
 E= -466.821282519104     Delta-E=       -0.139452442219 Rises=F Damp=F
 DIIS: error= 7.71D-03 at cycle   3 NSaved=   3.
 NSaved= 3 IEnMin= 3 EnMin= -466.821282519104     IErMin= 3 ErrMin= 7.71D-03
 ErrMax= 7.71D-03  0.00D+00 EMaxC= 1.00D-01 BMatC= 2.37D-02 BMatP= 9.35D-01
 IDIUse=3 WtCom= 9.23D-01 WtEn= 7.71D-02
 Coeff-Com: -0.316D+00 0.678D+00 0.638D+00
 Coeff-En:   0.000D+00 0.000D+00 0.100D+01
 Coeff:     -0.292D+00 0.626D+00 0.666D+00
 Gap=     0.292 Goal=   None    Shift=    0.000
 Gap=     0.292 Goal=   None    Shift=    0.000
 RMSDP=2.34D-04 MaxDP=1.26D-02 DE=-1.39D-01 OVMax= 6.62D-02

 Cycle   4  Pass 1  IDiag  1:
 RMSU=  2.17D-04    CP:  9.08D-01  2.30D+00  1.00D+00
 E= -466.832202973538     Delta-E=       -0.010920454434 Rises=F Damp=F
 DIIS: error= 5.18D-03 at cycle   4 NSaved=   4.
 NSaved= 4 IEnMin= 4 EnMin= -466.832202973538     IErMin= 4 ErrMin= 5.18D-03
 ErrMax= 5.18D-03  0.00D+00 EMaxC= 1.00D-01 BMatC= 2.16D-03 BMatP= 2.37D-02
 IDIUse=3 WtCom= 9.48D-01 WtEn= 5.18D-02
 Coeff-Com:  0.135D+00-0.289D+00-0.623D-01 0.122D+01
 Coeff-En:   0.000D+00 0.000D+00 0.000D+00 0.100D+01
 Coeff:      0.128D+00-0.274D+00-0.591D-01 0.121D+01
 Gap=     0.303 Goal=   None    Shift=    0.000
 Gap=     0.303 Goal=   None    Shift=    0.000
 RMSDP=2.31D-04 MaxDP=1.14D-02 DE=-1.09D-02 OVMax= 7.99D-02

 Cycle   5  Pass 1  IDiag  1:
 RMSU=  9.42D-05    CP:  9.01D-01  2.36D+00  1.24D+00  1.65D+00
 E= -466.837143247397     Delta-E=       -0.004940273859 Rises=F Damp=F
 DIIS: error= 2.52D-03 at cycle   5 NSaved=   5.
 NSaved= 5 IEnMin= 5 EnMin= -466.837143247397     IErMin= 5 ErrMin= 2.52D-03
 ErrMax= 2.52D-03  0.00D+00 EMaxC= 1.00D-01 BMatC= 9.81D-04 BMatP= 2.16D-03
 IDIUse=3 WtCom= 9.75D-01 WtEn= 2.52D-02
 Coeff-Com:  0.783D-01-0.168D+00-0.872D-01 0.442D+00 0.735D+00
 Coeff-En:   0.000D+00 0.000D+00 0.000D+00 0.000D+00 0.100D+01
 Coeff:      0.763D-01-0.164D+00-0.850D-01 0.431D+00 0.742D+00
 Gap=     0.306 Goal=   None    Shift=    0.000
 Gap=     0.306 Goal=   None    Shift=    0.000
 RMSDP=8.85D-05 MaxDP=4.17D-03 DE=-4.94D-03 OVMax= 3.09D-02

 Cycle   6  Pass 1  IDiag  1:
 RMSU=  3.40D-05    CP:  8.99D-01  2.36D+00  1.29D+00  1.95D+00  1.39D+00
 E= -466.838629354391     Delta-E=       -0.001486106995 Rises=F Damp=F
 DIIS: error= 1.83D-03 at cycle   6 NSaved=   6.
 NSaved= 6 IEnMin= 6 EnMin= -466.838629354391     IErMin= 6 ErrMin= 1.83D-03
 ErrMax= 1.83D-03  0.00D+00 EMaxC= 1.00D-01 BMatC= 5.48D-04 BMatP= 9.81D-04
 IDIUse=3 WtCom= 9.82D-01 WtEn= 1.83D-02
 Coeff-Com: -0.745D-01 0.160D+00 0.578D-01-0.540D+00 0.888D-02 0.139D+01
 Coeff-En:   0.000D+00 0.000D+00 0.000D+00 0.000D+00 0.000D+00 0.100D+01
 Coeff:     -0.732D-01 0.157D+00 0.567D-01-0.530D+00 0.871D-02 0.138D+01
 Gap=     0.302 Goal=   None    Shift=    0.000
 Gap=     0.302 Goal=   None    Shift=    0.000
 RMSDP=1.11D-04 MaxDP=4.14D-03 DE=-1.49D-03 OVMax= 3.98D-02

 Cycle   7  Pass 1  IDiag  1:
 RMSU=  3.26D-05    CP:  8.97D-01  2.36D+00  1.33D+00  2.26D+00  2.08D+00
                    CP:  2.14D+00
 E= -466.840311717296     Delta-E=       -0.001682362905 Rises=F Damp=F
 DIIS: error= 1.20D-03 at cycle   7 NSaved=   7.
 NSaved= 7 IEnMin= 7 EnMin= -466.840311717296     IErMin= 7 ErrMin= 1.20D-03
 ErrMax= 1.20D-03  0.00D+00 EMaxC= 1.00D-01 BMatC= 2.94D-04 BMatP= 5.48D-04
 IDIUse=3 WtCom= 9.88D-01 WtEn= 1.20D-02
 Coeff-Com: -0.240D-01 0.520D-01 0.445D-01 0.224D-01-0.602D+00-0.749D+00
 Coeff-Com:  0.226D+01
 Coeff-En:   0.000D+00 0.000D+00 0.000D+00 0.000D+00 0.000D+00 0.000D+00
 Coeff-En:   0.100D+01
 Coeff:     -0.237D-01 0.513D-01 0.440D-01 0.221D-01-0.595D+00-0.740D+00
 Coeff:      0.224D+01
 Gap=     0.301 Goal=   None    Shift=    0.000
 Gap=     0.301 Goal=   None    Shift=    0.000
 RMSDP=1.51D-04 MaxDP=7.09D-03 DE=-1.68D-03 OVMax= 5.63D-02

 Cycle   8  Pass 1  IDiag  1:
 RMSU=  4.98D-05    CP:  8.94D-01  2.35D+00  1.37D+00  2.60D+00  2.98D+00
                    CP:  3.00D+00  2.78D+00
 E= -466.841906627817     Delta-E=       -0.001594910521 Rises=F Damp=F
 DIIS: error= 4.81D-04 at cycle   8 NSaved=   8.
 NSaved= 8 IEnMin= 8 EnMin= -466.841906627817     IErMin= 8 ErrMin= 4.81D-04
 ErrMax= 4.81D-04  0.00D+00 EMaxC= 1.00D-01 BMatC= 8.69D-05 BMatP= 2.94D-04
 IDIUse=3 WtCom= 9.95D-01 WtEn= 4.81D-03
 Coeff-Com:  0.288D-01-0.619D-01-0.105D-01 0.303D+00-0.192D+00-0.951D+00
 Coeff-Com:  0.720D+00 0.116D+01
 Coeff-En:   0.000D+00 0.000D+00 0.000D+00 0.000D+00 0.000D+00 0.000D+00
 Coeff-En:   0.000D+00 0.100D+01
 Coeff:      0.287D-01-0.616D-01-0.105D-01 0.301D+00-0.191D+00-0.947D+00
 Coeff:      0.717D+00 0.116D+01
 Gap=     0.304 Goal=   None    Shift=    0.000
 Gap=     0.304 Goal=   None    Shift=    0.000
 RMSDP=8.28D-05 MaxDP=4.09D-03 DE=-1.59D-03 OVMax= 3.15D-02

 Cycle   9  Pass 1  IDiag  1:
 RMSU=  5.19D-05    CP:  8.92D-01  2.35D+00  1.40D+00  2.74D+00  3.00D+00
                    CP:  3.00D+00  3.00D+00  1.95D+00
 E= -466.842291111772     Delta-E=       -0.000384483955 Rises=F Damp=F
 DIIS: error= 1.67D-04 at cycle   9 NSaved=   9.
 NSaved= 9 IEnMin= 9 EnMin= -466.842291111772     IErMin= 9 ErrMin= 1.67D-04
 ErrMax= 1.67D-04  0.00D+00 EMaxC= 1.00D-01 BMatC= 1.75D-05 BMatP= 8.69D-05
 IDIUse=3 WtCom= 9.98D-01 WtEn= 1.67D-03
 Coeff-Com:  0.181D-01-0.389D-01-0.131D-01 0.132D+00 0.322D-01-0.271D+00
 Coeff-Com: -0.119D+00 0.439D+00 0.820D+00
 Coeff-En:   0.000D+00 0.000D+00 0.000D+00 0.000D+00 0.000D+00 0.000D+00
 Coeff-En:   0.000D+00 0.000D+00 0.100D+01
 Coeff:      0.180D-01-0.388D-01-0.130D-01 0.132D+00 0.321D-01-0.270D+00
 Coeff:     -0.119D+00 0.438D+00 0.821D+00
 Gap=     0.303 Goal=   None    Shift=    0.000
 Gap=     0.303 Goal=   None    Shift=    0.000
 RMSDP=2.30D-05 MaxDP=1.17D-03 DE=-3.84D-04 OVMax= 8.86D-03

 Cycle  10  Pass 1  IDiag  1:
 RMSU=  6.64D-06    CP:  8.92D-01  2.35D+00  1.41D+00  2.77D+00  3.00D+00
                    CP:  3.00D+00  3.00D+00  2.22D+00  1.30D+00
 E= -466.842328743157     Delta-E=       -0.000037631385 Rises=F Damp=F
 DIIS: error= 7.78D-05 at cycle  10 NSaved=  10.
 NSaved=10 IEnMin=10 EnMin= -466.842328743157     IErMin=10 ErrMin= 7.78D-05
 ErrMax= 7.78D-05  0.00D+00 EMaxC= 1.00D-01 BMatC= 2.57D-06 BMatP= 1.75D-05
 IDIUse=1 WtCom= 1.00D+00 WtEn= 0.00D+00
 Coeff-Com: -0.117D-02 0.256D-02-0.976D-03-0.297D-01 0.398D-01 0.120D+00
 Coeff-Com: -0.144D+00-0.187D+00 0.135D+00 0.107D+01
 Coeff:     -0.117D-02 0.256D-02-0.976D-03-0.297D-01 0.398D-01 0.120D+00
 Coeff:     -0.144D+00-0.187D+00 0.135D+00 0.107D+01
 Gap=     0.303 Goal=   None    Shift=    0.000
 Gap=     0.303 Goal=   None    Shift=    0.000
 RMSDP=1.18D-05 MaxDP=5.28D-04 DE=-3.76D-05 OVMax= 4.54D-03

 Cycle  11  Pass 1  IDiag  1:
 RMSU=  3.20D-06    CP:  8.92D-01  2.35D+00  1.41D+00  2.79D+00  3.00D+00
                    CP:  3.00D+00  3.00D+00  2.35D+00  1.44D+00  1.53D+00
 E= -466.842334866126     Delta-E=       -0.000006122969 Rises=F Damp=F
 DIIS: error= 2.67D-05 at cycle  11 NSaved=  11.
 NSaved=11 IEnMin=11 EnMin= -466.842334866126     IErMin=11 ErrMin= 2.67D-05
 ErrMax= 2.67D-05  0.00D+00 EMaxC= 1.00D-01 BMatC= 5.75D-07 BMatP= 2.57D-06
 IDIUse=1 WtCom= 1.00D+00 WtEn= 0.00D+00
 Coeff-Com: -0.203D-02 0.438D-02 0.815D-03-0.230D-01 0.106D-01 0.656D-01
 Coeff-Com: -0.334D-01-0.117D+00-0.406D-01 0.426D+00 0.709D+00
 Coeff:     -0.203D-02 0.438D-02 0.815D-03-0.230D-01 0.106D-01 0.656D-01
 Coeff:     -0.334D-01-0.117D+00-0.406D-01 0.426D+00 0.709D+00
 Gap=     0.303 Goal=   None    Shift=    0.000
 Gap=     0.303 Goal=   None    Shift=    0.000
 RMSDP=2.16D-06 MaxDP=9.90D-05 DE=-6.12D-06 OVMax= 7.25D-04

 Cycle  12  Pass 1  IDiag  1:
 RMSU=  1.00D-06    CP:  8.92D-01  2.35D+00  1.41D+00  2.79D+00  3.00D+00
                    CP:  3.00D+00  3.00D+00  2.36D+00  1.47D+00  1.63D+00
                    CP:  1.18D+00
 E= -466.842335248182     Delta-E=       -0.000000382056 Rises=F Damp=F
 DIIS: error= 1.46D-05 at cycle  12 NSaved=  12.
 NSaved=12 IEnMin=12 EnMin= -466.842335248182     IErMin=12 ErrMin= 1.46D-05
 ErrMax= 1.46D-05  0.00D+00 EMaxC= 1.00D-01 BMatC= 7.52D-08 BMatP= 5.75D-07
 IDIUse=1 WtCom= 1.00D+00 WtEn= 0.00D+00
 Coeff-Com:  0.620D-03-0.135D-02-0.168D-03 0.834D-02-0.550D-02-0.287D-01
 Coeff-Com:  0.254D-01 0.429D-01-0.106D-01-0.218D+00-0.316D-01 0.122D+01
 Coeff:      0.620D-03-0.135D-02-0.168D-03 0.834D-02-0.550D-02-0.287D-01
 Coeff:      0.254D-01 0.429D-01-0.106D-01-0.218D+00-0.316D-01 0.122D+01
 Gap=     0.303 Goal=   None    Shift=    0.000
 Gap=     0.303 Goal=   None    Shift=    0.000
 RMSDP=9.62D-07 MaxDP=3.41D-05 DE=-3.82D-07 OVMax= 1.62D-04

 Cycle  13  Pass 1  IDiag  1:
 RMSU=  5.64D-07    CP:  8.92D-01  2.35D+00  1.41D+00  2.79D+00  3.00D+00
                    CP:  3.00D+00  3.00D+00  2.36D+00  1.47D+00  1.64D+00
                    CP:  1.30D+00  1.59D+00
 E= -466.842335360622     Delta-E=       -0.000000112440 Rises=F Damp=F
 DIIS: error= 7.71D-06 at cycle  13 NSaved=  13.
 NSaved=13 IEnMin=13 EnMin= -466.842335360622     IErMin=13 ErrMin= 7.71D-06
 ErrMax= 7.71D-06  0.00D+00 EMaxC= 1.00D-01 BMatC= 1.95D-08 BMatP= 7.52D-08
 IDIUse=1 WtCom= 1.00D+00 WtEn= 0.00D+00
 Coeff-Com: -0.292D-04 0.663D-04 0.725D-04 0.224D-03-0.515D-03-0.965D-03
 Coeff-Com:  0.404D-03 0.486D-02 0.727D-03-0.260D-01-0.901D-01-0.155D+00
 Coeff-Com:  0.127D+01
 Coeff:     -0.292D-04 0.663D-04 0.725D-04 0.224D-03-0.515D-03-0.965D-03
 Coeff:      0.404D-03 0.486D-02 0.727D-03-0.260D-01-0.901D-01-0.155D+00
 Coeff:      0.127D+01
 Gap=     0.303 Goal=   None    Shift=    0.000
 Gap=     0.303 Goal=   None    Shift=    0.000
 RMSDP=4.55D-07 MaxDP=2.65D-05 DE=-1.12D-07 OVMax= 1.12D-04

 Cycle  14  Pass 1  IDiag  1:
 RMSU=  2.99D-07    CP:  8.92D-01  2.35D+00  1.41D+00  2.79D+00  3.00D+00
                    CP:  3.00D+00  3.00D+00  2.36D+00  1.47D+00  1.65D+00
                    CP:  1.34D+00  1.74D+00  1.45D+00
 E= -466.842335399968     Delta-E=       -0.000000039346 Rises=F Damp=F
 DIIS: error= 4.36D-06 at cycle  14 NSaved=  14.
 NSaved=14 IEnMin=14 EnMin= -466.842335399968     IErMin=14 ErrMin= 4.36D-06
 ErrMax= 4.36D-06  0.00D+00 EMaxC= 1.00D-01 BMatC= 6.52D-09 BMatP= 1.95D-08
 IDIUse=1 WtCom= 1.00D+00 WtEn= 0.00D+00
 Coeff-Com: -0.269D-03 0.582D-03 0.143D-03-0.294D-02 0.146D-02 0.951D-02
 Coeff-Com: -0.808D-02-0.133D-01 0.338D-02 0.703D-01 0.343D-03-0.425D+00
 Coeff-Com:  0.530D-01 0.131D+01
 Coeff:     -0.269D-03 0.582D-03 0.143D-03-0.294D-02 0.146D-02 0.951D-02
 Coeff:     -0.808D-02-0.133D-01 0.338D-02 0.703D-01 0.343D-03-0.425D+00
 Coeff:      0.530D-01 0.131D+01
 Gap=     0.303 Goal=   None    Shift=    0.000
 Gap=     0.303 Goal=   None    Shift=    0.000
 RMSDP=3.61D-07 MaxDP=1.70D-05 DE=-3.93D-08 OVMax= 8.38D-05

 Cycle  15  Pass 1  IDiag  1:
 RMSU=  1.38D-07    CP:  8.92D-01  2.35D+00  1.41D+00  2.79D+00  3.00D+00
                    CP:  3.00D+00  3.00D+00  2.36D+00  1.47D+00  1.66D+00
                    CP:  1.34D+00  1.78D+00  1.76D+00  1.89D+00
 E= -466.842335414981     Delta-E=       -0.000000015013 Rises=F Damp=F
 DIIS: error= 1.62D-06 at cycle  15 NSaved=  15.
 NSaved=15 IEnMin=15 EnMin= -466.842335414981     IErMin=15 ErrMin= 1.62D-06
 ErrMax= 1.62D-06  0.00D+00 EMaxC= 1.00D-01 BMatC= 1.10D-09 BMatP= 6.52D-09
 IDIUse=1 WtCom= 1.00D+00 WtEn= 0.00D+00
 Coeff-Com:  0.632D-05-0.145D-04-0.307D-04-0.143D-03 0.340D-03 0.836D-03
 Coeff-Com: -0.145D-02-0.144D-02 0.237D-02 0.143D-01 0.163D-01-0.272D-01
 Coeff-Com: -0.293D+00 0.177D+00 0.111D+01
 Coeff:      0.632D-05-0.145D-04-0.307D-04-0.143D-03 0.340D-03 0.836D-03
 Coeff:     -0.145D-02-0.144D-02 0.237D-02 0.143D-01 0.163D-01-0.272D-01
 Coeff:     -0.293D+00 0.177D+00 0.111D+01
 Gap=     0.303 Goal=   None    Shift=    0.000
 Gap=     0.303 Goal=   None    Shift=    0.000
 RMSDP=1.80D-07 MaxDP=7.42D-06 DE=-1.50D-08 OVMax= 4.11D-05

 Cycle  16  Pass 1  IDiag  1:
 RMSU=  5.67D-08    CP:  8.92D-01  2.35D+00  1.41D+00  2.79D+00  3.00D+00
                    CP:  3.00D+00  3.00D+00  2.36D+00  1.47D+00  1.66D+00
                    CP:  1.33D+00  1.77D+00  1.86D+00  2.29D+00  1.51D+00
 E= -466.842335417081     Delta-E=       -0.000000002100 Rises=F Damp=F
 DIIS: error= 3.80D-07 at cycle  16 NSaved=  16.
 NSaved=16 IEnMin=16 EnMin= -466.842335417081     IErMin=16 ErrMin= 3.80D-07
 ErrMax= 3.80D-07  0.00D+00 EMaxC= 1.00D-01 BMatC= 1.15D-10 BMatP= 1.10D-09
 IDIUse=1 WtCom= 1.00D+00 WtEn= 0.00D+00
 Coeff-Com:  0.106D-04-0.230D-04-0.114D-04 0.121D-03-0.227D-04-0.337D-03
 Coeff-Com:  0.201D-03 0.550D-03 0.110D-03-0.279D-02 0.469D-02 0.349D-01
 Coeff-Com: -0.761D-01-0.103D+00 0.278D+00 0.863D+00
 Coeff:      0.106D-04-0.230D-04-0.114D-04 0.121D-03-0.227D-04-0.337D-03
 Coeff:      0.201D-03 0.550D-03 0.110D-03-0.279D-02 0.469D-02 0.349D-01
 Coeff:     -0.761D-01-0.103D+00 0.278D+00 0.863D+00
 Gap=     0.303 Goal=   None    Shift=    0.000
 Gap=     0.303 Goal=   None    Shift=    0.000
 RMSDP=4.06D-08 MaxDP=1.82D-06 DE=-2.10D-09 OVMax= 7.74D-06

 Cycle  17  Pass 1  IDiag  1:
 RMSU=  1.64D-08    CP:  8.92D-01  2.35D+00  1.41D+00  2.79D+00  3.00D+00
                    CP:  3.00D+00  3.00D+00  2.36D+00  1.47D+00  1.66D+00
                    CP:  1.33D+00  1.76D+00  1.87D+00  2.35D+00  1.65D+00
                    CP:  1.33D+00
 E= -466.842335417169     Delta-E=       -0.000000000089 Rises=F Damp=F
 DIIS: error= 9.21D-08 at cycle  17 NSaved=  17.
 NSaved=17 IEnMin=17 EnMin= -466.842335417169     IErMin=17 ErrMin= 9.21D-08
 ErrMax= 9.21D-08  0.00D+00 EMaxC= 1.00D-01 BMatC= 1.12D-11 BMatP= 1.15D-10
 IDIUse=1 WtCom= 1.00D+00 WtEn= 0.00D+00
 Coeff-Com: -0.796D-06 0.180D-05 0.861D-06 0.474D-05-0.221D-04-0.117D-04
 Coeff-Com:  0.637D-04 0.110D-03-0.233D-03-0.149D-02-0.510D-03 0.738D-02
 Coeff-Com:  0.168D-01-0.346D-01-0.682D-01 0.161D+00 0.920D+00
 Coeff:     -0.796D-06 0.180D-05 0.861D-06 0.474D-05-0.221D-04-0.117D-04
 Coeff:      0.637D-04 0.110D-03-0.233D-03-0.149D-02-0.510D-03 0.738D-02
 Coeff:      0.168D-01-0.346D-01-0.682D-01 0.161D+00 0.920D+00
 Gap=     0.303 Goal=   None    Shift=    0.000
 Gap=     0.303 Goal=   None    Shift=    0.000
 RMSDP=1.19D-08 MaxDP=4.49D-07 DE=-8.86D-11 OVMax= 1.71D-06

 Cycle  18  Pass 1  IDiag  1:
 RMSU=  5.97D-09    CP:  8.92D-01  2.35D+00  1.41D+00  2.79D+00  3.00D+00
                    CP:  3.00D+00  3.00D+00  2.36D+00  1.47D+00  1.66D+00
                    CP:  1.33D+00  1.76D+00  1.87D+00  2.36D+00  1.69D+00
                    CP:  1.45D+00  1.20D+00
 E= -466.842335417178     Delta-E=       -0.000000000009 Rises=F Damp=F
 DIIS: error= 2.94D-08 at cycle  18 NSaved=  18.
 NSaved=18 IEnMin=18 EnMin= -466.842335417178     IErMin=18 ErrMin= 2.94D-08
 ErrMax= 2.94D-08  0.00D+00 EMaxC= 1.00D-01 BMatC= 1.23D-12 BMatP= 1.12D-11
 IDIUse=1 WtCom= 1.00D+00 WtEn= 0.00D+00
 Coeff-Com:  0.389D-06-0.837D-06 0.532D-06 0.228D-05-0.111D-04 0.113D-05
 Coeff-Com:  0.395D-05 0.188D-04-0.274D-04-0.110D-03-0.633D-03-0.200D-02
 Coeff-Com:  0.109D-01 0.437D-02-0.405D-01-0.692D-01 0.147D+00 0.950D+00
 Coeff:      0.389D-06-0.837D-06 0.532D-06 0.228D-05-0.111D-04 0.113D-05
 Coeff:      0.395D-05 0.188D-04-0.274D-04-0.110D-03-0.633D-03-0.200D-02
 Coeff:      0.109D-01 0.437D-02-0.405D-01-0.692D-01 0.147D+00 0.950D+00
 Gap=     0.303 Goal=   None    Shift=    0.000
 Gap=     0.303 Goal=   None    Shift=    0.000
 RMSDP=4.10D-09 MaxDP=1.88D-07 DE=-8.87D-12 OVMax= 4.77D-07

 Error on total polarization charges =  0.01122
 SCF Done:  E(UwB97XD) =  -466.842335417     A.U. after   18 cycles
            NFock= 18  Conv=0.41D-08     -V/T= 2.0056
 <Sx>= 0.0000 <Sy>= 0.0000 <Sz>= 0.0000 <S**2>= 0.0000 S= 0.0000
 <L.S>=  0.00000000000    
 KE= 4.642512588127D+02 PE=-2.444757919759D+03 EE= 8.322686333911D+02
 --------------------------------------------------------------------
 Variational PCM results
 =======================
 <psi(f)|   H    |psi(f)>                     (a.u.) =    -466.850124
 <psi(f)|H+V(f)/2|psi(f)>                     (a.u.) =    -466.851669
 Total free energy in solution:
 - with all non electrostatic terms           (a.u.) =    -466.842335
 --------------------------------------------------------------------
 (Polarized solute)-Solvent               (kcal/mol) =      -0.97
 --------------------------------------------------------------------
 Quantum repulsion energy                 (kcal/mol) =       5.86
 Total non electrostatic                  (kcal/mol) =       5.86
 --------------------------------------------------------------------
 Partition over spheres:
 Sphere  on Atom  Surface  Charge   GEl     GCav    GDR
    1               7.21   0.011   -0.05    0.00    0.00
    2               4.43   0.006   -0.04    0.00    0.00
    3               7.52  -0.010   -0.04    0.00    0.00
    4               2.28  -0.003   -0.01    0.00    0.00
    5               4.61   0.009   -0.06    0.00    0.00
    6               4.61   0.007   -0.04    0.00    0.00
    7               4.60  -0.006   -0.03    0.00    0.00
    8               3.17  -0.004   -0.01    0.00    0.00
    9               3.10   0.002    0.00    0.00    0.00
   10               6.86  -0.007   -0.01    0.00    0.00
   11               2.56  -0.002   -0.01    0.00    0.00
   12               6.42   0.010   -0.06    0.00    0.00
   13               7.52  -0.010   -0.03    0.00    0.00
   14               7.35   0.011   -0.05    0.00    0.00
   15               7.52  -0.010   -0.04    0.00    0.00
   16               3.66   0.001    0.00    0.00    0.00
   17               3.61  -0.004   -0.01    0.00    0.00
   18               6.94  -0.008   -0.03    0.00    0.00
   19               5.12   0.010   -0.07    0.00    0.00
   20               5.29  -0.008   -0.03    0.00    0.00
   21               6.66   0.010   -0.06    0.00    0.00
   22               7.51  -0.010   -0.03    0.00    0.00
   23               3.59   0.002    0.00    0.00    0.00
   24               3.90  -0.003   -0.01    0.00    0.00
   25               6.81  -0.007   -0.01    0.00    0.00
   26               3.26   0.001    0.00    0.00    0.00
   27               6.94  -0.008   -0.03    0.00    0.00
   28               3.64  -0.004   -0.01    0.00    0.00
 Added spheres:    73.75   0.011   -0.21    0.00    0.00
 --------------------------------------------------------------------
 After PCM corrections, the energy is  -466.842335417     a.u.
 --------------------------------------------------------------------
 Annihilation of the first spin contaminant:
 S**2 before annihilation     0.0000,   after    -0.0000
 Leave Link  502 at Tue Aug  4 05:24:03 2020, MaxMem=  6442450944 cpu:            7991.6 elap:             335.8
 (Enter /scratch/scicomp/CentOS/7.3.1611/Haswell/software/Gaussian/g16/l601.exe)
 Copying SCF densities to generalized density rwf, IOpCl= 1 IROHF=0.

 **********************************************************************

            Population analysis using the SCF Density.

 **********************************************************************

 Alpha  occ. eigenvalues --  -10.28400 -10.28399 -10.28069 -10.28069 -10.28067
 Alpha  occ. eigenvalues --  -10.28067 -10.28019 -10.28018 -10.27798 -10.27798
 Alpha  occ. eigenvalues --  -10.27242 -10.27242  -0.94220  -0.93385  -0.84353
 Alpha  occ. eigenvalues --   -0.84153  -0.83550  -0.83542  -0.71481  -0.70995
 Alpha  occ. eigenvalues --   -0.68019  -0.67775  -0.59703  -0.59578  -0.57360
 Alpha  occ. eigenvalues --   -0.56425  -0.53614  -0.52748  -0.50858  -0.50840
 Alpha  occ. eigenvalues --   -0.49734  -0.49109  -0.47381  -0.46749  -0.45387
 Alpha  occ. eigenvalues --   -0.44846  -0.41274  -0.40855  -0.39711  -0.39129
 Alpha  occ. eigenvalues --   -0.39070  -0.38697  -0.29833  -0.27002
 Alpha virt. eigenvalues --    0.03253   0.05702   0.11399   0.13160   0.14414
 Alpha virt. eigenvalues --    0.15522   0.15568   0.16491   0.16597   0.16895
 Alpha virt. eigenvalues --    0.17493   0.17669   0.18220   0.19205   0.20926
 Alpha virt. eigenvalues --    0.22196   0.22329   0.23689   0.24264   0.24748
 Alpha virt. eigenvalues --    0.25463   0.26194   0.26609   0.27348   0.28508
 Alpha virt. eigenvalues --    0.29187   0.29753   0.30022   0.31009   0.31201
 Alpha virt. eigenvalues --    0.31786   0.32414   0.32935   0.33387   0.34487
 Alpha virt. eigenvalues --    0.34582   0.35154   0.36475   0.36722   0.37924
 Alpha virt. eigenvalues --    0.38887   0.39416   0.41854   0.41958   0.42447
 Alpha virt. eigenvalues --    0.42571   0.44593   0.44803   0.45817   0.46424
 Alpha virt. eigenvalues --    0.47283   0.47903   0.48680   0.48748   0.49276
 Alpha virt. eigenvalues --    0.49602   0.49670   0.49709   0.50456   0.50832
 Alpha virt. eigenvalues --    0.51295   0.51298   0.52767   0.52870   0.53480
 Alpha virt. eigenvalues --    0.53960   0.54897   0.55023   0.55965   0.55986
 Alpha virt. eigenvalues --    0.57678   0.58026   0.58178   0.59818   0.60937
 Alpha virt. eigenvalues --    0.61208   0.61546   0.62233   0.63641   0.65740
 Alpha virt. eigenvalues --    0.66344   0.66851   0.68485   0.68671   0.68937
 Alpha virt. eigenvalues --    0.69412   0.72728   0.73780   0.74681   0.75523
 Alpha virt. eigenvalues --    0.78486   0.78491   0.78918   0.80361   0.80547
 Alpha virt. eigenvalues --    0.81984   0.83127   0.84065   0.86492   0.87891
 Alpha virt. eigenvalues --    0.90075   0.91002   0.91022   0.92811   0.93550
 Alpha virt. eigenvalues --    0.94843   0.96643   0.97066   0.98713   0.99215
 Alpha virt. eigenvalues --    1.01446   1.03823   1.04987   1.05427   1.05566
 Alpha virt. eigenvalues --    1.07194   1.08028   1.08156   1.10667   1.11167
 Alpha virt. eigenvalues --    1.12892   1.13543   1.14452   1.15398   1.16479
 Alpha virt. eigenvalues --    1.17085   1.17930   1.18747   1.19287   1.20195
 Alpha virt. eigenvalues --    1.20502   1.21112   1.23726   1.25317   1.25379
 Alpha virt. eigenvalues --    1.26152   1.26788   1.28251   1.29010   1.29184
 Alpha virt. eigenvalues --    1.30069   1.31805   1.31900   1.32470   1.32986
 Alpha virt. eigenvalues --    1.34402   1.35006   1.37281   1.37909   1.38077
 Alpha virt. eigenvalues --    1.38676   1.39611   1.41204   1.41230   1.42304
 Alpha virt. eigenvalues --    1.43038   1.43308   1.43715   1.44385   1.45034
 Alpha virt. eigenvalues --    1.45603   1.46331   1.47610   1.48743   1.49219
 Alpha virt. eigenvalues --    1.49988   1.51483   1.53486   1.54275   1.56532
 Alpha virt. eigenvalues --    1.58411   1.58466   1.59496   1.60944   1.61733
 Alpha virt. eigenvalues --    1.63004   1.63720   1.64203   1.66400   1.66909
 Alpha virt. eigenvalues --    1.68331   1.71125   1.74790   1.75014   1.78593
 Alpha virt. eigenvalues --    1.80792   1.81387   1.82066   1.83563   1.85412
 Alpha virt. eigenvalues --    1.87540   1.88403   1.90745   1.91610   1.93038
 Alpha virt. eigenvalues --    1.93275   1.97076   1.98450   1.99772   2.00982
 Alpha virt. eigenvalues --    2.03251   2.03685   2.09363   2.09791   2.10262
 Alpha virt. eigenvalues --    2.12527   2.12584   2.13084   2.15752   2.15856
 Alpha virt. eigenvalues --    2.17731   2.20490   2.20793   2.21742   2.23147
 Alpha virt. eigenvalues --    2.23991   2.24990   2.25574   2.28127   2.29390
 Alpha virt. eigenvalues --    2.34476   2.36403   2.38377   2.40479   2.42192
 Alpha virt. eigenvalues --    2.44265   2.45397   2.45682   2.49259   2.49526
 Alpha virt. eigenvalues --    2.50329   2.50663   2.52410   2.55232   2.55801
 Alpha virt. eigenvalues --    2.57797   2.57891   2.59597   2.62310   2.62908
 Alpha virt. eigenvalues --    2.62975   2.64637   2.65548   2.65672   2.66078
 Alpha virt. eigenvalues --    2.67191   2.68003   2.71054   2.72627   2.73028
 Alpha virt. eigenvalues --    2.73293   2.74570   2.75481   2.75918   2.77112
 Alpha virt. eigenvalues --    2.78517   2.78867   2.80592   2.80856   2.81465
 Alpha virt. eigenvalues --    2.82414   2.82782   2.83447   2.84480   2.85847
 Alpha virt. eigenvalues --    2.86297   2.87532   2.87644   2.88757   2.90096
 Alpha virt. eigenvalues --    2.91573   2.92577   2.92778   2.94038   2.95230
 Alpha virt. eigenvalues --    2.96228   2.96678   2.97149   2.98229   3.01218
 Alpha virt. eigenvalues --    3.01435   3.02670   3.03787   3.05526   3.05997
 Alpha virt. eigenvalues --    3.07162   3.09236   3.09865   3.11091   3.11344
 Alpha virt. eigenvalues --    3.11978   3.13396   3.13858   3.14809   3.15753
 Alpha virt. eigenvalues --    3.15881   3.16986   3.17151   3.18851   3.19031
 Alpha virt. eigenvalues --    3.20286   3.20915   3.21064   3.21301   3.21590
 Alpha virt. eigenvalues --    3.22514   3.23098   3.23180   3.24159   3.25319
 Alpha virt. eigenvalues --    3.25842   3.26490   3.27546   3.27626   3.28372
 Alpha virt. eigenvalues --    3.28732   3.30352   3.31085   3.31679   3.32552
 Alpha virt. eigenvalues --    3.32555   3.33359   3.33965   3.35497   3.36326
 Alpha virt. eigenvalues --    3.36592   3.36867   3.38137   3.39144   3.39641
 Alpha virt. eigenvalues --    3.42780   3.43031   3.43451   3.44756   3.44930
 Alpha virt. eigenvalues --    3.45935   3.46136   3.47034   3.47559   3.47680
 Alpha virt. eigenvalues --    3.48706   3.49865   3.50072   3.51485   3.53198
 Alpha virt. eigenvalues --    3.53884   3.53987   3.55215   3.55285   3.56827
 Alpha virt. eigenvalues --    3.58119   3.59535   3.59845   3.61819   3.65490
 Alpha virt. eigenvalues --    3.65785   3.66950   3.68251   3.68780   3.69800
 Alpha virt. eigenvalues --    3.71007   3.71458   3.73769   3.73930   3.74742
 Alpha virt. eigenvalues --    3.78759   3.78947   3.79944   3.81813   3.84119
 Alpha virt. eigenvalues --    3.85288   3.85608   3.85827   3.87696   3.88858
 Alpha virt. eigenvalues --    3.90601   3.91672   3.94100   3.94805   3.96890
 Alpha virt. eigenvalues --    3.99416   4.01760   4.01985   4.03325   4.05875
 Alpha virt. eigenvalues --    4.07476   4.08939   4.09310   4.09518   4.11450
 Alpha virt. eigenvalues --    4.12938   4.13382   4.15544   4.15899   4.18748
 Alpha virt. eigenvalues --    4.19376   4.22238   4.22508   4.22932   4.26200
 Alpha virt. eigenvalues --    4.26709   4.27703   4.31527   4.31707   4.36052
 Alpha virt. eigenvalues --    4.36558   4.38088   4.39415   4.41173   4.43083
 Alpha virt. eigenvalues --    4.45859   4.47606   4.49199   4.49936   4.53479
 Alpha virt. eigenvalues --    4.55270   4.59916   4.61922   4.66150   4.67872
 Alpha virt. eigenvalues --    4.69510   4.69920   4.73129   4.74888   4.76468
 Alpha virt. eigenvalues --    4.78315   4.80822   4.82525   4.84898   4.85520
 Alpha virt. eigenvalues --    4.85714   4.88171   4.93122   4.95714   4.95983
 Alpha virt. eigenvalues --    4.98511   5.02794   5.03062   5.07601   5.08365
 Alpha virt. eigenvalues --    5.14246   5.16965   5.19201   5.22520   5.23626
 Alpha virt. eigenvalues --    5.23986   5.34046   5.34671   5.41572   5.42835
 Alpha virt. eigenvalues --    5.45120   5.45893   5.50986   5.54038   5.71217
 Alpha virt. eigenvalues --    5.71630   5.77611   5.79411   5.96515   6.02593
 Alpha virt. eigenvalues --    7.94792   7.95502   8.01409   8.04349   8.05316
 Alpha virt. eigenvalues --    8.09609   8.10165   8.13463   8.17093   8.19762
 Alpha virt. eigenvalues --    8.35804   8.36576  34.76696  34.77913  34.81459
 Alpha virt. eigenvalues --   34.81810  34.84913  34.90644  34.96043  35.00199
 Alpha virt. eigenvalues --   35.01513  35.02363  35.17747  35.18265
  Beta  occ. eigenvalues --  -10.28400 -10.28399 -10.28069 -10.28069 -10.28067
  Beta  occ. eigenvalues --  -10.28067 -10.28019 -10.28018 -10.27798 -10.27798
  Beta  occ. eigenvalues --  -10.27242 -10.27242  -0.94220  -0.93385  -0.84353
  Beta  occ. eigenvalues --   -0.84153  -0.83550  -0.83542  -0.71481  -0.70995
  Beta  occ. eigenvalues --   -0.68019  -0.67775  -0.59703  -0.59578  -0.57360
  Beta  occ. eigenvalues --   -0.56425  -0.53614  -0.52748  -0.50858  -0.50840
  Beta  occ. eigenvalues --   -0.49734  -0.49109  -0.47381  -0.46749  -0.45387
  Beta  occ. eigenvalues --   -0.44846  -0.41274  -0.40855  -0.39711  -0.39129
  Beta  occ. eigenvalues --   -0.39070  -0.38697  -0.29833  -0.27002
  Beta virt. eigenvalues --    0.03253   0.05702   0.11399   0.13160   0.14414
  Beta virt. eigenvalues --    0.15522   0.15568   0.16491   0.16597   0.16895
  Beta virt. eigenvalues --    0.17493   0.17669   0.18220   0.19205   0.20926
  Beta virt. eigenvalues --    0.22196   0.22329   0.23689   0.24264   0.24748
  Beta virt. eigenvalues --    0.25463   0.26194   0.26609   0.27348   0.28508
  Beta virt. eigenvalues --    0.29187   0.29753   0.30022   0.31009   0.31201
  Beta virt. eigenvalues --    0.31786   0.32414   0.32935   0.33387   0.34487
  Beta virt. eigenvalues --    0.34582   0.35154   0.36475   0.36722   0.37924
  Beta virt. eigenvalues --    0.38887   0.39416   0.41854   0.41958   0.42447
  Beta virt. eigenvalues --    0.42571   0.44593   0.44803   0.45817   0.46424
  Beta virt. eigenvalues --    0.47283   0.47903   0.48680   0.48748   0.49276
  Beta virt. eigenvalues --    0.49602   0.49670   0.49709   0.50456   0.50832
  Beta virt. eigenvalues --    0.51295   0.51298   0.52767   0.52870   0.53480
  Beta virt. eigenvalues --    0.53960   0.54897   0.55023   0.55965   0.55986
  Beta virt. eigenvalues --    0.57678   0.58026   0.58178   0.59818   0.60937
  Beta virt. eigenvalues --    0.61208   0.61546   0.62233   0.63641   0.65740
  Beta virt. eigenvalues --    0.66344   0.66851   0.68485   0.68671   0.68937
  Beta virt. eigenvalues --    0.69412   0.72728   0.73780   0.74681   0.75523
  Beta virt. eigenvalues --    0.78486   0.78491   0.78918   0.80361   0.80547
  Beta virt. eigenvalues --    0.81984   0.83127   0.84065   0.86492   0.87891
  Beta virt. eigenvalues --    0.90075   0.91002   0.91022   0.92811   0.93550
  Beta virt. eigenvalues --    0.94843   0.96643   0.97066   0.98713   0.99215
  Beta virt. eigenvalues --    1.01446   1.03823   1.04987   1.05427   1.05566
  Beta virt. eigenvalues --    1.07194   1.08028   1.08156   1.10667   1.11167
  Beta virt. eigenvalues --    1.12892   1.13543   1.14452   1.15398   1.16479
  Beta virt. eigenvalues --    1.17085   1.17930   1.18747   1.19287   1.20195
  Beta virt. eigenvalues --    1.20502   1.21112   1.23726   1.25317   1.25379
  Beta virt. eigenvalues --    1.26152   1.26788   1.28251   1.29010   1.29184
  Beta virt. eigenvalues --    1.30069   1.31805   1.31900   1.32470   1.32986
  Beta virt. eigenvalues --    1.34402   1.35006   1.37281   1.37909   1.38077
  Beta virt. eigenvalues --    1.38676   1.39611   1.41204   1.41230   1.42304
  Beta virt. eigenvalues --    1.43038   1.43308   1.43715   1.44385   1.45034
  Beta virt. eigenvalues --    1.45603   1.46331   1.47610   1.48743   1.49219
  Beta virt. eigenvalues --    1.49988   1.51483   1.53486   1.54275   1.56532
  Beta virt. eigenvalues --    1.58411   1.58466   1.59496   1.60944   1.61733
  Beta virt. eigenvalues --    1.63004   1.63720   1.64203   1.66400   1.66909
  Beta virt. eigenvalues --    1.68331   1.71125   1.74790   1.75014   1.78593
  Beta virt. eigenvalues --    1.80792   1.81387   1.82066   1.83563   1.85412
  Beta virt. eigenvalues --    1.87540   1.88403   1.90745   1.91610   1.93038
  Beta virt. eigenvalues --    1.93275   1.97076   1.98450   1.99772   2.00982
  Beta virt. eigenvalues --    2.03251   2.03685   2.09363   2.09791   2.10262
  Beta virt. eigenvalues --    2.12527   2.12584   2.13084   2.15752   2.15856
  Beta virt. eigenvalues --    2.17731   2.20490   2.20793   2.21742   2.23147
  Beta virt. eigenvalues --    2.23991   2.24990   2.25574   2.28127   2.29390
  Beta virt. eigenvalues --    2.34476   2.36403   2.38377   2.40479   2.42192
  Beta virt. eigenvalues --    2.44265   2.45397   2.45682   2.49259   2.49526
  Beta virt. eigenvalues --    2.50329   2.50663   2.52410   2.55232   2.55801
  Beta virt. eigenvalues --    2.57797   2.57891   2.59597   2.62310   2.62908
  Beta virt. eigenvalues --    2.62975   2.64637   2.65548   2.65672   2.66078
  Beta virt. eigenvalues --    2.67191   2.68003   2.71054   2.72627   2.73028
  Beta virt. eigenvalues --    2.73293   2.74570   2.75481   2.75918   2.77112
  Beta virt. eigenvalues --    2.78517   2.78867   2.80592   2.80856   2.81465
  Beta virt. eigenvalues --    2.82414   2.82782   2.83447   2.84480   2.85847
  Beta virt. eigenvalues --    2.86297   2.87532   2.87644   2.88757   2.90096
  Beta virt. eigenvalues --    2.91573   2.92577   2.92778   2.94038   2.95230
  Beta virt. eigenvalues --    2.96228   2.96678   2.97149   2.98229   3.01218
  Beta virt. eigenvalues --    3.01435   3.02670   3.03787   3.05526   3.05997
  Beta virt. eigenvalues --    3.07162   3.09236   3.09865   3.11091   3.11344
  Beta virt. eigenvalues --    3.11978   3.13396   3.13858   3.14809   3.15753
  Beta virt. eigenvalues --    3.15881   3.16986   3.17151   3.18851   3.19031
  Beta virt. eigenvalues --    3.20286   3.20915   3.21064   3.21301   3.21590
  Beta virt. eigenvalues --    3.22514   3.23098   3.23180   3.24159   3.25319
  Beta virt. eigenvalues --    3.25842   3.26490   3.27546   3.27626   3.28372
  Beta virt. eigenvalues --    3.28732   3.30352   3.31085   3.31679   3.32552
  Beta virt. eigenvalues --    3.32555   3.33359   3.33965   3.35497   3.36326
  Beta virt. eigenvalues --    3.36592   3.36867   3.38137   3.39144   3.39641
  Beta virt. eigenvalues --    3.42780   3.43031   3.43451   3.44756   3.44930
  Beta virt. eigenvalues --    3.45935   3.46136   3.47034   3.47559   3.47680
  Beta virt. eigenvalues --    3.48706   3.49865   3.50072   3.51485   3.53198
  Beta virt. eigenvalues --    3.53884   3.53987   3.55215   3.55285   3.56827
  Beta virt. eigenvalues --    3.58119   3.59535   3.59845   3.61819   3.65490
  Beta virt. eigenvalues --    3.65785   3.66950   3.68251   3.68780   3.69800
  Beta virt. eigenvalues --    3.71007   3.71458   3.73769   3.73930   3.74742
  Beta virt. eigenvalues --    3.78759   3.78947   3.79944   3.81813   3.84119
  Beta virt. eigenvalues --    3.85288   3.85608   3.85827   3.87696   3.88858
  Beta virt. eigenvalues --    3.90601   3.91672   3.94100   3.94805   3.96890
  Beta virt. eigenvalues --    3.99416   4.01760   4.01985   4.03325   4.05875
  Beta virt. eigenvalues --    4.07476   4.08939   4.09310   4.09518   4.11450
  Beta virt. eigenvalues --    4.12938   4.13382   4.15544   4.15899   4.18748
  Beta virt. eigenvalues --    4.19376   4.22238   4.22508   4.22932   4.26200
  Beta virt. eigenvalues --    4.26709   4.27703   4.31527   4.31707   4.36052
  Beta virt. eigenvalues --    4.36558   4.38088   4.39415   4.41173   4.43083
  Beta virt. eigenvalues --    4.45859   4.47606   4.49199   4.49936   4.53479
  Beta virt. eigenvalues --    4.55270   4.59916   4.61922   4.66150   4.67872
  Beta virt. eigenvalues --    4.69510   4.69920   4.73129   4.74888   4.76468
  Beta virt. eigenvalues --    4.78315   4.80822   4.82525   4.84898   4.85520
  Beta virt. eigenvalues --    4.85714   4.88171   4.93122   4.95714   4.95983
  Beta virt. eigenvalues --    4.98511   5.02794   5.03062   5.07601   5.08365
  Beta virt. eigenvalues --    5.14246   5.16965   5.19201   5.22520   5.23626
  Beta virt. eigenvalues --    5.23986   5.34046   5.34671   5.41572   5.42835
  Beta virt. eigenvalues --    5.45120   5.45893   5.50986   5.54038   5.71217
  Beta virt. eigenvalues --    5.71630   5.77611   5.79411   5.96515   6.02593
  Beta virt. eigenvalues --    7.94792   7.95502   8.01409   8.04349   8.05316
  Beta virt. eigenvalues --    8.09609   8.10165   8.13463   8.17093   8.19762
  Beta virt. eigenvalues --    8.35804   8.36576  34.76696  34.77913  34.81459
  Beta virt. eigenvalues --   34.81810  34.84913  34.90644  34.96043  35.00199
  Beta virt. eigenvalues --   35.01513  35.02363  35.17747  35.18265
          Condensed to atoms (all electrons):
               1          2          3          4          5          6
     1  C    5.146327  -0.002083   0.424126  -0.001774   0.001638  -0.007295
     2  C   -0.002083   5.391565  -0.002255   0.425677  -0.045918  -0.023334
     3  H    0.424126  -0.002255   0.491602   0.000026  -0.000044   0.000012
     4  H   -0.001774   0.425677   0.000026   0.460992  -0.007143   0.002978
     5  C    0.001638  -0.045918  -0.000044  -0.007143   5.204828   0.482121
     6  C   -0.007295  -0.023334   0.000012   0.002978   0.482121   5.391240
     7  H    0.000313  -0.002624   0.000001  -0.000065   0.426197  -0.026485
     8  H   -0.002155   0.002942  -0.000044   0.000056  -0.037452   0.425663
     9  C    0.002429  -0.012085  -0.000007  -0.002068  -0.055737   0.199456
    10  H   -0.000046   0.001054  -0.000001  -0.000199  -0.005569  -0.037325
    11  H    0.000108  -0.007248   0.000002   0.000356   0.009831  -0.062081
    12  C   -0.000195   0.013272   0.000002   0.002596   0.283959  -0.067201
    13  H   -0.000001   0.000068   0.000000   0.000028  -0.036531   0.005013
    14  C    0.000175  -0.007239  -0.000000  -0.002203  -0.046569  -0.002010
    15  H   -0.000000   0.000012  -0.000000  -0.000044   0.007090  -0.002245
    16  C   -0.000645   0.014984   0.000000   0.000692  -0.003540  -0.056446
    17  H   -0.000027   0.000072  -0.000000  -0.002137   0.009139  -0.001987
    18  H    0.000003   0.000396   0.000000   0.000300  -0.003211   0.011669
    19  C   -0.046436   0.482060   0.007098  -0.037577  -0.020344  -0.045963
    20  H    0.003714  -0.025904  -0.000080  -0.003985   0.000353  -0.002657
    21  C    0.576563  -0.067037  -0.031588   0.004562   0.002298   0.013312
    22  H   -0.025348   0.005091  -0.005689  -0.000047   0.000029   0.000067
    23  C   -0.082131   0.199853   0.005211  -0.011867   0.012147  -0.012160
    24  H    0.013668  -0.062140  -0.000075  -0.003861   0.000825  -0.007246
    25  H    0.003829  -0.037266  -0.000049  -0.000762   0.000707   0.001054
    26  C    0.273720  -0.056397  -0.029136   0.003613  -0.008504   0.014999
    27  H   -0.038656   0.011673  -0.004347  -0.000077   0.000273   0.000394
    28  H   -0.034627  -0.001984   0.000956  -0.000138  -0.003516   0.000051
               7          8          9         10         11         12
     1  C    0.000313  -0.002155   0.002429  -0.000046   0.000108  -0.000195
     2  C   -0.002624   0.002942  -0.012085   0.001054  -0.007248   0.013272
     3  H    0.000001  -0.000044  -0.000007  -0.000001   0.000002   0.000002
     4  H   -0.000065   0.000056  -0.002068  -0.000199   0.000356   0.002596
     5  C    0.426197  -0.037452  -0.055737  -0.005569   0.009831   0.283959
     6  C   -0.026485   0.425663   0.199456  -0.037325  -0.062081  -0.067201
     7  H    0.474278  -0.004005   0.002776  -0.000245  -0.000010  -0.029565
     8  H   -0.004005   0.461387  -0.012007  -0.000768  -0.003861   0.004560
     9  C    0.002776  -0.012007   5.008272   0.387514   0.467858   0.037111
    10  H   -0.000245  -0.000768   0.387514   0.569048  -0.020608   0.001368
    11  H   -0.000010  -0.003861   0.467858  -0.020608   0.529530  -0.004879
    12  C   -0.029565   0.004560   0.037111   0.001368  -0.004879   5.013483
    13  H   -0.003213  -0.000048  -0.000249  -0.000055   0.000025   0.425464
    14  C    0.003690  -0.001769  -0.082095   0.003834   0.013665   0.576409
    15  H   -0.000080   0.000026   0.005207  -0.000048  -0.000076  -0.031627
    16  C   -0.000926   0.003616   0.338123  -0.021099  -0.058345  -0.053847
    17  H    0.000013  -0.000137  -0.031048   0.006440  -0.007955  -0.013993
    18  H    0.000027  -0.000077  -0.044513  -0.009192  -0.000597   0.006149
    19  C    0.000352  -0.007232   0.012225   0.000705   0.000811   0.002310
    20  H    0.000009  -0.000066   0.003059   0.000277  -0.001893  -0.000155
    21  C   -0.000156   0.002668  -0.003162  -0.000059  -0.000064  -0.000339
    22  H   -0.000001   0.000029  -0.000073  -0.000001  -0.000005  -0.000000
    23  C    0.003008  -0.002070   0.001975  -0.000048   0.000363  -0.003130
    24  H   -0.001875   0.000355   0.000363  -0.000015  -0.000022  -0.000052
    25  H    0.000277  -0.000200  -0.000048   0.000006  -0.000015  -0.000059
    26  C   -0.001947   0.000695  -0.001098   0.000068  -0.000125   0.001128
    27  H   -0.000022   0.000302  -0.000018   0.000000  -0.000001  -0.000042
    28  H    0.001616  -0.002180   0.000494   0.000002   0.000004   0.000431
              13         14         15         16         17         18
     1  C   -0.000001   0.000175  -0.000000  -0.000645  -0.000027   0.000003
     2  C    0.000068  -0.007239   0.000012   0.014984   0.000072   0.000396
     3  H    0.000000  -0.000000  -0.000000   0.000000  -0.000000   0.000000
     4  H    0.000028  -0.002203  -0.000044   0.000692  -0.002137   0.000300
     5  C   -0.036531  -0.046569   0.007090  -0.003540   0.009139  -0.003211
     6  C    0.005013  -0.002010  -0.002245  -0.056446  -0.001987   0.011669
     7  H   -0.003213   0.003690  -0.000080  -0.000926   0.000013   0.000027
     8  H   -0.000048  -0.001769   0.000026   0.003616  -0.000137  -0.000077
     9  C   -0.000249  -0.082095   0.005207   0.338123  -0.031048  -0.044513
    10  H   -0.000055   0.003834  -0.000048  -0.021099   0.006440  -0.009192
    11  H    0.000025   0.013665  -0.000076  -0.058345  -0.007955  -0.000597
    12  C    0.425464   0.576409  -0.031627  -0.053847  -0.013993   0.006149
    13  H    0.488960  -0.025561  -0.005691   0.004277  -0.000376  -0.000089
    14  C   -0.025561   5.146649   0.424150   0.273535  -0.034685  -0.038660
    15  H   -0.005691   0.424150   0.491606  -0.029126   0.000957  -0.004350
    16  C    0.004277   0.273535  -0.029126   4.948836   0.400435   0.436960
    17  H   -0.000376  -0.034685   0.000957   0.400435   0.581809  -0.022181
    18  H   -0.000089  -0.038660  -0.004350   0.436960  -0.022181   0.537237
    19  C    0.000029   0.001626  -0.000044  -0.008513  -0.003544   0.000274
    20  H   -0.000001   0.000314   0.000001  -0.001964   0.001610  -0.000021
    21  C   -0.000000  -0.000195   0.000002   0.001127   0.000430  -0.000042
    22  H    0.000000  -0.000001   0.000000   0.000017  -0.000000  -0.000001
    23  C   -0.000075   0.002421  -0.000007  -0.001090   0.000496  -0.000018
    24  H   -0.000003   0.000107   0.000002  -0.000124   0.000004  -0.000001
    25  H   -0.000001  -0.000046  -0.000001   0.000068   0.000002   0.000000
    26  C    0.000017  -0.000644   0.000000   0.000862   0.000039  -0.000004
    27  H   -0.000001   0.000003   0.000000  -0.000004   0.000001  -0.000000
    28  H   -0.000000  -0.000027  -0.000000   0.000039  -0.000015   0.000001
              19         20         21         22         23         24
     1  C   -0.046436   0.003714   0.576563  -0.025348  -0.082131   0.013668
     2  C    0.482060  -0.025904  -0.067037   0.005091   0.199853  -0.062140
     3  H    0.007098  -0.000080  -0.031588  -0.005689   0.005211  -0.000075
     4  H   -0.037577  -0.003985   0.004562  -0.000047  -0.011867  -0.003861
     5  C   -0.020344   0.000353   0.002298   0.000029   0.012147   0.000825
     6  C   -0.045963  -0.002657   0.013312   0.000067  -0.012160  -0.007246
     7  H    0.000352   0.000009  -0.000156  -0.000001   0.003008  -0.001875
     8  H   -0.007232  -0.000066   0.002668   0.000029  -0.002070   0.000355
     9  C    0.012225   0.003059  -0.003162  -0.000073   0.001975   0.000363
    10  H    0.000705   0.000277  -0.000059  -0.000001  -0.000048  -0.000015
    11  H    0.000811  -0.001893  -0.000064  -0.000005   0.000363  -0.000022
    12  C    0.002310  -0.000155  -0.000339  -0.000000  -0.003130  -0.000052
    13  H    0.000029  -0.000001  -0.000000   0.000000  -0.000075  -0.000003
    14  C    0.001626   0.000314  -0.000195  -0.000001   0.002421   0.000107
    15  H   -0.000044   0.000001   0.000002   0.000000  -0.000007   0.000002
    16  C   -0.008513  -0.001964   0.001127   0.000017  -0.001090  -0.000124
    17  H   -0.003544   0.001610   0.000430  -0.000000   0.000496   0.000004
    18  H    0.000274  -0.000021  -0.000042  -0.000001  -0.000018  -0.000001
    19  C    5.205309   0.425783   0.283402  -0.036666  -0.055980   0.009871
    20  H    0.425783   0.474013  -0.029716  -0.003204   0.002762  -0.000010
    21  C    0.283402  -0.029716   5.013716   0.425309   0.037153  -0.004880
    22  H   -0.036666  -0.003204   0.425309   0.488958  -0.000253   0.000025
    23  C   -0.055980   0.002762   0.037153  -0.000253   5.008206   0.467880
    24  H    0.009871  -0.000010  -0.004880   0.000025   0.467880   0.529314
    25  H   -0.005562  -0.000245   0.001367  -0.000055   0.387399  -0.020573
    26  C   -0.003630  -0.000929  -0.053962   0.004281   0.338180  -0.058325
    27  H   -0.003210   0.000027   0.006159  -0.000089  -0.044546  -0.000601
    28  H    0.009153   0.000013  -0.014011  -0.000377  -0.031079  -0.007944
              25         26         27         28
     1  C    0.003829   0.273720  -0.038656  -0.034627
     2  C   -0.037266  -0.056397   0.011673  -0.001984
     3  H   -0.000049  -0.029136  -0.004347   0.000956
     4  H   -0.000762   0.003613  -0.000077  -0.000138
     5  C    0.000707  -0.008504   0.000273  -0.003516
     6  C    0.001054   0.014999   0.000394   0.000051
     7  H    0.000277  -0.001947  -0.000022   0.001616
     8  H   -0.000200   0.000695   0.000302  -0.002180
     9  C   -0.000048  -0.001098  -0.000018   0.000494
    10  H    0.000006   0.000068   0.000000   0.000002
    11  H   -0.000015  -0.000125  -0.000001   0.000004
    12  C   -0.000059   0.001128  -0.000042   0.000431
    13  H   -0.000001   0.000017  -0.000001  -0.000000
    14  C   -0.000046  -0.000644   0.000003  -0.000027
    15  H   -0.000001   0.000000   0.000000  -0.000000
    16  C    0.000068   0.000862  -0.000004   0.000039
    17  H    0.000002   0.000039   0.000001  -0.000015
    18  H    0.000000  -0.000004  -0.000000   0.000001
    19  C   -0.005562  -0.003630  -0.003210   0.009153
    20  H   -0.000245  -0.000929   0.000027   0.000013
    21  C    0.001367  -0.053962   0.006159  -0.014011
    22  H   -0.000055   0.004281  -0.000089  -0.000377
    23  C    0.387399   0.338180  -0.044546  -0.031079
    24  H   -0.020573  -0.058325  -0.000601  -0.007944
    25  H    0.569087  -0.021102  -0.009186   0.006437
    26  C   -0.021102   4.948898   0.436960   0.400436
    27  H   -0.009186   0.436960   0.537214  -0.022166
    28  H    0.006437   0.400436  -0.022166   0.581622
          Atomic-Atomic Spin Densities.
               1          2          3          4          5          6
     1  C   -0.000000  -0.000000   0.000000   0.000000   0.000000   0.000000
     2  C   -0.000000  -0.000000   0.000000   0.000000  -0.000000   0.000000
     3  H    0.000000   0.000000   0.000000   0.000000  -0.000000   0.000000
     4  H    0.000000   0.000000   0.000000  -0.000000  -0.000000   0.000000
     5  C    0.000000  -0.000000  -0.000000  -0.000000   0.000000  -0.000000
     6  C    0.000000   0.000000   0.000000   0.000000  -0.000000  -0.000001
     7  H   -0.000000   0.000000   0.000000  -0.000000  -0.000000  -0.000000
     8  H    0.000000  -0.000000  -0.000000  -0.000000  -0.000000  -0.000000
     9  C   -0.000000   0.000000  -0.000000  -0.000000  -0.000000   0.000000
    10  H   -0.000000   0.000000  -0.000000   0.000000  -0.000000   0.000000
    11  H    0.000000  -0.000000   0.000000  -0.000000   0.000000  -0.000000
    12  C   -0.000000   0.000000   0.000000   0.000000  -0.000000   0.000000
    13  H   -0.000000   0.000000   0.000000   0.000000  -0.000000  -0.000000
    14  C    0.000000  -0.000000  -0.000000  -0.000000  -0.000000   0.000000
    15  H    0.000000  -0.000000   0.000000   0.000000  -0.000000  -0.000000
    16  C   -0.000000   0.000000   0.000000   0.000000  -0.000000  -0.000000
    17  H    0.000000  -0.000000  -0.000000  -0.000000   0.000000  -0.000000
    18  H   -0.000000  -0.000000   0.000000   0.000000  -0.000000  -0.000000
    19  C    0.000000   0.000000   0.000000   0.000000  -0.000000   0.000000
    20  H   -0.000000   0.000000   0.000000   0.000000  -0.000000  -0.000000
    21  C    0.000000  -0.000000   0.000000  -0.000000   0.000000  -0.000000
    22  H   -0.000000   0.000000  -0.000000  -0.000000  -0.000000  -0.000000
    23  C   -0.000000  -0.000000   0.000000  -0.000000  -0.000000  -0.000000
    24  H   -0.000000   0.000000  -0.000000  -0.000000   0.000000   0.000000
    25  H   -0.000000   0.000000   0.000000   0.000000   0.000000  -0.000000
    26  C    0.000000   0.000000  -0.000000  -0.000000   0.000000  -0.000000
    27  H    0.000000   0.000000  -0.000000  -0.000000   0.000000  -0.000000
    28  H   -0.000000   0.000000   0.000000   0.000000  -0.000000   0.000000
               7          8          9         10         11         12
     1  C   -0.000000   0.000000  -0.000000  -0.000000   0.000000  -0.000000
     2  C    0.000000  -0.000000   0.000000   0.000000  -0.000000   0.000000
     3  H    0.000000  -0.000000  -0.000000  -0.000000   0.000000   0.000000
     4  H   -0.000000  -0.000000  -0.000000   0.000000  -0.000000   0.000000
     5  C   -0.000000  -0.000000  -0.000000  -0.000000   0.000000  -0.000000
     6  C   -0.000000  -0.000000   0.000000   0.000000  -0.000000   0.000000
     7  H    0.000000  -0.000000   0.000000  -0.000000   0.000000   0.000000
     8  H   -0.000000   0.000000   0.000000  -0.000000   0.000000   0.000000
     9  C    0.000000   0.000000  -0.000001  -0.000000   0.000000  -0.000000
    10  H   -0.000000  -0.000000  -0.000000   0.000000  -0.000000   0.000000
    11  H    0.000000   0.000000   0.000000  -0.000000   0.000000  -0.000000
    12  C    0.000000   0.000000  -0.000000   0.000000  -0.000000  -0.000000
    13  H    0.000000   0.000000   0.000000  -0.000000  -0.000000   0.000000
    14  C   -0.000000  -0.000000   0.000000   0.000000   0.000000  -0.000000
    15  H   -0.000000  -0.000000  -0.000000  -0.000000   0.000000   0.000000
    16  C   -0.000000   0.000000   0.000000  -0.000000  -0.000000   0.000000
    17  H   -0.000000  -0.000000   0.000000   0.000000  -0.000000   0.000000
    18  H    0.000000  -0.000000   0.000000  -0.000000  -0.000000  -0.000000
    19  C    0.000000   0.000000   0.000000  -0.000000  -0.000000  -0.000000
    20  H   -0.000000  -0.000000   0.000000   0.000000   0.000000   0.000000
    21  C   -0.000000  -0.000000  -0.000000  -0.000000   0.000000   0.000000
    22  H   -0.000000  -0.000000  -0.000000   0.000000   0.000000   0.000000
    23  C   -0.000000   0.000000   0.000000  -0.000000   0.000000   0.000000
    24  H   -0.000000  -0.000000  -0.000000   0.000000  -0.000000  -0.000000
    25  H   -0.000000  -0.000000   0.000000  -0.000000  -0.000000  -0.000000
    26  C    0.000000  -0.000000   0.000000   0.000000  -0.000000  -0.000000
    27  H   -0.000000  -0.000000  -0.000000   0.000000   0.000000  -0.000000
    28  H    0.000000   0.000000   0.000000  -0.000000  -0.000000  -0.000000
              13         14         15         16         17         18
     1  C   -0.000000   0.000000   0.000000  -0.000000   0.000000  -0.000000
     2  C    0.000000  -0.000000  -0.000000   0.000000  -0.000000  -0.000000
     3  H    0.000000  -0.000000   0.000000   0.000000  -0.000000   0.000000
     4  H    0.000000  -0.000000   0.000000   0.000000  -0.000000   0.000000
     5  C   -0.000000  -0.000000  -0.000000  -0.000000   0.000000  -0.000000
     6  C   -0.000000   0.000000  -0.000000  -0.000000  -0.000000  -0.000000
     7  H    0.000000  -0.000000  -0.000000  -0.000000  -0.000000   0.000000
     8  H    0.000000  -0.000000  -0.000000   0.000000  -0.000000  -0.000000
     9  C    0.000000   0.000000  -0.000000   0.000000   0.000000   0.000000
    10  H   -0.000000   0.000000  -0.000000  -0.000000   0.000000  -0.000000
    11  H   -0.000000   0.000000   0.000000  -0.000000  -0.000000  -0.000000
    12  C    0.000000  -0.000000   0.000000   0.000000   0.000000  -0.000000
    13  H   -0.000000   0.000000   0.000000  -0.000000  -0.000000   0.000000
    14  C    0.000000   0.000001  -0.000000  -0.000000  -0.000000  -0.000000
    15  H    0.000000  -0.000000  -0.000000   0.000000  -0.000000   0.000000
    16  C   -0.000000  -0.000000   0.000000   0.000000  -0.000000  -0.000000
    17  H   -0.000000  -0.000000  -0.000000  -0.000000  -0.000000   0.000000
    18  H    0.000000  -0.000000   0.000000  -0.000000   0.000000  -0.000000
    19  C    0.000000  -0.000000   0.000000  -0.000000   0.000000  -0.000000
    20  H    0.000000   0.000000  -0.000000   0.000000  -0.000000   0.000000
    21  C   -0.000000   0.000000  -0.000000   0.000000   0.000000   0.000000
    22  H    0.000000   0.000000  -0.000000   0.000000  -0.000000   0.000000
    23  C    0.000000   0.000000   0.000000  -0.000000  -0.000000   0.000000
    24  H    0.000000  -0.000000  -0.000000   0.000000   0.000000  -0.000000
    25  H   -0.000000  -0.000000   0.000000  -0.000000   0.000000  -0.000000
    26  C   -0.000000   0.000000  -0.000000   0.000000   0.000000   0.000000
    27  H   -0.000000   0.000000  -0.000000  -0.000000   0.000000  -0.000000
[...]
     4  H    0.000000  -0.000000  -0.000000   0.000000
     5  C    0.000000   0.000000   0.000000  -0.000000
     6  C   -0.000000  -0.000000  -0.000000   0.000000
     7  H   -0.000000  -0.000000  -0.000000   0.000000
     8  H   -0.000000  -0.000000  -0.000000   0.000000
     9  C    0.000000   0.000000  -0.000000   0.000000
    10  H   -0.000000   0.000000   0.000000  -0.000000
    11  H   -0.000000  -0.000000   0.000000  -0.000000
    12  C   -0.000000  -0.000000  -0.000000  -0.000000
    13  H   -0.000000  -0.000000  -0.000000   0.000000
    14  C    0.000000   0.000000   0.000000  -0.000000
    15  H    0.000000  -0.000000  -0.000000   0.000000
    16  C   -0.000000   0.000000  -0.000000  -0.000000
    17  H    0.000000   0.000000   0.000000   0.000000
    18  H   -0.000000   0.000000  -0.000000  -0.000000
    19  C    0.000000   0.000000   0.000000  -0.000000
    20  H    0.000000   0.000000  -0.000000   0.000000
    21  C   -0.000000  -0.000000   0.000000  -0.000000
    22  H    0.000000   0.000000  -0.000000   0.000000
    23  C    0.000000  -0.000000  -0.000000  -0.000000
    24  H    0.000000   0.000000   0.000000   0.000000
    25  H   -0.000000   0.000000   0.000000  -0.000000
    26  C    0.000000  -0.000000   0.000000   0.000000
    27  H    0.000000   0.000000   0.000000  -0.000000
    28  H   -0.000000   0.000000  -0.000000   0.000000
 Mulliken charges and spin densities:
               1          2
     1  C   -0.204287  -0.000000
     2  C   -0.203839  -0.000000
     3  H    0.148273   0.000000
     4  H    0.177114  -0.000000
     5  C   -0.180055   0.000000
     6  C   -0.204159  -0.000000
     7  H    0.166010   0.000000
     8  H    0.176008   0.000000
     9  C   -0.232730  -0.000001
    10  H    0.132292   0.000000
    11  H    0.150471   0.000000
    12  C   -0.162971  -0.000000
    13  H    0.150702  -0.000000
    14  C   -0.204237   0.000001
    15  H    0.148215  -0.000000
    16  C   -0.194067   0.000000
    17  H    0.121137  -0.000000
    18  H    0.133732  -0.000000
    19  C   -0.182185   0.000000
    20  H    0.165778  -0.000000
    21  C   -0.162403  -0.000000
    22  H    0.150284   0.000000
    23  C   -0.232769   0.000001
    24  H    0.149646  -0.000000
    25  H    0.132492  -0.000000
    26  C   -0.194738  -0.000000
    27  H    0.133658   0.000000
    28  H    0.122628   0.000000
 Sum of Mulliken charges =  -0.00000   0.00000
 Mulliken charges and spin densities with hydrogens summed into heavy atoms:
               1          2
     1  C   -0.056014   0.000000
     2  C   -0.026725  -0.000000
     5  C   -0.014045   0.000000
     6  C   -0.028151  -0.000000
     9  C    0.050033  -0.000000
    12  C   -0.012269  -0.000000
    14  C   -0.056022   0.000001
    16  C    0.060801   0.000000
    19  C   -0.016407   0.000000
    21  C   -0.012119  -0.000000
    23  C    0.049369   0.000000
    26  C    0.061548  -0.000000
 Electronic spatial extent (au):  <R**2>=           2254.3598
 Charge=             -0.0000 electrons
 Dipole moment (field-independent basis, Debye):
    X=             -0.0015    Y=             -0.0028    Z=              0.0031  Tot=              0.0044
 Quadrupole moment (field-independent basis, Debye-Ang):
   XX=            -70.1400   YY=            -68.1657   ZZ=            -75.6258
   XY=             -3.4019   XZ=             -3.5305   YZ=             -1.6904
 Traceless Quadrupole moment (field-independent basis, Debye-Ang):
   XX=              1.1705   YY=              3.1448   ZZ=             -4.3153
   XY=             -3.4019   XZ=             -3.5305   YZ=             -1.6904
 Octapole moment (field-independent basis, Debye-Ang**2):
  XXX=              0.0008  YYY=             -0.0210  ZZZ=              0.0101  XYY=             -0.0030
  XXY=              0.0050  XXZ=              0.0011  XZZ=             -0.0058  YZZ=             -0.0009
  YYZ=              0.0136  XYZ=              0.0018
 Hexadecapole moment (field-independent basis, Debye-Ang**3):
 XXXX=          -2008.3167 YYYY=           -610.1394 ZZZZ=           -366.6971 XXXY=           -106.4717
 XXXZ=           -137.1530 YYYX=            -59.8161 YYYZ=             -4.0248 ZZZX=            -82.6519
 ZZZY=            -15.5577 XXYY=           -433.7475 XXZZ=           -421.1103 YYZZ=           -177.9556
 XXYZ=            -23.3178 YYXZ=            -30.3521 ZZXY=            -44.6420
 N-N= 6.813956921381D+02 E-N=-2.445441326981D+03  KE= 4.643653888058D+02
                          Isotropic Fermi Contact Couplings
        Atom                 a.u.       MegaHertz       Gauss      10(-4) cm-1
     1  C(13)             -0.00000      -0.00001      -0.00000      -0.00000
     2  C(13)             -0.00000      -0.00004      -0.00001      -0.00001
     3  H(1)               0.00000       0.00001       0.00000       0.00000
     4  H(1)               0.00000       0.00001       0.00000       0.00000
     5  C(13)              0.00000       0.00001       0.00000       0.00000
     6  C(13)              0.00000       0.00000       0.00000       0.00000
     7  H(1)               0.00000       0.00004       0.00001       0.00001
     8  H(1)               0.00000       0.00001       0.00000       0.00000
     9  C(13)             -0.00000      -0.00020      -0.00007      -0.00007
    10  H(1)               0.00000       0.00011       0.00004       0.00004
    11  H(1)               0.00000       0.00014       0.00005       0.00005
    12  C(13)             -0.00000      -0.00002      -0.00001      -0.00001
    13  H(1)              -0.00000      -0.00003      -0.00001      -0.00001
    14  C(13)              0.00000       0.00004       0.00002       0.00001
    15  H(1)              -0.00000      -0.00004      -0.00001      -0.00001
    16  C(13)              0.00000       0.00010       0.00003       0.00003
    17  H(1)              -0.00000      -0.00001      -0.00000      -0.00000
    18  H(1)              -0.00000      -0.00000      -0.00000      -0.00000
    19  C(13)              0.00000       0.00003       0.00001       0.00001
    20  H(1)              -0.00000      -0.00006      -0.00002      -0.00002
    21  C(13)             -0.00000      -0.00002      -0.00001      -0.00001
    22  H(1)               0.00000       0.00005       0.00002       0.00002
    23  C(13)              0.00000       0.00022       0.00008       0.00007
    24  H(1)              -0.00000      -0.00015      -0.00005      -0.00005
    25  H(1)              -0.00000      -0.00013      -0.00005      -0.00004
    26  C(13)             -0.00000      -0.00011      -0.00004      -0.00004
    27  H(1)               0.00000       0.00002       0.00001       0.00001
    28  H(1)               0.00000       0.00004       0.00002       0.00001
 --------------------------------------------------------
       Center         ----  Spin Dipole Couplings  ----
                      3XX-RR        3YY-RR        3ZZ-RR
 --------------------------------------------------------
     1   Atom       -0.000000      0.000000      0.000000
     2   Atom        0.000000     -0.000000     -0.000000
     3   Atom        0.000000      0.000000     -0.000000
     4   Atom       -0.000000     -0.000000      0.000000
     5   Atom       -0.000000     -0.000000      0.000000
     6   Atom        0.000000      0.000000     -0.000000
     7   Atom        0.000000     -0.000000      0.000000
     8   Atom       -0.000000      0.000000     -0.000000
     9   Atom       -0.000000      0.000000     -0.000000
    10   Atom        0.000000      0.000000     -0.000000
    11   Atom        0.000000     -0.000000      0.000000
    12   Atom        0.000000      0.000000     -0.000000
    13   Atom        0.000000     -0.000000     -0.000000
    14   Atom        0.000000     -0.000000      0.000000
    15   Atom        0.000000     -0.000000      0.000000
    16   Atom        0.000000     -0.000000      0.000000
    17   Atom       -0.000000     -0.000000      0.000000
    18   Atom        0.000000      0.000000     -0.000000
    19   Atom        0.000000      0.000000     -0.000000
    20   Atom       -0.000000      0.000000     -0.000000
    21   Atom       -0.000000     -0.000000      0.000000
    22   Atom        0.000000     -0.000000      0.000000
    23   Atom        0.000000     -0.000000      0.000000
    24   Atom       -0.000000      0.000000     -0.000000
    25   Atom       -0.000000     -0.000000      0.000000
    26   Atom       -0.000000      0.000000     -0.000000
    27   Atom       -0.000000     -0.000000      0.000000
    28   Atom        0.000000      0.000000     -0.000000
 --------------------------------------------------------
                        XY            XZ            YZ
 --------------------------------------------------------
     1   Atom        0.000000     -0.000000      0.000000
     2   Atom        0.000000      0.000000     -0.000000
     3   Atom        0.000000      0.000000      0.000000
     4   Atom       -0.000000     -0.000000      0.000000
     5   Atom        0.000000      0.000000      0.000000
     6   Atom       -0.000000     -0.000000     -0.000000
     7   Atom       -0.000000      0.000000     -0.000000
     8   Atom        0.000000      0.000000     -0.000000
     9   Atom       -0.000000     -0.000000     -0.000000
    10   Atom        0.000000     -0.000000      0.000000
    11   Atom       -0.000000     -0.000000     -0.000000
    12   Atom       -0.000000     -0.000000     -0.000000
    13   Atom       -0.000000     -0.000000     -0.000000
    14   Atom       -0.000000      0.000001     -0.000000
    15   Atom        0.000000     -0.000000     -0.000000
    16   Atom       -0.000000     -0.000000     -0.000000
    17   Atom        0.000000      0.000000      0.000000
    18   Atom       -0.000000      0.000000     -0.000000
    19   Atom       -0.000000      0.000000      0.000000
    20   Atom       -0.000000     -0.000000      0.000000
    21   Atom        0.000000     -0.000000      0.000000
    22   Atom       -0.000000     -0.000000      0.000000
    23   Atom        0.000000      0.000000      0.000000
    24   Atom        0.000000      0.000000      0.000000
    25   Atom       -0.000000      0.000000     -0.000000
    26   Atom        0.000000      0.000000      0.000000
    27   Atom        0.000000     -0.000000      0.000000
    28   Atom       -0.000000     -0.000000     -0.000000
 --------------------------------------------------------


 ---------------------------------------------------------------------------------
              Anisotropic Spin Dipole Couplings in Principal Axis System
 ---------------------------------------------------------------------------------

       Atom             a.u.   MegaHertz   Gauss  10(-4) cm-1        Axes

              Baa    -0.0000    -0.000    -0.000    -0.000  0.8793 -0.3105  0.3611
     1 C(13)  Bbb     0.0000     0.000     0.000     0.000  0.4205  0.8622 -0.2826
              Bcc     0.0000     0.000     0.000     0.000 -0.2236  0.4003  0.8887
 
              Baa    -0.0000    -0.000    -0.000    -0.000 -0.3968  0.6425  0.6555
     2 C(13)  Bbb    -0.0000    -0.000    -0.000    -0.000  0.2068  0.7584 -0.6182
              Bcc     0.0000     0.000     0.000     0.000  0.8943  0.1098  0.4338
 
              Baa    -0.0000    -0.000    -0.000    -0.000 -0.3588 -0.2066  0.9102
     3 H(1)   Bbb     0.0000     0.000     0.000     0.000 -0.3417  0.9366  0.0778
              Bcc     0.0000     0.000     0.000     0.000  0.8686  0.2831  0.4067
 
              Baa    -0.0000    -0.000    -0.000    -0.000  0.7629  0.6248  0.1663
     4 H(1)   Bbb    -0.0000    -0.000    -0.000    -0.000  0.3608 -0.6248  0.6924
              Bcc     0.0000     0.000     0.000     0.000 -0.5365  0.4682  0.7021
 
              Baa    -0.0000    -0.000    -0.000    -0.000 -0.1331  0.9903 -0.0388
     5 C(13)  Bbb    -0.0000    -0.000    -0.000    -0.000  0.9738  0.1233 -0.1912
              Bcc     0.0000     0.000     0.000     0.000  0.1846  0.0632  0.9808
 
              Baa    -0.0000    -0.000    -0.000    -0.000  0.5664  0.1320  0.8135
     6 C(13)  Bbb     0.0000     0.000     0.000     0.000  0.6412  0.5496 -0.5356
              Bcc     0.0000     0.000     0.000     0.000 -0.5178  0.8250  0.2266
 
              Baa    -0.0000    -0.000    -0.000    -0.000  0.4662  0.8672 -0.1751
     7 H(1)   Bbb    -0.0000    -0.000    -0.000    -0.000  0.6416 -0.4677 -0.6079
              Bcc     0.0000     0.000     0.000     0.000  0.6090 -0.1710  0.7745
 
              Baa    -0.0000    -0.000    -0.000    -0.000  0.7429 -0.0577 -0.6669
     8 H(1)   Bbb     0.0000     0.000     0.000     0.000  0.6673  0.1439  0.7308
              Bcc     0.0000     0.000     0.000     0.000 -0.0538  0.9879 -0.1454
 
              Baa    -0.0000    -0.000    -0.000    -0.000  0.7661  0.3854  0.5145
     9 C(13)  Bbb    -0.0000    -0.000    -0.000    -0.000 -0.4750 -0.1998  0.8570
              Bcc     0.0000     0.000     0.000     0.000 -0.4330  0.9009 -0.0300
 
              Baa    -0.0000    -0.000    -0.000    -0.000  0.4389 -0.1279  0.8894
    10 H(1)   Bbb     0.0000     0.000     0.000     0.000 -0.4457  0.8285  0.3391
              Bcc     0.0000     0.000     0.000     0.000  0.7802  0.5452 -0.3066
 
              Baa    -0.0000    -0.000    -0.000    -0.000  0.5319  0.8354  0.1384
    11 H(1)   Bbb     0.0000     0.000     0.000     0.000 -0.4922  0.1720  0.8533
              Bcc     0.0000     0.000     0.000     0.000  0.6891 -0.5220  0.5027
 
              Baa    -0.0000    -0.000    -0.000    -0.000  0.1635  0.0826  0.9831
    12 C(13)  Bbb     0.0000     0.000     0.000     0.000  0.8849  0.4283 -0.1831
              Bcc     0.0000     0.000     0.000     0.000 -0.4362  0.8999 -0.0030
 
              Baa    -0.0000    -0.000    -0.000    -0.000  0.5274  0.6029  0.5986
    13 H(1)   Bbb    -0.0000    -0.000    -0.000    -0.000 -0.2516 -0.5621  0.7879
              Bcc     0.0000     0.000     0.000     0.000  0.8115 -0.5662 -0.1448
 
              Baa    -0.0000    -0.000    -0.000    -0.000 -0.3118  0.8395  0.4449
    14 C(13)  Bbb    -0.0000    -0.000    -0.000    -0.000  0.6872  0.5227 -0.5045
              Bcc     0.0000     0.000     0.000     0.000  0.6561 -0.1484  0.7399
 
              Baa    -0.0000    -0.000    -0.000    -0.000 -0.0161  0.9817  0.1898
    15 H(1)   Bbb    -0.0000    -0.000    -0.000    -0.000  0.8094 -0.0987  0.5790
              Bcc     0.0000     0.000     0.000     0.000 -0.5871 -0.1629  0.7930
 
              Baa    -0.0000    -0.000    -0.000    -0.000  0.0515  0.9978  0.0407
    16 C(13)  Bbb    -0.0000    -0.000    -0.000    -0.000  0.6742 -0.0648  0.7357
              Bcc     0.0000     0.000     0.000     0.000  0.7367 -0.0105 -0.6761
 
              Baa    -0.0000    -0.000    -0.000    -0.000 -0.7009  0.7132 -0.0065
    17 H(1)   Bbb    -0.0000    -0.000    -0.000    -0.000 -0.5708 -0.5554  0.6047
              Bcc     0.0000     0.000     0.000     0.000  0.4277  0.4276  0.7964
 
              Baa    -0.0000    -0.000    -0.000    -0.000  0.3049  0.5978  0.7415
    18 H(1)   Bbb    -0.0000    -0.000    -0.000    -0.000  0.7584  0.3185 -0.5686
              Bcc     0.0000     0.000     0.000     0.000 -0.5760  0.7357 -0.3563
 
              Baa    -0.0000    -0.000    -0.000    -0.000 -0.3330 -0.1349  0.9332
    19 C(13)  Bbb     0.0000     0.000     0.000     0.000 -0.3001  0.9534  0.0308
              Bcc     0.0000     0.000     0.000     0.000  0.8939  0.2698  0.3580
 
              Baa    -0.0000    -0.000    -0.000    -0.000  0.2193 -0.2219  0.9501
    20 H(1)   Bbb    -0.0000    -0.000    -0.000    -0.000  0.8509  0.5200 -0.0750
              Bcc     0.0000     0.000     0.000     0.000 -0.4774  0.8248  0.3028
 
              Baa    -0.0000    -0.000    -0.000    -0.000  0.8542 -0.3351  0.3976
    21 C(13)  Bbb    -0.0000    -0.000    -0.000    -0.000  0.3927  0.9169 -0.0709
              Bcc     0.0000     0.000     0.000     0.000 -0.3408  0.2167  0.9148
 
              Baa    -0.0000    -0.000    -0.000    -0.000  0.2235  0.9096 -0.3503
    22 H(1)   Bbb     0.0000     0.000     0.000     0.000  0.9158 -0.0729  0.3950
              Bcc     0.0000     0.000     0.000     0.000 -0.3337  0.4091  0.8493
 
              Baa    -0.0000    -0.000    -0.000    -0.000 -0.4480  0.8925 -0.0516
    23 C(13)  Bbb     0.0000     0.000     0.000     0.000 -0.3027 -0.0971  0.9481
              Bcc     0.0000     0.000     0.000     0.000  0.8412  0.4404  0.3137
 
              Baa    -0.0000    -0.000    -0.000    -0.000  0.7433 -0.5892  0.3168
    24 H(1)   Bbb    -0.0000    -0.000    -0.000    -0.000 -0.3374  0.0787  0.9381
              Bcc     0.0000     0.000     0.000     0.000  0.5776  0.8042  0.1403
 
              Baa    -0.0000    -0.000    -0.000    -0.000  0.8667  0.3556 -0.3497
    25 H(1)   Bbb    -0.0000    -0.000    -0.000    -0.000 -0.2853  0.9287  0.2370
              Bcc     0.0000     0.000     0.000     0.000  0.4091 -0.1056  0.9064
 
              Baa    -0.0000    -0.000    -0.000    -0.000  0.7373 -0.0206 -0.6753
    26 C(13)  Bbb     0.0000     0.000     0.000     0.000  0.6723 -0.0763  0.7363
              Bcc     0.0000     0.000     0.000     0.000  0.0667  0.9969  0.0424
 
              Baa    -0.0000    -0.000    -0.000    -0.000  0.6686 -0.6622  0.3385
    27 H(1)   Bbb     0.0000     0.000     0.000     0.000 -0.5038 -0.0685  0.8611
              Bcc     0.0000     0.000     0.000     0.000  0.5470  0.7462  0.3794
 
              Baa    -0.0000    -0.000    -0.000    -0.000  0.3752  0.3477  0.8593
    28 H(1)   Bbb     0.0000     0.000     0.000     0.000  0.9227 -0.2291 -0.3102
              Bcc     0.0000     0.000     0.000     0.000  0.0890  0.9092 -0.4067
 

 ---------------------------------------------------------------------------------

 No NMR shielding tensors so no spin-rotation constants.
 Leave Link  601 at Tue Aug  4 05:58:00 2020, MaxMem=  6442450944 cpu:               7.9 elap:               0.4
 (Enter /scratch/scicomp/CentOS/7.3.1611/Haswell/software/Gaussian/g16/l9999.exe)
 1\1\GINC-ATLAS-205\SP\UwB97XD\def2TZVP\C12H16\BOCHEN\04-Aug-2020\0\\#p
  uwb97xd guess=mix def2tzvp # scrf=(iefpcm,solvent=Cyclohexane,read) n
 osym 6d 10f\\endo-2 xp-pcm for eta=3\\0,1\C,0,-3.12622,-0.440488,0.253
 489\C,0,-0.672219,-0.236821,-1.146356\H,0,-4.082957,-0.541745,0.752734
 \H,0,0.294206,-0.146815,-1.625125\C,0,1.129787,1.418428,0.74352\C,0,0.
 672219,0.236821,1.146356\H,0,0.536815,2.315578,0.872168\H,0,-0.294206,
 0.146815,1.625125\C,0,1.51865,-0.999998,1.059609\H,0,2.012318,-1.11420
 4,2.032991\H,0,0.891136,-1.882004,0.93796\C,0,2.439953,1.524706,0.1048
 97\H,0,2.84394,2.511426,-0.0879\C,0,3.12622,0.440488,-0.253489\H,0,4.0
 82957,0.541745,-0.752734\C,0,2.584411,-0.946808,-0.040911\H,0,2.177912
 ,-1.311853,-0.992206\H,0,3.397883,-1.630946,0.208832\C,0,-1.129787,-1.
 418428,-0.74352\H,0,-0.536815,-2.315578,-0.872168\C,0,-2.439953,-1.524
 706,-0.104897\H,0,-2.84394,-2.511426,0.0879\C,0,-1.51865,0.999998,-1.0
 59609\H,0,-0.891135,1.882004,-0.93796\H,0,-2.012317,1.114205,-2.032991
 \C,0,-2.584411,0.946808,0.040911\H,0,-3.397883,1.630946,-0.208832\H,0,
 -2.177912,1.311853,0.992206\\Version=ES64L-G16RevB.01\HF=-466.803221\S
 2=0.\S2-1=0.\S2A=0.\RMSD=3.324e-09\Dipole=-0.0005794,-0.0010873,0.0012
 114\Quadrupole=0.8702442,2.3380683,-3.2083124,-2.5292263,-2.6248401,-1
 .2567462\PG=CI [X(C12H16)]\\@


 ... SUBJECTS WHICH DISCLOSE THEIR FULL POWER, MEANING AND BEAUTY AS SOON
 AS THEY ARE PRESENTED TO THE MIND HAVE VERY LITTLE OF THOSE QUALITIES
 TO DISCLOSE.
                           -- CHARLES DUTTON (1882)
 Job cpu time:       0 days  2 hours 14 minutes 17.2 seconds.
 Elapsed time:       0 days  0 hours  5 minutes 38.8 seconds.
 File lengths (MBytes):  RWF=    616 Int=      0 D2E=      0 Chk=     24 Scr=      1
 Normal termination of Gaussian 16 at Tue Aug  4 05:58:00 2020.
