 Entering Gaussian System, Link 0=g16
 Input=meso-TS_10_2_xp-Ger.com
 Output=meso-TS_10_2_xp-Ger.log
 Initial command:
 /scratch/scicomp/CentOS/7.3.1611/Haswell/software/Gaussian/g16/l1.exe "/scratch/bochen/cyclohexadiene-dimerization/wb97xd-def2tzvp/xp-pcm/meso/Gau-376974.inp" -scrdir="/scratch/bochen/cyclohexadiene-dimerization/wb97xd-def2tzvp/xp-pcm/meso/"
 Entering Link 1 = /scratch/scicomp/CentOS/7.3.1611/Haswell/software/Gaussian/g16/l1.exe PID=    377022.
  
 Copyright (c) 1988-2017, Gaussian, Inc.  All Rights Reserved.
  
 This is part of the Gaussian(R) 16 program.  It is based on
 the Gaussian(R) 09 system (copyright 2009, Gaussian, Inc.),
 the Gaussian(R) 03 system (copyright 2003, Gaussian, Inc.),
 the Gaussian(R) 98 system (copyright 1998, Gaussian, Inc.),
 the Gaussian(R) 94 system (copyright 1995, Gaussian, Inc.),
 the Gaussian 92(TM) system (copyright 1992, Gaussian, Inc.),
 the Gaussian 90(TM) system (copyright 1990, Gaussian, Inc.),
 the Gaussian 88(TM) system (copyright 1988, Gaussian, Inc.),
 the Gaussian 86(TM) system (copyright 1986, Carnegie Mellon
 University), and the Gaussian 82(TM) system (copyright 1983,
 Carnegie Mellon University). Gaussian is a federally registered
 trademark of Gaussian, Inc.
  
 This software contains proprietary and confidential information,
 including trade secrets, belonging to Gaussian, Inc.
  
 This software is provided under written license and may be
 used, copied, transmitted, or stored only in accord with that
 written license.
  
 The following legend is applicable only to US Government
 contracts under FAR:
  
                    RESTRICTED RIGHTS LEGEND
  
 Use, reproduction and disclosure by the US Government is
 subject to restrictions as set forth in subparagraphs (a)
 and (c) of the Commercial Computer Software - Restricted
 Rights clause in FAR 52.227-19.
  
 Gaussian, Inc.
 340 Quinnipiac St., Bldg. 40, Wallingford CT 06492
  
  
 ---------------------------------------------------------------
 Warning -- This program may not be used in any manner that
 competes with the business of Gaussian, Inc. or will provide
 assistance to any competitor of Gaussian, Inc.  The licensee
 of this program is prohibited from giving any competitor of
 Gaussian, Inc. access to this program.  By using this program,
 the user acknowledges that Gaussian, Inc. is engaged in the
 business of creating and licensing software in the field of
 computational chemistry and represents and warrants to the
 licensee that it is not a competitor of Gaussian, Inc. and that
 it will not use this program in any manner prohibited above.
 ---------------------------------------------------------------
  

 Cite this work as:
 Gaussian 16, Revision B.01,
 M. J. Frisch, G. W. Trucks, H. B. Schlegel, G. E. Scuseria, 
 M. A. Robb, J. R. Cheeseman, G. Scalmani, V. Barone, 
 G. A. Petersson, H. Nakatsuji, X. Li, M. Caricato, A. V. Marenich, 
 J. Bloino, B. G. Janesko, R. Gomperts, B. Mennucci, H. P. Hratchian, 
 J. V. Ortiz, A. F. Izmaylov, J. L. Sonnenberg, D. Williams-Young, 
 F. Ding, F. Lipparini, F. Egidi, J. Goings, B. Peng, A. Petrone, 
 T. Henderson, D. Ranasinghe, V. G. Zakrzewski, J. Gao, N. Rega, 
 G. Zheng, W. Liang, M. Hada, M. Ehara, K. Toyota, R. Fukuda, 
 J. Hasegawa, M. Ishida, T. Nakajima, Y. Honda, O. Kitao, H. Nakai, 
 T. Vreven, K. Throssell, J. A. Montgomery, Jr., J. E. Peralta, 
 F. Ogliaro, M. J. Bearpark, J. J. Heyd, E. N. Brothers, K. N. Kudin, 
 V. N. Staroverov, T. A. Keith, R. Kobayashi, J. Normand, 
 K. Raghavachari, A. P. Rendell, J. C. Burant, S. S. Iyengar, 
 J. Tomasi, M. Cossi, J. M. Millam, M. Klene, C. Adamo, R. Cammi, 
 J. W. Ochterski, R. L. Martin, K. Morokuma, O. Farkas, 
 J. B. Foresman, and D. J. Fox, Gaussian, Inc., Wallingford CT, 2016.
 
 ******************************************
 Gaussian 16:  ES64L-G16RevB.01 20-Dec-2017
                 4-Aug-2020 
 ******************************************
 %chk=meso-TS_10_2_xp-12.chk
 %nproc=24
 Will use up to   24 processors via shared memory.
 %mem=48GB
 ----------------------------------------------------------------------
 #p uwb97xd guess=mix def2tzvp # scrf=(iefpcm,solvent=Cyclohexane,read)
  nosym 6d 10f
 ----------------------------------------------------------------------
 1/38=1,40=2,172=1/1;
 2/12=2,15=1,17=6,18=5,40=1/2;
 3/5=44,7=101,8=22,11=2,25=1,30=1,70=2203,72=17,74=-58,116=2/1,2,3;
 4/13=-1/1;
 5/5=2,38=5,53=17/2;
 6/7=2,8=2,9=2,10=2,28=1/1;
 99/5=1,9=1/99;
 Leave Link    1 at Tue Aug  4 11:24:01 2020, MaxMem=  6442450944 cpu:               3.4 elap:               0.2
 (Enter /scratch/scicomp/CentOS/7.3.1611/Haswell/software/Gaussian/g16/l101.exe)
 -----------------------
 endo-2 xp-pcm for eta=3
 -----------------------
 Symbolic Z-matrix:
 Charge =  0 Multiplicity = 1
 6                    -3.11858  -0.43688   0.24702 
 6                    -0.55548  -0.19637  -0.93221 
 1                    -4.08285  -0.54992   0.72873 
 1                     0.38094  -0.11731  -1.46688 
 6                     1.09038   1.40446   0.68938 
 6                     0.55548   0.19637   0.93221 
 1                     0.5216    2.30882   0.86435 
 1                    -0.38094   0.11731   1.46688 
 6                     1.46681  -0.99951   0.98993 
 1                     1.91194  -0.97022   1.99172 
 1                     0.9124   -1.93462   0.92485 
 6                     2.418     1.51612   0.11267 
 1                     2.82728   2.5055   -0.05462 
 6                     3.11858   0.43688  -0.24702 
 1                     4.08285   0.54992  -0.72873 
 6                     2.59169  -0.95799  -0.04479 
 1                     2.25289  -1.35586  -1.00938 
 1                     3.40056  -1.62003   0.27188 
 6                    -1.09038  -1.40446  -0.68938 
 1                    -0.5216   -2.30882  -0.86435 
 6                    -2.418    -1.51612  -0.11267 
 1                    -2.82728  -2.5055    0.05462 
 6                    -1.46681   0.99951  -0.98993 
 1                    -0.9124    1.93462  -0.92485 
 1                    -1.91194   0.97022  -1.99172 
 6                    -2.59169   0.95799   0.04479 
 1                    -3.40056   1.62003  -0.27188 
 1                    -2.25289   1.35586   1.00938 
 
 ITRead=  0  0  0  0  0  0  0  0  0  0  0  0  0  0  0  0  0  0  0  0
 ITRead=  0  0  0  0  0  0  0  0
 MicOpt= -1 -1 -1 -1 -1 -1 -1 -1 -1 -1 -1 -1 -1 -1 -1 -1 -1 -1 -1 -1
 MicOpt= -1 -1 -1 -1 -1 -1 -1 -1
 NAtoms=     28 NQM=       28 NQMF=       0 NMMI=      0 NMMIF=      0
                NMic=       0 NMicF=      0.
                    Isotopes and Nuclear Properties:
 (Nuclear quadrupole moments (NQMom) in fm**2, nuclear magnetic moments (NMagM)
  in nuclear magnetons)

  Atom         1           2           3           4           5           6           7           8           9          10
 IAtWgt=          12          12           1           1          12          12           1           1          12           1
 AtmWgt=  12.0000000  12.0000000   1.0078250   1.0078250  12.0000000  12.0000000   1.0078250   1.0078250  12.0000000   1.0078250
 NucSpn=           0           0           1           1           0           0           1           1           0           1
 AtZEff=  -0.0000000  -0.0000000  -0.0000000  -0.0000000  -0.0000000  -0.0000000  -0.0000000  -0.0000000  -0.0000000  -0.0000000
 NQMom=    0.0000000   0.0000000   0.0000000   0.0000000   0.0000000   0.0000000   0.0000000   0.0000000   0.0000000   0.0000000
 NMagM=    0.0000000   0.0000000   2.7928460   2.7928460   0.0000000   0.0000000   2.7928460   2.7928460   0.0000000   2.7928460
 AtZNuc=   6.0000000   6.0000000   1.0000000   1.0000000   6.0000000   6.0000000   1.0000000   1.0000000   6.0000000   1.0000000

  Atom        11          12          13          14          15          16          17          18          19          20
 IAtWgt=           1          12           1          12           1          12           1           1          12           1
 AtmWgt=   1.0078250  12.0000000   1.0078250  12.0000000   1.0078250  12.0000000   1.0078250   1.0078250  12.0000000   1.0078250
 NucSpn=           1           0           1           0           1           0           1           1           0           1
 AtZEff=  -0.0000000  -0.0000000  -0.0000000  -0.0000000  -0.0000000  -0.0000000  -0.0000000  -0.0000000  -0.0000000  -0.0000000
 NQMom=    0.0000000   0.0000000   0.0000000   0.0000000   0.0000000   0.0000000   0.0000000   0.0000000   0.0000000   0.0000000
 NMagM=    2.7928460   0.0000000   2.7928460   0.0000000   2.7928460   0.0000000   2.7928460   2.7928460   0.0000000   2.7928460
 AtZNuc=   1.0000000   6.0000000   1.0000000   6.0000000   1.0000000   6.0000000   1.0000000   1.0000000   6.0000000   1.0000000

  Atom        21          22          23          24          25          26          27          28
 IAtWgt=          12           1          12           1           1          12           1           1
 AtmWgt=  12.0000000   1.0078250  12.0000000   1.0078250   1.0078250  12.0000000   1.0078250   1.0078250
 NucSpn=           0           1           0           1           1           0           1           1
 AtZEff=  -0.0000000  -0.0000000  -0.0000000  -0.0000000  -0.0000000  -0.0000000  -0.0000000  -0.0000000
 NQMom=    0.0000000   0.0000000   0.0000000   0.0000000   0.0000000   0.0000000   0.0000000   0.0000000
 NMagM=    0.0000000   2.7928460   0.0000000   2.7928460   2.7928460   0.0000000   2.7928460   2.7928460
 AtZNuc=   6.0000000   1.0000000   6.0000000   1.0000000   1.0000000   6.0000000   1.0000000   1.0000000
 Leave Link  101 at Tue Aug  4 11:24:02 2020, MaxMem=  6442450944 cpu:               2.4 elap:               0.1
 (Enter /scratch/scicomp/CentOS/7.3.1611/Haswell/software/Gaussian/g16/l202.exe)
                          Input orientation:                          
 ---------------------------------------------------------------------
 Center     Atomic      Atomic             Coordinates (Angstroms)
 Number     Number       Type             X           Y           Z
 ---------------------------------------------------------------------
      1          6           0       -3.118578   -0.436876    0.247024
      2          6           0       -0.555477   -0.196368   -0.932206
      3          1           0       -4.082851   -0.549917    0.728725
      4          1           0        0.380936   -0.117306   -1.466881
      5          6           0        1.090379    1.404463    0.689379
      6          6           0        0.555477    0.196368    0.932206
      7          1           0        0.521599    2.308823    0.864348
      8          1           0       -0.380936    0.117306    1.466881
      9          6           0        1.466810   -0.999509    0.989932
     10          1           0        1.911942   -0.970218    1.991724
     11          1           0        0.912395   -1.934620    0.924846
     12          6           0        2.418004    1.516122    0.112667
     13          1           0        2.827281    2.505496   -0.054615
     14          6           0        3.118578    0.436876   -0.247024
     15          1           0        4.082851    0.549917   -0.728725
     16          6           0        2.591691   -0.957992   -0.044788
     17          1           0        2.252888   -1.355863   -1.009385
     18          1           0        3.400558   -1.620027    0.271880
     19          6           0       -1.090379   -1.404463   -0.689379
     20          1           0       -0.521599   -2.308823   -0.864348
     21          6           0       -2.418004   -1.516122   -0.112667
     22          1           0       -2.827281   -2.505496    0.054615
     23          6           0       -1.466810    0.999509   -0.989932
     24          1           0       -0.912395    1.934620   -0.924846
     25          1           0       -1.911942    0.970219   -1.991724
     26          6           0       -2.591691    0.957992    0.044788
     27          1           0       -3.400558    1.620027   -0.271880
     28          1           0       -2.252888    1.355863    1.009385
 ---------------------------------------------------------------------
                    Distance matrix (angstroms):
                    1          2          3          4          5
     1  C    0.000000
     2  C    2.831592   0.000000
     3  H    1.083807   3.914851   0.000000
     4  H    3.909756   1.081202   4.993319   0.000000
     5  C    4.615358   2.810879   5.530231   2.732864   0.000000
     6  C    3.790666   2.205559   4.702386   2.425794   1.343346
     7  H    4.601178   3.265529   5.421416   3.367568   1.082586
     8  H    3.047926   2.425794   3.833306   3.040140   2.103818
     9  C    4.679129   2.903325   5.573966   2.827249   2.451757
    10  H    5.351127   3.903379   6.140795   3.877291   2.830226
    11  H    4.353323   2.936803   5.187326   3.050481   3.352104
    12  C    5.872478   3.586917   6.849026   3.051672   1.451776
    13  H    6.640917   4.417385   7.595992   3.854632   2.186922
    14  C    6.317408   3.790666   7.333923   3.047926   2.434475
    15  H    7.333923   4.702386   8.367346   3.833306   3.419964
    16  C    5.741419   3.357417   6.731594   2.759808   2.893809
    17  H    5.592472   3.039293   6.619076   2.290749   3.443345
    18  H    6.625677   4.373424   7.573325   3.794677   3.828678
    19  C    2.434475   1.343346   3.419964   2.103818   3.814019
    20  H    3.388751   2.113816   4.279503   2.445478   4.336016
    21  C    1.336022   2.425366   2.100764   3.409494   4.634851
    22  H    2.097871   3.386293   2.419746   4.279142   5.571244
    23  C    2.514279   1.504653   3.492588   2.211091   3.085983
    24  H    3.444491   2.160684   4.354195   2.485338   2.626384
    25  H    2.906524   2.079303   3.797960   2.591421   4.048557
    26  C    1.504715   2.536382   2.228254   3.503986   3.764635
    27  H    2.140006   3.439449   2.485033   4.329671   4.597717
    28  H    2.131790   3.010050   2.656978   3.903735   3.358899
                    6          7          8          9         10
     6  C    0.000000
     7  H    2.113816   0.000000
     8  H    1.081202   2.445478   0.000000
     9  C    1.504653   3.443001   2.211091   0.000000
    10  H    2.079302   3.735792   2.591420   1.096626   0.000000
    11  H    2.160684   4.261829   2.485338   1.089057   1.751398
    12  C    2.425366   2.188550   3.409494   2.828916   3.157347
    13  H    3.386293   2.489848   4.279142   3.902181   4.135932
    14  C    2.831592   3.388751   3.909756   2.514279   2.906523
    15  H    3.914851   4.279503   4.993319   3.492588   3.797960
    16  C    2.536382   3.972894   3.503986   1.528963   2.146995
    17  H    3.010050   4.465217   3.903735   2.177654   3.044934
    18  H    3.439449   4.906657   4.329671   2.154071   2.365606
    19  C    2.810879   4.336016   2.732864   3.085983   4.048557
    20  H    3.265529   5.039772   3.367568   3.017686   3.983859
    21  C    3.586917   4.921994   3.051672   4.071166   4.845091
    22  H    4.417385   5.920163   3.854632   4.645647   5.345064
    23  C    2.903325   3.017686   2.827249   4.064734   4.917933
    24  H    2.936803   2.323270   3.050481   4.235104   4.992128
    25  H    3.903379   3.983859   3.877291   4.917933   5.852798
    26  C    3.357417   3.491274   2.759808   4.603970   5.271742
    27  H    4.373424   4.141107   3.794677   5.669692   6.328975
    28  H    3.039293   2.937166   2.290749   4.402762   4.870467
                   11         12         13         14         15
    11  H    0.000000
    12  C    3.851508   0.000000
    13  H    4.933636   1.083675   0.000000
    14  C    3.444491   1.336022   2.097871   0.000000
    15  H    4.354195   2.100764   2.419746   1.083807   0.000000
    16  C    2.171181   2.485196   3.471505   1.504715   2.228254
    17  H    2.423454   3.087809   4.018906   2.131790   2.656978
    18  H    2.591580   3.290318   4.177940   2.140006   2.485033
    19  C    2.626384   4.634851   5.571244   4.615358   5.530231
    20  H    2.323270   4.921994   5.920163   4.601178   5.421416
    21  C    3.513279   5.712465   6.609826   5.872478   6.849026
    22  H    3.881801   6.609826   7.556192   6.640917   7.595992
    23  C    4.235104   4.071166   4.645647   4.679129   5.573966
    24  H    4.660712   3.513279   3.881801   4.353323   5.187326
    25  H    4.992129   4.845091   5.345063   5.351127   6.140795
    26  C    4.628210   5.041147   5.636480   5.741419   6.731594
    27  H    5.715700   5.832181   6.294223   6.625677   7.573325
    28  H    4.566557   4.758888   5.316189   5.592472   6.619076
                   16         17         18         19         20
    16  C    0.000000
    17  H    1.097058   0.000000
    18  H    1.092170   1.740278   0.000000
    19  C    3.764635   3.358899   4.597717   0.000000
    20  H    3.491274   2.937166   4.141107   1.082586   0.000000
    21  C    5.041147   4.758888   5.832181   1.451776   2.188550
    22  H    5.636480   5.316189   6.294223   2.186922   2.489848
    23  C    4.603970   4.402762   5.669692   2.451757   3.443001
    24  H    4.628210   4.566557   5.715700   3.352104   4.261829
    25  H    5.271742   4.870468   6.328976   2.830227   3.735793
    26  C    5.526886   5.471303   6.527235   2.893809   3.972894
    27  H    6.527235   6.431274   7.553066   3.828678   4.906657
    28  H    5.471303   5.633019   6.431274   3.443345   4.465217
                   21         22         23         24         25
    21  C    0.000000
    22  H    1.083675   0.000000
    23  C    2.828916   3.902181   0.000000
    24  H    3.851508   4.933636   1.089057   0.000000
    25  H    3.157348   4.135933   1.096626   1.751397   0.000000
    26  C    2.485196   3.471505   1.528963   2.171181   2.146995
    27  H    3.290318   4.177940   2.154071   2.591580   2.365606
    28  H    3.087809   4.018906   2.177654   2.423454   3.044934
                   26         27         28
    26  C    0.000000
    27  H    1.092170   0.000000
    28  H    1.097058   1.740278   0.000000
 Symmetry turned off by external request.
 Stoichiometry    C12H16
 Framework group  CI[X(C12H16)]
 Deg. of freedom    39
 Full point group                 CI      NOp   2
 Rotational constants (GHZ):           1.9312463           0.6322496           0.5516360
 Leave Link  202 at Tue Aug  4 11:24:02 2020, MaxMem=  6442450944 cpu:               0.3 elap:               0.0
 (Enter /scratch/scicomp/CentOS/7.3.1611/Haswell/software/Gaussian/g16/l301.exe)
 Standard basis: def2TZVP (6D, 10F)
 Ernie: Thresh=  0.10000D-02 Tol=  0.10000D-05 Strict=F.
   528 basis functions,   740 primitive gaussians,   528 cartesian basis functions
    44 alpha electrons       44 beta electrons
       nuclear repulsion energy       690.9028631632 Hartrees.
 IExCor= 4639 DFT=T Ex+Corr=wB97XD ExCW=0 ScaHFX=  1.000000
 ScaDFX=  1.000000  1.000000  1.000000  1.000000 ScalE2=  1.000000  1.000000
 IRadAn=      5 IRanWt=     -1 IRanGd=            0 ICorTp=0 IEmpDi=121
 HFx  wShort=  0.000000 wLong=  0.200000 cFull=  0.222036 cShort=  0.000000 cLong=  0.777964
 DFx  wShort=  0.000000 wLong=  0.200000 cFull=  0.000000 cShort=  0.000000 cLong=  1.000000
 NAtoms=   28 NActive=   28 NUniq=   28 SFac= 1.00D+00 NAtFMM=   60 NAOKFM=F Big=F
 Integral buffers will be    131072 words long.
 Raffenetti 2 integral format.
 Two-electron integral symmetry is turned off.
 R6Disp:  Grimme-D2 Dispersion energy=       -0.0229656597 Hartrees.
 Nuclear repulsion after empirical dispersion term =      690.8798975035 Hartrees.
 Using the following non-standard input for PCM:
 qrep pcmdoc geomview  nodis nocav g03defaults tsare=0.075
 Warning! Using old PCM defaults because the g03defaults keyword was found.
 These settings can be overridden by following keywords.
 nsfe=28
 NVESolv=36  SolvMW=84.1595   Rsolv=2.815
 eps=2.0165 RhoS=0.778099999999998
 --- end of non-standard input.
 Reading user-defined spheres from input:
 ISph  on   Nord    Re0     Alpha      Xe            Ye            Ze
 --- end of user-defined spheres data.
 ------------------------------------------------------------------------------
 Polarizable Continuum Model (PCM)
 =================================
 Model                : PCM.
 Atomic radii         : UA0 (Simple United Atom Topological Model).
 Polarization charges : Total charges.
 Charge compensation  : None.
 Solution method      : On-the-fly selection.
 Cavity type          : SES (Solvent Excluding Surface) (Alpha=1.000).
 Cavity algorithm     : GePol (RMin=0.200 OFac=0.890).
                        User-defined sphere list used, NSphG=   28.
                        Tesserae with average area of 0.075 Ang**2.
                        Smoothing algorithm: None.
                        Polarization charges: point-like.
                        Self-potential: constant (ISelfS= 1).
                        Self-field    : global E.n sum rule (ISelfD= 3).
 Solvent              : CycloHexane, Eps=   2.016500 Eps(inf)=   2.035188
                        RSolv=   2.815000 Ang.
 ------------------------------------------------------------------------------
 GePol: Number of generator spheres                  =      28
 GePol: Total number of spheres                      =     180
 GePol: Number of exposed spheres                    =     133 ( 73.89%)
 GePol: Number of tesserae                           =    4662
 GePol: Average area of tesserae                     =       0.05 Ang**2
 GePol: Minimum area of tessera                      =   0.10D-02 Ang**2
 GePol: Maximum area of tessera                      =    0.12676 Ang**2
 GePol: Number of small tesserae                     =       0
 GePol: Fraction of small tesserae (<1% of avg)      =       0.00%
 GePol: Total count of vertices                      =   16536
 GePol: Maximum number of vertices in a tessera      =       7
 GePol: Cavity surface area                          =    218.351 Ang**2
 GePol: Cavity volume                                =    246.174 Ang**3
 Leave Link  301 at Tue Aug  4 11:24:02 2020, MaxMem=  6442450944 cpu:               7.5 elap:               0.4
 (Enter /scratch/scicomp/CentOS/7.3.1611/Haswell/software/Gaussian/g16/l302.exe)
 NPDir=0 NMtPBC=     1 NCelOv=     1 NCel=       1 NClECP=     1 NCelD=      1
         NCelK=      1 NCelE2=     1 NClLst=     1 CellRange=     0.0.
 One-electron integrals computed using PRISM.
   1 Symmetry operations used in ECPInt.
 ECPInt:  NShTT=   19306 NPrTT=   56928 LenC2=   18520 LenP2D=   42265.
 LDataN:  DoStor=T MaxTD1= 6 Len=  172
 NBasis=   528 RedAO= T EigKep=  2.33D-05  NBF=   528
 NBsUse=   528 1.00D-06 EigRej= -1.00D+00 NBFU=   528
 Precomputing XC quadrature grid using
 IXCGrd= 4 IRadAn=           5 IRanWt=          -1 IRanGd=           0 AccXCQ= 0.00D+00.
 Generated NRdTot=       0 NPtTot=           0 NUsed=           0 NTot=          32
 NSgBfM=   526   526   526   526   526 MxSgAt=    28 MxSgA2=    28.
 Leave Link  302 at Tue Aug  4 11:24:03 2020, MaxMem=  6442450944 cpu:              12.7 elap:               0.6
 (Enter /scratch/scicomp/CentOS/7.3.1611/Haswell/software/Gaussian/g16/l303.exe)
 DipDrv:  MaxL=1.
 Leave Link  303 at Tue Aug  4 11:24:03 2020, MaxMem=  6442450944 cpu:               1.5 elap:               0.1
 (Enter /scratch/scicomp/CentOS/7.3.1611/Haswell/software/Gaussian/g16/l401.exe)
 ExpMin= 9.52D-02 ExpMax= 1.36D+04 ExpMxC= 4.63D+02 IAcc=3 IRadAn=         5 AccDes= 0.00D+00
 Harris functional with IExCor= 4639 and IRadAn=       5 diagonalized for initial guess.
 HarFok:  IExCor= 4639 AccDes= 0.00D+00 IRadAn=         5 IDoV= 1 UseB2=F ITyADJ=14
 ICtDFT=  3500011 ScaDFX=  1.000000  1.000000  1.000000  1.000000
 FoFCou: FMM=F IPFlag=           0 FMFlag=      100000 FMFlg1=           0
         NFxFlg=           0 DoJE=T BraDBF=F KetDBF=T FulRan=T
         wScrn=  0.000000 ICntrl=       500 IOpCl=  0 I1Cent=   200000004 NGrid=           0
         NMat0=    1 NMatS0=      1 NMatT0=    0 NMatD0=    1 NMtDS0=    0 NMtDT0=    0
 Symmetry not used in FoFCou.
 Harris En= -444.624346831954    
 JPrj=0 DoOrth=F DoCkMO=T.
 Mixing orbitals, IMix= 1 IMixAn=  0 NRI=1 NE=   44 Coef=  7.07106781D-01  7.07106781D-01
 Mixing orbitals, IMix= 1 IMixAn=  0 NRI=1 NE=   44 Coef= -7.07106781D-01  7.07106781D-01
 Initial guess <Sx>= 0.0000 <Sy>= 0.0000 <Sz>= 0.0000 <S**2>= 1.0000 S= 0.6180
 Leave Link  401 at Tue Aug  4 11:24:05 2020, MaxMem=  6442450944 cpu:              49.1 elap:               2.1
 (Enter /scratch/scicomp/CentOS/7.3.1611/Haswell/software/Gaussian/g16/l502.exe)
 Two-electron integral symmetry not used.
 UHF open shell SCF:
 Using DIIS extrapolation, IDIIS=  1040.
 NGot=  6442450944 LenX=  6441877030 LenY=  6441597718
 Requested convergence on RMS density matrix=1.00D-08 within 128 cycles.
 Requested convergence on MAX density matrix=1.00D-06.
 Requested convergence on             energy=1.00D-06.
 No special actions if energy rises.
 Fock matrices will be formed incrementally for  20 cycles.

 Cycle   1  Pass 1  IDiag  1:
 FoFJK:  IHMeth= 1 ICntrl=       0 DoSepK=T KAlg= 0 I1Cent=           0 FoldK=F
 IRaf=         1 NMat=       1 IRICut=       1 DoRegI=T DoRafI=F ISym2E= 0 IDoP0=0 IntGTp=1.
 FoFCou: FMM=F IPFlag=           0 FMFlag=      100000 FMFlg1=           0
         NFxFlg=           0 DoJE=T BraDBF=F KetDBF=F FulRan=T
         wScrn=  0.000000 ICntrl=       500 IOpCl=  0 I1Cent=           0 NGrid=           0
         NMat0=    1 NMatS0=      1 NMatT0=    0 NMatD0=    1 NMtDS0=    0 NMtDT0=    0
 Symmetry not used in FoFCou.
 Inv3:  Mode=1 IEnd=    65202732.
 Iteration    1 A*A^-1 deviation from unit magnitude is 3.55D-15 for   1474.
 Iteration    1 A*A^-1 deviation from orthogonality  is 1.69D-15 for   4342   3803.
 Iteration    1 A^-1*A deviation from unit magnitude is 3.44D-15 for   3773.
 Iteration    1 A^-1*A deviation from orthogonality  is 2.83D-15 for   4000   3239.
 E= -466.601544464704    
 DIIS: error= 4.97D-02 at cycle   1 NSaved=   1.
 NSaved= 1 IEnMin= 1 EnMin= -466.601544464704     IErMin= 1 ErrMin= 4.97D-02
 ErrMax= 4.97D-02  0.00D+00 EMaxC= 1.00D-01 BMatC= 4.10D+00 BMatP= 4.10D+00
 IDIUse=3 WtCom= 5.03D-01 WtEn= 4.97D-01
 Coeff-Com:  0.100D+01
 Coeff-En:   0.100D+01
 Coeff:      0.100D+01
 Gap=     0.198 Goal=   None    Shift=    0.000
 Gap=     0.198 Goal=   None    Shift=    0.000
 GapD=    0.198 DampG=1.000 DampE=0.500 DampFc=0.5000 IDamp=-1.
 Damping current iteration by 5.00D-01
 RMSDP=1.60D-03 MaxDP=9.19D-02              OVMax= 2.44D-01

 Cycle   2  Pass 1  IDiag  1:
 RMSU=  7.82D-04    CP:  9.72D-01
 E= -466.691388593436     Delta-E=       -0.089844128732 Rises=F Damp=T
 DIIS: error= 2.37D-02 at cycle   2 NSaved=   2.
 NSaved= 2 IEnMin= 2 EnMin= -466.691388593436     IErMin= 2 ErrMin= 2.37D-02
 ErrMax= 2.37D-02  0.00D+00 EMaxC= 1.00D-01 BMatC= 9.28D-01 BMatP= 4.10D+00
 IDIUse=3 WtCom= 7.63D-01 WtEn= 2.37D-01
 Coeff-Com: -0.867D+00 0.187D+01
 Coeff-En:   0.000D+00 0.100D+01
 Coeff:     -0.661D+00 0.166D+01
 Gap=     0.244 Goal=   None    Shift=    0.000
 Gap=     0.244 Goal=   None    Shift=    0.000
 RMSDP=1.11D-03 MaxDP=4.89D-02 DE=-8.98D-02 OVMax= 1.14D-01

 Cycle   3  Pass 1  IDiag  1:
 RMSU=  6.01D-04    CP:  9.33D-01  2.14D+00
 E= -466.798131078640     Delta-E=       -0.106742485204 Rises=F Damp=F
 DIIS: error= 6.40D-03 at cycle   3 NSaved=   3.
 NSaved= 3 IEnMin= 3 EnMin= -466.798131078640     IErMin= 3 ErrMin= 6.40D-03
 ErrMax= 6.40D-03  0.00D+00 EMaxC= 1.00D-01 BMatC= 2.28D-02 BMatP= 9.28D-01
 IDIUse=3 WtCom= 9.36D-01 WtEn= 6.40D-02
 Coeff-Com: -0.326D+00 0.699D+00 0.626D+00
 Coeff-En:   0.000D+00 0.000D+00 0.100D+01
 Coeff:     -0.305D+00 0.655D+00 0.650D+00
 Gap=     0.256 Goal=   None    Shift=    0.000
 Gap=     0.256 Goal=   None    Shift=    0.000
 RMSDP=2.17D-04 MaxDP=1.51D-02 DE=-1.07D-01 OVMax= 5.90D-02

 Cycle   4  Pass 1  IDiag  1:
 RMSU=  1.99D-04    CP:  9.26D-01  2.23D+00  9.71D-01
 E= -466.807691583411     Delta-E=       -0.009560504771 Rises=F Damp=F
 DIIS: error= 4.66D-03 at cycle   4 NSaved=   4.
 NSaved= 4 IEnMin= 4 EnMin= -466.807691583411     IErMin= 4 ErrMin= 4.66D-03
 ErrMax= 4.66D-03  0.00D+00 EMaxC= 1.00D-01 BMatC= 1.81D-03 BMatP= 2.28D-02
 IDIUse=3 WtCom= 9.53D-01 WtEn= 4.66D-02
 Coeff-Com:  0.925D-01-0.199D+00-0.308D-01 0.114D+01
 Coeff-En:   0.000D+00 0.000D+00 0.000D+00 0.100D+01
 Coeff:      0.882D-01-0.189D+00-0.294D-01 0.113D+01
 Gap=     0.263 Goal=   None    Shift=    0.000
 Gap=     0.263 Goal=   None    Shift=    0.000
 RMSDP=2.14D-04 MaxDP=1.00D-02 DE=-9.56D-03 OVMax= 7.46D-02

 Cycle   5  Pass 1  IDiag  1:
 RMSU=  8.55D-05    CP:  9.20D-01  2.28D+00  1.20D+00  1.65D+00
 E= -466.812041324651     Delta-E=       -0.004349741241 Rises=F Damp=F
 DIIS: error= 2.85D-03 at cycle   5 NSaved=   5.
 NSaved= 5 IEnMin= 5 EnMin= -466.812041324651     IErMin= 5 ErrMin= 2.85D-03
 ErrMax= 2.85D-03  0.00D+00 EMaxC= 1.00D-01 BMatC= 9.30D-04 BMatP= 1.81D-03
 IDIUse=3 WtCom= 9.72D-01 WtEn= 2.85D-02
 Coeff-Com:  0.873D-01-0.188D+00-0.117D+00 0.451D+00 0.767D+00
 Coeff-En:   0.000D+00 0.000D+00 0.000D+00 0.000D+00 0.100D+01
 Coeff:      0.848D-01-0.182D+00-0.114D+00 0.438D+00 0.773D+00
 Gap=     0.266 Goal=   None    Shift=    0.000
 Gap=     0.266 Goal=   None    Shift=    0.000
 RMSDP=1.13D-04 MaxDP=6.50D-03 DE=-4.35D-03 OVMax= 4.14D-02

 Cycle   6  Pass 1  IDiag  1:
 RMSU=  3.72D-05    CP:  9.17D-01  2.29D+00  1.27D+00  2.08D+00  1.50D+00
 E= -466.813812277640     Delta-E=       -0.001770952989 Rises=F Damp=F
 DIIS: error= 2.01D-03 at cycle   6 NSaved=   6.
 NSaved= 6 IEnMin= 6 EnMin= -466.813812277640     IErMin= 6 ErrMin= 2.01D-03
 ErrMax= 2.01D-03  0.00D+00 EMaxC= 1.00D-01 BMatC= 4.62D-04 BMatP= 9.30D-04
 IDIUse=3 WtCom= 9.80D-01 WtEn= 2.01D-02
 Coeff-Com: -0.536D-01 0.115D+00 0.445D-01-0.440D+00 0.681D-01 0.127D+01
 Coeff-En:   0.000D+00 0.000D+00 0.000D+00 0.000D+00 0.000D+00 0.100D+01
 Coeff:     -0.525D-01 0.113D+00 0.436D-01-0.431D+00 0.668D-01 0.126D+01
 Gap=     0.264 Goal=   None    Shift=    0.000
 Gap=     0.264 Goal=   None    Shift=    0.000
 RMSDP=1.18D-04 MaxDP=5.82D-03 DE=-1.77D-03 OVMax= 4.56D-02

 Cycle   7  Pass 1  IDiag  1:
 RMSU=  2.80D-05    CP:  9.14D-01  2.29D+00  1.33D+00  2.47D+00  2.28D+00
                    CP:  1.88D+00
 E= -466.815357727344     Delta-E=       -0.001545449704 Rises=F Damp=F
 DIIS: error= 1.39D-03 at cycle   7 NSaved=   7.
 NSaved= 7 IEnMin= 7 EnMin= -466.815357727344     IErMin= 7 ErrMin= 1.39D-03
 ErrMax= 1.39D-03  0.00D+00 EMaxC= 1.00D-01 BMatC= 2.70D-04 BMatP= 4.62D-04
 IDIUse=3 WtCom= 9.86D-01 WtEn= 1.39D-02
 Coeff-Com: -0.124D-01 0.272D-01 0.390D-01 0.142D+00-0.376D+00-0.890D+00
 Coeff-Com:  0.207D+01
 Coeff-En:   0.000D+00 0.000D+00 0.000D+00 0.000D+00 0.000D+00 0.000D+00
 Coeff-En:   0.100D+01
 Coeff:     -0.123D-01 0.268D-01 0.385D-01 0.141D+00-0.371D+00-0.877D+00
 Coeff:      0.205D+01
 Gap=     0.261 Goal=   None    Shift=    0.000
 Gap=     0.261 Goal=   None    Shift=    0.000
 RMSDP=1.30D-04 MaxDP=5.21D-03 DE=-1.55D-03 OVMax= 5.27D-02

 Cycle   8  Pass 1  IDiag  1:
 RMSU=  2.54D-05    CP:  9.11D-01  2.29D+00  1.38D+00  2.84D+00  3.00D+00
                    CP:  3.00D+00  2.73D+00
 E= -466.816783934925     Delta-E=       -0.001426207581 Rises=F Damp=F
 DIIS: error= 9.66D-04 at cycle   8 NSaved=   8.
 NSaved= 8 IEnMin= 8 EnMin= -466.816783934925     IErMin= 8 ErrMin= 9.66D-04
 ErrMax= 9.66D-04  0.00D+00 EMaxC= 1.00D-01 BMatC= 1.47D-04 BMatP= 2.70D-04
 IDIUse=3 WtCom= 9.90D-01 WtEn= 9.66D-03
 Coeff-Com:  0.481D-01-0.103D+00-0.309D-01 0.482D+00-0.728D-01-0.136D+01
 Coeff-Com:  0.314D+00 0.172D+01
 Coeff-En:   0.000D+00 0.000D+00 0.000D+00 0.000D+00 0.000D+00 0.000D+00
 Coeff-En:   0.000D+00 0.100D+01
 Coeff:      0.476D-01-0.102D+00-0.306D-01 0.477D+00-0.721D-01-0.134D+01
 Coeff:      0.311D+00 0.171D+01
 Gap=     0.261 Goal=   None    Shift=    0.000
 Gap=     0.261 Goal=   None    Shift=    0.000
 RMSDP=1.51D-04 MaxDP=6.60D-03 DE=-1.43D-03 OVMax= 6.25D-02

 Cycle   9  Pass 1  IDiag  1:
 RMSU=  1.04D-04    CP:  9.07D-01  2.28D+00  1.43D+00  3.00D+00  3.00D+00
                    CP:  3.00D+00  3.00D+00  3.00D+00
 E= -466.817903046412     Delta-E=       -0.001119111487 Rises=F Damp=F
 DIIS: error= 6.03D-04 at cycle   9 NSaved=   9.
 NSaved= 9 IEnMin= 9 EnMin= -466.817903046412     IErMin= 9 ErrMin= 6.03D-04
 ErrMax= 6.03D-04  0.00D+00 EMaxC= 1.00D-01 BMatC= 6.25D-05 BMatP= 1.47D-04
 IDIUse=3 WtCom= 9.94D-01 WtEn= 6.03D-03
 Coeff-Com:  0.367D-01-0.790D-01-0.377D-01 0.238D+00 0.122D+00-0.397D+00
 Coeff-Com: -0.716D+00 0.835D+00 0.998D+00
 Coeff-En:   0.000D+00 0.000D+00 0.000D+00 0.000D+00 0.000D+00 0.000D+00
 Coeff-En:   0.000D+00 0.000D+00 0.100D+01
 Coeff:      0.364D-01-0.785D-01-0.374D-01 0.237D+00 0.122D+00-0.395D+00
 Coeff:     -0.712D+00 0.830D+00 0.998D+00
 Gap=     0.262 Goal=   None    Shift=    0.000
 Gap=     0.262 Goal=   None    Shift=    0.000
 RMSDP=9.56D-05 MaxDP=4.20D-03 DE=-1.12D-03 OVMax= 4.01D-02

 Cycle  10  Pass 1  IDiag  1:
 RMSU=  3.90D-05    CP:  9.05D-01  2.28D+00  1.47D+00  3.00D+00  3.00D+00
                    CP:  3.00D+00  3.00D+00  3.00D+00  1.80D+00
 E= -466.818323848995     Delta-E=       -0.000420802583 Rises=F Damp=F
 DIIS: error= 3.85D-04 at cycle  10 NSaved=  10.
 NSaved=10 IEnMin=10 EnMin= -466.818323848995     IErMin=10 ErrMin= 3.85D-04
 ErrMax= 3.85D-04  0.00D+00 EMaxC= 1.00D-01 BMatC= 1.99D-05 BMatP= 6.25D-05
 IDIUse=3 WtCom= 9.96D-01 WtEn= 3.85D-03
 Coeff-Com: -0.393D-03 0.985D-03-0.556D-02-0.588D-01 0.474D-01 0.306D+00
 Coeff-Com: -0.311D+00-0.435D+00 0.134D+00 0.132D+01
 Coeff-En:   0.000D+00 0.000D+00 0.000D+00 0.000D+00 0.000D+00 0.000D+00
 Coeff-En:   0.000D+00 0.000D+00 0.000D+00 0.100D+01
 Coeff:     -0.392D-03 0.981D-03-0.554D-02-0.586D-01 0.473D-01 0.305D+00
 Coeff:     -0.310D+00-0.434D+00 0.133D+00 0.132D+01
 Gap=     0.260 Goal=   None    Shift=    0.000
 Gap=     0.260 Goal=   None    Shift=    0.000
 RMSDP=8.89D-05 MaxDP=3.84D-03 DE=-4.21D-04 OVMax= 3.73D-02

 Cycle  11  Pass 1  IDiag  1:
 RMSU=  1.23D-05    CP:  9.03D-01  2.28D+00  1.50D+00  3.00D+00  3.00D+00
                    CP:  3.00D+00  3.00D+00  3.00D+00  2.53D+00  2.00D+00
 E= -466.818529438567     Delta-E=       -0.000205589572 Rises=F Damp=F
 DIIS: error= 1.70D-04 at cycle  11 NSaved=  11.
 NSaved=11 IEnMin=11 EnMin= -466.818529438567     IErMin=11 ErrMin= 1.70D-04
 ErrMax= 1.70D-04  0.00D+00 EMaxC= 1.00D-01 BMatC= 6.13D-06 BMatP= 1.99D-05
 IDIUse=3 WtCom= 9.98D-01 WtEn= 1.70D-03
 Coeff-Com: -0.394D-02 0.855D-02 0.278D-02-0.384D-01-0.168D-01 0.134D+00
 Coeff-Com:  0.547D-01-0.294D+00-0.231D+00 0.376D+00 0.101D+01
 Coeff-En:   0.000D+00 0.000D+00 0.000D+00 0.000D+00 0.000D+00 0.000D+00
 Coeff-En:   0.000D+00 0.000D+00 0.000D+00 0.000D+00 0.100D+01
 Coeff:     -0.393D-02 0.853D-02 0.277D-02-0.384D-01-0.168D-01 0.134D+00
 Coeff:      0.546D-01-0.293D+00-0.231D+00 0.376D+00 0.101D+01
 Gap=     0.260 Goal=   None    Shift=    0.000
 Gap=     0.260 Goal=   None    Shift=    0.000
 RMSDP=4.38D-05 MaxDP=1.85D-03 DE=-2.06D-04 OVMax= 1.82D-02

 Cycle  12  Pass 1  IDiag  1:
 RMSU=  4.31D-06    CP:  9.02D-01  2.27D+00  1.51D+00  3.00D+00  3.00D+00
                    CP:  3.00D+00  3.00D+00  3.00D+00  2.88D+00  2.51D+00
                    CP:  1.79D+00
 E= -466.818571433239     Delta-E=       -0.000041994672 Rises=F Damp=F
 DIIS: error= 6.55D-05 at cycle  12 NSaved=  12.
 NSaved=12 IEnMin=12 EnMin= -466.818571433239     IErMin=12 ErrMin= 6.55D-05
 ErrMax= 6.55D-05  0.00D+00 EMaxC= 1.00D-01 BMatC= 1.41D-06 BMatP= 6.13D-06
 IDIUse=1 WtCom= 1.00D+00 WtEn= 0.00D+00
 Coeff-Com:  0.528D-02-0.114D-01-0.312D-02 0.562D-01-0.121D-01-0.165D+00
 Coeff-Com:  0.747D-01 0.225D+00-0.237D-01-0.547D+00 0.112D+00 0.129D+01
 Coeff:      0.528D-02-0.114D-01-0.312D-02 0.562D-01-0.121D-01-0.165D+00
 Coeff:      0.747D-01 0.225D+00-0.237D-01-0.547D+00 0.112D+00 0.129D+01
 Gap=     0.259 Goal=   None    Shift=    0.000
 Gap=     0.259 Goal=   None    Shift=    0.000
 RMSDP=2.28D-05 MaxDP=1.11D-03 DE=-4.20D-05 OVMax= 9.19D-03

 Cycle  13  Pass 1  IDiag  1:
 RMSU=  5.67D-06    CP:  9.01D-01  2.27D+00  1.52D+00  3.00D+00  3.00D+00
                    CP:  3.00D+00  3.00D+00  3.00D+00  3.00D+00  2.77D+00
                    CP:  2.35D+00  1.82D+00
 E= -466.818578459335     Delta-E=       -0.000007026096 Rises=F Damp=F
 DIIS: error= 1.71D-05 at cycle  13 NSaved=  13.
 NSaved=13 IEnMin=13 EnMin= -466.818578459335     IErMin=13 ErrMin= 1.71D-05
 ErrMax= 1.71D-05  0.00D+00 EMaxC= 1.00D-01 BMatC= 1.15D-07 BMatP= 1.41D-06
 IDIUse=1 WtCom= 1.00D+00 WtEn= 0.00D+00
 Coeff-Com:  0.843D-04-0.164D-03-0.361D-03-0.289D-02 0.337D-02 0.748D-02
 Coeff-Com: -0.160D-01-0.488D-02 0.248D-01 0.292D-01-0.721D-01-0.483D-01
 Coeff-Com:  0.108D+01
 Coeff:      0.843D-04-0.164D-03-0.361D-03-0.289D-02 0.337D-02 0.748D-02
 Coeff:     -0.160D-01-0.488D-02 0.248D-01 0.292D-01-0.721D-01-0.483D-01
 Coeff:      0.108D+01
 Gap=     0.259 Goal=   None    Shift=    0.000
 Gap=     0.259 Goal=   None    Shift=    0.000
 RMSDP=1.80D-06 MaxDP=9.65D-05 DE=-7.03D-06 OVMax= 5.72D-04

 Cycle  14  Pass 1  IDiag  1:
 RMSU=  1.15D-06    CP:  9.01D-01  2.27D+00  1.52D+00  3.00D+00  3.00D+00
                    CP:  3.00D+00  3.00D+00  3.00D+00  3.00D+00  2.79D+00
                    CP:  2.35D+00  1.83D+00  1.20D+00
 E= -466.818578661500     Delta-E=       -0.000000202165 Rises=F Damp=F
 DIIS: error= 1.08D-05 at cycle  14 NSaved=  14.
 NSaved=14 IEnMin=14 EnMin= -466.818578661500     IErMin=14 ErrMin= 1.08D-05
 ErrMax= 1.08D-05  0.00D+00 EMaxC= 1.00D-01 BMatC= 4.65D-08 BMatP= 1.15D-07
 IDIUse=1 WtCom= 1.00D+00 WtEn= 0.00D+00
 Coeff-Com: -0.601D-03 0.130D-02 0.265D-03-0.722D-02 0.204D-02 0.227D-01
 Coeff-Com: -0.114D-01-0.321D-01 0.543D-02 0.841D-01-0.364D-01-0.231D+00
 Coeff-Com:  0.338D-01 0.117D+01
 Coeff:     -0.601D-03 0.130D-02 0.265D-03-0.722D-02 0.204D-02 0.227D-01
 Coeff:     -0.114D-01-0.321D-01 0.543D-02 0.841D-01-0.364D-01-0.231D+00
 Coeff:      0.338D-01 0.117D+01
 Gap=     0.259 Goal=   None    Shift=    0.000
 Gap=     0.259 Goal=   None    Shift=    0.000
 RMSDP=1.81D-06 MaxDP=8.78D-05 DE=-2.02D-07 OVMax= 6.77D-04

 Cycle  15  Pass 1  IDiag  1:
 RMSU=  3.99D-07    CP:  9.01D-01  2.27D+00  1.52D+00  3.00D+00  3.00D+00
                    CP:  3.00D+00  3.00D+00  3.00D+00  3.00D+00  2.81D+00
                    CP:  2.38D+00  1.90D+00  1.43D+00  1.50D+00
 E= -466.818578777414     Delta-E=       -0.000000115914 Rises=F Damp=F
 DIIS: error= 6.09D-06 at cycle  15 NSaved=  15.
 NSaved=15 IEnMin=15 EnMin= -466.818578777414     IErMin=15 ErrMin= 6.09D-06
 ErrMax= 6.09D-06  0.00D+00 EMaxC= 1.00D-01 BMatC= 1.50D-08 BMatP= 4.65D-08
 IDIUse=1 WtCom= 1.00D+00 WtEn= 0.00D+00
 Coeff-Com:  0.137D-04-0.326D-04-0.808D-04-0.207D-03 0.436D-03 0.245D-02
 Coeff-Com: -0.273D-02-0.365D-02-0.427D-03 0.159D-01 0.306D-02-0.548D-01
 Coeff-Com: -0.257D+00 0.225D+00 0.107D+01
 Coeff:      0.137D-04-0.326D-04-0.808D-04-0.207D-03 0.436D-03 0.245D-02
 Coeff:     -0.273D-02-0.365D-02-0.427D-03 0.159D-01 0.306D-02-0.548D-01
 Coeff:     -0.257D+00 0.225D+00 0.107D+01
 Gap=     0.259 Goal=   None    Shift=    0.000
 Gap=     0.259 Goal=   None    Shift=    0.000
 RMSDP=6.86D-07 MaxDP=3.70D-05 DE=-1.16D-07 OVMax= 2.22D-04

 Cycle  16  Pass 1  IDiag  1:
 RMSU=  2.22D-07    CP:  9.01D-01  2.27D+00  1.52D+00  3.00D+00  3.00D+00
                    CP:  3.00D+00  3.00D+00  3.00D+00  3.00D+00  2.82D+00
                    CP:  2.39D+00  1.92D+00  1.51D+00  1.72D+00  1.51D+00
 E= -466.818578808432     Delta-E=       -0.000000031018 Rises=F Damp=F
 DIIS: error= 2.92D-06 at cycle  16 NSaved=  16.
 NSaved=16 IEnMin=16 EnMin= -466.818578808432     IErMin=16 ErrMin= 2.92D-06
 ErrMax= 2.92D-06  0.00D+00 EMaxC= 1.00D-01 BMatC= 4.04D-09 BMatP= 1.50D-08
 IDIUse=1 WtCom= 1.00D+00 WtEn= 0.00D+00
 Coeff-Com:  0.112D-03-0.241D-03-0.574D-04 0.129D-02-0.158D-03-0.418D-02
 Coeff-Com:  0.658D-03 0.769D-02 0.776D-03-0.195D-01 0.553D-02 0.615D-01
 Coeff-Com:  0.511D-01-0.424D+00-0.161D+00 0.148D+01
 Coeff:      0.112D-03-0.241D-03-0.574D-04 0.129D-02-0.158D-03-0.418D-02
 Coeff:      0.658D-03 0.769D-02 0.776D-03-0.195D-01 0.553D-02 0.615D-01
 Coeff:      0.511D-01-0.424D+00-0.161D+00 0.148D+01
 Gap=     0.259 Goal=   None    Shift=    0.000
 Gap=     0.259 Goal=   None    Shift=    0.000
 RMSDP=3.73D-07 MaxDP=2.09D-05 DE=-3.10D-08 OVMax= 8.99D-05

 Cycle  17  Pass 1  IDiag  1:
 RMSU=  9.78D-08    CP:  9.01D-01  2.27D+00  1.52D+00  3.00D+00  3.00D+00
                    CP:  3.00D+00  3.00D+00  3.00D+00  3.00D+00  2.82D+00
                    CP:  2.40D+00  1.93D+00  1.54D+00  1.82D+00  1.97D+00
                    CP:  1.97D+00
 E= -466.818578818111     Delta-E=       -0.000000009679 Rises=F Damp=F
 DIIS: error= 7.78D-07 at cycle  17 NSaved=  17.
 NSaved=17 IEnMin=17 EnMin= -466.818578818111     IErMin=17 ErrMin= 7.78D-07
 ErrMax= 7.78D-07  0.00D+00 EMaxC= 1.00D-01 BMatC= 6.57D-10 BMatP= 4.04D-09
 IDIUse=1 WtCom= 1.00D+00 WtEn= 0.00D+00
 Coeff-Com: -0.141D-04 0.314D-04 0.267D-04-0.659D-04-0.786D-04-0.307D-03
 Coeff-Com:  0.259D-03 0.125D-02 0.603D-04-0.543D-02 0.112D-02 0.240D-01
 Coeff-Com:  0.676D-01-0.154D+00-0.273D+00 0.414D+00 0.924D+00
 Coeff:     -0.141D-04 0.314D-04 0.267D-04-0.659D-04-0.786D-04-0.307D-03
 Coeff:      0.259D-03 0.125D-02 0.603D-04-0.543D-02 0.112D-02 0.240D-01
 Coeff:      0.676D-01-0.154D+00-0.273D+00 0.414D+00 0.924D+00
 Gap=     0.259 Goal=   None    Shift=    0.000
 Gap=     0.259 Goal=   None    Shift=    0.000
 RMSDP=1.04D-07 MaxDP=5.34D-06 DE=-9.68D-09 OVMax= 2.30D-05

 Cycle  18  Pass 1  IDiag  1:
 RMSU=  4.22D-08    CP:  9.01D-01  2.27D+00  1.52D+00  3.00D+00  3.00D+00
                    CP:  3.00D+00  3.00D+00  3.00D+00  3.00D+00  2.82D+00
                    CP:  2.40D+00  1.93D+00  1.54D+00  1.84D+00  2.10D+00
                    CP:  2.25D+00  1.31D+00
 E= -466.818578818934     Delta-E=       -0.000000000822 Rises=F Damp=F
 DIIS: error= 1.99D-07 at cycle  18 NSaved=  18.
 NSaved=18 IEnMin=18 EnMin= -466.818578818934     IErMin=18 ErrMin= 1.99D-07
 ErrMax= 1.99D-07  0.00D+00 EMaxC= 1.00D-01 BMatC= 4.41D-11 BMatP= 6.57D-10
 IDIUse=1 WtCom= 1.00D+00 WtEn= 0.00D+00
 Coeff-Com: -0.172D-04 0.370D-04 0.134D-04-0.167D-03-0.262D-04 0.499D-03
 Coeff-Com:  0.582D-04-0.834D-03-0.334D-03 0.191D-02-0.212D-03-0.507D-02
 Coeff-Com: -0.433D-02 0.397D-01 0.103D-01-0.145D+00 0.299D-01 0.107D+01
 Coeff:     -0.172D-04 0.370D-04 0.134D-04-0.167D-03-0.262D-04 0.499D-03
 Coeff:      0.582D-04-0.834D-03-0.334D-03 0.191D-02-0.212D-03-0.507D-02
 Coeff:     -0.433D-02 0.397D-01 0.103D-01-0.145D+00 0.299D-01 0.107D+01
 Gap=     0.259 Goal=   None    Shift=    0.000
 Gap=     0.259 Goal=   None    Shift=    0.000
 RMSDP=2.90D-08 MaxDP=1.38D-06 DE=-8.22D-10 OVMax= 8.19D-06

 Cycle  19  Pass 1  IDiag  1:
 RMSU=  1.17D-08    CP:  9.01D-01  2.27D+00  1.52D+00  3.00D+00  3.00D+00
                    CP:  3.00D+00  3.00D+00  3.00D+00  3.00D+00  2.82D+00
                    CP:  2.40D+00  1.93D+00  1.54D+00  1.84D+00  2.10D+00
                    CP:  2.29D+00  1.47D+00  1.24D+00
 E= -466.818578818973     Delta-E=       -0.000000000040 Rises=F Damp=F
 DIIS: error= 9.24D-08 at cycle  19 NSaved=  19.
 NSaved=19 IEnMin=19 EnMin= -466.818578818973     IErMin=19 ErrMin= 9.24D-08
 ErrMax= 9.24D-08  0.00D+00 EMaxC= 1.00D-01 BMatC= 1.07D-11 BMatP= 4.41D-11
 IDIUse=1 WtCom= 1.00D+00 WtEn= 0.00D+00
 Coeff-Com: -0.342D-05 0.721D-05 0.198D-05-0.299D-04-0.954D-05 0.130D-03
 Coeff-Com:  0.506D-04-0.301D-03-0.139D-03 0.900D-03-0.147D-03-0.359D-02
 Coeff-Com: -0.802D-02 0.282D-01 0.287D-01-0.894D-01-0.770D-01 0.380D+00
 Coeff-Com:  0.740D+00
 Coeff:     -0.342D-05 0.721D-05 0.198D-05-0.299D-04-0.954D-05 0.130D-03
 Coeff:      0.506D-04-0.301D-03-0.139D-03 0.900D-03-0.147D-03-0.359D-02
 Coeff:     -0.802D-02 0.282D-01 0.287D-01-0.894D-01-0.770D-01 0.380D+00
 Coeff:      0.740D+00
 Gap=     0.259 Goal=   None    Shift=    0.000
 Gap=     0.259 Goal=   None    Shift=    0.000
 RMSDP=6.99D-09 MaxDP=3.24D-07 DE=-3.97D-11 OVMax= 1.93D-06

 Error on total polarization charges =  0.01113
 SCF Done:  E(UwB97XD) =  -466.818578819     A.U. after   19 cycles
            NFock= 19  Conv=0.70D-08     -V/T= 2.0054
 <Sx>= 0.0000 <Sy>= 0.0000 <Sz>= 0.0000 <S**2>= 0.0000 S= 0.0000
 <L.S>=  0.00000000000    
 KE= 4.643071722508D+02 PE=-2.463715078974D+03 EE= 8.417094304009D+02
 --------------------------------------------------------------------
 Variational PCM results
 =======================
 <psi(f)|   H    |psi(f)>                     (a.u.) =    -466.826183
 <psi(f)|H+V(f)/2|psi(f)>                     (a.u.) =    -466.827659
 Total free energy in solution:
 - with all non electrostatic terms           (a.u.) =    -466.818579
 --------------------------------------------------------------------
 (Polarized solute)-Solvent               (kcal/mol) =      -0.93
 --------------------------------------------------------------------
 Quantum repulsion energy                 (kcal/mol) =       5.70
 Total non electrostatic                  (kcal/mol) =       5.70
 --------------------------------------------------------------------
 Partition over spheres:
 Sphere  on Atom  Surface  Charge   GEl     GCav    GDR
    1               7.30   0.011   -0.05    0.00    0.00
    2               2.44   0.003   -0.02    0.00    0.00
    3               7.52  -0.010   -0.03    0.00    0.00
    4               2.70  -0.003   -0.01    0.00    0.00
    5               4.69   0.009   -0.06    0.00    0.00
    6               2.18   0.003   -0.01    0.00    0.00
    7               4.76  -0.007   -0.03    0.00    0.00
    8               2.33  -0.003   -0.01    0.00    0.00
    9               3.20   0.002    0.00    0.00    0.00
   10               6.46  -0.006   -0.01    0.00    0.00
   11               3.51  -0.003   -0.01    0.00    0.00
   12               6.82   0.011   -0.07    0.00    0.00
   13               7.50  -0.010   -0.03    0.00    0.00
   14               7.02   0.011   -0.05    0.00    0.00
   15               7.52  -0.010   -0.03    0.00    0.00
   16               3.37   0.001    0.00    0.00    0.00
   17               3.90  -0.004   -0.02    0.00    0.00
   18               7.36  -0.008   -0.03    0.00    0.00
   19               4.85   0.009   -0.06    0.00    0.00
   20               5.04  -0.007   -0.03    0.00    0.00
   21               7.19   0.011   -0.07    0.00    0.00
   22               7.52  -0.010   -0.03    0.00    0.00
   23               3.12   0.002    0.00    0.00    0.00
   24               3.53  -0.003   -0.01    0.00    0.00
   25               6.46  -0.006   -0.01    0.00    0.00
   26               3.28   0.001    0.00    0.00    0.00
   27               7.37  -0.008   -0.03    0.00    0.00
   28               4.10  -0.004   -0.02    0.00    0.00
 Added spheres:    75.33   0.017   -0.22    0.00    0.00
 --------------------------------------------------------------------
 After PCM corrections, the energy is  -466.818578819     a.u.
 --------------------------------------------------------------------
 Annihilation of the first spin contaminant:
 S**2 before annihilation     0.0000,   after     0.0000
 Leave Link  502 at Tue Aug  4 11:30:05 2020, MaxMem=  6442450944 cpu:            8570.7 elap:             360.0
 (Enter /scratch/scicomp/CentOS/7.3.1611/Haswell/software/Gaussian/g16/l601.exe)
 Copying SCF densities to generalized density rwf, IOpCl= 1 IROHF=0.

 **********************************************************************

            Population analysis using the SCF Density.

 **********************************************************************

 Alpha  occ. eigenvalues --  -10.28547 -10.28546 -10.28410 -10.28409 -10.28042
 Alpha  occ. eigenvalues --  -10.28041 -10.28013 -10.28012 -10.27789 -10.27787
 Alpha  occ. eigenvalues --  -10.27009 -10.27007  -0.94818  -0.93298  -0.84937
 Alpha  occ. eigenvalues --   -0.84265  -0.83491  -0.83068  -0.71505  -0.70639
 Alpha  occ. eigenvalues --   -0.68657  -0.67658  -0.59951  -0.59719  -0.57833
 Alpha  occ. eigenvalues --   -0.56203  -0.53304  -0.53031  -0.50956  -0.50503
 Alpha  occ. eigenvalues --   -0.49682  -0.48675  -0.47605  -0.46958  -0.46122
 Alpha  occ. eigenvalues --   -0.44609  -0.41420  -0.40885  -0.39762  -0.39202
 Alpha  occ. eigenvalues --   -0.38945  -0.38045  -0.30895  -0.24891
 Alpha virt. eigenvalues --    0.01017   0.07745   0.11343   0.13345   0.14401
 Alpha virt. eigenvalues --    0.15119   0.15567   0.16535   0.16861   0.17189
 Alpha virt. eigenvalues --    0.17390   0.18349   0.18471   0.19545   0.20878
 Alpha virt. eigenvalues --    0.21857   0.22198   0.23638   0.24127   0.24663
 Alpha virt. eigenvalues --    0.25310   0.26038   0.27062   0.27245   0.28170
 Alpha virt. eigenvalues --    0.29405   0.29585   0.30392   0.31048   0.31204
 Alpha virt. eigenvalues --    0.31521   0.32468   0.32948   0.33482   0.34736
 Alpha virt. eigenvalues --    0.35240   0.35860   0.36598   0.36897   0.38145
 Alpha virt. eigenvalues --    0.38540   0.39489   0.42008   0.42373   0.43081
 Alpha virt. eigenvalues --    0.44578   0.44649   0.44914   0.45509   0.46280
 Alpha virt. eigenvalues --    0.47347   0.48226   0.49120   0.49356   0.49424
 Alpha virt. eigenvalues --    0.49624   0.49708   0.49955   0.50782   0.50940
 Alpha virt. eigenvalues --    0.51173   0.51479   0.52786   0.52803   0.53682
 Alpha virt. eigenvalues --    0.53738   0.54958   0.55398   0.55910   0.56338
 Alpha virt. eigenvalues --    0.57400   0.57958   0.58853   0.59998   0.60949
 Alpha virt. eigenvalues --    0.60964   0.61030   0.62172   0.64179   0.64668
 Alpha virt. eigenvalues --    0.67177   0.67215   0.68398   0.68919   0.69336
 Alpha virt. eigenvalues --    0.71285   0.72970   0.73656   0.76581   0.77111
 Alpha virt. eigenvalues --    0.77680   0.78995   0.79289   0.81510   0.82363
 Alpha virt. eigenvalues --    0.83909   0.84724   0.85818   0.86281   0.88315
 Alpha virt. eigenvalues --    0.89211   0.90511   0.92982   0.94301   0.95410
 Alpha virt. eigenvalues --    0.95664   0.98237   0.98324   0.98945   1.00105
 Alpha virt. eigenvalues --    1.02778   1.02874   1.04377   1.05225   1.05939
 Alpha virt. eigenvalues --    1.07533   1.08227   1.08627   1.09924   1.11006
 Alpha virt. eigenvalues --    1.12994   1.14177   1.15711   1.17028   1.17262
 Alpha virt. eigenvalues --    1.18225   1.19038   1.19514   1.20020   1.20142
 Alpha virt. eigenvalues --    1.20801   1.22251   1.24307   1.26240   1.26240
 Alpha virt. eigenvalues --    1.26665   1.27271   1.28502   1.29370   1.29645
 Alpha virt. eigenvalues --    1.30808   1.30891   1.33644   1.33687   1.34080
 Alpha virt. eigenvalues --    1.35272   1.35634   1.36707   1.38478   1.39711
 Alpha virt. eigenvalues --    1.39803   1.40330   1.40647   1.42220   1.43047
 Alpha virt. eigenvalues --    1.43240   1.43512   1.44030   1.44934   1.45487
 Alpha virt. eigenvalues --    1.45773   1.45845   1.48206   1.48760   1.49220
 Alpha virt. eigenvalues --    1.50919   1.53579   1.54531   1.57380   1.57703
 Alpha virt. eigenvalues --    1.58327   1.59523   1.60452   1.60767   1.62694
 Alpha virt. eigenvalues --    1.64402   1.65029   1.65253   1.66500   1.68511
 Alpha virt. eigenvalues --    1.70793   1.72816   1.76178   1.77061   1.77530
 Alpha virt. eigenvalues --    1.80181   1.81871   1.82436   1.84938   1.86217
 Alpha virt. eigenvalues --    1.88906   1.90236   1.90878   1.94215   1.94224
 Alpha virt. eigenvalues --    1.96233   1.97483   1.98641   2.01260   2.02493
 Alpha virt. eigenvalues --    2.05711   2.06671   2.08644   2.11575   2.12090
 Alpha virt. eigenvalues --    2.12962   2.15810   2.16466   2.16995   2.18612
 Alpha virt. eigenvalues --    2.19013   2.20064   2.20557   2.23612   2.24514
 Alpha virt. eigenvalues --    2.25040   2.25668   2.27608   2.30217   2.32088
 Alpha virt. eigenvalues --    2.36260   2.36711   2.39149   2.40512   2.44477
 Alpha virt. eigenvalues --    2.44627   2.47902   2.48137   2.48904   2.50237
 Alpha virt. eigenvalues --    2.50848   2.53250   2.53815   2.56374   2.57345
 Alpha virt. eigenvalues --    2.60800   2.61052   2.62106   2.62263   2.62580
 Alpha virt. eigenvalues --    2.64792   2.65508   2.65811   2.67703   2.69339
 Alpha virt. eigenvalues --    2.69924   2.72040   2.72673   2.73604   2.74589
 Alpha virt. eigenvalues --    2.75129   2.76045   2.76111   2.77122   2.77165
 Alpha virt. eigenvalues --    2.79826   2.79872   2.81629   2.81904   2.83066
 Alpha virt. eigenvalues --    2.83163   2.83864   2.84901   2.85290   2.86250
 Alpha virt. eigenvalues --    2.86437   2.88274   2.89180   2.90207   2.92554
 Alpha virt. eigenvalues --    2.92900   2.94692   2.95798   2.96289   2.97054
 Alpha virt. eigenvalues --    2.97785   2.97883   2.98311   2.99263   3.02286
 Alpha virt. eigenvalues --    3.03007   3.03038   3.03785   3.04816   3.05281
 Alpha virt. eigenvalues --    3.07610   3.08671   3.09802   3.10867   3.11165
 Alpha virt. eigenvalues --    3.12140   3.12765   3.13384   3.14585   3.14743
 Alpha virt. eigenvalues --    3.16552   3.16737   3.17763   3.18075   3.20259
 Alpha virt. eigenvalues --    3.20399   3.20548   3.20980   3.21584   3.23253
 Alpha virt. eigenvalues --    3.23914   3.24290   3.24423   3.25192   3.25839
 Alpha virt. eigenvalues --    3.27105   3.27380   3.27522   3.29046   3.29943
 Alpha virt. eigenvalues --    3.30300   3.31300   3.32107   3.32405   3.34363
 Alpha virt. eigenvalues --    3.34382   3.35162   3.36272   3.36275   3.37467
 Alpha virt. eigenvalues --    3.37626   3.39227   3.39635   3.41787   3.42446
 Alpha virt. eigenvalues --    3.43747   3.44982   3.45467   3.46841   3.47183
 Alpha virt. eigenvalues --    3.47555   3.48293   3.48470   3.49320   3.51307
 Alpha virt. eigenvalues --    3.52559   3.53247   3.53728   3.54006   3.55664
 Alpha virt. eigenvalues --    3.56711   3.56880   3.58060   3.58569   3.60815
 Alpha virt. eigenvalues --    3.62227   3.63258   3.64410   3.64816   3.65210
 Alpha virt. eigenvalues --    3.65811   3.67445   3.68282   3.70679   3.71552
 Alpha virt. eigenvalues --    3.72149   3.72516   3.76160   3.79721   3.80101
 Alpha virt. eigenvalues --    3.80953   3.82036   3.83014   3.83275   3.83679
 Alpha virt. eigenvalues --    3.85424   3.87046   3.90581   3.91031   3.91776
 Alpha virt. eigenvalues --    3.93240   3.96204   3.96480   4.01279   4.01502
 Alpha virt. eigenvalues --    4.04154   4.04224   4.06825   4.08105   4.10139
 Alpha virt. eigenvalues --    4.10568   4.12757   4.14002   4.14336   4.14735
 Alpha virt. eigenvalues --    4.16284   4.18831   4.18975   4.19812   4.21126
 Alpha virt. eigenvalues --    4.21652   4.23918   4.25941   4.29035   4.29436
 Alpha virt. eigenvalues --    4.31393   4.32442   4.33513   4.35079   4.39375
 Alpha virt. eigenvalues --    4.39821   4.41401   4.42930   4.45473   4.48231
 Alpha virt. eigenvalues --    4.48960   4.50746   4.51875   4.54619   4.57406
 Alpha virt. eigenvalues --    4.57483   4.60563   4.61460   4.67927   4.68143
 Alpha virt. eigenvalues --    4.71063   4.73346   4.75859   4.76708   4.79100
 Alpha virt. eigenvalues --    4.80698   4.80980   4.85107   4.86655   4.87871
 Alpha virt. eigenvalues --    4.91569   4.93062   4.93365   4.94534   4.98586
 Alpha virt. eigenvalues --    4.98890   5.04632   5.07683   5.11326   5.12512
 Alpha virt. eigenvalues --    5.17469   5.20617   5.23117   5.23242   5.25585
 Alpha virt. eigenvalues --    5.29122   5.37040   5.38531   5.40338   5.41993
 Alpha virt. eigenvalues --    5.45912   5.46000   5.51905   5.56375   5.71370
 Alpha virt. eigenvalues --    5.71792   5.74052   5.76588   5.94534   6.01798
 Alpha virt. eigenvalues --    7.95308   7.95914   8.03824   8.03926   8.05550
 Alpha virt. eigenvalues --    8.10301   8.11334   8.14795   8.18931   8.20447
 Alpha virt. eigenvalues --    8.34336   8.39926  34.77771  34.77930  34.81499
 Alpha virt. eigenvalues --   34.81621  34.84803  34.91731  34.98159  34.99807
 Alpha virt. eigenvalues --   35.03163  35.03408  35.16701  35.21926
  Beta  occ. eigenvalues --  -10.28547 -10.28546 -10.28410 -10.28409 -10.28042
  Beta  occ. eigenvalues --  -10.28041 -10.28013 -10.28012 -10.27789 -10.27787
  Beta  occ. eigenvalues --  -10.27009 -10.27007  -0.94818  -0.93298  -0.84937
  Beta  occ. eigenvalues --   -0.84265  -0.83491  -0.83068  -0.71505  -0.70639
  Beta  occ. eigenvalues --   -0.68657  -0.67658  -0.59951  -0.59719  -0.57833
  Beta  occ. eigenvalues --   -0.56203  -0.53304  -0.53031  -0.50956  -0.50503
  Beta  occ. eigenvalues --   -0.49682  -0.48675  -0.47605  -0.46958  -0.46122
  Beta  occ. eigenvalues --   -0.44609  -0.41420  -0.40885  -0.39762  -0.39202
  Beta  occ. eigenvalues --   -0.38945  -0.38045  -0.30895  -0.24891
  Beta virt. eigenvalues --    0.01017   0.07745   0.11343   0.13345   0.14401
  Beta virt. eigenvalues --    0.15119   0.15567   0.16535   0.16861   0.17189
  Beta virt. eigenvalues --    0.17390   0.18349   0.18471   0.19545   0.20878
  Beta virt. eigenvalues --    0.21857   0.22198   0.23638   0.24127   0.24663
  Beta virt. eigenvalues --    0.25310   0.26038   0.27062   0.27245   0.28170
  Beta virt. eigenvalues --    0.29405   0.29585   0.30392   0.31048   0.31204
  Beta virt. eigenvalues --    0.31521   0.32468   0.32948   0.33482   0.34736
  Beta virt. eigenvalues --    0.35240   0.35860   0.36598   0.36897   0.38145
  Beta virt. eigenvalues --    0.38540   0.39489   0.42008   0.42373   0.43081
  Beta virt. eigenvalues --    0.44578   0.44649   0.44914   0.45509   0.46280
  Beta virt. eigenvalues --    0.47347   0.48226   0.49120   0.49356   0.49424
  Beta virt. eigenvalues --    0.49624   0.49708   0.49955   0.50782   0.50940
  Beta virt. eigenvalues --    0.51173   0.51479   0.52786   0.52803   0.53682
  Beta virt. eigenvalues --    0.53738   0.54958   0.55398   0.55910   0.56338
  Beta virt. eigenvalues --    0.57400   0.57958   0.58853   0.59998   0.60949
  Beta virt. eigenvalues --    0.60964   0.61030   0.62172   0.64179   0.64668
  Beta virt. eigenvalues --    0.67177   0.67215   0.68398   0.68919   0.69336
  Beta virt. eigenvalues --    0.71285   0.72970   0.73656   0.76581   0.77111
  Beta virt. eigenvalues --    0.77680   0.78995   0.79289   0.81510   0.82363
  Beta virt. eigenvalues --    0.83909   0.84724   0.85818   0.86281   0.88315
  Beta virt. eigenvalues --    0.89211   0.90511   0.92982   0.94301   0.95410
  Beta virt. eigenvalues --    0.95664   0.98237   0.98324   0.98945   1.00105
  Beta virt. eigenvalues --    1.02778   1.02874   1.04377   1.05225   1.05939
  Beta virt. eigenvalues --    1.07533   1.08227   1.08627   1.09924   1.11006
  Beta virt. eigenvalues --    1.12994   1.14177   1.15711   1.17028   1.17262
  Beta virt. eigenvalues --    1.18225   1.19038   1.19514   1.20020   1.20142
  Beta virt. eigenvalues --    1.20801   1.22251   1.24307   1.26240   1.26240
  Beta virt. eigenvalues --    1.26665   1.27271   1.28502   1.29370   1.29645
  Beta virt. eigenvalues --    1.30808   1.30891   1.33644   1.33687   1.34080
  Beta virt. eigenvalues --    1.35272   1.35634   1.36707   1.38478   1.39711
  Beta virt. eigenvalues --    1.39803   1.40330   1.40647   1.42220   1.43047
  Beta virt. eigenvalues --    1.43240   1.43512   1.44030   1.44934   1.45487
  Beta virt. eigenvalues --    1.45773   1.45845   1.48206   1.48760   1.49220
  Beta virt. eigenvalues --    1.50919   1.53579   1.54531   1.57380   1.57703
  Beta virt. eigenvalues --    1.58327   1.59523   1.60452   1.60767   1.62694
  Beta virt. eigenvalues --    1.64402   1.65029   1.65253   1.66500   1.68511
  Beta virt. eigenvalues --    1.70793   1.72816   1.76178   1.77061   1.77530
  Beta virt. eigenvalues --    1.80181   1.81871   1.82436   1.84938   1.86217
  Beta virt. eigenvalues --    1.88906   1.90236   1.90878   1.94215   1.94224
  Beta virt. eigenvalues --    1.96233   1.97483   1.98641   2.01260   2.02493
  Beta virt. eigenvalues --    2.05711   2.06671   2.08644   2.11575   2.12090
  Beta virt. eigenvalues --    2.12962   2.15810   2.16466   2.16995   2.18612
  Beta virt. eigenvalues --    2.19013   2.20064   2.20557   2.23612   2.24514
  Beta virt. eigenvalues --    2.25040   2.25668   2.27608   2.30217   2.32088
  Beta virt. eigenvalues --    2.36260   2.36711   2.39149   2.40512   2.44477
  Beta virt. eigenvalues --    2.44627   2.47902   2.48137   2.48904   2.50237
  Beta virt. eigenvalues --    2.50848   2.53250   2.53815   2.56374   2.57345
  Beta virt. eigenvalues --    2.60800   2.61052   2.62106   2.62263   2.62580
  Beta virt. eigenvalues --    2.64792   2.65508   2.65811   2.67703   2.69339
  Beta virt. eigenvalues --    2.69924   2.72040   2.72673   2.73604   2.74589
  Beta virt. eigenvalues --    2.75129   2.76045   2.76111   2.77122   2.77165
  Beta virt. eigenvalues --    2.79826   2.79872   2.81629   2.81904   2.83066
  Beta virt. eigenvalues --    2.83163   2.83864   2.84901   2.85290   2.86250
  Beta virt. eigenvalues --    2.86437   2.88274   2.89180   2.90207   2.92554
  Beta virt. eigenvalues --    2.92900   2.94692   2.95798   2.96289   2.97054
  Beta virt. eigenvalues --    2.97785   2.97883   2.98311   2.99263   3.02286
  Beta virt. eigenvalues --    3.03007   3.03038   3.03785   3.04816   3.05281
  Beta virt. eigenvalues --    3.07610   3.08671   3.09802   3.10867   3.11165
  Beta virt. eigenvalues --    3.12140   3.12765   3.13384   3.14585   3.14743
  Beta virt. eigenvalues --    3.16552   3.16737   3.17763   3.18075   3.20259
  Beta virt. eigenvalues --    3.20399   3.20548   3.20980   3.21584   3.23253
  Beta virt. eigenvalues --    3.23914   3.24290   3.24423   3.25192   3.25839
  Beta virt. eigenvalues --    3.27105   3.27380   3.27522   3.29046   3.29943
  Beta virt. eigenvalues --    3.30300   3.31300   3.32107   3.32405   3.34363
  Beta virt. eigenvalues --    3.34382   3.35162   3.36272   3.36275   3.37467
  Beta virt. eigenvalues --    3.37626   3.39227   3.39635   3.41787   3.42446
  Beta virt. eigenvalues --    3.43747   3.44982   3.45467   3.46841   3.47183
  Beta virt. eigenvalues --    3.47555   3.48293   3.48470   3.49320   3.51307
  Beta virt. eigenvalues --    3.52559   3.53247   3.53728   3.54006   3.55664
  Beta virt. eigenvalues --    3.56711   3.56880   3.58060   3.58569   3.60815
  Beta virt. eigenvalues --    3.62227   3.63258   3.64410   3.64816   3.65210
  Beta virt. eigenvalues --    3.65811   3.67445   3.68282   3.70679   3.71552
  Beta virt. eigenvalues --    3.72149   3.72516   3.76160   3.79721   3.80101
  Beta virt. eigenvalues --    3.80953   3.82036   3.83014   3.83275   3.83679
  Beta virt. eigenvalues --    3.85424   3.87046   3.90581   3.91031   3.91776
  Beta virt. eigenvalues --    3.93240   3.96204   3.96480   4.01279   4.01502
  Beta virt. eigenvalues --    4.04154   4.04224   4.06825   4.08105   4.10139
  Beta virt. eigenvalues --    4.10568   4.12757   4.14002   4.14336   4.14735
  Beta virt. eigenvalues --    4.16284   4.18831   4.18975   4.19812   4.21126
  Beta virt. eigenvalues --    4.21652   4.23918   4.25941   4.29035   4.29436
  Beta virt. eigenvalues --    4.31393   4.32442   4.33513   4.35079   4.39375
  Beta virt. eigenvalues --    4.39821   4.41401   4.42930   4.45473   4.48231
  Beta virt. eigenvalues --    4.48960   4.50746   4.51875   4.54619   4.57406
  Beta virt. eigenvalues --    4.57483   4.60563   4.61460   4.67927   4.68143
  Beta virt. eigenvalues --    4.71063   4.73346   4.75859   4.76708   4.79100
  Beta virt. eigenvalues --    4.80698   4.80980   4.85107   4.86655   4.87871
  Beta virt. eigenvalues --    4.91569   4.93062   4.93365   4.94534   4.98586
  Beta virt. eigenvalues --    4.98890   5.04632   5.07683   5.11326   5.12512
  Beta virt. eigenvalues --    5.17469   5.20617   5.23117   5.23242   5.25585
  Beta virt. eigenvalues --    5.29122   5.37040   5.38531   5.40338   5.41993
  Beta virt. eigenvalues --    5.45912   5.46000   5.51905   5.56375   5.71370
  Beta virt. eigenvalues --    5.71792   5.74052   5.76588   5.94534   6.01798
  Beta virt. eigenvalues --    7.95308   7.95914   8.03824   8.03926   8.05550
  Beta virt. eigenvalues --    8.10301   8.11334   8.14795   8.18931   8.20447
  Beta virt. eigenvalues --    8.34336   8.39926  34.77771  34.77930  34.81499
  Beta virt. eigenvalues --   34.81621  34.84803  34.91731  34.98159  34.99807
  Beta virt. eigenvalues --   35.03163  35.03408  35.16701  35.21926
          Condensed to atoms (all electrons):
               1          2          3          4          5          6
     1  C    5.173362  -0.007565   0.423980  -0.002401   0.002113  -0.010166
     2  C   -0.007565   5.417074  -0.002004   0.430171  -0.092955   0.014156
     3  H    0.423980  -0.002004   0.490464   0.000034  -0.000037   0.000066
     4  H   -0.002401   0.430171   0.000034   0.466036  -0.019630  -0.004317
     5  C    0.002113  -0.092955  -0.000037  -0.019630   5.236277   0.488942
     6  C   -0.010166   0.014156   0.000066  -0.004317   0.488942   5.416746
     7  H    0.000122  -0.003346   0.000002   0.000111   0.437522  -0.032331
     8  H   -0.000004  -0.004311  -0.000119   0.000180  -0.032644   0.430264
     9  C    0.002903  -0.025621  -0.000011  -0.005355  -0.060937   0.217780
    10  H   -0.000039   0.003486  -0.000001  -0.000506  -0.007565  -0.050209
    11  H    0.000035  -0.008280   0.000004   0.000843   0.010636  -0.059480
    12  C   -0.000225   0.021237   0.000001   0.006703   0.276687  -0.057152
    13  H   -0.000001   0.000246   0.000000   0.000055  -0.033622   0.004177
    14  C    0.000140  -0.010163  -0.000000  -0.000009  -0.040858  -0.007624
    15  H   -0.000000   0.000066  -0.000000  -0.000120   0.005844  -0.002012
    16  C   -0.000501   0.018266   0.000000  -0.000122   0.001949  -0.064344
    17  H    0.000014   0.001666  -0.000000  -0.005478   0.010112  -0.005557
    18  H    0.000002   0.000063   0.000000   0.000530  -0.003746   0.013059
    19  C   -0.040681   0.488791   0.005834  -0.032495  -0.033112  -0.092944
    20  H    0.004452  -0.032567  -0.000112  -0.005047  -0.000040  -0.003336
    21  C    0.554536  -0.057222  -0.030337   0.005147   0.004335   0.021227
    22  H   -0.024844   0.004106  -0.005551  -0.000064   0.000055   0.000248
    23  C   -0.082701   0.217735   0.004929  -0.013209   0.013191  -0.025639
    24  H    0.013424  -0.059464  -0.000056  -0.004106   0.002454  -0.008288
    25  H    0.004189  -0.050182  -0.000027  -0.002183   0.000714   0.003486
    26  C    0.267489  -0.064429  -0.027997   0.005423  -0.012447   0.018259
    27  H   -0.035950   0.013066  -0.004276  -0.000052   0.000416   0.000065
    28  H   -0.034996  -0.005535   0.000723  -0.000189  -0.004409   0.001647
               7          8          9         10         11         12
     1  C    0.000122  -0.000004   0.002903  -0.000039   0.000035  -0.000225
     2  C   -0.003346  -0.004311  -0.025621   0.003486  -0.008280   0.021237
     3  H    0.000002  -0.000119  -0.000011  -0.000001   0.000004   0.000001
     4  H    0.000111   0.000180  -0.005355  -0.000506   0.000843   0.006703
     5  C    0.437522  -0.032644  -0.060937  -0.007565   0.010636   0.276687
     6  C   -0.032331   0.430264   0.217780  -0.050209  -0.059480  -0.057152
     7  H    0.478005  -0.005059   0.003134  -0.000092   0.000005  -0.034582
     8  H   -0.005059   0.466139  -0.013206  -0.002183  -0.004112   0.005163
     9  C    0.003134  -0.013206   5.000741   0.405362   0.466738   0.034613
    10  H   -0.000092  -0.002183   0.405362   0.565038  -0.019442   0.000573
    11  H    0.000005  -0.004112   0.466738  -0.019442   0.521356  -0.005188
    12  C   -0.034582   0.005163   0.034613   0.000573  -0.005188   5.041011
    13  H   -0.003256  -0.000064   0.000387  -0.000102   0.000024   0.422621
    14  C    0.004492  -0.002410  -0.082523   0.004168   0.013432   0.554897
    15  H   -0.000112   0.000034   0.004936  -0.000028  -0.000056  -0.030275
    16  C   -0.001249   0.005432   0.327176  -0.023333  -0.056610  -0.052643
    17  H    0.000007  -0.000190  -0.028653   0.006071  -0.006404  -0.012526
    18  H    0.000032  -0.000052  -0.044947  -0.008964  -0.001108   0.005995
    19  C   -0.000035  -0.019581   0.013146   0.000720   0.002434   0.004323
    20  H    0.000004   0.000109   0.003298   0.000375  -0.003163  -0.000090
    21  C   -0.000090   0.006672  -0.003832  -0.000158  -0.000183  -0.000446
    22  H   -0.000001   0.000054  -0.000097  -0.000001  -0.000029  -0.000001
    23  C    0.003308  -0.005382   0.003277  -0.000111   0.000267  -0.003836
    24  H   -0.003184   0.000843   0.000266  -0.000030  -0.000006  -0.000181
    25  H    0.000375  -0.000505  -0.000111   0.000015  -0.000030  -0.000158
    26  C   -0.001541  -0.000088  -0.001535   0.000044  -0.000117   0.001414
    27  H   -0.000019   0.000529   0.000014  -0.000000  -0.000001  -0.000036
    28  H    0.002043  -0.005449   0.000466   0.000015   0.000006   0.000288
              13         14         15         16         17         18
     1  C   -0.000001   0.000140  -0.000000  -0.000501   0.000014   0.000002
     2  C    0.000246  -0.010163   0.000066   0.018266   0.001666   0.000063
     3  H    0.000000  -0.000000  -0.000000   0.000000  -0.000000   0.000000
     4  H    0.000055  -0.000009  -0.000120  -0.000122  -0.005478   0.000530
     5  C   -0.033622  -0.040858   0.005844   0.001949   0.010112  -0.003746
     6  C    0.004177  -0.007624  -0.002012  -0.064344  -0.005557   0.013059
     7  H   -0.003256   0.004492  -0.000112  -0.001249   0.000007   0.000032
     8  H   -0.000064  -0.002410   0.000034   0.005432  -0.000190  -0.000052
     9  C    0.000387  -0.082523   0.004936   0.327176  -0.028653  -0.044947
    10  H   -0.000102   0.004168  -0.000028  -0.023333   0.006071  -0.008964
    11  H    0.000024   0.013432  -0.000056  -0.056610  -0.006404  -0.001108
    12  C    0.422621   0.554897  -0.030275  -0.052643  -0.012526   0.005995
    13  H    0.488948  -0.024590  -0.005549   0.003688  -0.000389  -0.000083
    14  C   -0.024590   5.173108   0.423895   0.267582  -0.034962  -0.036018
    15  H   -0.005549   0.423895   0.490377  -0.027988   0.000718  -0.004279
    16  C    0.003688   0.267582  -0.027988   4.977681   0.402218   0.433641
    17  H   -0.000389  -0.034962   0.000718   0.402218   0.575511  -0.021701
    18  H   -0.000083  -0.036018  -0.004279   0.433641  -0.021701   0.535815
    19  C    0.000055   0.002131  -0.000037  -0.012453  -0.004413   0.000416
    20  H   -0.000001   0.000121   0.000002  -0.001537   0.002038  -0.000019
    21  C   -0.000001  -0.000225   0.000001   0.001415   0.000289  -0.000036
    22  H    0.000000  -0.000001   0.000000   0.000008  -0.000000  -0.000001
    23  C   -0.000096   0.002898  -0.000011  -0.001535   0.000464   0.000014
    24  H   -0.000030   0.000033   0.000004  -0.000117   0.000006  -0.000001
    25  H   -0.000001  -0.000039  -0.000001   0.000044   0.000015  -0.000000
    26  C    0.000008  -0.000500   0.000000   0.000573  -0.000017  -0.000002
    27  H   -0.000001   0.000002   0.000000  -0.000002   0.000001  -0.000000
    28  H   -0.000000   0.000015  -0.000000  -0.000017  -0.000011   0.000001
              19         20         21         22         23         24
     1  C   -0.040681   0.004452   0.554536  -0.024844  -0.082701   0.013424
     2  C    0.488791  -0.032567  -0.057222   0.004106   0.217735  -0.059464
     3  H    0.005834  -0.000112  -0.030337  -0.005551   0.004929  -0.000056
     4  H   -0.032495  -0.005047   0.005147  -0.000064  -0.013209  -0.004106
     5  C   -0.033112  -0.000040   0.004335   0.000055   0.013191   0.002454
     6  C   -0.092944  -0.003336   0.021227   0.000248  -0.025639  -0.008288
     7  H   -0.000035   0.000004  -0.000090  -0.000001   0.003308  -0.003184
     8  H   -0.019581   0.000109   0.006672   0.000054  -0.005382   0.000843
     9  C    0.013146   0.003298  -0.003832  -0.000097   0.003277   0.000266
    10  H    0.000720   0.000375  -0.000158  -0.000001  -0.000111  -0.000030
    11  H    0.002434  -0.003163  -0.000183  -0.000029   0.000267  -0.000006
    12  C    0.004323  -0.000090  -0.000446  -0.000001  -0.003836  -0.000181
    13  H    0.000055  -0.000001  -0.000001   0.000000  -0.000096  -0.000030
    14  C    0.002131   0.000121  -0.000225  -0.000001   0.002898   0.000033
    15  H   -0.000037   0.000002   0.000001   0.000000  -0.000011   0.000004
    16  C   -0.012453  -0.001537   0.001415   0.000008  -0.001535  -0.000117
    17  H   -0.004413   0.002038   0.000289  -0.000000   0.000464   0.000006
    18  H    0.000416  -0.000019  -0.000036  -0.000001   0.000014  -0.000001
    19  C    5.236363   0.437790   0.276563  -0.033529  -0.060884   0.010626
    20  H    0.437790   0.477826  -0.034553  -0.003255   0.003122   0.000005
    21  C    0.276563  -0.034553   5.041455   0.422842   0.034800  -0.005185
    22  H   -0.033529  -0.003255   0.422842   0.488958   0.000389   0.000025
    23  C   -0.060884   0.003122   0.034800   0.000389   5.000687   0.466711
    24  H    0.010626   0.000005  -0.005185   0.000025   0.466711   0.521409
    25  H   -0.007591  -0.000091   0.000559  -0.000102   0.405340  -0.019470
    26  C    0.001965  -0.001244  -0.052609   0.003693   0.327224  -0.056581
    27  H   -0.003744   0.000032   0.005963  -0.000083  -0.044972  -0.001109
    28  H    0.010089   0.000007  -0.012511  -0.000388  -0.028681  -0.006403
              25         26         27         28
     1  C    0.004189   0.267489  -0.035950  -0.034996
     2  C   -0.050182  -0.064429   0.013066  -0.005535
     3  H   -0.000027  -0.027997  -0.004276   0.000723
     4  H   -0.002183   0.005423  -0.000052  -0.000189
     5  C    0.000714  -0.012447   0.000416  -0.004409
     6  C    0.003486   0.018259   0.000065   0.001647
     7  H    0.000375  -0.001541  -0.000019   0.002043
     8  H   -0.000505  -0.000088   0.000529  -0.005449
     9  C   -0.000111  -0.001535   0.000014   0.000466
    10  H    0.000015   0.000044  -0.000000   0.000015
    11  H   -0.000030  -0.000117  -0.000001   0.000006
    12  C   -0.000158   0.001414  -0.000036   0.000288
    13  H   -0.000001   0.000008  -0.000001  -0.000000
    14  C   -0.000039  -0.000500   0.000002   0.000015
    15  H   -0.000001   0.000000   0.000000  -0.000000
    16  C    0.000044   0.000573  -0.000002  -0.000017
    17  H    0.000015  -0.000017   0.000001  -0.000011
    18  H   -0.000000  -0.000002  -0.000000   0.000001
    19  C   -0.007591   0.001965  -0.003744   0.010089
    20  H   -0.000091  -0.001244   0.000032   0.000007
    21  C    0.000559  -0.052609   0.005963  -0.012511
    22  H   -0.000102   0.003693  -0.000083  -0.000388
    23  C    0.405340   0.327224  -0.044972  -0.028681
    24  H   -0.019470  -0.056581  -0.001109  -0.006403
    25  H    0.565029  -0.023332  -0.008966   0.006070
    26  C   -0.023332   4.977695   0.433610   0.402284
    27  H   -0.008966   0.433610   0.535774  -0.021683
    28  H    0.006070   0.402284  -0.021683   0.575464
          Atomic-Atomic Spin Densities.
               1          2          3          4          5          6
     1  C   -0.000004   0.000000   0.000000  -0.000000  -0.000000  -0.000000
     2  C    0.000000   0.000002  -0.000000  -0.000000  -0.000001  -0.000000
     3  H    0.000000  -0.000000   0.000000   0.000000  -0.000000   0.000000
     4  H   -0.000000  -0.000000   0.000000   0.000000  -0.000000   0.000000
     5  C   -0.000000  -0.000001  -0.000000  -0.000000   0.000005  -0.000000
     6  C   -0.000000  -0.000000   0.000000   0.000000  -0.000000  -0.000002
     7  H    0.000000  -0.000000  -0.000000  -0.000000  -0.000000  -0.000000
     8  H   -0.000000  -0.000000  -0.000000   0.000000   0.000000   0.000000
     9  C    0.000000  -0.000000  -0.000000  -0.000000   0.000000   0.000000
    10  H   -0.000000   0.000000  -0.000000  -0.000000  -0.000000  -0.000000
    11  H    0.000000  -0.000000   0.000000   0.000000   0.000000  -0.000000
    12  C    0.000000   0.000000  -0.000000   0.000000  -0.000000   0.000000
    13  H    0.000000   0.000000  -0.000000  -0.000000   0.000000  -0.000000
    14  C    0.000000   0.000000  -0.000000   0.000000  -0.000000  -0.000000
    15  H    0.000000  -0.000000  -0.000000   0.000000  -0.000000   0.000000
    16  C   -0.000000   0.000000   0.000000  -0.000000  -0.000000  -0.000000
    17  H   -0.000000  -0.000000  -0.000000  -0.000000   0.000000  -0.000000
    18  H    0.000000   0.000000   0.000000   0.000000  -0.000000   0.000000
    19  C    0.000000   0.000000   0.000000  -0.000000  -0.000000   0.000001
    20  H   -0.000000   0.000000  -0.000000  -0.000000   0.000000   0.000000
    21  C    0.000000  -0.000000  -0.000000   0.000000   0.000000  -0.000000
    22  H   -0.000000   0.000000  -0.000000  -0.000000   0.000000  -0.000000
    23  C   -0.000000  -0.000000   0.000000  -0.000000   0.000000   0.000000
    24  H   -0.000000   0.000000  -0.000000   0.000000   0.000000   0.000000
    25  H   -0.000000   0.000000  -0.000000  -0.000000  -0.000000  -0.000000
    26  C    0.000000   0.000000  -0.000000   0.000000  -0.000000  -0.000000
    27  H    0.000000  -0.000000   0.000000   0.000000  -0.000000  -0.000000
    28  H    0.000000   0.000000  -0.000000  -0.000000   0.000000   0.000000
               7          8          9         10         11         12
     1  C    0.000000  -0.000000   0.000000  -0.000000   0.000000   0.000000
     2  C   -0.000000  -0.000000  -0.000000   0.000000  -0.000000   0.000000
     3  H   -0.000000  -0.000000  -0.000000  -0.000000   0.000000  -0.000000
     4  H   -0.000000   0.000000  -0.000000  -0.000000   0.000000   0.000000
     5  C   -0.000000   0.000000   0.000000  -0.000000   0.000000  -0.000000
     6  C   -0.000000   0.000000   0.000000  -0.000000  -0.000000   0.000000
     7  H   -0.000000   0.000000  -0.000000   0.000000  -0.000000  -0.000000
     8  H    0.000000  -0.000000   0.000000   0.000000  -0.000000  -0.000000
     9  C   -0.000000   0.000000  -0.000002  -0.000000   0.000000  -0.000000
    10  H    0.000000   0.000000  -0.000000   0.000001  -0.000000   0.000000
    11  H   -0.000000  -0.000000   0.000000  -0.000000   0.000000  -0.000000
    12  C   -0.000000  -0.000000  -0.000000   0.000000  -0.000000  -0.000002
    13  H    0.000000   0.000000   0.000000   0.000000  -0.000000   0.000000
    14  C    0.000000   0.000000   0.000000   0.000000   0.000000  -0.000000
    15  H    0.000000  -0.000000  -0.000000   0.000000   0.000000   0.000000
    16  C   -0.000000  -0.000000   0.000000  -0.000000  -0.000000   0.000000
    17  H    0.000000   0.000000   0.000000   0.000000   0.000000  -0.000000
    18  H   -0.000000  -0.000000   0.000000  -0.000000  -0.000000   0.000000
    19  C   -0.000000   0.000000  -0.000000   0.000000  -0.000000  -0.000000
    20  H   -0.000000   0.000000   0.000000   0.000000  -0.000000  -0.000000
    21  C    0.000000  -0.000000   0.000000   0.000000   0.000000  -0.000000
    22  H    0.000000   0.000000   0.000000   0.000000   0.000000  -0.000000
    23  C   -0.000000   0.000000   0.000000   0.000000  -0.000000  -0.000000
    24  H    0.000000  -0.000000   0.000000  -0.000000  -0.000000  -0.000000
    25  H   -0.000000   0.000000  -0.000000   0.000000   0.000000  -0.000000
    26  C   -0.000000   0.000000   0.000000  -0.000000   0.000000   0.000000
    27  H    0.000000  -0.000000   0.000000  -0.000000   0.000000   0.000000
    28  H   -0.000000   0.000000  -0.000000   0.000000  -0.000000  -0.000000
              13         14         15         16         17         18
     1  C    0.000000   0.000000   0.000000  -0.000000  -0.000000   0.000000
     2  C    0.000000   0.000000  -0.000000   0.000000  -0.000000   0.000000
     3  H   -0.000000  -0.000000  -0.000000   0.000000  -0.000000   0.000000
     4  H   -0.000000   0.000000   0.000000  -0.000000  -0.000000   0.000000
     5  C    0.000000  -0.000000  -0.000000  -0.000000   0.000000  -0.000000
     6  C   -0.000000  -0.000000   0.000000  -0.000000  -0.000000   0.000000
     7  H    0.000000   0.000000   0.000000  -0.000000   0.000000  -0.000000
[...]
     2  C    0.000000   0.000000  -0.000000   0.000000
     3  H   -0.000000  -0.000000  -0.000000  -0.000000
     4  H   -0.000000   0.000000   0.000000  -0.000000
     5  C   -0.000000  -0.000000  -0.000000   0.000000
     6  C   -0.000000  -0.000000  -0.000000   0.000000
     7  H   -0.000000  -0.000000   0.000000  -0.000000
     8  H    0.000000  -0.000000  -0.000000   0.000000
     9  C   -0.000000   0.000000   0.000000  -0.000000
    10  H    0.000000  -0.000000  -0.000000   0.000000
    11  H    0.000000   0.000000   0.000000  -0.000000
    12  C    0.000000   0.000000   0.000000  -0.000000
    13  H   -0.000000   0.000000   0.000000  -0.000000
    14  C    0.000000   0.000000  -0.000000   0.000000
    15  H    0.000000  -0.000000  -0.000000   0.000000
    16  C    0.000000  -0.000000  -0.000000   0.000000
    17  H   -0.000000  -0.000000   0.000000  -0.000000
    18  H    0.000000   0.000000   0.000000  -0.000000
    19  C    0.000000   0.000000   0.000000  -0.000000
    20  H   -0.000000   0.000000   0.000000  -0.000000
    21  C   -0.000000  -0.000000  -0.000000   0.000000
    22  H   -0.000000   0.000000  -0.000000   0.000000
    23  C    0.000000  -0.000000  -0.000000  -0.000000
    24  H    0.000000   0.000000   0.000000  -0.000000
    25  H   -0.000000   0.000000   0.000000  -0.000000
    26  C    0.000000  -0.000000  -0.000000   0.000000
    27  H    0.000000  -0.000000  -0.000000   0.000000
    28  H   -0.000000   0.000000   0.000000  -0.000000
 Mulliken charges and spin densities:
               1          2
     1  C   -0.203396  -0.000004
     2  C   -0.214935   0.000003
     3  H    0.147936   0.000000
     4  H    0.188887   0.000000
     5  C   -0.165594   0.000004
     6  C   -0.213898  -0.000002
     7  H    0.161680  -0.000000
     8  H    0.187616  -0.000000
     9  C   -0.237282  -0.000002
    10  H    0.135289   0.000000
    11  H    0.155419   0.000000
    12  C   -0.177007  -0.000002
    13  H    0.150321  -0.000000
    14  C   -0.204445   0.000003
    15  H    0.147909  -0.000000
    16  C   -0.200564   0.000000
    17  H    0.125385   0.000000
    18  H    0.135296  -0.000000
    19  C   -0.165778  -0.000005
    20  H    0.160927   0.000000
    21  C   -0.178156   0.000003
    22  H    0.150566   0.000000
    23  C   -0.234614   0.000002
    24  H    0.155201  -0.000000
    25  H    0.134499  -0.000000
    26  C   -0.203215  -0.000000
    27  H    0.135550  -0.000000
    28  H    0.126403  -0.000000
 Sum of Mulliken charges =  -0.00000  -0.00000
 Mulliken charges and spin densities with hydrogens summed into heavy atoms:
               1          2
     1  C   -0.055460  -0.000004
     2  C   -0.026047   0.000003
     5  C   -0.003914   0.000004
     6  C   -0.026282  -0.000002
     9  C    0.053426  -0.000001
    12  C   -0.026686  -0.000002
    14  C   -0.056536   0.000003
    16  C    0.060117   0.000000
    19  C   -0.004851  -0.000005
    21  C   -0.027591   0.000003
    23  C    0.055086   0.000001
    26  C    0.058737  -0.000000
 Electronic spatial extent (au):  <R**2>=           2196.0177
 Charge=              0.0000 electrons
 Dipole moment (field-independent basis, Debye):
    X=             -0.0010    Y=             -0.0000    Z=             -0.0028  Tot=              0.0030
 Quadrupole moment (field-independent basis, Debye-Ang):
   XX=            -70.4539   YY=            -68.4575   ZZ=            -75.4503
   XY=             -3.3055   XZ=             -3.1912   YZ=             -1.2295
 Traceless Quadrupole moment (field-independent basis, Debye-Ang):
   XX=              1.0000   YY=              2.9964   ZZ=             -3.9964
   XY=             -3.3055   XZ=             -3.1912   YZ=             -1.2295
 Octapole moment (field-independent basis, Debye-Ang**2):
  XXX=              0.0054  YYY=             -0.0102  ZZZ=             -0.0169  XYY=             -0.0034
  XXY=             -0.0133  XXZ=             -0.0228  XZZ=             -0.0128  YZZ=              0.0011
  YYZ=              0.0037  XYZ=             -0.0064
 Hexadecapole moment (field-independent basis, Debye-Ang**3):
 XXXX=          -1980.6781 YYYY=           -605.8142 ZZZZ=           -315.9970 XXXY=            -98.8332
 XXXZ=           -118.8906 YYYX=            -55.2771 YYYZ=             -1.1125 ZZZX=            -66.2182
 ZZZY=            -10.8429 XXYY=           -428.1192 XXZZ=           -408.9939 YYZZ=           -168.7589
 XXYZ=            -20.3761 YYXZ=            -24.4586 ZZXY=            -41.5886
 N-N= 6.908798975035D+02 E-N=-2.464400594670D+03  KE= 4.644208815682D+02
                          Isotropic Fermi Contact Couplings
        Atom                 a.u.       MegaHertz       Gauss      10(-4) cm-1
     1  C(13)             -0.00000      -0.00022      -0.00008      -0.00007
     2  C(13)             -0.00000      -0.00005      -0.00002      -0.00002
     3  H(1)               0.00000       0.00023       0.00008       0.00008
     4  H(1)               0.00000       0.00017       0.00006       0.00006
     5  C(13)              0.00000       0.00025       0.00009       0.00008
     6  C(13)              0.00000       0.00012       0.00004       0.00004
     7  H(1)              -0.00000      -0.00010      -0.00004      -0.00003
     8  H(1)              -0.00000      -0.00019      -0.00007      -0.00006
     9  C(13)             -0.00000      -0.00041      -0.00015      -0.00014
    10  H(1)               0.00000       0.00026       0.00009       0.00009
    11  H(1)               0.00000       0.00021       0.00008       0.00007
    12  C(13)             -0.00000      -0.00026      -0.00009      -0.00009
    13  H(1)              -0.00000      -0.00004      -0.00001      -0.00001
    14  C(13)              0.00000       0.00015       0.00005       0.00005
    15  H(1)              -0.00000      -0.00019      -0.00007      -0.00006
    16  C(13)              0.00000       0.00005       0.00002       0.00002
    17  H(1)               0.00000       0.00008       0.00003       0.00003
    18  H(1)              -0.00000      -0.00001      -0.00000      -0.00000
    19  C(13)             -0.00000      -0.00029      -0.00010      -0.00010
    20  H(1)               0.00000       0.00012       0.00004       0.00004
    21  C(13)              0.00000       0.00032       0.00011       0.00011
    22  H(1)               0.00000       0.00001       0.00000       0.00000
    23  C(13)              0.00000       0.00039       0.00014       0.00013
    24  H(1)              -0.00000      -0.00020      -0.00007      -0.00007
    25  H(1)              -0.00000      -0.00023      -0.00008      -0.00008
    26  C(13)             -0.00000      -0.00002      -0.00001      -0.00001
    27  H(1)              -0.00000      -0.00002      -0.00001      -0.00001
    28  H(1)              -0.00000      -0.00013      -0.00005      -0.00004
 --------------------------------------------------------
       Center         ----  Spin Dipole Couplings  ----
                      3XX-RR        3YY-RR        3ZZ-RR
 --------------------------------------------------------
     1   Atom        0.000000      0.000002     -0.000002
     2   Atom       -0.000001     -0.000002      0.000003
     3   Atom       -0.000000      0.000000     -0.000000
     4   Atom        0.000000     -0.000000      0.000000
     5   Atom       -0.000001     -0.000002      0.000004
     6   Atom        0.000001      0.000002     -0.000003
     7   Atom       -0.000000      0.000000     -0.000000
     8   Atom       -0.000000      0.000000     -0.000000
     9   Atom        0.000000      0.000000     -0.000000
    10   Atom        0.000000      0.000000     -0.000000
    11   Atom       -0.000000     -0.000000      0.000000
    12   Atom        0.000001      0.000001     -0.000002
    13   Atom        0.000000     -0.000000     -0.000000
    14   Atom       -0.000000     -0.000002      0.000002
    15   Atom        0.000000     -0.000000      0.000000
    16   Atom        0.000000     -0.000000      0.000000
    17   Atom       -0.000000      0.000000     -0.000000
    18   Atom       -0.000000      0.000000     -0.000000
    19   Atom        0.000001      0.000003     -0.000004
    20   Atom        0.000000     -0.000000      0.000000
    21   Atom       -0.000001     -0.000002      0.000002
    22   Atom       -0.000000      0.000000      0.000000
    23   Atom       -0.000000     -0.000000      0.000000
    24   Atom       -0.000000      0.000000     -0.000000
    25   Atom       -0.000000     -0.000000      0.000000
    26   Atom       -0.000000      0.000000     -0.000000
    27   Atom        0.000000     -0.000000      0.000000
    28   Atom        0.000000     -0.000000      0.000000
 --------------------------------------------------------
                        XY            XZ            YZ
 --------------------------------------------------------
     1   Atom        0.000000     -0.000002      0.000000
     2   Atom        0.000001      0.000003      0.000001
     3   Atom       -0.000000      0.000000      0.000000
     4   Atom       -0.000000     -0.000000      0.000000
     5   Atom        0.000000      0.000002      0.000001
     6   Atom       -0.000001     -0.000002     -0.000001
     7   Atom       -0.000000      0.000000      0.000000
     8   Atom        0.000000     -0.000000     -0.000000
     9   Atom        0.000000     -0.000000      0.000000
    10   Atom        0.000000     -0.000000     -0.000000
    11   Atom       -0.000000     -0.000000     -0.000000
    12   Atom        0.000000     -0.000001      0.000000
    13   Atom       -0.000000     -0.000000      0.000000
    14   Atom       -0.000000      0.000002     -0.000000
    15   Atom        0.000000     -0.000000     -0.000000
    16   Atom       -0.000000     -0.000000     -0.000000
    17   Atom        0.000000      0.000000      0.000000
    18   Atom       -0.000000      0.000000     -0.000000
    19   Atom       -0.000000     -0.000002     -0.000001
    20   Atom        0.000000     -0.000000     -0.000000
    21   Atom        0.000000      0.000001     -0.000000
    22   Atom        0.000000      0.000000     -0.000000
    23   Atom       -0.000000      0.000000     -0.000000
    24   Atom        0.000000      0.000000      0.000000
    25   Atom       -0.000000      0.000000      0.000000
    26   Atom        0.000000      0.000000      0.000000
    27   Atom        0.000000     -0.000000      0.000000
    28   Atom       -0.000000     -0.000000     -0.000000
 --------------------------------------------------------


 ---------------------------------------------------------------------------------
              Anisotropic Spin Dipole Couplings in Principal Axis System
 ---------------------------------------------------------------------------------

       Atom             a.u.   MegaHertz   Gauss  10(-4) cm-1        Axes

              Baa    -0.0000    -0.001    -0.000    -0.000  0.4822 -0.0250  0.8757
     1 C(13)  Bbb     0.0000     0.000     0.000     0.000  0.8698  0.1336 -0.4751
              Bcc     0.0000     0.000     0.000     0.000 -0.1051  0.9907  0.0861
 
              Baa    -0.0000    -0.000    -0.000    -0.000  0.8361 -0.4365 -0.3323
     2 C(13)  Bbb    -0.0000    -0.000    -0.000    -0.000  0.3376  0.8869 -0.3155
              Bcc     0.0000     0.001     0.000     0.000  0.4324  0.1516  0.8889
 
              Baa    -0.0000    -0.000    -0.000    -0.000  0.8711  0.1471 -0.4686
     3 H(1)   Bbb     0.0000     0.000     0.000     0.000  0.4764 -0.0215  0.8790
              Bcc     0.0000     0.000     0.000     0.000 -0.1192  0.9889  0.0888
 
              Baa    -0.0000    -0.000    -0.000    -0.000  0.1154  0.9591 -0.2586
     4 H(1)   Bbb     0.0000     0.000     0.000     0.000  0.9834 -0.0737  0.1657
              Bcc     0.0000     0.000     0.000     0.000 -0.1399  0.2734  0.9517
 
              Baa    -0.0000    -0.000    -0.000    -0.000  0.1437  0.9734 -0.1783
     5 C(13)  Bbb    -0.0000    -0.000    -0.000    -0.000  0.9228 -0.1968 -0.3311
              Bcc     0.0000     0.001     0.000     0.000  0.3574  0.1169  0.9266
 
              Baa    -0.0000    -0.001    -0.000    -0.000  0.4383  0.1498  0.8863
     6 C(13)  Bbb     0.0000     0.000     0.000     0.000  0.3351  0.8877 -0.3158
              Bcc     0.0000     0.000     0.000     0.000  0.8340 -0.4354 -0.3388
 
              Baa    -0.0000    -0.000    -0.000    -0.000  0.7266  0.5741 -0.3775
     7 H(1)   Bbb     0.0000     0.000     0.000     0.000  0.2815  0.2524  0.9258
              Bcc     0.0000     0.000     0.000     0.000 -0.6268  0.7789 -0.0218
 
              Baa    -0.0000    -0.000    -0.000    -0.000  0.0331  0.3178  0.9476
     8 H(1)   Bbb    -0.0000    -0.000    -0.000    -0.000  0.9677 -0.2474  0.0492
              Bcc     0.0000     0.000     0.000     0.000  0.2501  0.9153 -0.3157
 
              Baa    -0.0000    -0.000    -0.000    -0.000  0.6083 -0.0995  0.7874
     9 C(13)  Bbb     0.0000     0.000     0.000     0.000 -0.3832  0.8320  0.4012
              Bcc     0.0000     0.000     0.000     0.000  0.6951  0.5458 -0.4680
 
              Baa    -0.0000    -0.000    -0.000    -0.000  0.4747  0.0592  0.8782
    10 H(1)   Bbb     0.0000     0.000     0.000     0.000 -0.6467  0.7003  0.3024
              Bcc     0.0000     0.000     0.000     0.000  0.5970  0.7114 -0.3707
 
              Baa    -0.0000    -0.000    -0.000    -0.000  0.5560  0.8128  0.1737
    11 H(1)   Bbb     0.0000     0.000     0.000     0.000  0.7043 -0.5717  0.4208
              Bcc     0.0000     0.000     0.000     0.000 -0.4413  0.1116  0.8904
 
              Baa    -0.0000    -0.000    -0.000    -0.000  0.3511 -0.0069  0.9363
    12 C(13)  Bbb     0.0000     0.000     0.000     0.000  0.9362  0.0171 -0.3510
              Bcc     0.0000     0.000     0.000     0.000 -0.0136  0.9998  0.0124
 
              Baa    -0.0000    -0.000    -0.000    -0.000  0.2676 -0.3050  0.9140
    13 H(1)   Bbb    -0.0000    -0.000    -0.000    -0.000  0.3989  0.8985  0.1830
              Bcc     0.0000     0.000     0.000     0.000  0.8771 -0.3156 -0.3621
 
              Baa    -0.0000    -0.000    -0.000    -0.000 -0.0606  0.9961  0.0636
    14 C(13)  Bbb    -0.0000    -0.000    -0.000    -0.000  0.8676  0.0841 -0.4901
              Bcc     0.0000     0.000     0.000     0.000  0.4935 -0.0254  0.8694
 
              Baa    -0.0000    -0.000    -0.000    -0.000 -0.1129  0.9896  0.0891
    15 H(1)   Bbb    -0.0000    -0.000    -0.000    -0.000  0.4771 -0.0247  0.8785
              Bcc     0.0000     0.000     0.000     0.000  0.8715  0.1417 -0.4694
 
              Baa    -0.0000    -0.000    -0.000    -0.000  0.2491  0.9606  0.1237
    16 C(13)  Bbb     0.0000     0.000     0.000     0.000  0.7449 -0.2716  0.6095
              Bcc     0.0000     0.000     0.000     0.000 -0.6190  0.0597  0.7831
 
              Baa    -0.0000    -0.000    -0.000    -0.000 -0.6732 -0.1007  0.7326
    17 H(1)   Bbb    -0.0000    -0.000    -0.000    -0.000  0.6366 -0.5829  0.5050
              Bcc     0.0000     0.000     0.000     0.000  0.3761  0.8063  0.4565
 
              Baa    -0.0000    -0.000    -0.000    -0.000  0.9300  0.3500 -0.1120
    18 H(1)   Bbb    -0.0000    -0.000    -0.000    -0.000 -0.0070  0.3213  0.9469
              Bcc     0.0000     0.000     0.000     0.000 -0.3675  0.8799 -0.3013
 
              Baa    -0.0000    -0.001    -0.000    -0.000  0.3579  0.1080  0.9275
    19 C(13)  Bbb     0.0000     0.000     0.000     0.000  0.9141 -0.2435 -0.3244
              Bcc     0.0000     0.000     0.000     0.000  0.1908  0.9639 -0.1859
 
              Baa    -0.0000    -0.000    -0.000    -0.000 -0.6274  0.7786 -0.0116
    20 H(1)   Bbb    -0.0000    -0.000    -0.000    -0.000  0.2783  0.2381  0.9305
              Bcc     0.0000     0.000     0.000     0.000  0.7273  0.5806 -0.3660
 
              Baa    -0.0000    -0.000    -0.000    -0.000 -0.0862  0.9951  0.0484
    21 C(13)  Bbb    -0.0000    -0.000    -0.000    -0.000  0.9264  0.0980 -0.3635
              Bcc     0.0000     0.000     0.000     0.000  0.3665 -0.0135  0.9303
 
              Baa    -0.0000    -0.000    -0.000    -0.000  0.8482 -0.3858 -0.3629
    22 H(1)   Bbb     0.0000     0.000     0.000     0.000  0.4329  0.1104  0.8946
              Bcc     0.0000     0.000     0.000     0.000  0.3050  0.9160 -0.2607
 
              Baa    -0.0000    -0.000    -0.000    -0.000  0.7137  0.5234 -0.4655
    23 C(13)  Bbb    -0.0000    -0.000    -0.000    -0.000 -0.3536  0.8429  0.4055
              Bcc     0.0000     0.000     0.000     0.000  0.6046 -0.1248  0.7867
 
              Baa    -0.0000    -0.000    -0.000    -0.000 -0.4563  0.1028  0.8839
    24 H(1)   Bbb    -0.0000    -0.000    -0.000    -0.000  0.7263 -0.5308  0.4367
              Bcc     0.0000     0.000     0.000     0.000  0.5140  0.8413  0.1676
 
              Baa    -0.0000    -0.000    -0.000    -0.000  0.6369  0.6622 -0.3949
    25 H(1)   Bbb    -0.0000    -0.000    -0.000    -0.000 -0.5947  0.7479  0.2950
              Bcc     0.0000     0.000     0.000     0.000  0.4907  0.0469  0.8701
 
              Baa    -0.0000    -0.000    -0.000    -0.000 -0.5820  0.0414  0.8121
    26 C(13)  Bbb    -0.0000    -0.000    -0.000    -0.000  0.7792 -0.2573  0.5716
              Bcc     0.0000     0.000     0.000     0.000  0.2326  0.9654  0.1175
 
              Baa    -0.0000    -0.000    -0.000    -0.000 -0.3040  0.9045 -0.2991
    27 H(1)   Bbb     0.0000     0.000     0.000     0.000  0.0334  0.3239  0.9455
              Bcc     0.0000     0.000     0.000     0.000  0.9521  0.2774 -0.1287
 
              Baa    -0.0000    -0.000    -0.000    -0.000  0.3998  0.8192  0.4112
    28 H(1)   Bbb     0.0000     0.000     0.000     0.000  0.5640 -0.5735  0.5941
              Bcc     0.0000     0.000     0.000     0.000  0.7225 -0.0056 -0.6913
 

 ---------------------------------------------------------------------------------

 No NMR shielding tensors so no spin-rotation constants.
 Leave Link  601 at Tue Aug  4 12:07:12 2020, MaxMem=  6442450944 cpu:               8.0 elap:               0.4
 (Enter /scratch/scicomp/CentOS/7.3.1611/Haswell/software/Gaussian/g16/l9999.exe)
 1\1\GINC-ATLAS-205\SP\UwB97XD\def2TZVP\C12H16\BOCHEN\04-Aug-2020\0\\#p
  uwb97xd guess=mix def2tzvp # scrf=(iefpcm,solvent=Cyclohexane,read) n
 osym 6d 10f\\endo-2 xp-pcm for eta=3\\0,1\C,0,-3.118578,-0.436876,0.24
 7024\C,0,-0.555477,-0.196368,-0.932206\H,0,-4.082851,-0.549917,0.72872
 5\H,0,0.380936,-0.117306,-1.466881\C,0,1.090379,1.404463,0.689379\C,0,
 0.555477,0.196368,0.932206\H,0,0.521599,2.308823,0.864348\H,0,-0.38093
 6,0.117306,1.466881\C,0,1.46681,-0.999509,0.989932\H,0,1.911942,-0.970
 218,1.991724\H,0,0.912395,-1.93462,0.924846\C,0,2.418004,1.516122,0.11
 2667\H,0,2.827281,2.505496,-0.054615\C,0,3.118578,0.436876,-0.247024\H
 ,0,4.082851,0.549917,-0.728725\C,0,2.591691,-0.957992,-0.044788\H,0,2.
 252888,-1.355863,-1.009385\H,0,3.400558,-1.620027,0.27188\C,0,-1.09037
 9,-1.404463,-0.689379\H,0,-0.521599,-2.308823,-0.864348\C,0,-2.418004,
 -1.516122,-0.112667\H,0,-2.827281,-2.505496,0.054615\C,0,-1.46681,0.99
 9509,-0.989932\H,0,-0.912395,1.93462,-0.924846\H,0,-1.911942,0.970219,
 -1.991724\C,0,-2.591691,0.957992,0.044788\H,0,-3.400558,1.620027,-0.27
 188\H,0,-2.252888,1.355863,1.009385\\Version=ES64L-G16RevB.01\HF=-466.
 7779881\S2=0.\S2-1=0.\S2A=0.\RMSD=8.986e-09\Dipole=-0.0003846,-0.00000
 28,-0.001106\Quadrupole=0.7434586,2.2277673,-2.9712259,-2.4575255,-2.3
 725837,-0.9140714\PG=CI [X(C12H16)]\\@


 HE THAT IS UNAWARE OF HIS IGNORANCE WILL BE MISLED BY HIS KNOWLEDGE.

                                        -- WHATLEY
 Job cpu time:       0 days  2 hours 24 minutes 24.1 seconds.
 Elapsed time:       0 days  0 hours  6 minutes  4.2 seconds.
 File lengths (MBytes):  RWF=    620 Int=      0 D2E=      0 Chk=     24 Scr=      1
 Normal termination of Gaussian 16 at Tue Aug  4 12:07:12 2020.
