 Entering Gaussian System, Link 0=g16
 Input=meso-TS_37_2_pcm.com
 Output=meso-TS_37_2_pcm.log
 Initial command:
 /scratch/scicomp/CentOS/7.3.1611/Haswell/software/Gaussian/g16/l1.exe "/scratch/bochen/cyclohexadiene-dimerization/wb97xd-def2tzvp/xp-pcm/meso/Gau-31704.inp" -scrdir="/scratch/bochen/cyclohexadiene-dimerization/wb97xd-def2tzvp/xp-pcm/meso/"
 Entering Link 1 = /scratch/scicomp/CentOS/7.3.1611/Haswell/software/Gaussian/g16/l1.exe PID=     31705.
  
 Copyright (c) 1988-2017, Gaussian, Inc.  All Rights Reserved.
  
 This is part of the Gaussian(R) 16 program.  It is based on
 the Gaussian(R) 09 system (copyright 2009, Gaussian, Inc.),
 the Gaussian(R) 03 system (copyright 2003, Gaussian, Inc.),
 the Gaussian(R) 98 system (copyright 1998, Gaussian, Inc.),
 the Gaussian(R) 94 system (copyright 1995, Gaussian, Inc.),
 the Gaussian 92(TM) system (copyright 1992, Gaussian, Inc.),
 the Gaussian 90(TM) system (copyright 1990, Gaussian, Inc.),
 the Gaussian 88(TM) system (copyright 1988, Gaussian, Inc.),
 the Gaussian 86(TM) system (copyright 1986, Carnegie Mellon
 University), and the Gaussian 82(TM) system (copyright 1983,
 Carnegie Mellon University). Gaussian is a federally registered
 trademark of Gaussian, Inc.
  
 This software contains proprietary and confidential information,
 including trade secrets, belonging to Gaussian, Inc.
  
 This software is provided under written license and may be
 used, copied, transmitted, or stored only in accord with that
 written license.
  
 The following legend is applicable only to US Government
 contracts under FAR:
  
                    RESTRICTED RIGHTS LEGEND
  
 Use, reproduction and disclosure by the US Government is
 subject to restrictions as set forth in subparagraphs (a)
 and (c) of the Commercial Computer Software - Restricted
 Rights clause in FAR 52.227-19.
  
 Gaussian, Inc.
 340 Quinnipiac St., Bldg. 40, Wallingford CT 06492
  
  
 ---------------------------------------------------------------
 Warning -- This program may not be used in any manner that
 competes with the business of Gaussian, Inc. or will provide
 assistance to any competitor of Gaussian, Inc.  The licensee
 of this program is prohibited from giving any competitor of
 Gaussian, Inc. access to this program.  By using this program,
 the user acknowledges that Gaussian, Inc. is engaged in the
 business of creating and licensing software in the field of
 computational chemistry and represents and warrants to the
 licensee that it is not a competitor of Gaussian, Inc. and that
 it will not use this program in any manner prohibited above.
 ---------------------------------------------------------------
  

 Cite this work as:
 Gaussian 16, Revision B.01,
 M. J. Frisch, G. W. Trucks, H. B. Schlegel, G. E. Scuseria, 
 M. A. Robb, J. R. Cheeseman, G. Scalmani, V. Barone, 
 G. A. Petersson, H. Nakatsuji, X. Li, M. Caricato, A. V. Marenich, 
 J. Bloino, B. G. Janesko, R. Gomperts, B. Mennucci, H. P. Hratchian, 
 J. V. Ortiz, A. F. Izmaylov, J. L. Sonnenberg, D. Williams-Young, 
 F. Ding, F. Lipparini, F. Egidi, J. Goings, B. Peng, A. Petrone, 
 T. Henderson, D. Ranasinghe, V. G. Zakrzewski, J. Gao, N. Rega, 
 G. Zheng, W. Liang, M. Hada, M. Ehara, K. Toyota, R. Fukuda, 
 J. Hasegawa, M. Ishida, T. Nakajima, Y. Honda, O. Kitao, H. Nakai, 
 T. Vreven, K. Throssell, J. A. Montgomery, Jr., J. E. Peralta, 
 F. Ogliaro, M. J. Bearpark, J. J. Heyd, E. N. Brothers, K. N. Kudin, 
 V. N. Staroverov, T. A. Keith, R. Kobayashi, J. Normand, 
 K. Raghavachari, A. P. Rendell, J. C. Burant, S. S. Iyengar, 
 J. Tomasi, M. Cossi, J. M. Millam, M. Klene, C. Adamo, R. Cammi, 
 J. W. Ochterski, R. L. Martin, K. Morokuma, O. Farkas, 
 J. B. Foresman, and D. J. Fox, Gaussian, Inc., Wallingford CT, 2016.
 
 ******************************************
 Gaussian 16:  ES64L-G16RevB.01 20-Dec-2017
                 3-Aug-2020 
 ******************************************
 %nproc=24
 Will use up to   24 processors via shared memory.
 %mem=48GB
 ----------------------------------------------------------------------
 #p uwb97xd guess=mix def2tzvp # scrf=(iefpcm,solvent=Cyclohexane,read)
  nosym 6d 10f
 ----------------------------------------------------------------------
 1/38=1,40=2,172=1/1;
 2/12=2,15=1,17=6,18=5,40=1/2;
 3/5=44,7=101,8=22,11=2,25=1,30=1,70=2203,72=17,74=-58,116=2/1,2,3;
 4/13=-1/1;
 5/5=2,38=5,53=17/2;
 6/7=2,8=2,9=2,10=2,28=1/1;
 99/5=1,9=1/99;
 Leave Link    1 at Mon Aug  3 15:05:05 2020, MaxMem=  6442450944 cpu:               1.8 elap:               0.1
 (Enter /scratch/scicomp/CentOS/7.3.1611/Haswell/software/Gaussian/g16/l101.exe)
 -----------------------
 endo-2 xp-pcm for eta=3
 -----------------------
 Symbolic Z-matrix:
 Charge =  0 Multiplicity = 1
 6                    -3.12622  -0.44049   0.25349 
 6                    -0.67222  -0.23682  -1.14636 
 1                    -4.08296  -0.54175   0.75273 
 1                     0.29421  -0.14682  -1.62513 
 6                     1.12979   1.41843   0.74352 
 6                     0.67222   0.23682   1.14636 
 1                     0.53682   2.31558   0.87217 
 1                    -0.29421   0.14682   1.62513 
 6                     1.51865  -1.        1.05961 
 1                     2.01232  -1.1142    2.03299 
 1                     0.89114  -1.882     0.93796 
 6                     2.43995   1.52471   0.1049 
 1                     2.84394   2.51143  -0.0879 
 6                     3.12622   0.44049  -0.25349 
 1                     4.08296   0.54175  -0.75273 
 6                     2.58441  -0.94681  -0.04091 
 1                     2.17791  -1.31185  -0.99221 
 1                     3.39788  -1.63095   0.20883 
 6                    -1.12979  -1.41843  -0.74352 
 1                    -0.53682  -2.31558  -0.87217 
 6                    -2.43995  -1.52471  -0.1049 
 1                    -2.84394  -2.51143   0.0879 
 6                    -1.51865   1.       -1.05961 
 1                    -0.89114   1.882    -0.93796 
 1                    -2.01232   1.11421  -2.03299 
 6                    -2.58441   0.94681   0.04091 
 1                    -3.39788   1.63095  -0.20883 
 1                    -2.17791   1.31185   0.99221 
 
 ITRead=  0  0  0  0  0  0  0  0  0  0  0  0  0  0  0  0  0  0  0  0
 ITRead=  0  0  0  0  0  0  0  0
 MicOpt= -1 -1 -1 -1 -1 -1 -1 -1 -1 -1 -1 -1 -1 -1 -1 -1 -1 -1 -1 -1
 MicOpt= -1 -1 -1 -1 -1 -1 -1 -1
 NAtoms=     28 NQM=       28 NQMF=       0 NMMI=      0 NMMIF=      0
                NMic=       0 NMicF=      0.
                    Isotopes and Nuclear Properties:
 (Nuclear quadrupole moments (NQMom) in fm**2, nuclear magnetic moments (NMagM)
  in nuclear magnetons)

  Atom         1           2           3           4           5           6           7           8           9          10
 IAtWgt=          12          12           1           1          12          12           1           1          12           1
 AtmWgt=  12.0000000  12.0000000   1.0078250   1.0078250  12.0000000  12.0000000   1.0078250   1.0078250  12.0000000   1.0078250
 NucSpn=           0           0           1           1           0           0           1           1           0           1
 AtZEff=  -0.0000000  -0.0000000  -0.0000000  -0.0000000  -0.0000000  -0.0000000  -0.0000000  -0.0000000  -0.0000000  -0.0000000
 NQMom=    0.0000000   0.0000000   0.0000000   0.0000000   0.0000000   0.0000000   0.0000000   0.0000000   0.0000000   0.0000000
 NMagM=    0.0000000   0.0000000   2.7928460   2.7928460   0.0000000   0.0000000   2.7928460   2.7928460   0.0000000   2.7928460
 AtZNuc=   6.0000000   6.0000000   1.0000000   1.0000000   6.0000000   6.0000000   1.0000000   1.0000000   6.0000000   1.0000000

  Atom        11          12          13          14          15          16          17          18          19          20
 IAtWgt=           1          12           1          12           1          12           1           1          12           1
 AtmWgt=   1.0078250  12.0000000   1.0078250  12.0000000   1.0078250  12.0000000   1.0078250   1.0078250  12.0000000   1.0078250
 NucSpn=           1           0           1           0           1           0           1           1           0           1
 AtZEff=  -0.0000000  -0.0000000  -0.0000000  -0.0000000  -0.0000000  -0.0000000  -0.0000000  -0.0000000  -0.0000000  -0.0000000
 NQMom=    0.0000000   0.0000000   0.0000000   0.0000000   0.0000000   0.0000000   0.0000000   0.0000000   0.0000000   0.0000000
 NMagM=    2.7928460   0.0000000   2.7928460   0.0000000   2.7928460   0.0000000   2.7928460   2.7928460   0.0000000   2.7928460
 AtZNuc=   1.0000000   6.0000000   1.0000000   6.0000000   1.0000000   6.0000000   1.0000000   1.0000000   6.0000000   1.0000000

  Atom        21          22          23          24          25          26          27          28
 IAtWgt=          12           1          12           1           1          12           1           1
 AtmWgt=  12.0000000   1.0078250  12.0000000   1.0078250   1.0078250  12.0000000   1.0078250   1.0078250
 NucSpn=           0           1           0           1           1           0           1           1
 AtZEff=  -0.0000000  -0.0000000  -0.0000000  -0.0000000  -0.0000000  -0.0000000  -0.0000000  -0.0000000
 NQMom=    0.0000000   0.0000000   0.0000000   0.0000000   0.0000000   0.0000000   0.0000000   0.0000000
 NMagM=    0.0000000   2.7928460   0.0000000   2.7928460   2.7928460   0.0000000   2.7928460   2.7928460
 AtZNuc=   6.0000000   1.0000000   6.0000000   1.0000000   1.0000000   6.0000000   1.0000000   1.0000000
 Leave Link  101 at Mon Aug  3 15:05:05 2020, MaxMem=  6442450944 cpu:               2.4 elap:               0.1
 (Enter /scratch/scicomp/CentOS/7.3.1611/Haswell/software/Gaussian/g16/l202.exe)
                          Input orientation:                          
 ---------------------------------------------------------------------
 Center     Atomic      Atomic             Coordinates (Angstroms)
 Number     Number       Type             X           Y           Z
 ---------------------------------------------------------------------
      1          6           0       -3.126220   -0.440488    0.253489
      2          6           0       -0.672219   -0.236821   -1.146356
      3          1           0       -4.082957   -0.541745    0.752734
      4          1           0        0.294206   -0.146815   -1.625125
      5          6           0        1.129787    1.418428    0.743520
      6          6           0        0.672219    0.236821    1.146356
      7          1           0        0.536815    2.315578    0.872168
      8          1           0       -0.294206    0.146815    1.625125
      9          6           0        1.518650   -0.999998    1.059609
     10          1           0        2.012318   -1.114204    2.032991
     11          1           0        0.891136   -1.882004    0.937960
     12          6           0        2.439953    1.524706    0.104897
     13          1           0        2.843940    2.511426   -0.087900
     14          6           0        3.126220    0.440488   -0.253489
     15          1           0        4.082957    0.541745   -0.752734
     16          6           0        2.584411   -0.946808   -0.040911
     17          1           0        2.177912   -1.311853   -0.992206
     18          1           0        3.397883   -1.630946    0.208832
     19          6           0       -1.129787   -1.418428   -0.743520
     20          1           0       -0.536815   -2.315578   -0.872168
     21          6           0       -2.439953   -1.524706   -0.104897
     22          1           0       -2.843940   -2.511426    0.087900
     23          6           0       -1.518650    0.999998   -1.059609
     24          1           0       -0.891135    1.882004   -0.937960
     25          1           0       -2.012317    1.114205   -2.032991
     26          6           0       -2.584411    0.946808    0.040911
     27          1           0       -3.397883    1.630946   -0.208832
     28          1           0       -2.177912    1.311853    0.992206
 ---------------------------------------------------------------------
                    Distance matrix (angstroms):
                    1          2          3          4          5
     1  C    0.000000
     2  C    2.832520   0.000000
     3  H    1.083902   3.915693   0.000000
     4  H    3.913406   1.082265   4.996973   0.000000
     5  C    4.670042   3.091716   5.569117   2.959503   0.000000
     6  C    3.960315   2.699700   4.834543   2.823327   1.329602
     7  H    4.625634   3.471447   5.433310   3.515496   1.083072
     8  H    3.201033   2.823327   3.948394   3.316108   2.102851
     9  C    4.747389   3.201348   5.628692   3.071641   2.469800
    10  H    5.479516   4.252621   6.254530   4.155666   2.975873
    11  H    4.322686   3.081409   5.154823   3.152239   3.314757
    12  C    5.904773   3.788697   6.873010   3.223537   1.461393
    13  H    6.668819   4.586564   7.616457   3.991297   2.196412
    14  C    6.334521   3.960315   7.345032   3.201033   2.436419
    15  H    7.345032   4.834543   8.373920   3.948394   3.424699
    16  C    5.740587   3.511656   6.726644   2.897372   2.885412
    17  H    5.517685   3.050033   6.544949   2.303530   3.400845
    18  H    6.631976   4.510637   7.579258   3.898571   3.837816
    19  C    2.436419   1.329602   3.424699   2.102851   3.919785
    20  H    3.389408   2.101129   4.285080   2.441531   4.396682
    21  C    1.332266   2.422430   2.097905   3.418377   4.703711
    22  H    2.096637   3.378400   2.420085   4.286467   5.627086
    23  C    2.526560   1.501230   3.498175   2.218431   3.231188
    24  H    3.436441   2.140274   4.349797   2.448129   2.669532
    25  H    2.980913   2.099346   3.845775   2.660183   4.204091
    26  C    1.504439   2.543041   2.228928   3.501160   3.809377
    27  H    2.139715   3.434640   2.472756   4.335648   4.631623
    28  H    2.125015   3.039564   2.668777   3.884521   3.318746
                    6          7          8          9         10
     6  C    0.000000
     7  H    2.101129   0.000000
     8  H    1.082265   2.441531   0.000000
     9  C    1.501230   3.462972   2.218431   0.000000
    10  H    2.099346   3.909990   2.660184   1.097371   0.000000
    11  H    2.140274   4.213023   2.448129   1.089269   1.745182
    12  C    2.422430   2.199117   3.418377   2.852088   3.296098
    13  H    3.378400   2.506574   4.286467   3.924700   4.281935
    14  C    2.832520   3.389408   3.913406   2.526560   2.980912
    15  H    3.915693   4.285080   4.996973   3.498175   3.845774
    16  C    2.543041   3.958475   3.501160   1.532912   2.157865
    17  H    3.039564   4.396288   3.884521   2.177573   3.036166
    18  H    3.434640   4.919428   4.335648   2.157182   2.348269
    19  C    3.091716   4.396682   2.959503   3.231188   4.204092
    20  H    3.471447   5.063891   3.515496   3.112467   4.047385
    21  C    3.788697   4.956166   3.223537   4.159559   4.955986
    22  H    4.586564   5.945128   3.991297   4.718138   5.414688
    23  C    3.201348   3.112467   3.071641   4.209069   5.147986
    24  H    3.081408   2.345973   3.152239   4.254795   5.121899
    25  H    4.252621   4.047384   4.155666   5.147986   6.139683
    26  C    3.511656   3.508072   2.897372   4.654343   5.417201
    27  H    4.510637   4.137527   3.898571   5.718663   6.467758
    28  H    3.050033   2.896829   2.303530   4.360478   4.952475
                   11         12         13         14         15
    11  H    0.000000
    12  C    3.833862   0.000000
    13  H    4.916102   1.083509   0.000000
    14  C    3.436440   1.332266   2.096637   0.000000
    15  H    4.349796   2.097905   2.420085   1.083902   0.000000
    16  C    2.167939   2.480022   3.468277   1.504439   2.228928
    17  H    2.388808   3.052600   3.984824   2.125015   2.668777
    18  H    2.622678   3.299481   4.189767   2.139715   2.472756
    19  C    2.669533   4.703711   5.627086   4.670042   5.569117
    20  H    2.345974   4.956166   5.945128   4.625634   5.433310
    21  C    3.508756   5.758160   6.649073   5.904773   6.873010
    22  H    3.881954   6.649073   7.590252   6.668819   7.616457
    23  C    4.254796   4.159559   4.718138   4.747389   5.628692
    24  H    4.567639   3.508755   3.881953   4.322686   5.154822
    25  H    5.121900   4.955985   5.414687   5.479515   6.254529
    26  C    4.570153   5.057894   5.650807   5.740587   6.726644
    27  H    5.661416   5.847225   6.304778   6.631976   7.579258
    28  H    4.429754   4.707154   5.274903   5.517685   6.544949
                   16         17         18         19         20
    16  C    0.000000
    17  H    1.097024   0.000000
    18  H    1.091858   1.741448   0.000000
    19  C    3.809377   3.318746   4.631623   0.000000
    20  H    3.508072   2.896829   4.137527   1.083072   0.000000
    21  C    5.057894   4.707154   5.847225   1.461393   2.199117
    22  H    5.650807   5.274903   6.304778   2.196412   2.506574
    23  C    4.654343   4.360478   5.718663   2.469800   3.462972
    24  H    4.570153   4.429753   5.661415   3.314757   4.213023
    25  H    5.417201   4.952475   6.467758   2.975874   3.909991
    26  C    5.505379   5.371089   6.516199   2.885412   3.958475
    27  H    6.516199   6.353206   7.549624   3.837816   4.919428
    28  H    5.371089   5.458473   6.353206   3.400845   4.396288
                   21         22         23         24         25
    21  C    0.000000
    22  H    1.083509   0.000000
    23  C    2.852088   3.924700   0.000000
    24  H    3.833863   4.916102   1.089270   0.000000
    25  H    3.296099   4.281936   1.097371   1.745181   0.000000
    26  C    2.480022   3.468277   1.532912   2.167940   2.157865
    27  H    3.299481   4.189767   2.157182   2.622679   2.348270
    28  H    3.052600   3.984824   2.177573   2.388809   3.036166
                   26         27         28
    26  C    0.000000
    27  H    1.091858   0.000000
    28  H    1.097024   1.741448   0.000000
 Symmetry turned off by external request.
 Stoichiometry    C12H16
 Framework group  CI[X(C12H16)]
 Deg. of freedom    39
 Full point group                 CI      NOp   2
 Rotational constants (GHZ):           1.8182963           0.6091474           0.5421992
 Leave Link  202 at Mon Aug  3 15:05:05 2020, MaxMem=  6442450944 cpu:               0.3 elap:               0.0
 (Enter /scratch/scicomp/CentOS/7.3.1611/Haswell/software/Gaussian/g16/l301.exe)
 Standard basis: def2TZVP (6D, 10F)
 Ernie: Thresh=  0.10000D-02 Tol=  0.10000D-05 Strict=F.
   528 basis functions,   740 primitive gaussians,   528 cartesian basis functions
    44 alpha electrons       44 beta electrons
       nuclear repulsion energy       681.4184138780 Hartrees.
 IExCor= 4639 DFT=T Ex+Corr=wB97XD ExCW=0 ScaHFX=  1.000000
 ScaDFX=  1.000000  1.000000  1.000000  1.000000 ScalE2=  1.000000  1.000000
 IRadAn=      5 IRanWt=     -1 IRanGd=            0 ICorTp=0 IEmpDi=121
 HFx  wShort=  0.000000 wLong=  0.200000 cFull=  0.222036 cShort=  0.000000 cLong=  0.777964
 DFx  wShort=  0.000000 wLong=  0.200000 cFull=  0.000000 cShort=  0.000000 cLong=  1.000000
 NAtoms=   28 NActive=   28 NUniq=   28 SFac= 1.00D+00 NAtFMM=   60 NAOKFM=F Big=F
 Integral buffers will be    131072 words long.
 Raffenetti 2 integral format.
 Two-electron integral symmetry is turned off.
 R6Disp:  Grimme-D2 Dispersion energy=       -0.0227217399 Hartrees.
 Nuclear repulsion after empirical dispersion term =      681.3956921381 Hartrees.
 Using the following non-standard input for PCM:
 norep pcmdoc geomview  nodis nocav g03defaults tsare=0.075
 Warning! Using old PCM defaults because the g03defaults keyword was found.
 These settings can be overridden by following keywords.
 nsfe=28
 NVESolv=36  SolvMW=84.1595   Rsolv=2.815
 eps=2.0165 RhoS=0.7781
 --- end of non-standard input.
 Reading user-defined spheres from input:
 ISph  on   Nord    Re0     Alpha      Xe            Ye            Ze
 --- end of user-defined spheres data.
 ------------------------------------------------------------------------------
 Polarizable Continuum Model (PCM)
 =================================
 Model                : PCM.
 Atomic radii         : UA0 (Simple United Atom Topological Model).
 Polarization charges : Total charges.
 Charge compensation  : None.
 Solution method      : On-the-fly selection.
 Cavity type          : SES (Solvent Excluding Surface) (Alpha=1.000).
 Cavity algorithm     : GePol (RMin=0.200 OFac=0.890).
                        User-defined sphere list used, NSphG=   28.
                        Tesserae with average area of 0.075 Ang**2.
                        Smoothing algorithm: None.
                        Polarization charges: point-like.
                        Self-potential: constant (ISelfS= 1).
                        Self-field    : global E.n sum rule (ISelfD= 3).
 Solvent              : CycloHexane, Eps=   2.016500 Eps(inf)=   2.035188
                        RSolv=   2.815000 Ang.
 ------------------------------------------------------------------------------
 GePol: Number of generator spheres                  =      28
 GePol: Total number of spheres                      =     192
 GePol: Number of exposed spheres                    =     139 ( 72.40%)
 GePol: Number of tesserae                           =    4693
 GePol: Average area of tesserae                     =       0.05 Ang**2
 GePol: Minimum area of tessera                      =   0.10D-02 Ang**2
 GePol: Maximum area of tessera                      =    0.12395 Ang**2
 GePol: Number of small tesserae                     =       0
 GePol: Fraction of small tesserae (<1% of avg)      =       0.00%
 GePol: Total count of vertices                      =   16655
 GePol: Maximum number of vertices in a tessera      =       7
 GePol: Cavity surface area                          =    220.451 Ang**2
 GePol: Cavity volume                                =    249.885 Ang**3
 Leave Link  301 at Mon Aug  3 15:05:06 2020, MaxMem=  6442450944 cpu:               9.7 elap:               0.4
 (Enter /scratch/scicomp/CentOS/7.3.1611/Haswell/software/Gaussian/g16/l302.exe)
 NPDir=0 NMtPBC=     1 NCelOv=     1 NCel=       1 NClECP=     1 NCelD=      1
         NCelK=      1 NCelE2=     1 NClLst=     1 CellRange=     0.0.
 One-electron integrals computed using PRISM.
   1 Symmetry operations used in ECPInt.
 ECPInt:  NShTT=   19306 NPrTT=   56928 LenC2=   18494 LenP2D=   42038.
 LDataN:  DoStor=T MaxTD1= 6 Len=  172
 NBasis=   528 RedAO= T EigKep=  1.78D-05  NBF=   528
 NBsUse=   528 1.00D-06 EigRej= -1.00D+00 NBFU=   528
 Precomputing XC quadrature grid using
 IXCGrd= 4 IRadAn=           5 IRanWt=          -1 IRanGd=           0 AccXCQ= 0.00D+00.
 Generated NRdTot=       0 NPtTot=           0 NUsed=           0 NTot=          32
 NSgBfM=   526   526   526   526   526 MxSgAt=    28 MxSgA2=    28.
 Leave Link  302 at Mon Aug  3 15:05:06 2020, MaxMem=  6442450944 cpu:              12.8 elap:               0.6
 (Enter /scratch/scicomp/CentOS/7.3.1611/Haswell/software/Gaussian/g16/l303.exe)
 DipDrv:  MaxL=1.
 Leave Link  303 at Mon Aug  3 15:05:06 2020, MaxMem=  6442450944 cpu:               1.5 elap:               0.1
 (Enter /scratch/scicomp/CentOS/7.3.1611/Haswell/software/Gaussian/g16/l401.exe)
 ExpMin= 9.52D-02 ExpMax= 1.36D+04 ExpMxC= 4.63D+02 IAcc=3 IRadAn=         5 AccDes= 0.00D+00
 Harris functional with IExCor= 4639 and IRadAn=       5 diagonalized for initial guess.
 HarFok:  IExCor= 4639 AccDes= 0.00D+00 IRadAn=         5 IDoV= 1 UseB2=F ITyADJ=14
 ICtDFT=  3500011 ScaDFX=  1.000000  1.000000  1.000000  1.000000
 FoFCou: FMM=F IPFlag=           0 FMFlag=      100000 FMFlg1=           0
         NFxFlg=           0 DoJE=T BraDBF=F KetDBF=T FulRan=T
         wScrn=  0.000000 ICntrl=       500 IOpCl=  0 I1Cent=   200000004 NGrid=           0
         NMat0=    1 NMatS0=      1 NMatT0=    0 NMatD0=    1 NMtDS0=    0 NMtDT0=    0
 Symmetry not used in FoFCou.
 Harris En= -444.649973669833    
 JPrj=0 DoOrth=F DoCkMO=T.
 Mixing orbitals, IMix= 1 IMixAn=  0 NRI=1 NE=   44 Coef=  7.07106781D-01  7.07106781D-01
 Mixing orbitals, IMix= 1 IMixAn=  0 NRI=1 NE=   44 Coef= -7.07106781D-01  7.07106781D-01
 Initial guess <Sx>= 0.0000 <Sy>= 0.0000 <Sz>= 0.0000 <S**2>= 1.0000 S= 0.6180
 Leave Link  401 at Mon Aug  3 15:05:09 2020, MaxMem=  6442450944 cpu:              49.2 elap:               2.1
 (Enter /scratch/scicomp/CentOS/7.3.1611/Haswell/software/Gaussian/g16/l502.exe)
 Two-electron integral symmetry not used.
 UHF open shell SCF:
 Using DIIS extrapolation, IDIIS=  1040.
 NGot=  6442450944 LenX=  6441877030 LenY=  6441597718
 Requested convergence on RMS density matrix=1.00D-08 within 128 cycles.
 Requested convergence on MAX density matrix=1.00D-06.
 Requested convergence on             energy=1.00D-06.
 No special actions if energy rises.
 Fock matrices will be formed incrementally for  20 cycles.

 Cycle   1  Pass 1  IDiag  1:
 FoFJK:  IHMeth= 1 ICntrl=       0 DoSepK=T KAlg= 0 I1Cent=           0 FoldK=F
 IRaf=         1 NMat=       1 IRICut=       1 DoRegI=T DoRafI=F ISym2E= 0 IDoP0=0 IntGTp=1.
 FoFCou: FMM=F IPFlag=           0 FMFlag=      100000 FMFlg1=           0
         NFxFlg=           0 DoJE=T BraDBF=F KetDBF=F FulRan=T
         wScrn=  0.000000 ICntrl=       500 IOpCl=  0 I1Cent=           0 NGrid=           0
         NMat0=    1 NMatS0=      1 NMatT0=    0 NMatD0=    1 NMtDS0=    0 NMtDT0=    0
 Symmetry not used in FoFCou.
 Inv3:  Mode=1 IEnd=    66072747.
 Iteration    1 A*A^-1 deviation from unit magnitude is 3.66D-15 for   1274.
 Iteration    1 A*A^-1 deviation from orthogonality  is 1.93D-15 for   2067   1121.
 Iteration    1 A^-1*A deviation from unit magnitude is 4.33D-15 for    102.
 Iteration    1 A^-1*A deviation from orthogonality  is 2.00D-15 for   4288   2192.
 E= -466.583813552564    
 DIIS: error= 5.30D-02 at cycle   1 NSaved=   1.
 NSaved= 1 IEnMin= 1 EnMin= -466.583813552564     IErMin= 1 ErrMin= 5.30D-02
 ErrMax= 5.30D-02  0.00D+00 EMaxC= 1.00D-01 BMatC= 4.11D+00 BMatP= 4.11D+00
 IDIUse=3 WtCom= 4.70D-01 WtEn= 5.30D-01
 Coeff-Com:  0.100D+01
 Coeff-En:   0.100D+01
 Coeff:      0.100D+01
 Gap=     0.184 Goal=   None    Shift=    0.000
 Gap=     0.184 Goal=   None    Shift=    0.000
 GapD=    0.184 DampG=1.000 DampE=0.500 DampFc=0.5000 IDamp=-1.
 Damping current iteration by 5.00D-01
 RMSDP=1.63D-03 MaxDP=9.23D-02              OVMax= 3.31D-01

 Cycle   2  Pass 1  IDiag  1:
 RMSU=  7.83D-04    CP:  9.65D-01
 E= -466.691337875550     Delta-E=       -0.107524322986 Rises=F Damp=T
 DIIS: error= 2.51D-02 at cycle   2 NSaved=   2.
 NSaved= 2 IEnMin= 2 EnMin= -466.691337875550     IErMin= 2 ErrMin= 2.51D-02
 ErrMax= 2.51D-02  0.00D+00 EMaxC= 1.00D-01 BMatC= 9.34D-01 BMatP= 4.11D+00
 IDIUse=3 WtCom= 7.49D-01 WtEn= 2.51D-01
 Coeff-Com: -0.867D+00 0.187D+01
 Coeff-En:   0.000D+00 0.100D+01
 Coeff:     -0.649D+00 0.165D+01
 Gap=     0.270 Goal=   None    Shift=    0.000
 Gap=     0.270 Goal=   None    Shift=    0.000
 RMSDP=1.16D-03 MaxDP=5.20D-02 DE=-1.08D-01 OVMax= 1.38D-01

 Cycle   3  Pass 1  IDiag  1:
 RMSU=  6.31D-04    CP:  9.15D-01  2.17D+00
 E= -466.830531388306     Delta-E=       -0.139193512756 Rises=F Damp=F
 DIIS: error= 7.71D-03 at cycle   3 NSaved=   3.
 NSaved= 3 IEnMin= 3 EnMin= -466.830531388306     IErMin= 3 ErrMin= 7.71D-03
 ErrMax= 7.71D-03  0.00D+00 EMaxC= 1.00D-01 BMatC= 2.45D-02 BMatP= 9.34D-01
 IDIUse=3 WtCom= 9.23D-01 WtEn= 7.71D-02
 Coeff-Com: -0.317D+00 0.681D+00 0.637D+00
 Coeff-En:   0.000D+00 0.000D+00 0.100D+01
 Coeff:     -0.293D+00 0.628D+00 0.665D+00
 Gap=     0.291 Goal=   None    Shift=    0.000
 Gap=     0.291 Goal=   None    Shift=    0.000
 RMSDP=2.34D-04 MaxDP=1.24D-02 DE=-1.39D-01 OVMax= 6.62D-02

 Cycle   4  Pass 1  IDiag  1:
 RMSU=  2.13D-04    CP:  9.07D-01  2.28D+00  9.87D-01
 E= -466.841658380302     Delta-E=       -0.011126991996 Rises=F Damp=F
 DIIS: error= 5.18D-03 at cycle   4 NSaved=   4.
 NSaved= 4 IEnMin= 4 EnMin= -466.841658380302     IErMin= 4 ErrMin= 5.18D-03
 ErrMax= 5.18D-03  0.00D+00 EMaxC= 1.00D-01 BMatC= 2.17D-03 BMatP= 2.45D-02
 IDIUse=3 WtCom= 9.48D-01 WtEn= 5.18D-02
 Coeff-Com:  0.133D+00-0.284D+00-0.611D-01 0.121D+01
 Coeff-En:   0.000D+00 0.000D+00 0.000D+00 0.100D+01
 Coeff:      0.126D+00-0.270D+00-0.580D-01 0.120D+01
 Gap=     0.302 Goal=   None    Shift=    0.000
 Gap=     0.302 Goal=   None    Shift=    0.000
 RMSDP=2.26D-04 MaxDP=1.22D-02 DE=-1.11D-02 OVMax= 7.99D-02

 Cycle   5  Pass 1  IDiag  1:
 RMSU=  9.35D-05    CP:  9.00D-01  2.33D+00  1.21D+00  1.63D+00
 E= -466.846607300754     Delta-E=       -0.004948920452 Rises=F Damp=F
 DIIS: error= 2.53D-03 at cycle   5 NSaved=   5.
 NSaved= 5 IEnMin= 5 EnMin= -466.846607300754     IErMin= 5 ErrMin= 2.53D-03
 ErrMax= 2.53D-03  0.00D+00 EMaxC= 1.00D-01 BMatC= 9.93D-04 BMatP= 2.17D-03
 IDIUse=3 WtCom= 9.75D-01 WtEn= 2.53D-02
 Coeff-Com:  0.793D-01-0.170D+00-0.890D-01 0.446D+00 0.734D+00
 Coeff-En:   0.000D+00 0.000D+00 0.000D+00 0.000D+00 0.100D+01
 Coeff:      0.773D-01-0.166D+00-0.868D-01 0.435D+00 0.741D+00
 Gap=     0.305 Goal=   None    Shift=    0.000
 Gap=     0.305 Goal=   None    Shift=    0.000
 RMSDP=8.69D-05 MaxDP=4.02D-03 DE=-4.95D-03 OVMax= 3.12D-02

 Cycle   6  Pass 1  IDiag  1:
 RMSU=  3.43D-05    CP:  8.97D-01  2.34D+00  1.26D+00  1.93D+00  1.38D+00
 E= -466.848111649553     Delta-E=       -0.001504348799 Rises=F Damp=F
 DIIS: error= 1.83D-03 at cycle   6 NSaved=   6.
 NSaved= 6 IEnMin= 6 EnMin= -466.848111649553     IErMin= 6 ErrMin= 1.83D-03
 ErrMax= 1.83D-03  0.00D+00 EMaxC= 1.00D-01 BMatC= 5.49D-04 BMatP= 9.93D-04
 IDIUse=3 WtCom= 9.82D-01 WtEn= 1.83D-02
 Coeff-Com: -0.733D-01 0.157D+00 0.574D-01-0.533D+00 0.610D-02 0.139D+01
 Coeff-En:   0.000D+00 0.000D+00 0.000D+00 0.000D+00 0.000D+00 0.100D+01
 Coeff:     -0.720D-01 0.154D+00 0.563D-01-0.523D+00 0.599D-02 0.138D+01
 Gap=     0.301 Goal=   None    Shift=    0.000
 Gap=     0.301 Goal=   None    Shift=    0.000
 RMSDP=1.07D-04 MaxDP=4.13D-03 DE=-1.50D-03 OVMax= 3.97D-02

 Cycle   7  Pass 1  IDiag  1:
 RMSU=  3.27D-05    CP:  8.95D-01  2.35D+00  1.29D+00  2.23D+00  2.06D+00
                    CP:  2.12D+00
 E= -466.849793009039     Delta-E=       -0.001681359486 Rises=F Damp=F
 DIIS: error= 1.20D-03 at cycle   7 NSaved=   7.
 NSaved= 7 IEnMin= 7 EnMin= -466.849793009039     IErMin= 7 ErrMin= 1.20D-03
 ErrMax= 1.20D-03  0.00D+00 EMaxC= 1.00D-01 BMatC= 2.95D-04 BMatP= 5.49D-04
 IDIUse=3 WtCom= 9.88D-01 WtEn= 1.20D-02
 Coeff-Com: -0.260D-01 0.564D-01 0.469D-01 0.118D-01-0.600D+00-0.740D+00
 Coeff-Com:  0.225D+01
 Coeff-En:   0.000D+00 0.000D+00 0.000D+00 0.000D+00 0.000D+00 0.000D+00
 Coeff-En:   0.100D+01
 Coeff:     -0.257D-01 0.557D-01 0.463D-01 0.116D-01-0.592D+00-0.731D+00
 Coeff:      0.224D+01
 Gap=     0.301 Goal=   None    Shift=    0.000
 Gap=     0.301 Goal=   None    Shift=    0.000
 RMSDP=1.48D-04 MaxDP=7.08D-03 DE=-1.68D-03 OVMax= 5.63D-02

 Cycle   8  Pass 1  IDiag  1:
 RMSU=  4.85D-05    CP:  8.92D-01  2.34D+00  1.33D+00  2.56D+00  2.94D+00
                    CP:  3.00D+00  2.79D+00
 E= -466.851390017644     Delta-E=       -0.001597008604 Rises=F Damp=F
 DIIS: error= 4.83D-04 at cycle   8 NSaved=   8.
 NSaved= 8 IEnMin= 8 EnMin= -466.851390017644     IErMin= 8 ErrMin= 4.83D-04
 ErrMax= 4.83D-04  0.00D+00 EMaxC= 1.00D-01 BMatC= 8.73D-05 BMatP= 2.95D-04
 IDIUse=3 WtCom= 9.95D-01 WtEn= 4.83D-03
 Coeff-Com:  0.278D-01-0.597D-01-0.982D-02 0.297D+00-0.189D+00-0.946D+00
 Coeff-Com:  0.713D+00 0.117D+01
 Coeff-En:   0.000D+00 0.000D+00 0.000D+00 0.000D+00 0.000D+00 0.000D+00
 Coeff-En:   0.000D+00 0.100D+01
 Coeff:      0.277D-01-0.594D-01-0.978D-02 0.295D+00-0.188D+00-0.942D+00
 Coeff:      0.710D+00 0.117D+01
 Gap=     0.303 Goal=   None    Shift=    0.000
 Gap=     0.303 Goal=   None    Shift=    0.000
 RMSDP=8.19D-05 MaxDP=4.10D-03 DE=-1.60D-03 OVMax= 3.15D-02

 Cycle   9  Pass 1  IDiag  1:
 RMSU=  4.92D-05    CP:  8.91D-01  2.34D+00  1.36D+00  2.70D+00  3.00D+00
                    CP:  3.00D+00  3.00D+00  1.97D+00
 E= -466.851775928528     Delta-E=       -0.000385910885 Rises=F Damp=F
 DIIS: error= 1.67D-04 at cycle   9 NSaved=   9.
 NSaved= 9 IEnMin= 9 EnMin= -466.851775928528     IErMin= 9 ErrMin= 1.67D-04
 ErrMax= 1.67D-04  0.00D+00 EMaxC= 1.00D-01 BMatC= 1.78D-05 BMatP= 8.73D-05
 IDIUse=3 WtCom= 9.98D-01 WtEn= 1.67D-03
 Coeff-Com:  0.181D-01-0.390D-01-0.133D-01 0.133D+00 0.337D-01-0.272D+00
 Coeff-Com: -0.122D+00 0.445D+00 0.817D+00
 Coeff-En:   0.000D+00 0.000D+00 0.000D+00 0.000D+00 0.000D+00 0.000D+00
 Coeff-En:   0.000D+00 0.000D+00 0.100D+01
 Coeff:      0.181D-01-0.390D-01-0.133D-01 0.132D+00 0.336D-01-0.272D+00
 Coeff:     -0.122D+00 0.444D+00 0.817D+00
 Gap=     0.303 Goal=   None    Shift=    0.000
 Gap=     0.303 Goal=   None    Shift=    0.000
 RMSDP=2.29D-05 MaxDP=1.17D-03 DE=-3.86D-04 OVMax= 8.88D-03

 Cycle  10  Pass 1  IDiag  1:
 RMSU=  6.40D-06    CP:  8.91D-01  2.34D+00  1.36D+00  2.73D+00  3.00D+00
                    CP:  3.00D+00  3.00D+00  2.25D+00  1.31D+00
 E= -466.851813765957     Delta-E=       -0.000037837429 Rises=F Damp=F
 DIIS: error= 7.79D-05 at cycle  10 NSaved=  10.
 NSaved=10 IEnMin=10 EnMin= -466.851813765957     IErMin=10 ErrMin= 7.79D-05
 ErrMax= 7.79D-05  0.00D+00 EMaxC= 1.00D-01 BMatC= 2.56D-06 BMatP= 1.78D-05
 IDIUse=1 WtCom= 1.00D+00 WtEn= 0.00D+00
 Coeff-Com: -0.107D-02 0.234D-02-0.106D-02-0.291D-01 0.391D-01 0.120D+00
 Coeff-Com: -0.141D+00-0.189D+00 0.128D+00 0.107D+01
 Coeff:     -0.107D-02 0.234D-02-0.106D-02-0.291D-01 0.391D-01 0.120D+00
 Coeff:     -0.141D+00-0.189D+00 0.128D+00 0.107D+01
 Gap=     0.302 Goal=   None    Shift=    0.000
 Gap=     0.302 Goal=   None    Shift=    0.000
 RMSDP=1.17D-05 MaxDP=5.27D-04 DE=-3.78D-05 OVMax= 4.54D-03

 Cycle  11  Pass 1  IDiag  1:
 RMSU=  3.22D-06    CP:  8.90D-01  2.34D+00  1.37D+00  2.75D+00  3.00D+00
                    CP:  3.00D+00  3.00D+00  2.38D+00  1.47D+00  1.55D+00
 E= -466.851819888284     Delta-E=       -0.000006122327 Rises=F Damp=F
 DIIS: error= 2.65D-05 at cycle  11 NSaved=  11.
 NSaved=11 IEnMin=11 EnMin= -466.851819888284     IErMin=11 ErrMin= 2.65D-05
 ErrMax= 2.65D-05  0.00D+00 EMaxC= 1.00D-01 BMatC= 5.74D-07 BMatP= 2.56D-06
 IDIUse=1 WtCom= 1.00D+00 WtEn= 0.00D+00
 Coeff-Com: -0.201D-02 0.435D-02 0.804D-03-0.230D-01 0.104D-01 0.662D-01
 Coeff-Com: -0.327D-01-0.119D+00-0.425D-01 0.431D+00 0.707D+00
 Coeff:     -0.201D-02 0.435D-02 0.804D-03-0.230D-01 0.104D-01 0.662D-01
 Coeff:     -0.327D-01-0.119D+00-0.425D-01 0.431D+00 0.707D+00
 Gap=     0.302 Goal=   None    Shift=    0.000
 Gap=     0.302 Goal=   None    Shift=    0.000
 RMSDP=2.13D-06 MaxDP=9.87D-05 DE=-6.12D-06 OVMax= 7.25D-04

 Cycle  12  Pass 1  IDiag  1:
 RMSU=  9.92D-07    CP:  8.90D-01  2.34D+00  1.37D+00  2.75D+00  3.00D+00
                    CP:  3.00D+00  3.00D+00  2.39D+00  1.49D+00  1.65D+00
                    CP:  1.18D+00
 E= -466.851820265452     Delta-E=       -0.000000377168 Rises=F Damp=F
 DIIS: error= 1.44D-05 at cycle  12 NSaved=  12.
 NSaved=12 IEnMin=12 EnMin= -466.851820265452     IErMin=12 ErrMin= 1.44D-05
 ErrMax= 1.44D-05  0.00D+00 EMaxC= 1.00D-01 BMatC= 7.26D-08 BMatP= 5.74D-07
 IDIUse=1 WtCom= 1.00D+00 WtEn= 0.00D+00
 Coeff-Com:  0.608D-03-0.132D-02-0.177D-03 0.820D-02-0.517D-02-0.283D-01
 Coeff-Com:  0.243D-01 0.427D-01-0.866D-02-0.215D+00-0.330D-01 0.122D+01
 Coeff:      0.608D-03-0.132D-02-0.177D-03 0.820D-02-0.517D-02-0.283D-01
 Coeff:      0.243D-01 0.427D-01-0.866D-02-0.215D+00-0.330D-01 0.122D+01
 Gap=     0.302 Goal=   None    Shift=    0.000
 Gap=     0.302 Goal=   None    Shift=    0.000
 RMSDP=9.44D-07 MaxDP=3.34D-05 DE=-3.77D-07 OVMax= 1.58D-04

 Cycle  13  Pass 1  IDiag  1:
 RMSU=  5.59D-07    CP:  8.90D-01  2.34D+00  1.37D+00  2.75D+00  3.00D+00
                    CP:  3.00D+00  3.00D+00  2.39D+00  1.49D+00  1.65D+00
                    CP:  1.30D+00  1.59D+00
 E= -466.851820372970     Delta-E=       -0.000000107518 Rises=F Damp=F
 DIIS: error= 7.59D-06 at cycle  13 NSaved=  13.
 NSaved=13 IEnMin=13 EnMin= -466.851820372970     IErMin=13 ErrMin= 7.59D-06
 ErrMax= 7.59D-06  0.00D+00 EMaxC= 1.00D-01 BMatC= 1.88D-08 BMatP= 7.26D-08
 IDIUse=1 WtCom= 1.00D+00 WtEn= 0.00D+00
 Coeff-Com: -0.247D-04 0.566D-04 0.726D-04 0.304D-03-0.577D-03-0.127D-02
 Coeff-Com:  0.672D-03 0.527D-02 0.638D-03-0.278D-01-0.882D-01-0.145D+00
 Coeff-Com:  0.126D+01
 Coeff:     -0.247D-04 0.566D-04 0.726D-04 0.304D-03-0.577D-03-0.127D-02
 Coeff:      0.672D-03 0.527D-02 0.638D-03-0.278D-01-0.882D-01-0.145D+00
 Coeff:      0.126D+01
 Gap=     0.302 Goal=   None    Shift=    0.000
 Gap=     0.302 Goal=   None    Shift=    0.000
 RMSDP=4.45D-07 MaxDP=2.61D-05 DE=-1.08D-07 OVMax= 1.08D-04

 Cycle  14  Pass 1  IDiag  1:
 RMSU=  2.92D-07    CP:  8.90D-01  2.34D+00  1.37D+00  2.75D+00  3.00D+00
                    CP:  3.00D+00  3.00D+00  2.39D+00  1.50D+00  1.67D+00
                    CP:  1.33D+00  1.73D+00  1.44D+00
 E= -466.851820410479     Delta-E=       -0.000000037509 Rises=F Damp=F
 DIIS: error= 4.30D-06 at cycle  14 NSaved=  14.
 NSaved=14 IEnMin=14 EnMin= -466.851820410479     IErMin=14 ErrMin= 4.30D-06
 ErrMax= 4.30D-06  0.00D+00 EMaxC= 1.00D-01 BMatC= 6.33D-09 BMatP= 1.88D-08
 IDIUse=1 WtCom= 1.00D+00 WtEn= 0.00D+00
 Coeff-Com: -0.262D-03 0.567D-03 0.146D-03-0.286D-02 0.132D-02 0.927D-02
 Coeff-Com: -0.758D-02-0.131D-01 0.262D-02 0.688D-01 0.162D-02-0.419D+00
 Coeff-Com:  0.442D-01 0.131D+01
 Coeff:     -0.262D-03 0.567D-03 0.146D-03-0.286D-02 0.132D-02 0.927D-02
 Coeff:     -0.758D-02-0.131D-01 0.262D-02 0.688D-01 0.162D-02-0.419D+00
 Coeff:      0.442D-01 0.131D+01
 Gap=     0.302 Goal=   None    Shift=    0.000
 Gap=     0.302 Goal=   None    Shift=    0.000
 RMSDP=3.51D-07 MaxDP=1.67D-05 DE=-3.75D-08 OVMax= 8.17D-05

 Cycle  15  Pass 1  IDiag  1:
 RMSU=  1.38D-07    CP:  8.90D-01  2.34D+00  1.37D+00  2.75D+00  3.00D+00
                    CP:  3.00D+00  3.00D+00  2.39D+00  1.49D+00  1.68D+00
                    CP:  1.33D+00  1.77D+00  1.74D+00  1.90D+00
 E= -466.851820425033     Delta-E=       -0.000000014554 Rises=F Damp=F
 DIIS: error= 1.63D-06 at cycle  15 NSaved=  15.
 NSaved=15 IEnMin=15 EnMin= -466.851820425033     IErMin=15 ErrMin= 1.63D-06
 ErrMax= 1.63D-06  0.00D+00 EMaxC= 1.00D-01 BMatC= 1.09D-09 BMatP= 6.33D-09
 IDIUse=1 WtCom= 1.00D+00 WtEn= 0.00D+00
 Coeff-Com:  0.815D-05-0.183D-04-0.304D-04-0.137D-03 0.327D-03 0.824D-03
 Coeff-Com: -0.139D-02-0.149D-02 0.224D-02 0.143D-01 0.163D-01-0.267D-01
 Coeff-Com: -0.297D+00 0.173D+00 0.112D+01
 Coeff:      0.815D-05-0.183D-04-0.304D-04-0.137D-03 0.327D-03 0.824D-03
 Coeff:     -0.139D-02-0.149D-02 0.224D-02 0.143D-01 0.163D-01-0.267D-01
 Coeff:     -0.297D+00 0.173D+00 0.112D+01
 Gap=     0.302 Goal=   None    Shift=    0.000
 Gap=     0.302 Goal=   None    Shift=    0.000
 RMSDP=1.76D-07 MaxDP=7.28D-06 DE=-1.46D-08 OVMax= 4.08D-05

 Cycle  16  Pass 1  IDiag  1:
 RMSU=  5.70D-08    CP:  8.90D-01  2.34D+00  1.37D+00  2.75D+00  3.00D+00
                    CP:  3.00D+00  3.00D+00  2.39D+00  1.49D+00  1.68D+00
                    CP:  1.33D+00  1.76D+00  1.84D+00  2.30D+00  1.52D+00
 E= -466.851820427124     Delta-E=       -0.000000002091 Rises=F Damp=F
 DIIS: error= 3.87D-07 at cycle  16 NSaved=  16.
 NSaved=16 IEnMin=16 EnMin= -466.851820427124     IErMin=16 ErrMin= 3.87D-07
 ErrMax= 3.87D-07  0.00D+00 EMaxC= 1.00D-01 BMatC= 1.16D-10 BMatP= 1.09D-09
 IDIUse=1 WtCom= 1.00D+00 WtEn= 0.00D+00
 Coeff-Com:  0.108D-04-0.236D-04-0.116D-04 0.120D-03-0.179D-04-0.331D-03
 Coeff-Com:  0.191D-03 0.532D-03 0.136D-03-0.272D-02 0.462D-02 0.351D-01
 Coeff-Com: -0.762D-01-0.107D+00 0.281D+00 0.865D+00
 Coeff:      0.108D-04-0.236D-04-0.116D-04 0.120D-03-0.179D-04-0.331D-03
 Coeff:      0.191D-03 0.532D-03 0.136D-03-0.272D-02 0.462D-02 0.351D-01
 Coeff:     -0.762D-01-0.107D+00 0.281D+00 0.865D+00
 Gap=     0.302 Goal=   None    Shift=    0.000
 Gap=     0.302 Goal=   None    Shift=    0.000
 RMSDP=4.07D-08 MaxDP=1.97D-06 DE=-2.09D-09 OVMax= 7.82D-06

 Cycle  17  Pass 1  IDiag  1:
 RMSU=  1.65D-08    CP:  8.90D-01  2.34D+00  1.37D+00  2.75D+00  3.00D+00
                    CP:  3.00D+00  3.00D+00  2.39D+00  1.49D+00  1.68D+00
                    CP:  1.33D+00  1.76D+00  1.85D+00  2.37D+00  1.66D+00
                    CP:  1.34D+00
 E= -466.851820427222     Delta-E=       -0.000000000098 Rises=F Damp=F
 DIIS: error= 9.34D-08 at cycle  17 NSaved=  17.
 NSaved=17 IEnMin=17 EnMin= -466.851820427222     IErMin=17 ErrMin= 9.34D-08
 ErrMax= 9.34D-08  0.00D+00 EMaxC= 1.00D-01 BMatC= 1.12D-11 BMatP= 1.16D-10
 IDIUse=1 WtCom= 1.00D+00 WtEn= 0.00D+00
 Coeff-Com: -0.940D-06 0.210D-05 0.738D-06 0.357D-05-0.199D-04-0.733D-05
 Coeff-Com:  0.567D-04 0.105D-03-0.219D-03-0.147D-02-0.516D-03 0.732D-02
 Coeff-Com:  0.173D-01-0.351D-01-0.689D-01 0.161D+00 0.920D+00
 Coeff:     -0.940D-06 0.210D-05 0.738D-06 0.357D-05-0.199D-04-0.733D-05
 Coeff:      0.567D-04 0.105D-03-0.219D-03-0.147D-02-0.516D-03 0.732D-02
 Coeff:      0.173D-01-0.351D-01-0.689D-01 0.161D+00 0.920D+00
 Gap=     0.302 Goal=   None    Shift=    0.000
 Gap=     0.302 Goal=   None    Shift=    0.000
 RMSDP=1.23D-08 MaxDP=4.62D-07 DE=-9.79D-11 OVMax= 1.74D-06

 Cycle  18  Pass 1  IDiag  1:
 RMSU=  6.04D-09    CP:  8.90D-01  2.34D+00  1.37D+00  2.75D+00  3.00D+00
                    CP:  3.00D+00  3.00D+00  2.39D+00  1.49D+00  1.68D+00
                    CP:  1.33D+00  1.75D+00  1.85D+00  2.37D+00  1.70D+00
                    CP:  1.46D+00  1.21D+00
 E= -466.851820427230     Delta-E=       -0.000000000008 Rises=F Damp=F
 DIIS: error= 2.90D-08 at cycle  18 NSaved=  18.
 NSaved=18 IEnMin=18 EnMin= -466.851820427230     IErMin=18 ErrMin= 2.90D-08
 ErrMax= 2.90D-08  0.00D+00 EMaxC= 1.00D-01 BMatC= 1.22D-12 BMatP= 1.12D-11
 IDIUse=1 WtCom= 1.00D+00 WtEn= 0.00D+00
 Coeff-Com:  0.401D-06-0.867D-06 0.421D-06 0.266D-05-0.107D-04 0.188D-06
 Coeff-Com:  0.273D-05 0.222D-04-0.240D-04-0.116D-03-0.630D-03-0.203D-02
 Coeff-Com:  0.110D-01 0.479D-02-0.408D-01-0.699D-01 0.144D+00 0.953D+00
 Coeff:      0.401D-06-0.867D-06 0.421D-06 0.266D-05-0.107D-04 0.188D-06
 Coeff:      0.273D-05 0.222D-04-0.240D-04-0.116D-03-0.630D-03-0.203D-02
 Coeff:      0.110D-01 0.479D-02-0.408D-01-0.699D-01 0.144D+00 0.953D+00
 Gap=     0.302 Goal=   None    Shift=    0.000
 Gap=     0.302 Goal=   None    Shift=    0.000
 RMSDP=4.28D-09 MaxDP=1.96D-07 DE=-7.96D-12 OVMax= 4.66D-07

 Error on total polarization charges =  0.01181
 SCF Done:  E(UwB97XD) =  -466.851820427     A.U. after   18 cycles
            NFock= 18  Conv=0.43D-08     -V/T= 2.0057
 <Sx>= 0.0000 <Sy>= 0.0000 <Sz>= 0.0000 <S**2>= 0.0000 S= 0.0000
 <L.S>=  0.00000000000    
 KE= 4.642215182382D+02 PE=-2.444571200707D+03 EE= 8.321021699030D+02
 --------------------------------------------------------------------
 Variational PCM results
 =======================
 <psi(f)|   H    |psi(f)>                     (a.u.) =    -466.850275
 <psi(f)|H+V(f)/2|psi(f)>                     (a.u.) =    -466.851820
 (Polarized solute)-Solvent               (kcal/mol) =      -0.97
 --------------------------------------------------------------------
 Partition over spheres:
 Sphere  on Atom  Surface  Charge   GEl     GCav    GDR
    1      C1       7.21   0.011   -0.05    0.00    0.00
    2      C2       4.43   0.006   -0.04    0.00    0.00
    3      H3       7.52  -0.010   -0.04    0.00    0.00
    4      H4       2.28  -0.003   -0.01    0.00    0.00
    5      C5       4.61   0.009   -0.06    0.00    0.00
    6      C6       4.61   0.007   -0.04    0.00    0.00
    7      H7       4.60  -0.006   -0.03    0.00    0.00
    8      H8       3.17  -0.004   -0.01    0.00    0.00
    9      C9       3.10   0.002    0.00    0.00    0.00
   10      H10      6.86  -0.007   -0.01    0.00    0.00
   11      H11      2.56  -0.002   -0.01    0.00    0.00
   12      C12      6.42   0.010   -0.06    0.00    0.00
   13      H13      7.52  -0.010   -0.03    0.00    0.00
   14      C14      7.35   0.011   -0.05    0.00    0.00
   15      H15      7.52  -0.010   -0.04    0.00    0.00
   16      C16      3.66   0.001    0.00    0.00    0.00
   17      H17      3.61  -0.004   -0.01    0.00    0.00
   18      H18      6.94  -0.008   -0.03    0.00    0.00
   19      C19      5.12   0.010   -0.07    0.00    0.00
   20      H20      5.29  -0.008   -0.03    0.00    0.00
   21      C21      6.66   0.010   -0.06    0.00    0.00
   22      H22      7.51  -0.010   -0.03    0.00    0.00
   23      C23      3.59   0.002    0.00    0.00    0.00
   24      H24      3.90  -0.003   -0.01    0.00    0.00
   25      H25      6.81  -0.007   -0.01    0.00    0.00
   26      C26      3.26   0.001    0.00    0.00    0.00
   27      H27      6.94  -0.008   -0.03    0.00    0.00
   28      H28      3.64  -0.004   -0.01    0.00    0.00
 Added spheres:    73.75   0.010   -0.21    0.00    0.00
 --------------------------------------------------------------------
 After PCM corrections, the energy is  -466.851820427     a.u.
 --------------------------------------------------------------------
 Annihilation of the first spin contaminant:
 S**2 before annihilation     0.0000,   after    -0.0000
 Leave Link  502 at Mon Aug  3 15:10:27 2020, MaxMem=  6442450944 cpu:            7579.4 elap:             318.6
 (Enter /scratch/scicomp/CentOS/7.3.1611/Haswell/software/Gaussian/g16/l601.exe)
 Copying SCF densities to generalized density rwf, IOpCl= 1 IROHF=0.

 **********************************************************************

            Population analysis using the SCF Density.

 **********************************************************************

 Alpha  occ. eigenvalues --  -10.28600 -10.28600 -10.28291 -10.28291 -10.28267
 Alpha  occ. eigenvalues --  -10.28267 -10.28221 -10.28221 -10.28020 -10.28020
 Alpha  occ. eigenvalues --  -10.27449 -10.27448  -0.94403  -0.93569  -0.84535
 Alpha  occ. eigenvalues --   -0.84328  -0.83725  -0.83723  -0.71652  -0.71166
 Alpha  occ. eigenvalues --   -0.68191  -0.67947  -0.59879  -0.59751  -0.57525
 Alpha  occ. eigenvalues --   -0.56588  -0.53780  -0.52914  -0.51043  -0.51025
 Alpha  occ. eigenvalues --   -0.49915  -0.49288  -0.47561  -0.46928  -0.45558
 Alpha  occ. eigenvalues --   -0.45016  -0.41452  -0.41034  -0.39887  -0.39307
 Alpha  occ. eigenvalues --   -0.39245  -0.38880  -0.30020  -0.27193
 Alpha virt. eigenvalues --    0.03013   0.05466   0.10518   0.12326   0.13403
 Alpha virt. eigenvalues --    0.14549   0.14894   0.15700   0.15809   0.15836
 Alpha virt. eigenvalues --    0.16666   0.16961   0.17306   0.18229   0.19973
 Alpha virt. eigenvalues --    0.21185   0.21434   0.22871   0.23521   0.24084
 Alpha virt. eigenvalues --    0.24618   0.25351   0.25816   0.26632   0.27837
 Alpha virt. eigenvalues --    0.28375   0.29167   0.29390   0.30239   0.30593
 Alpha virt. eigenvalues --    0.31202   0.31574   0.32421   0.32777   0.33740
 Alpha virt. eigenvalues --    0.33957   0.34500   0.35713   0.36213   0.37335
 Alpha virt. eigenvalues --    0.38201   0.38573   0.41266   0.41432   0.41761
 Alpha virt. eigenvalues --    0.41782   0.43989   0.44053   0.45030   0.45653
 Alpha virt. eigenvalues --    0.46578   0.47185   0.47892   0.47954   0.48517
 Alpha virt. eigenvalues --    0.48833   0.48859   0.49144   0.49667   0.49999
 Alpha virt. eigenvalues --    0.50419   0.50440   0.52089   0.52121   0.52735
 Alpha virt. eigenvalues --    0.53171   0.54084   0.54299   0.55072   0.55107
 Alpha virt. eigenvalues --    0.56921   0.57321   0.57477   0.59151   0.60285
 Alpha virt. eigenvalues --    0.60596   0.60852   0.61750   0.62923   0.65301
 Alpha virt. eigenvalues --    0.65816   0.66363   0.67931   0.68185   0.68467
 Alpha virt. eigenvalues --    0.68995   0.72120   0.73389   0.74236   0.75096
 Alpha virt. eigenvalues --    0.78002   0.78022   0.78535   0.79951   0.79963
 Alpha virt. eigenvalues --    0.81490   0.82755   0.83722   0.86048   0.87429
 Alpha virt. eigenvalues --    0.89626   0.90491   0.90670   0.92446   0.93190
 Alpha virt. eigenvalues --    0.94420   0.96251   0.96566   0.98305   0.98842
 Alpha virt. eigenvalues --    1.00995   1.03409   1.04498   1.05001   1.05136
 Alpha virt. eigenvalues --    1.06832   1.07617   1.07766   1.10333   1.10763
 Alpha virt. eigenvalues --    1.12459   1.13210   1.14072   1.14997   1.16075
 Alpha virt. eigenvalues --    1.16720   1.17583   1.18359   1.18871   1.19783
 Alpha virt. eigenvalues --    1.20158   1.20743   1.23416   1.24986   1.25054
 Alpha virt. eigenvalues --    1.25860   1.26360   1.27941   1.28678   1.28833
 Alpha virt. eigenvalues --    1.29787   1.31407   1.31546   1.32170   1.32663
 Alpha virt. eigenvalues --    1.34064   1.34630   1.37031   1.37575   1.37759
 Alpha virt. eigenvalues --    1.38390   1.39311   1.40881   1.40881   1.42021
 Alpha virt. eigenvalues --    1.42710   1.42998   1.43425   1.44065   1.44701
 Alpha virt. eigenvalues --    1.45304   1.46002   1.47333   1.48464   1.48925
 Alpha virt. eigenvalues --    1.49753   1.51227   1.53233   1.54010   1.56304
 Alpha virt. eigenvalues --    1.58185   1.58199   1.59267   1.60704   1.61492
 Alpha virt. eigenvalues --    1.62773   1.63494   1.64030   1.66227   1.66687
 Alpha virt. eigenvalues --    1.68095   1.70895   1.74548   1.74773   1.78370
 Alpha virt. eigenvalues --    1.80561   1.81172   1.81895   1.83376   1.85161
 Alpha virt. eigenvalues --    1.87382   1.88210   1.90561   1.91420   1.92816
 Alpha virt. eigenvalues --    1.93075   1.96911   1.98255   1.99588   2.00806
 Alpha virt. eigenvalues --    2.03077   2.03500   2.09143   2.09578   2.10066
 Alpha virt. eigenvalues --    2.12352   2.12399   2.12896   2.15542   2.15689
 Alpha virt. eigenvalues --    2.17551   2.20261   2.20600   2.21513   2.22924
 Alpha virt. eigenvalues --    2.23725   2.24777   2.25388   2.27943   2.29181
 Alpha virt. eigenvalues --    2.34263   2.36172   2.38147   2.40259   2.41967
 Alpha virt. eigenvalues --    2.44064   2.45170   2.45480   2.49060   2.49324
 Alpha virt. eigenvalues --    2.50115   2.50448   2.52220   2.55028   2.55601
 Alpha virt. eigenvalues --    2.57617   2.57707   2.59406   2.62115   2.62697
 Alpha virt. eigenvalues --    2.62794   2.64457   2.65346   2.65485   2.65890
 Alpha virt. eigenvalues --    2.66998   2.67822   2.70853   2.72445   2.72840
 Alpha virt. eigenvalues --    2.73106   2.74387   2.75285   2.75730   2.76923
 Alpha virt. eigenvalues --    2.78333   2.78682   2.80409   2.80652   2.81271
 Alpha virt. eigenvalues --    2.82230   2.82593   2.83246   2.84271   2.85647
 Alpha virt. eigenvalues --    2.86102   2.87339   2.87429   2.88559   2.89881
 Alpha virt. eigenvalues --    2.91361   2.92382   2.92578   2.93824   2.95034
 Alpha virt. eigenvalues --    2.96011   2.96466   2.96934   2.98017   3.01014
 Alpha virt. eigenvalues --    3.01235   3.02471   3.03583   3.05323   3.05787
 Alpha virt. eigenvalues --    3.06958   3.09013   3.09665   3.10882   3.11135
 Alpha virt. eigenvalues --    3.11775   3.13198   3.13636   3.14592   3.15534
 Alpha virt. eigenvalues --    3.15659   3.16767   3.16940   3.18663   3.18813
 Alpha virt. eigenvalues --    3.20065   3.20700   3.20852   3.21097   3.21384
 Alpha virt. eigenvalues --    3.22286   3.22870   3.22955   3.23950   3.25119
 Alpha virt. eigenvalues --    3.25632   3.26277   3.27334   3.27421   3.28173
 Alpha virt. eigenvalues --    3.28521   3.30133   3.30879   3.31464   3.32335
 Alpha virt. eigenvalues --    3.32350   3.33152   3.33766   3.35289   3.36120
 Alpha virt. eigenvalues --    3.36395   3.36668   3.37929   3.38942   3.39436
 Alpha virt. eigenvalues --    3.42578   3.42830   3.43248   3.44563   3.44730
 Alpha virt. eigenvalues --    3.45751   3.45945   3.46840   3.47375   3.47477
 Alpha virt. eigenvalues --    3.48509   3.49682   3.49888   3.51299   3.53011
 Alpha virt. eigenvalues --    3.53696   3.53803   3.55024   3.55091   3.56631
 Alpha virt. eigenvalues --    3.57925   3.59343   3.59651   3.61635   3.65295
 Alpha virt. eigenvalues --    3.65605   3.66763   3.68067   3.68597   3.69618
 Alpha virt. eigenvalues --    3.70819   3.71270   3.73574   3.73749   3.74553
 Alpha virt. eigenvalues --    3.78580   3.78751   3.79746   3.81615   3.83920
 Alpha virt. eigenvalues --    3.85096   3.85420   3.85631   3.87505   3.88663
 Alpha virt. eigenvalues --    3.90410   3.91492   3.93913   3.94621   3.96703
 Alpha virt. eigenvalues --    3.99226   4.01573   4.01791   4.03130   4.05684
 Alpha virt. eigenvalues --    4.07289   4.08754   4.09125   4.09335   4.11269
 Alpha virt. eigenvalues --    4.12760   4.13199   4.15356   4.15716   4.18565
 Alpha virt. eigenvalues --    4.19192   4.22055   4.22318   4.22744   4.26014
 Alpha virt. eigenvalues --    4.26515   4.27518   4.31344   4.31528   4.35864
 Alpha virt. eigenvalues --    4.36372   4.37897   4.39231   4.40986   4.42897
 Alpha virt. eigenvalues --    4.45673   4.47420   4.49014   4.49754   4.53291
 Alpha virt. eigenvalues --    4.55081   4.59735   4.61743   4.65966   4.67685
 Alpha virt. eigenvalues --    4.69330   4.69736   4.72942   4.74701   4.76285
 Alpha virt. eigenvalues --    4.78129   4.80633   4.82337   4.84710   4.85331
 Alpha virt. eigenvalues --    4.85528   4.87986   4.92935   4.95525   4.95793
 Alpha virt. eigenvalues --    4.98323   5.02599   5.02871   5.07415   5.08179
 Alpha virt. eigenvalues --    5.14061   5.16771   5.19004   5.22332   5.23435
 Alpha virt. eigenvalues --    5.23796   5.33846   5.34478   5.41374   5.42642
 Alpha virt. eigenvalues --    5.44930   5.45699   5.50803   5.53853   5.71017
 Alpha virt. eigenvalues --    5.71430   5.77426   5.79225   5.96321   6.02402
 Alpha virt. eigenvalues --    7.94581   7.95290   8.01205   8.04145   8.05115
 Alpha virt. eigenvalues --    8.09407   8.09963   8.13263   8.16886   8.19555
 Alpha virt. eigenvalues --    8.35597   8.36370  34.76480  34.77696  34.81251
 Alpha virt. eigenvalues --   34.81603  34.84707  34.90439  34.95837  34.99992
 Alpha virt. eigenvalues --   35.01306  35.02157  35.17540  35.18058
  Beta  occ. eigenvalues --  -10.28600 -10.28600 -10.28291 -10.28291 -10.28267
  Beta  occ. eigenvalues --  -10.28267 -10.28221 -10.28221 -10.28020 -10.28020
  Beta  occ. eigenvalues --  -10.27449 -10.27448  -0.94403  -0.93569  -0.84535
  Beta  occ. eigenvalues --   -0.84328  -0.83725  -0.83723  -0.71652  -0.71166
  Beta  occ. eigenvalues --   -0.68191  -0.67947  -0.59879  -0.59751  -0.57525
  Beta  occ. eigenvalues --   -0.56588  -0.53780  -0.52914  -0.51043  -0.51025
  Beta  occ. eigenvalues --   -0.49915  -0.49288  -0.47561  -0.46928  -0.45558
  Beta  occ. eigenvalues --   -0.45016  -0.41452  -0.41034  -0.39887  -0.39307
  Beta  occ. eigenvalues --   -0.39245  -0.38880  -0.30020  -0.27193
  Beta virt. eigenvalues --    0.03013   0.05466   0.10518   0.12326   0.13403
  Beta virt. eigenvalues --    0.14549   0.14894   0.15700   0.15809   0.15836
  Beta virt. eigenvalues --    0.16666   0.16961   0.17306   0.18229   0.19973
  Beta virt. eigenvalues --    0.21185   0.21434   0.22871   0.23521   0.24084
  Beta virt. eigenvalues --    0.24618   0.25351   0.25816   0.26632   0.27837
  Beta virt. eigenvalues --    0.28375   0.29167   0.29390   0.30239   0.30593
  Beta virt. eigenvalues --    0.31202   0.31574   0.32421   0.32777   0.33740
  Beta virt. eigenvalues --    0.33957   0.34500   0.35713   0.36213   0.37335
  Beta virt. eigenvalues --    0.38201   0.38573   0.41266   0.41432   0.41761
  Beta virt. eigenvalues --    0.41782   0.43989   0.44053   0.45030   0.45653
  Beta virt. eigenvalues --    0.46578   0.47185   0.47892   0.47954   0.48517
  Beta virt. eigenvalues --    0.48833   0.48859   0.49144   0.49667   0.49999
  Beta virt. eigenvalues --    0.50419   0.50440   0.52089   0.52121   0.52735
  Beta virt. eigenvalues --    0.53171   0.54084   0.54299   0.55072   0.55107
  Beta virt. eigenvalues --    0.56921   0.57321   0.57477   0.59151   0.60285
  Beta virt. eigenvalues --    0.60596   0.60852   0.61750   0.62923   0.65301
  Beta virt. eigenvalues --    0.65816   0.66363   0.67931   0.68185   0.68467
  Beta virt. eigenvalues --    0.68995   0.72120   0.73389   0.74236   0.75096
  Beta virt. eigenvalues --    0.78002   0.78022   0.78535   0.79951   0.79963
  Beta virt. eigenvalues --    0.81490   0.82755   0.83722   0.86048   0.87429
  Beta virt. eigenvalues --    0.89626   0.90491   0.90670   0.92446   0.93190
  Beta virt. eigenvalues --    0.94420   0.96251   0.96566   0.98305   0.98842
  Beta virt. eigenvalues --    1.00995   1.03409   1.04498   1.05001   1.05136
  Beta virt. eigenvalues --    1.06832   1.07617   1.07766   1.10333   1.10763
  Beta virt. eigenvalues --    1.12459   1.13210   1.14072   1.14997   1.16075
  Beta virt. eigenvalues --    1.16720   1.17583   1.18359   1.18871   1.19783
  Beta virt. eigenvalues --    1.20158   1.20743   1.23416   1.24986   1.25054
  Beta virt. eigenvalues --    1.25860   1.26360   1.27941   1.28678   1.28833
  Beta virt. eigenvalues --    1.29787   1.31407   1.31546   1.32170   1.32663
  Beta virt. eigenvalues --    1.34064   1.34630   1.37031   1.37575   1.37759
  Beta virt. eigenvalues --    1.38390   1.39311   1.40881   1.40881   1.42021
  Beta virt. eigenvalues --    1.42710   1.42998   1.43425   1.44065   1.44701
  Beta virt. eigenvalues --    1.45304   1.46002   1.47333   1.48464   1.48925
  Beta virt. eigenvalues --    1.49753   1.51227   1.53233   1.54010   1.56304
  Beta virt. eigenvalues --    1.58185   1.58199   1.59267   1.60704   1.61492
  Beta virt. eigenvalues --    1.62773   1.63494   1.64030   1.66227   1.66687
  Beta virt. eigenvalues --    1.68095   1.70895   1.74548   1.74773   1.78370
  Beta virt. eigenvalues --    1.80561   1.81172   1.81895   1.83376   1.85161
  Beta virt. eigenvalues --    1.87382   1.88210   1.90561   1.91420   1.92816
  Beta virt. eigenvalues --    1.93075   1.96911   1.98255   1.99588   2.00806
  Beta virt. eigenvalues --    2.03077   2.03500   2.09143   2.09578   2.10066
  Beta virt. eigenvalues --    2.12352   2.12399   2.12896   2.15542   2.15689
  Beta virt. eigenvalues --    2.17551   2.20261   2.20600   2.21513   2.22924
  Beta virt. eigenvalues --    2.23725   2.24777   2.25388   2.27943   2.29181
  Beta virt. eigenvalues --    2.34263   2.36172   2.38147   2.40259   2.41967
  Beta virt. eigenvalues --    2.44064   2.45170   2.45480   2.49060   2.49324
  Beta virt. eigenvalues --    2.50115   2.50448   2.52220   2.55028   2.55601
  Beta virt. eigenvalues --    2.57617   2.57707   2.59406   2.62115   2.62697
  Beta virt. eigenvalues --    2.62794   2.64457   2.65346   2.65485   2.65890
  Beta virt. eigenvalues --    2.66998   2.67822   2.70853   2.72445   2.72840
  Beta virt. eigenvalues --    2.73106   2.74387   2.75285   2.75730   2.76923
  Beta virt. eigenvalues --    2.78333   2.78682   2.80409   2.80652   2.81271
  Beta virt. eigenvalues --    2.82230   2.82593   2.83246   2.84271   2.85647
  Beta virt. eigenvalues --    2.86102   2.87339   2.87429   2.88559   2.89881
  Beta virt. eigenvalues --    2.91361   2.92382   2.92578   2.93824   2.95034
  Beta virt. eigenvalues --    2.96011   2.96466   2.96934   2.98017   3.01014
  Beta virt. eigenvalues --    3.01235   3.02471   3.03583   3.05323   3.05787
  Beta virt. eigenvalues --    3.06958   3.09013   3.09665   3.10882   3.11135
  Beta virt. eigenvalues --    3.11775   3.13198   3.13636   3.14592   3.15534
  Beta virt. eigenvalues --    3.15659   3.16767   3.16940   3.18663   3.18813
  Beta virt. eigenvalues --    3.20065   3.20700   3.20852   3.21097   3.21384
  Beta virt. eigenvalues --    3.22286   3.22870   3.22955   3.23950   3.25119
  Beta virt. eigenvalues --    3.25632   3.26277   3.27334   3.27421   3.28173
  Beta virt. eigenvalues --    3.28521   3.30133   3.30879   3.31464   3.32335
  Beta virt. eigenvalues --    3.32350   3.33152   3.33766   3.35289   3.36120
  Beta virt. eigenvalues --    3.36395   3.36668   3.37929   3.38942   3.39436
  Beta virt. eigenvalues --    3.42578   3.42830   3.43248   3.44563   3.44730
  Beta virt. eigenvalues --    3.45751   3.45945   3.46840   3.47375   3.47477
  Beta virt. eigenvalues --    3.48509   3.49682   3.49888   3.51299   3.53011
  Beta virt. eigenvalues --    3.53696   3.53803   3.55024   3.55091   3.56631
  Beta virt. eigenvalues --    3.57925   3.59343   3.59651   3.61635   3.65295
  Beta virt. eigenvalues --    3.65605   3.66763   3.68067   3.68597   3.69618
  Beta virt. eigenvalues --    3.70819   3.71270   3.73574   3.73749   3.74553
  Beta virt. eigenvalues --    3.78580   3.78751   3.79746   3.81615   3.83920
  Beta virt. eigenvalues --    3.85096   3.85420   3.85631   3.87505   3.88663
  Beta virt. eigenvalues --    3.90410   3.91492   3.93913   3.94621   3.96703
  Beta virt. eigenvalues --    3.99226   4.01573   4.01791   4.03130   4.05684
  Beta virt. eigenvalues --    4.07289   4.08754   4.09125   4.09335   4.11269
  Beta virt. eigenvalues --    4.12760   4.13199   4.15356   4.15716   4.18565
  Beta virt. eigenvalues --    4.19192   4.22055   4.22318   4.22744   4.26014
  Beta virt. eigenvalues --    4.26515   4.27518   4.31344   4.31528   4.35864
  Beta virt. eigenvalues --    4.36372   4.37897   4.39231   4.40986   4.42897
  Beta virt. eigenvalues --    4.45673   4.47420   4.49014   4.49754   4.53291
  Beta virt. eigenvalues --    4.55081   4.59735   4.61743   4.65966   4.67685
  Beta virt. eigenvalues --    4.69330   4.69736   4.72942   4.74701   4.76285
  Beta virt. eigenvalues --    4.78129   4.80633   4.82337   4.84710   4.85331
  Beta virt. eigenvalues --    4.85528   4.87986   4.92935   4.95525   4.95793
  Beta virt. eigenvalues --    4.98323   5.02599   5.02871   5.07415   5.08179
  Beta virt. eigenvalues --    5.14061   5.16771   5.19004   5.22332   5.23435
  Beta virt. eigenvalues --    5.23796   5.33846   5.34478   5.41374   5.42642
  Beta virt. eigenvalues --    5.44930   5.45699   5.50803   5.53853   5.71017
  Beta virt. eigenvalues --    5.71430   5.77426   5.79225   5.96321   6.02402
  Beta virt. eigenvalues --    7.94581   7.95290   8.01205   8.04145   8.05115
  Beta virt. eigenvalues --    8.09407   8.09963   8.13263   8.16886   8.19555
  Beta virt. eigenvalues --    8.35597   8.36370  34.76480  34.77696  34.81251
  Beta virt. eigenvalues --   34.81603  34.84707  34.90439  34.95837  34.99992
  Beta virt. eigenvalues --   35.01306  35.02157  35.17540  35.18058
          Condensed to atoms (all electrons):
               1          2          3          4          5          6
     1  C    5.127531   0.001950   0.425780  -0.001796   0.001392  -0.006703
     2  C    0.001950   5.356710  -0.002495   0.425333  -0.046730  -0.037386
     3  H    0.425780  -0.002495   0.498436   0.000034  -0.000049   0.000021
     4  H   -0.001796   0.425333   0.000034   0.469521  -0.007425   0.003867
     5  C    0.001392  -0.046730  -0.000049  -0.007425   5.180855   0.509236
     6  C   -0.006703  -0.037386   0.000021   0.003867   0.509236   5.356564
     7  H    0.000353  -0.002424   0.000001  -0.000103   0.427144  -0.027951
     8  H   -0.001954   0.003867  -0.000046   0.000113  -0.039298   0.425332
     9  C    0.002502  -0.009169  -0.000006  -0.001814  -0.061147   0.223817
    10  H   -0.000048   0.000995  -0.000001  -0.000211  -0.006076  -0.035844
    11  H    0.000182  -0.006707   0.000002   0.000268   0.008975  -0.060257
    12  C   -0.000199   0.013047   0.000002   0.003127   0.292990  -0.076391
    13  H   -0.000001   0.000050   0.000000   0.000038  -0.040968   0.005976
    14  C    0.000168  -0.006702  -0.000000  -0.001958  -0.051816   0.001940
    15  H   -0.000000   0.000021  -0.000000  -0.000046   0.007905  -0.002494
    16  C   -0.000627   0.013446   0.000000   0.000255  -0.005755  -0.063120
    17  H   -0.000027   0.000110  -0.000000  -0.002348   0.009904  -0.000777
    18  H    0.000003   0.000418   0.000000   0.000294  -0.002595   0.011135
    19  C   -0.051804   0.509188   0.007906  -0.039323  -0.018184  -0.046729
    20  H    0.004237  -0.027870  -0.000106  -0.004904   0.000406  -0.002428
    21  C    0.593507  -0.076396  -0.034352   0.005134   0.002120   0.013047
    22  H   -0.029551   0.005982  -0.006775  -0.000066   0.000033   0.000050
    23  C   -0.089123   0.223851   0.005952  -0.013729   0.009395  -0.009170
    24  H    0.013191  -0.060265  -0.000118  -0.003919   0.000588  -0.006708
    25  H    0.004976  -0.035838  -0.000042  -0.000543   0.000740   0.000995
    26  C    0.282995  -0.063128  -0.032826   0.004163  -0.007421   0.013442
    27  H   -0.034992   0.011136  -0.004366  -0.000115   0.000273   0.000418
    28  H   -0.032680  -0.000773   0.001408  -0.000167  -0.003900   0.000106
               7          8          9         10         11         12
     1  C    0.000353  -0.001954   0.002502  -0.000048   0.000182  -0.000199
     2  C   -0.002424   0.003867  -0.009169   0.000995  -0.006707   0.013047
     3  H    0.000001  -0.000046  -0.000006  -0.000001   0.000002   0.000002
     4  H   -0.000103   0.000113  -0.001814  -0.000211   0.000268   0.003127
     5  C    0.427144  -0.039298  -0.061147  -0.006076   0.008975   0.292990
     6  C   -0.027951   0.425332   0.223817  -0.035844  -0.060257  -0.076391
     7  H    0.482286  -0.004907   0.003417  -0.000287  -0.000045  -0.032652
     8  H   -0.004907   0.469645  -0.013772  -0.000543  -0.003919   0.005137
     9  C    0.003417  -0.013772   4.975734   0.381950   0.462400   0.037012
    10  H   -0.000287  -0.000543   0.381950   0.580622  -0.022213   0.001693
    11  H   -0.000045  -0.003919   0.462400  -0.022213   0.537458  -0.004297
    12  C   -0.032652   0.005137   0.037012   0.001693  -0.004297   4.999864
    13  H   -0.003685  -0.000066  -0.000535  -0.000055   0.000035   0.428901
    14  C    0.004235  -0.001795  -0.089103   0.004972   0.013192   0.593507
    15  H   -0.000106   0.000034   0.005951  -0.000041  -0.000118  -0.034366
    16  C   -0.001075   0.004164   0.356524  -0.022605  -0.055671  -0.055218
    17  H    0.000011  -0.000167  -0.031990   0.007256  -0.008786  -0.015285
    18  H    0.000038  -0.000115  -0.041406  -0.010130  -0.000518   0.005235
    19  C    0.000405  -0.007432   0.009401   0.000740   0.000584   0.002121
    20  H    0.000010  -0.000103   0.002998   0.000303  -0.001584  -0.000196
    21  C   -0.000196   0.003131  -0.002836  -0.000046  -0.000041  -0.000284
    22  H   -0.000001   0.000038  -0.000087  -0.000000  -0.000001   0.000000
    23  C    0.002991  -0.001810   0.001882  -0.000061   0.000367  -0.002833
    24  H   -0.001581   0.000268   0.000367  -0.000016  -0.000022  -0.000041
    25  H    0.000303  -0.000211  -0.000062   0.000006  -0.000016  -0.000046
    26  C   -0.002177   0.000252  -0.001225   0.000083  -0.000158   0.001053
    27  H   -0.000025   0.000294  -0.000022   0.000000  -0.000001  -0.000043
    28  H    0.001860  -0.002351   0.000495  -0.000004   0.000003   0.000402
              13         14         15         16         17         18
     1  C   -0.000001   0.000168  -0.000000  -0.000627  -0.000027   0.000003
     2  C    0.000050  -0.006702   0.000021   0.013446   0.000110   0.000418
     3  H    0.000000  -0.000000  -0.000000   0.000000  -0.000000   0.000000
     4  H    0.000038  -0.001958  -0.000046   0.000255  -0.002348   0.000294
     5  C   -0.040968  -0.051816   0.007905  -0.005755   0.009904  -0.002595
     6  C    0.005976   0.001940  -0.002494  -0.063120  -0.000777   0.011135
     7  H   -0.003685   0.004235  -0.000106  -0.001075   0.000011   0.000038
     8  H   -0.000066  -0.001795   0.000034   0.004164  -0.000167  -0.000115
     9  C   -0.000535  -0.089103   0.005951   0.356524  -0.031990  -0.041406
    10  H   -0.000055   0.004972  -0.000041  -0.022605   0.007256  -0.010130
    11  H    0.000035   0.013192  -0.000118  -0.055671  -0.008786  -0.000518
    12  C    0.428901   0.593507  -0.034366  -0.055218  -0.015285   0.005235
    13  H    0.496670  -0.029575  -0.006774   0.005519  -0.000430  -0.000139
    14  C   -0.029575   5.127562   0.425789   0.282964  -0.032696  -0.034985
    15  H   -0.006774   0.425789   0.498432  -0.032818   0.001408  -0.004367
    16  C    0.005519   0.282964  -0.032818   4.932191   0.395641   0.428029
    17  H   -0.000430  -0.032696   0.001408   0.395641   0.589782  -0.023132
    18  H   -0.000139  -0.034985  -0.004367   0.428029  -0.023132   0.546058
    19  C    0.000033   0.001391  -0.000049  -0.007423  -0.003903   0.000273
    20  H   -0.000001   0.000353   0.000001  -0.002180   0.001860  -0.000025
    21  C    0.000000  -0.000199   0.000002   0.001053   0.000402  -0.000043
    22  H    0.000000  -0.000001   0.000000   0.000017  -0.000001  -0.000001
    23  C   -0.000087   0.002503  -0.000006  -0.001224   0.000495  -0.000022
    24  H   -0.000001   0.000183   0.000002  -0.000158   0.000003  -0.000001
    25  H   -0.000000  -0.000048  -0.000001   0.000084  -0.000004   0.000000
    26  C    0.000017  -0.000627   0.000000   0.000812   0.000050  -0.000004
    27  H   -0.000001   0.000003   0.000000  -0.000004   0.000002  -0.000000
    28  H   -0.000001  -0.000027  -0.000000   0.000050  -0.000017   0.000002
              19         20         21         22         23         24
     1  C   -0.051804   0.004237   0.593507  -0.029551  -0.089123   0.013191
     2  C    0.509188  -0.027870  -0.076396   0.005982   0.223851  -0.060265
     3  H    0.007906  -0.000106  -0.034352  -0.006775   0.005952  -0.000118
     4  H   -0.039323  -0.004904   0.005134  -0.000066  -0.013729  -0.003919
     5  C   -0.018184   0.000406   0.002120   0.000033   0.009395   0.000588
     6  C   -0.046729  -0.002428   0.013047   0.000050  -0.009170  -0.006708
     7  H    0.000405   0.000010  -0.000196  -0.000001   0.002991  -0.001581
     8  H   -0.007432  -0.000103   0.003131   0.000038  -0.001810   0.000268
     9  C    0.009401   0.002998  -0.002836  -0.000087   0.001882   0.000367
    10  H    0.000740   0.000303  -0.000046  -0.000000  -0.000061  -0.000016
    11  H    0.000584  -0.001584  -0.000041  -0.000001   0.000367  -0.000022
    12  C    0.002121  -0.000196  -0.000284   0.000000  -0.002833  -0.000041
    13  H    0.000033  -0.000001   0.000000   0.000000  -0.000087  -0.000001
    14  C    0.001391   0.000353  -0.000199  -0.000001   0.002503   0.000183
    15  H   -0.000049   0.000001   0.000002   0.000000  -0.000006   0.000002
    16  C   -0.007423  -0.002180   0.001053   0.000017  -0.001224  -0.000158
    17  H   -0.003903   0.001860   0.000402  -0.000001   0.000495   0.000003
    18  H    0.000273  -0.000025  -0.000043  -0.000001  -0.000022  -0.000001
    19  C    5.180971   0.427096   0.292933  -0.040999  -0.061186   0.008980
    20  H    0.427096   0.482216  -0.032679  -0.003683   0.003416  -0.000045
    21  C    0.292933  -0.032679   4.999863   0.428900   0.037028  -0.004297
    22  H   -0.040999  -0.003683   0.428900   0.496690  -0.000536   0.000035
    23  C   -0.061186   0.003416   0.037028  -0.000536   4.975759   0.462401
    24  H    0.008980  -0.000045  -0.004297   0.000035   0.462401   0.537413
    25  H   -0.006078  -0.000287   0.001695  -0.000055   0.381932  -0.022206
    26  C   -0.005761  -0.001075  -0.055225   0.005521   0.356549  -0.055666
    27  H   -0.002593   0.000038   0.005234  -0.000139  -0.041411  -0.000519
    28  H    0.009901   0.000011  -0.015283  -0.000430  -0.031986  -0.008786
              25         26         27         28
     1  C    0.004976   0.282995  -0.034992  -0.032680
     2  C   -0.035838  -0.063128   0.011136  -0.000773
     3  H   -0.000042  -0.032826  -0.004366   0.001408
     4  H   -0.000543   0.004163  -0.000115  -0.000167
     5  C    0.000740  -0.007421   0.000273  -0.003900
     6  C    0.000995   0.013442   0.000418   0.000106
     7  H    0.000303  -0.002177  -0.000025   0.001860
     8  H   -0.000211   0.000252   0.000294  -0.002351
     9  C   -0.000062  -0.001225  -0.000022   0.000495
    10  H    0.000006   0.000083   0.000000  -0.000004
    11  H   -0.000016  -0.000158  -0.000001   0.000003
    12  C   -0.000046   0.001053  -0.000043   0.000402
    13  H   -0.000000   0.000017  -0.000001  -0.000001
    14  C   -0.000048  -0.000627   0.000003  -0.000027
    15  H   -0.000001   0.000000   0.000000  -0.000000
    16  C    0.000084   0.000812  -0.000004   0.000050
    17  H   -0.000004   0.000050   0.000002  -0.000017
    18  H    0.000000  -0.000004  -0.000000   0.000002
    19  C   -0.006078  -0.005761  -0.002593   0.009901
    20  H   -0.000287  -0.001075   0.000038   0.000011
    21  C    0.001695  -0.055225   0.005234  -0.015283
    22  H   -0.000055   0.005521  -0.000139  -0.000430
    23  C    0.381932   0.356549  -0.041411  -0.031986
    24  H   -0.022206  -0.055666  -0.000519  -0.008786
    25  H    0.580660  -0.022615  -0.010131   0.007257
    26  C   -0.022615   4.932219   0.428039   0.395622
    27  H   -0.010131   0.428039   0.546050  -0.023131
    28  H    0.007257   0.395622  -0.023131   0.589752
          Atomic-Atomic Spin Densities.
               1          2          3          4          5          6
     1  C   -0.000001  -0.000000   0.000000   0.000000   0.000000   0.000000
     2  C   -0.000000   0.000000  -0.000000   0.000000  -0.000000  -0.000000
     3  H    0.000000  -0.000000   0.000000   0.000000  -0.000000   0.000000
     4  H    0.000000   0.000000   0.000000  -0.000000  -0.000000   0.000000
     5  C    0.000000  -0.000000  -0.000000  -0.000000   0.000000  -0.000000
     6  C    0.000000  -0.000000   0.000000   0.000000  -0.000000  -0.000000
     7  H   -0.000000   0.000000   0.000000  -0.000000  -0.000000  -0.000000
     8  H    0.000000  -0.000000  -0.000000   0.000000  -0.000000  -0.000000
     9  C   -0.000000   0.000000  -0.000000  -0.000000   0.000000   0.000000
    10  H    0.000000   0.000000  -0.000000   0.000000  -0.000000   0.000000
    11  H    0.000000  -0.000000   0.000000   0.000000   0.000000  -0.000000
    12  C   -0.000000   0.000000   0.000000   0.000000  -0.000000   0.000000
    13  H   -0.000000   0.000000   0.000000   0.000000   0.000000  -0.000000
    14  C   -0.000000  -0.000000  -0.000000  -0.000000  -0.000000   0.000000
    15  H    0.000000  -0.000000  -0.000000   0.000000  -0.000000  -0.000000
    16  C   -0.000000   0.000000   0.000000   0.000000  -0.000000  -0.000000
    17  H   -0.000000  -0.000000  -0.000000  -0.000000   0.000000  -0.000000
    18  H   -0.000000   0.000000   0.000000   0.000000  -0.000000  -0.000000
    19  C    0.000000   0.000000   0.000000   0.000000   0.000000   0.000000
    20  H   -0.000000   0.000000   0.000000   0.000000  -0.000000  -0.000000
    21  C    0.000000  -0.000000  -0.000000  -0.000000   0.000000  -0.000000
    22  H   -0.000000   0.000000  -0.000000  -0.000000  -0.000000  -0.000000
    23  C   -0.000000  -0.000000   0.000000  -0.000000  -0.000000  -0.000000
    24  H   -0.000000   0.000000  -0.000000  -0.000000   0.000000   0.000000
    25  H   -0.000000  -0.000000   0.000000   0.000000   0.000000  -0.000000
    26  C    0.000000   0.000000  -0.000000  -0.000000   0.000000  -0.000000
    27  H    0.000000   0.000000  -0.000000   0.000000   0.000000   0.000000
    28  H    0.000000   0.000000   0.000000   0.000000  -0.000000   0.000000
               7          8          9         10         11         12
     1  C   -0.000000   0.000000  -0.000000   0.000000   0.000000  -0.000000
     2  C    0.000000  -0.000000   0.000000   0.000000  -0.000000   0.000000
     3  H    0.000000  -0.000000  -0.000000  -0.000000   0.000000   0.000000
     4  H   -0.000000   0.000000  -0.000000   0.000000   0.000000   0.000000
     5  C   -0.000000  -0.000000   0.000000  -0.000000   0.000000  -0.000000
     6  C   -0.000000  -0.000000   0.000000   0.000000  -0.000000   0.000000
     7  H    0.000000  -0.000000   0.000000  -0.000000  -0.000000   0.000000
     8  H   -0.000000   0.000000   0.000000  -0.000000   0.000000   0.000000
     9  C    0.000000   0.000000  -0.000001  -0.000000   0.000000  -0.000000
    10  H   -0.000000  -0.000000  -0.000000   0.000000  -0.000000   0.000000
    11  H   -0.000000   0.000000   0.000000  -0.000000   0.000000  -0.000000
    12  C    0.000000   0.000000  -0.000000   0.000000  -0.000000  -0.000000
    13  H    0.000000   0.000000   0.000000  -0.000000  -0.000000   0.000000
    14  C    0.000000  -0.000000   0.000000   0.000000   0.000000  -0.000000
    15  H   -0.000000  -0.000000  -0.000000  -0.000000   0.000000   0.000000
    16  C   -0.000000   0.000000   0.000000  -0.000000  -0.000000   0.000000
    17  H   -0.000000  -0.000000   0.000000   0.000000  -0.000000   0.000000
    18  H    0.000000  -0.000000   0.000000  -0.000000  -0.000000  -0.000000
    19  C    0.000000   0.000000   0.000000  -0.000000  -0.000000  -0.000000
    20  H    0.000000   0.000000   0.000000   0.000000   0.000000   0.000000
    21  C   -0.000000  -0.000000  -0.000000   0.000000   0.000000  -0.000000
    22  H   -0.000000  -0.000000  -0.000000   0.000000  -0.000000   0.000000
    23  C   -0.000000   0.000000  -0.000000  -0.000000   0.000000   0.000000
    24  H   -0.000000   0.000000  -0.000000   0.000000   0.000000  -0.000000
    25  H   -0.000000  -0.000000   0.000000   0.000000  -0.000000   0.000000
    26  C   -0.000000  -0.000000   0.000000   0.000000  -0.000000  -0.000000
    27  H   -0.000000  -0.000000  -0.000000   0.000000   0.000000  -0.000000
    28  H    0.000000   0.000000   0.000000  -0.000000  -0.000000  -0.000000
              13         14         15         16         17         18
     1  C   -0.000000  -0.000000   0.000000  -0.000000  -0.000000  -0.000000
     2  C    0.000000  -0.000000  -0.000000   0.000000  -0.000000   0.000000
     3  H    0.000000  -0.000000  -0.000000   0.000000  -0.000000   0.000000
     4  H    0.000000  -0.000000   0.000000   0.000000  -0.000000   0.000000
     5  C    0.000000  -0.000000  -0.000000  -0.000000   0.000000  -0.000000
     6  C   -0.000000   0.000000  -0.000000  -0.000000  -0.000000  -0.000000
     7  H    0.000000   0.000000  -0.000000  -0.000000  -0.000000   0.000000
     8  H    0.000000  -0.000000  -0.000000   0.000000  -0.000000  -0.000000
     9  C    0.000000   0.000000  -0.000000   0.000000   0.000000   0.000000
    10  H   -0.000000   0.000000  -0.000000  -0.000000   0.000000  -0.000000
    11  H   -0.000000   0.000000   0.000000  -0.000000  -0.000000  -0.000000
    12  C    0.000000  -0.000000   0.000000   0.000000   0.000000  -0.000000
    13  H   -0.000000   0.000000   0.000000  -0.000000  -0.000000   0.000000
    14  C    0.000000   0.000000  -0.000000  -0.000000   0.000000  -0.000000
    15  H    0.000000  -0.000000  -0.000000   0.000000  -0.000000   0.000000
    16  C   -0.000000  -0.000000   0.000000   0.000000  -0.000000  -0.000000
    17  H   -0.000000   0.000000  -0.000000  -0.000000  -0.000000   0.000000
    18  H    0.000000  -0.000000   0.000000  -0.000000   0.000000  -0.000000
    19  C    0.000000  -0.000000   0.000000  -0.000000   0.000000  -0.000000
    20  H    0.000000   0.000000  -0.000000  -0.000000  -0.000000   0.000000
    21  C   -0.000000   0.000000  -0.000000   0.000000   0.000000   0.000000
    22  H   -0.000000   0.000000  -0.000000   0.000000  -0.000000   0.000000
    23  C    0.000000   0.000000   0.000000  -0.000000  -0.000000   0.000000
    24  H    0.000000  -0.000000  -0.000000   0.000000   0.000000  -0.000000
    25  H   -0.000000   0.000000   0.000000  -0.000000   0.000000  -0.000000
    26  C   -0.000000   0.000000  -0.000000  -0.000000   0.000000   0.000000
    27  H   -0.000000   0.000000  -0.000000  -0.000000   0.000000   0.000000
    28  H    0.000000   0.000000   0.000000  -0.000000  -0.000000  -0.000000
              19         20         21         22         23         24
     1  C    0.000000  -0.000000   0.000000  -0.000000  -0.000000  -0.000000
     2  C    0.000000   0.000000  -0.000000   0.000000  -0.000000   0.000000
     3  H    0.000000   0.000000  -0.000000  -0.000000   0.000000  -0.000000
     4  H    0.000000   0.000000  -0.000000  -0.000000  -0.000000  -0.000000
[...]
     1  C   -0.000000   0.000000   0.000000   0.000000
     2  C   -0.000000   0.000000   0.000000   0.000000
     3  H    0.000000  -0.000000  -0.000000   0.000000
     4  H    0.000000  -0.000000   0.000000   0.000000
     5  C    0.000000   0.000000   0.000000  -0.000000
     6  C   -0.000000  -0.000000   0.000000   0.000000
     7  H   -0.000000  -0.000000  -0.000000   0.000000
     8  H   -0.000000  -0.000000  -0.000000   0.000000
     9  C    0.000000   0.000000  -0.000000   0.000000
    10  H    0.000000   0.000000   0.000000  -0.000000
    11  H   -0.000000  -0.000000   0.000000  -0.000000
    12  C    0.000000  -0.000000  -0.000000  -0.000000
    13  H   -0.000000  -0.000000  -0.000000   0.000000
    14  C    0.000000   0.000000   0.000000   0.000000
    15  H    0.000000  -0.000000  -0.000000   0.000000
    16  C   -0.000000  -0.000000  -0.000000  -0.000000
    17  H    0.000000   0.000000   0.000000  -0.000000
    18  H   -0.000000   0.000000   0.000000  -0.000000
    19  C    0.000000  -0.000000   0.000000  -0.000000
    20  H    0.000000   0.000000  -0.000000   0.000000
    21  C   -0.000000  -0.000000   0.000000  -0.000000
    22  H    0.000000   0.000000  -0.000000   0.000000
    23  C    0.000000  -0.000000  -0.000000  -0.000000
    24  H    0.000000   0.000000   0.000000   0.000000
    25  H   -0.000000   0.000000   0.000000  -0.000000
    26  C    0.000000  -0.000000   0.000000   0.000000
    27  H    0.000000   0.000000   0.000000  -0.000000
    28  H   -0.000000   0.000000  -0.000000   0.000000
 Mulliken charges and spin densities:
               1          2
     1  C   -0.209261  -0.000001
     2  C   -0.190221   0.000000
     3  H    0.141642   0.000000
     4  H    0.166318  -0.000000
     5  C   -0.160591  -0.000000
     6  C   -0.189987  -0.000000
     7  H    0.154159   0.000000
     8  H    0.166213   0.000000
     9  C   -0.211278  -0.000001
    10  H    0.119560   0.000000
    11  H    0.140888   0.000000
    12  C   -0.162237  -0.000000
    13  H    0.145080  -0.000000
    14  C   -0.209229   0.000000
    15  H    0.141643  -0.000000
    16  C   -0.172869   0.000000
    17  H    0.112642  -0.000000
    18  H    0.125997  -0.000000
    19  C   -0.160458  -0.000000
    20  H    0.154219  -0.000000
    21  C   -0.162170   0.000000
    22  H    0.145061   0.000000
    23  C   -0.211335   0.000001
    24  H    0.140917  -0.000000
    25  H    0.119533  -0.000000
    26  C   -0.172909  -0.000000
    27  H    0.126005   0.000000
    28  H    0.112670   0.000000
 Sum of Mulliken charges =  -0.00000   0.00000
 Mulliken charges and spin densities with hydrogens summed into heavy atoms:
               1          2
     1  C   -0.067619  -0.000000
     2  C   -0.023903   0.000000
     5  C   -0.006432   0.000000
     6  C   -0.023773  -0.000000
     9  C    0.049169  -0.000000
    12  C   -0.017158  -0.000000
    14  C   -0.067586   0.000000
    16  C    0.065770   0.000000
    19  C   -0.006239  -0.000000
    21  C   -0.017109   0.000000
    23  C    0.049115   0.000000
    26  C    0.065766  -0.000000
 Electronic spatial extent (au):  <R**2>=           2258.3084
 Charge=             -0.0000 electrons
 Dipole moment (field-independent basis, Debye):
    X=              0.0002    Y=              0.0002    Z=             -0.0001  Tot=              0.0003
 Quadrupole moment (field-independent basis, Debye-Ang):
   XX=            -72.2424   YY=            -69.8342   ZZ=            -77.1658
   XY=             -3.3322   XZ=             -3.5312   YZ=             -1.6809
 Traceless Quadrupole moment (field-independent basis, Debye-Ang):
   XX=              0.8384   YY=              3.2466   ZZ=             -4.0850
   XY=             -3.3322   XZ=             -3.5312   YZ=             -1.6809
 Octapole moment (field-independent basis, Debye-Ang**2):
  XXX=             -0.0004  YYY=              0.0024  ZZZ=             -0.0002  XYY=              0.0019
  XXY=             -0.0003  XXZ=              0.0015  XZZ=              0.0001  YZZ=             -0.0005
  YYZ=             -0.0004  XYZ=             -0.0002
 Hexadecapole moment (field-independent basis, Debye-Ang**3):
 XXXX=          -2068.2936 YYYY=           -629.6732 ZZZZ=           -379.2119 XXXY=           -108.4998
 XXXZ=           -136.5492 YYYX=            -62.1982 YYYZ=             -4.2754 ZZZX=            -84.6496
 ZZZY=            -15.3621 XXYY=           -447.6101 XXZZ=           -431.3189 YYZZ=           -183.3926
 XXYZ=            -22.7994 YYXZ=            -31.0644 ZZXY=            -44.7970
 N-N= 6.813956921381D+02 E-N=-2.444571202591D+03  KE= 4.642215182382D+02
                          Isotropic Fermi Contact Couplings
        Atom                 a.u.       MegaHertz       Gauss      10(-4) cm-1
     1  C(13)             -0.00000      -0.00004      -0.00001      -0.00001
     2  C(13)             -0.00000      -0.00000      -0.00000      -0.00000
     3  H(1)               0.00000       0.00004       0.00001       0.00001
     4  H(1)              -0.00000      -0.00001      -0.00000      -0.00000
     5  C(13)             -0.00000      -0.00002      -0.00001      -0.00001
     6  C(13)              0.00000       0.00003       0.00001       0.00001
     7  H(1)               0.00000       0.00006       0.00002       0.00002
     8  H(1)              -0.00000      -0.00000      -0.00000      -0.00000
     9  C(13)             -0.00000      -0.00021      -0.00007      -0.00007
    10  H(1)               0.00000       0.00012       0.00004       0.00004
    11  H(1)               0.00000       0.00014       0.00005       0.00005
    12  C(13)              0.00000       0.00002       0.00001       0.00001
    13  H(1)              -0.00000      -0.00005      -0.00002      -0.00002
    14  C(13)              0.00000       0.00002       0.00001       0.00001
    15  H(1)              -0.00000      -0.00002      -0.00001      -0.00001
    16  C(13)              0.00000       0.00010       0.00004       0.00003
    17  H(1)              -0.00000      -0.00003      -0.00001      -0.00001
    18  H(1)              -0.00000      -0.00001      -0.00000      -0.00000
    19  C(13)              0.00000       0.00000       0.00000       0.00000
    20  H(1)              -0.00000      -0.00004      -0.00002      -0.00001
    21  C(13)              0.00000       0.00001       0.00000       0.00000
    22  H(1)               0.00000       0.00003       0.00001       0.00001
    23  C(13)              0.00000       0.00020       0.00007       0.00007
    24  H(1)              -0.00000      -0.00014      -0.00005      -0.00005
    25  H(1)              -0.00000      -0.00010      -0.00004      -0.00003
    26  C(13)             -0.00000      -0.00009      -0.00003      -0.00003
    27  H(1)              -0.00000      -0.00000      -0.00000      -0.00000
    28  H(1)               0.00000       0.00001       0.00000       0.00000
 --------------------------------------------------------
       Center         ----  Spin Dipole Couplings  ----
                      3XX-RR        3YY-RR        3ZZ-RR
 --------------------------------------------------------
     1   Atom       -0.000000      0.000000     -0.000000
     2   Atom        0.000000     -0.000000      0.000000
     3   Atom       -0.000000      0.000000     -0.000000
     4   Atom        0.000000     -0.000000      0.000000
     5   Atom       -0.000000     -0.000000      0.000000
     6   Atom       -0.000000      0.000000     -0.000000
     7   Atom        0.000000     -0.000000      0.000000
     8   Atom       -0.000000      0.000000     -0.000000
     9   Atom       -0.000000      0.000000     -0.000000
    10   Atom        0.000000      0.000000     -0.000000
    11   Atom        0.000000     -0.000000      0.000000
    12   Atom        0.000000      0.000000     -0.000000
    13   Atom       -0.000000      0.000000     -0.000000
    14   Atom        0.000000     -0.000000     -0.000000
    15   Atom       -0.000000     -0.000000      0.000000
    16   Atom        0.000000     -0.000000      0.000000
    17   Atom       -0.000000     -0.000000      0.000000
    18   Atom        0.000000      0.000000     -0.000000
    19   Atom        0.000000      0.000000     -0.000000
    20   Atom       -0.000000      0.000000     -0.000000
    21   Atom       -0.000000     -0.000000      0.000000
    22   Atom       -0.000000     -0.000000      0.000000
    23   Atom        0.000000     -0.000000      0.000000
    24   Atom       -0.000000      0.000000     -0.000000
    25   Atom       -0.000000     -0.000000      0.000000
    26   Atom       -0.000000      0.000000     -0.000000
    27   Atom       -0.000000     -0.000000      0.000000
    28   Atom        0.000000      0.000000     -0.000000
 --------------------------------------------------------
                        XY            XZ            YZ
 --------------------------------------------------------
     1   Atom        0.000000     -0.000000      0.000000
     2   Atom        0.000000      0.000000      0.000000
     3   Atom       -0.000000      0.000000      0.000000
     4   Atom       -0.000000     -0.000000      0.000000
     5   Atom        0.000000     -0.000000     -0.000000
     6   Atom       -0.000000     -0.000000      0.000000
     7   Atom        0.000000      0.000000     -0.000000
     8   Atom        0.000000      0.000000     -0.000000
     9   Atom       -0.000000     -0.000000     -0.000000
    10   Atom        0.000000     -0.000000      0.000000
    11   Atom       -0.000000     -0.000000     -0.000000
    12   Atom       -0.000000      0.000000     -0.000000
    13   Atom        0.000000     -0.000000     -0.000000
    14   Atom       -0.000000      0.000000     -0.000000
    15   Atom        0.000000     -0.000000     -0.000000
    16   Atom       -0.000000     -0.000000     -0.000000
    17   Atom        0.000000      0.000000      0.000000
    18   Atom       -0.000000      0.000000     -0.000000
    19   Atom       -0.000000     -0.000000     -0.000000
    20   Atom        0.000000     -0.000000      0.000000
    21   Atom        0.000000      0.000000      0.000000
    22   Atom        0.000000      0.000000      0.000000
    23   Atom        0.000000      0.000000      0.000000
    24   Atom        0.000000      0.000000      0.000000
    25   Atom       -0.000000      0.000000     -0.000000
    26   Atom        0.000000      0.000000      0.000000
    27   Atom        0.000000     -0.000000      0.000000
    28   Atom       -0.000000     -0.000000     -0.000000
 --------------------------------------------------------


 ---------------------------------------------------------------------------------
              Anisotropic Spin Dipole Couplings in Principal Axis System
 ---------------------------------------------------------------------------------

       Atom             a.u.   MegaHertz   Gauss  10(-4) cm-1        Axes

              Baa    -0.0000    -0.000    -0.000    -0.000  0.6591 -0.1609  0.7346
     1 C(13)  Bbb     0.0000     0.000     0.000     0.000  0.6981  0.4943 -0.5181
              Bcc     0.0000     0.000     0.000     0.000 -0.2798  0.8543  0.4381
 
              Baa    -0.0000    -0.000    -0.000    -0.000 -0.4991  0.8381  0.2200
     2 C(13)  Bbb    -0.0000    -0.000    -0.000    -0.000  0.6480  0.5296 -0.5474
              Bcc     0.0000     0.000     0.000     0.000  0.5753  0.1306  0.8075
 
              Baa    -0.0000    -0.000    -0.000    -0.000 -0.6008 -0.1616  0.7829
     3 H(1)   Bbb     0.0000     0.000     0.000     0.000  0.7993 -0.1085  0.5910
              Bcc     0.0000     0.000     0.000     0.000 -0.0106  0.9809  0.1944
 
              Baa    -0.0000    -0.000    -0.000    -0.000 -0.0526  0.9863 -0.1566
     4 H(1)   Bbb    -0.0000    -0.000    -0.000    -0.000  0.6545  0.1525  0.7405
              Bcc     0.0000     0.000     0.000     0.000  0.7542 -0.0635 -0.6535
 
              Baa    -0.0000    -0.000    -0.000    -0.000 -0.4030  0.9152 -0.0058
     5 C(13)  Bbb    -0.0000    -0.000    -0.000    -0.000  0.9120  0.4021  0.0814
              Bcc     0.0000     0.000     0.000     0.000 -0.0768 -0.0275  0.9967
 
              Baa    -0.0000    -0.000    -0.000    -0.000  0.7413  0.0965  0.6642
     6 C(13)  Bbb     0.0000     0.000     0.000     0.000  0.4610  0.6462 -0.6083
              Bcc     0.0000     0.000     0.000     0.000 -0.4879  0.7571  0.4345
 
              Baa    -0.0000    -0.000    -0.000    -0.000 -0.4471  0.8438  0.2970
     7 H(1)   Bbb     0.0000     0.000     0.000     0.000  0.7230  0.5364 -0.4354
              Bcc     0.0000     0.000     0.000     0.000  0.5266 -0.0201  0.8499
 
              Baa    -0.0000    -0.000    -0.000    -0.000  0.6963 -0.1935 -0.6912
     8 H(1)   Bbb     0.0000     0.000     0.000     0.000  0.7124  0.0691  0.6984
              Bcc     0.0000     0.000     0.000     0.000  0.0874  0.9787 -0.1859
 
              Baa    -0.0000    -0.000    -0.000    -0.000  0.7642  0.4148  0.4938
     9 C(13)  Bbb    -0.0000    -0.000    -0.000    -0.000 -0.4502 -0.2051  0.8691
              Bcc     0.0000     0.000     0.000     0.000 -0.4618  0.8865 -0.0300
 
              Baa    -0.0000    -0.000    -0.000    -0.000  0.4189 -0.1114  0.9012
    10 H(1)   Bbb     0.0000     0.000     0.000     0.000 -0.4228  0.8544  0.3022
              Bcc     0.0000     0.000     0.000     0.000  0.8036  0.5075 -0.3108
 
              Baa    -0.0000    -0.000    -0.000    -0.000  0.5683  0.8110  0.1391
    11 H(1)   Bbb     0.0000     0.000     0.000     0.000 -0.3284  0.0686  0.9420
              Bcc     0.0000     0.000     0.000     0.000  0.7544 -0.5810  0.3053
 
              Baa    -0.0000    -0.000    -0.000    -0.000 -0.1418  0.1832  0.9728
    12 C(13)  Bbb     0.0000     0.000     0.000     0.000  0.6328  0.7725 -0.0532
              Bcc     0.0000     0.000     0.000     0.000  0.7612 -0.6080  0.2255
 
              Baa    -0.0000    -0.000    -0.000    -0.000 -0.0669  0.3120  0.9477
    13 H(1)   Bbb    -0.0000    -0.000    -0.000    -0.000  0.9797 -0.1593  0.1217
              Bcc     0.0000     0.000     0.000     0.000  0.1889  0.9366 -0.2950
 
              Baa    -0.0000    -0.000    -0.000    -0.000 -0.3048  0.5810  0.7546
    14 C(13)  Bbb    -0.0000    -0.000    -0.000    -0.000  0.5099  0.7688 -0.3860
              Bcc     0.0000     0.000     0.000     0.000  0.8044 -0.2671  0.5306
 
              Baa    -0.0000    -0.000    -0.000    -0.000  0.5526  0.7083  0.4393
    15 H(1)   Bbb    -0.0000    -0.000    -0.000    -0.000  0.6950 -0.6825  0.2261
              Bcc     0.0000     0.000     0.000     0.000 -0.4600 -0.1804  0.8694
 
              Baa    -0.0000    -0.000    -0.000    -0.000  0.1019  0.9903  0.0950
    16 C(13)  Bbb    -0.0000    -0.000    -0.000    -0.000  0.6615 -0.1387  0.7370
              Bcc     0.0000     0.000     0.000     0.000  0.7430 -0.0123 -0.6692
 
              Baa    -0.0000    -0.000    -0.000    -0.000  0.0146  0.9125 -0.4088
    17 H(1)   Bbb    -0.0000    -0.000    -0.000    -0.000  0.9201 -0.1723 -0.3518
              Bcc     0.0000     0.000     0.000     0.000  0.3915  0.3710  0.8421
 
              Baa    -0.0000    -0.000    -0.000    -0.000  0.5288  0.7204  0.4488
    18 H(1)   Bbb    -0.0000    -0.000    -0.000    -0.000 -0.5517 -0.1100  0.8268
              Bcc     0.0000     0.000     0.000     0.000 -0.6450  0.6848 -0.3392
 
              Baa    -0.0000    -0.000    -0.000    -0.000  0.1883  0.0679  0.9798
    19 C(13)  Bbb     0.0000     0.000     0.000     0.000  0.9559  0.2162 -0.1987
              Bcc     0.0000     0.000     0.000     0.000 -0.2253  0.9740 -0.0242
 
              Baa    -0.0000    -0.000    -0.000    -0.000  0.5842 -0.1027  0.8051
    20 H(1)   Bbb     0.0000     0.000     0.000     0.000  0.7895 -0.1582 -0.5931
              Bcc     0.0000     0.000     0.000     0.000  0.1882  0.9821 -0.0114
 
              Baa    -0.0000    -0.000    -0.000    -0.000 -0.3195  0.9467 -0.0401
    21 C(13)  Bbb    -0.0000    -0.000    -0.000    -0.000  0.9349  0.3080 -0.1766
              Bcc     0.0000     0.000     0.000     0.000  0.1548  0.0939  0.9835
 
              Baa    -0.0000    -0.000    -0.000    -0.000  0.7873 -0.6053 -0.1172
    22 H(1)   Bbb     0.0000     0.000     0.000     0.000  0.4885  0.7284 -0.4804
              Bcc     0.0000     0.000     0.000     0.000  0.3762  0.3210  0.8692
 
              Baa    -0.0000    -0.000    -0.000    -0.000 -0.4539  0.8909 -0.0169
    23 C(13)  Bbb     0.0000     0.000     0.000     0.000 -0.5247 -0.2519  0.8132
              Bcc     0.0000     0.000     0.000     0.000  0.7202  0.3780  0.5818
 
              Baa    -0.0000    -0.000    -0.000    -0.000  0.7234 -0.5401  0.4301
    24 H(1)   Bbb    -0.0000    -0.000    -0.000    -0.000 -0.4318  0.1322  0.8922
              Bcc     0.0000     0.000     0.000     0.000  0.5387  0.8312  0.1376
 
              Baa    -0.0000    -0.000    -0.000    -0.000  0.7854  0.5354 -0.3106
    25 H(1)   Bbb    -0.0000    -0.000    -0.000    -0.000 -0.4374  0.8352  0.3334
              Bcc     0.0000     0.000     0.000     0.000  0.4379 -0.1260  0.8901
 
              Baa    -0.0000    -0.000    -0.000    -0.000  0.7426 -0.0057 -0.6697
    26 C(13)  Bbb     0.0000     0.000     0.000     0.000  0.6639 -0.1250  0.7373
              Bcc     0.0000     0.000     0.000     0.000  0.0879  0.9921  0.0890
 
              Baa    -0.0000    -0.000    -0.000    -0.000 -0.5806  0.7345 -0.3514
    27 H(1)   Bbb     0.0000     0.000     0.000     0.000  0.7193  0.2605 -0.6440
              Bcc     0.0000     0.000     0.000     0.000  0.3815  0.6267  0.6795
 
              Baa    -0.0000    -0.000    -0.000    -0.000  0.4293  0.4302  0.7941
    28 H(1)   Bbb     0.0000     0.000     0.000     0.000  0.6101  0.5102 -0.6062
              Bcc     0.0000     0.000     0.000     0.000 -0.6659  0.7448 -0.0434
 

 ---------------------------------------------------------------------------------

 No NMR shielding tensors so no spin-rotation constants.
 Leave Link  601 at Mon Aug  3 15:10:28 2020, MaxMem=  6442450944 cpu:               7.9 elap:               0.4
 (Enter /scratch/scicomp/CentOS/7.3.1611/Haswell/software/Gaussian/g16/l9999.exe)
 1\1\GINC-ATLAS-205\SP\UwB97XD\def2TZVP\C12H16\BOCHEN\03-Aug-2020\0\\#p
  uwb97xd guess=mix def2tzvp # scrf=(iefpcm,solvent=Cyclohexane,read) n
 osym 6d 10f\\endo-2 xp-pcm for eta=3\\0,1\C,0,-3.12622,-0.440488,0.253
 489\C,0,-0.672219,-0.236821,-1.146356\H,0,-4.082957,-0.541745,0.752734
 \H,0,0.294206,-0.146815,-1.625125\C,0,1.129787,1.418428,0.74352\C,0,0.
 672219,0.236821,1.146356\H,0,0.536815,2.315578,0.872168\H,0,-0.294206,
 0.146815,1.625125\C,0,1.51865,-0.999998,1.059609\H,0,2.012318,-1.11420
 4,2.032991\H,0,0.891136,-1.882004,0.93796\C,0,2.439953,1.524706,0.1048
 97\H,0,2.84394,2.511426,-0.0879\C,0,3.12622,0.440488,-0.253489\H,0,4.0
 82957,0.541745,-0.752734\C,0,2.584411,-0.946808,-0.040911\H,0,2.177912
 ,-1.311853,-0.992206\H,0,3.397883,-1.630946,0.208832\C,0,-1.129787,-1.
 418428,-0.74352\H,0,-0.536815,-2.315578,-0.872168\C,0,-2.439953,-1.524
 706,-0.104897\H,0,-2.84394,-2.511426,0.0879\C,0,-1.51865,0.999998,-1.0
 59609\H,0,-0.891135,1.882004,-0.93796\H,0,-2.012317,1.114205,-2.032991
 \C,0,-2.584411,0.946808,0.040911\H,0,-3.397883,1.630946,-0.208832\H,0,
 -2.177912,1.311853,0.992206\\Version=ES64L-G16RevB.01\HF=-466.8518204\
 S2=0.\S2-1=0.\S2A=0.\RMSD=4.278e-09\Dipole=0.0000648,0.0000932,-0.0000
 2\Quadrupole=0.6233505,2.4137451,-3.0370956,-2.4774295,-2.6253298,-1.2
 4973\PG=CI [X(C12H16)]\\@


 HOW IS IT THAT THE SKY FEEDS THE STARS?

                           -- LUCRETIUS
 Job cpu time:       0 days  2 hours  7 minutes 47.0 seconds.
 Elapsed time:       0 days  0 hours  5 minutes 22.7 seconds.
 File lengths (MBytes):  RWF=    638 Int=      0 D2E=      0 Chk=     23 Scr=      1
 Normal termination of Gaussian 16 at Mon Aug  3 15:10:28 2020.
