 Entering Gaussian System, Link 0=g16
 Input=meso-TS_7_1_pcm.com
 Output=meso-TS_7_1_pcm.log
 Initial command:
 /scratch/scicomp/CentOS/7.3.1611/Haswell/software/Gaussian/g16/l1.exe "/scratch/bochen/cyclohexadiene-dimerization/wb97xd-def2tzvp/xp-pcm/meso/Gau-54787.inp" -scrdir="/scratch/bochen/cyclohexadiene-dimerization/wb97xd-def2tzvp/xp-pcm/meso/"
 Entering Link 1 = /scratch/scicomp/CentOS/7.3.1611/Haswell/software/Gaussian/g16/l1.exe PID=     54788.
  
 Copyright (c) 1988-2017, Gaussian, Inc.  All Rights Reserved.
  
 This is part of the Gaussian(R) 16 program.  It is based on
 the Gaussian(R) 09 system (copyright 2009, Gaussian, Inc.),
 the Gaussian(R) 03 system (copyright 2003, Gaussian, Inc.),
 the Gaussian(R) 98 system (copyright 1998, Gaussian, Inc.),
 the Gaussian(R) 94 system (copyright 1995, Gaussian, Inc.),
 the Gaussian 92(TM) system (copyright 1992, Gaussian, Inc.),
 the Gaussian 90(TM) system (copyright 1990, Gaussian, Inc.),
 the Gaussian 88(TM) system (copyright 1988, Gaussian, Inc.),
 the Gaussian 86(TM) system (copyright 1986, Carnegie Mellon
 University), and the Gaussian 82(TM) system (copyright 1983,
 Carnegie Mellon University). Gaussian is a federally registered
 trademark of Gaussian, Inc.
  
 This software contains proprietary and confidential information,
 including trade secrets, belonging to Gaussian, Inc.
  
 This software is provided under written license and may be
 used, copied, transmitted, or stored only in accord with that
 written license.
  
 The following legend is applicable only to US Government
 contracts under FAR:
  
                    RESTRICTED RIGHTS LEGEND
  
 Use, reproduction and disclosure by the US Government is
 subject to restrictions as set forth in subparagraphs (a)
 and (c) of the Commercial Computer Software - Restricted
 Rights clause in FAR 52.227-19.
  
 Gaussian, Inc.
 340 Quinnipiac St., Bldg. 40, Wallingford CT 06492
  
  
 ---------------------------------------------------------------
 Warning -- This program may not be used in any manner that
 competes with the business of Gaussian, Inc. or will provide
 assistance to any competitor of Gaussian, Inc.  The licensee
 of this program is prohibited from giving any competitor of
 Gaussian, Inc. access to this program.  By using this program,
 the user acknowledges that Gaussian, Inc. is engaged in the
 business of creating and licensing software in the field of
 computational chemistry and represents and warrants to the
 licensee that it is not a competitor of Gaussian, Inc. and that
 it will not use this program in any manner prohibited above.
 ---------------------------------------------------------------
  

 Cite this work as:
 Gaussian 16, Revision B.01,
 M. J. Frisch, G. W. Trucks, H. B. Schlegel, G. E. Scuseria, 
 M. A. Robb, J. R. Cheeseman, G. Scalmani, V. Barone, 
 G. A. Petersson, H. Nakatsuji, X. Li, M. Caricato, A. V. Marenich, 
 J. Bloino, B. G. Janesko, R. Gomperts, B. Mennucci, H. P. Hratchian, 
 J. V. Ortiz, A. F. Izmaylov, J. L. Sonnenberg, D. Williams-Young, 
 F. Ding, F. Lipparini, F. Egidi, J. Goings, B. Peng, A. Petrone, 
 T. Henderson, D. Ranasinghe, V. G. Zakrzewski, J. Gao, N. Rega, 
 G. Zheng, W. Liang, M. Hada, M. Ehara, K. Toyota, R. Fukuda, 
 J. Hasegawa, M. Ishida, T. Nakajima, Y. Honda, O. Kitao, H. Nakai, 
 T. Vreven, K. Throssell, J. A. Montgomery, Jr., J. E. Peralta, 
 F. Ogliaro, M. J. Bearpark, J. J. Heyd, E. N. Brothers, K. N. Kudin, 
 V. N. Staroverov, T. A. Keith, R. Kobayashi, J. Normand, 
 K. Raghavachari, A. P. Rendell, J. C. Burant, S. S. Iyengar, 
 J. Tomasi, M. Cossi, J. M. Millam, M. Klene, C. Adamo, R. Cammi, 
 J. W. Ochterski, R. L. Martin, K. Morokuma, O. Farkas, 
 J. B. Foresman, and D. J. Fox, Gaussian, Inc., Wallingford CT, 2016.
 
 ******************************************
 Gaussian 16:  ES64L-G16RevB.01 20-Dec-2017
                 3-Aug-2020 
 ******************************************
 %nproc=24
 Will use up to   24 processors via shared memory.
 %mem=48GB
 ----------------------------------------------------------------------
 #p uwb97xd guess=mix def2tzvp # scrf=(iefpcm,solvent=Cyclohexane,read)
  nosym 6d 10f
 ----------------------------------------------------------------------
 1/38=1,40=2,172=1/1;
 2/12=2,15=1,17=6,18=5,40=1/2;
 3/5=44,7=101,8=22,11=2,25=1,30=1,70=2203,72=17,74=-58,116=2/1,2,3;
 4/13=-1/1;
 5/5=2,38=5,53=17/2;
 6/7=2,8=2,9=2,10=2,28=1/1;
 99/5=1,9=1/99;
 Leave Link    1 at Mon Aug  3 16:35:18 2020, MaxMem=  6442450944 cpu:               2.9 elap:               0.1
 (Enter /scratch/scicomp/CentOS/7.3.1611/Haswell/software/Gaussian/g16/l101.exe)
 -----------------------
 endo-2 xp-pcm for eta=3
 -----------------------
 Symbolic Z-matrix:
 Charge =  0 Multiplicity = 1
 6                    -3.11962  -0.42829   0.24798 
 6                    -0.46774  -0.14225  -0.79239 
 1                    -4.08535  -0.54785   0.7239 
 1                     0.33799  -0.11352  -1.52346 
 6                     1.11279   1.42775   0.67574 
 6                     0.46774   0.14225   0.79239 
 1                     0.55623   2.32918   0.89841 
 1                    -0.33799   0.11352   1.52346 
 6                     1.45961  -0.99928   0.98508 
 1                     1.88951  -0.91778   1.98842 
 1                     0.93924  -1.95715   0.9427 
 6                     2.40007   1.52664   0.12169 
 1                     2.82482   2.51148  -0.03722 
 6                     3.11962   0.42829  -0.24798 
 1                     4.08535   0.54785  -0.7239 
 6                     2.59264  -0.95896  -0.0428 
 1                     2.24642  -1.35795  -1.00521 
 1                     3.40158  -1.62393   0.27063 
 6                    -1.11279  -1.42775  -0.67574 
 1                    -0.55623  -2.32918  -0.89841 
 6                    -2.40007  -1.52664  -0.12169 
 1                    -2.82482  -2.51148   0.03722 
 6                    -1.45961   0.99928  -0.98508 
 1                    -0.93924   1.95715  -0.9427 
 1                    -1.88951   0.91778  -1.98842 
 6                    -2.59264   0.95896   0.0428 
 1                    -3.40158   1.62393  -0.27063 
 1                    -2.24642   1.35795   1.00521 
 
 ITRead=  0  0  0  0  0  0  0  0  0  0  0  0  0  0  0  0  0  0  0  0
 ITRead=  0  0  0  0  0  0  0  0
 MicOpt= -1 -1 -1 -1 -1 -1 -1 -1 -1 -1 -1 -1 -1 -1 -1 -1 -1 -1 -1 -1
 MicOpt= -1 -1 -1 -1 -1 -1 -1 -1
 NAtoms=     28 NQM=       28 NQMF=       0 NMMI=      0 NMMIF=      0
                NMic=       0 NMicF=      0.
                    Isotopes and Nuclear Properties:
 (Nuclear quadrupole moments (NQMom) in fm**2, nuclear magnetic moments (NMagM)
  in nuclear magnetons)

  Atom         1           2           3           4           5           6           7           8           9          10
 IAtWgt=          12          12           1           1          12          12           1           1          12           1
 AtmWgt=  12.0000000  12.0000000   1.0078250   1.0078250  12.0000000  12.0000000   1.0078250   1.0078250  12.0000000   1.0078250
 NucSpn=           0           0           1           1           0           0           1           1           0           1
 AtZEff=  -0.0000000  -0.0000000  -0.0000000  -0.0000000  -0.0000000  -0.0000000  -0.0000000  -0.0000000  -0.0000000  -0.0000000
 NQMom=    0.0000000   0.0000000   0.0000000   0.0000000   0.0000000   0.0000000   0.0000000   0.0000000   0.0000000   0.0000000
 NMagM=    0.0000000   0.0000000   2.7928460   2.7928460   0.0000000   0.0000000   2.7928460   2.7928460   0.0000000   2.7928460
 AtZNuc=   6.0000000   6.0000000   1.0000000   1.0000000   6.0000000   6.0000000   1.0000000   1.0000000   6.0000000   1.0000000

  Atom        11          12          13          14          15          16          17          18          19          20
 IAtWgt=           1          12           1          12           1          12           1           1          12           1
 AtmWgt=   1.0078250  12.0000000   1.0078250  12.0000000   1.0078250  12.0000000   1.0078250   1.0078250  12.0000000   1.0078250
 NucSpn=           1           0           1           0           1           0           1           1           0           1
 AtZEff=  -0.0000000  -0.0000000  -0.0000000  -0.0000000  -0.0000000  -0.0000000  -0.0000000  -0.0000000  -0.0000000  -0.0000000
 NQMom=    0.0000000   0.0000000   0.0000000   0.0000000   0.0000000   0.0000000   0.0000000   0.0000000   0.0000000   0.0000000
 NMagM=    2.7928460   0.0000000   2.7928460   0.0000000   2.7928460   0.0000000   2.7928460   2.7928460   0.0000000   2.7928460
 AtZNuc=   1.0000000   6.0000000   1.0000000   6.0000000   1.0000000   6.0000000   1.0000000   1.0000000   6.0000000   1.0000000

  Atom        21          22          23          24          25          26          27          28
 IAtWgt=          12           1          12           1           1          12           1           1
 AtmWgt=  12.0000000   1.0078250  12.0000000   1.0078250   1.0078250  12.0000000   1.0078250   1.0078250
 NucSpn=           0           1           0           1           1           0           1           1
 AtZEff=  -0.0000000  -0.0000000  -0.0000000  -0.0000000  -0.0000000  -0.0000000  -0.0000000  -0.0000000
 NQMom=    0.0000000   0.0000000   0.0000000   0.0000000   0.0000000   0.0000000   0.0000000   0.0000000
 NMagM=    0.0000000   2.7928460   0.0000000   2.7928460   2.7928460   0.0000000   2.7928460   2.7928460
 AtZNuc=   6.0000000   1.0000000   6.0000000   1.0000000   1.0000000   6.0000000   1.0000000   1.0000000
 Leave Link  101 at Mon Aug  3 16:35:18 2020, MaxMem=  6442450944 cpu:               2.4 elap:               0.1
 (Enter /scratch/scicomp/CentOS/7.3.1611/Haswell/software/Gaussian/g16/l202.exe)
                          Input orientation:                          
 ---------------------------------------------------------------------
 Center     Atomic      Atomic             Coordinates (Angstroms)
 Number     Number       Type             X           Y           Z
 ---------------------------------------------------------------------
      1          6           0       -3.119623   -0.428287    0.247977
      2          6           0       -0.467744   -0.142247   -0.792389
      3          1           0       -4.085353   -0.547852    0.723900
      4          1           0        0.337990   -0.113517   -1.523464
      5          6           0        1.112786    1.427748    0.675736
      6          6           0        0.467744    0.142247    0.792389
      7          1           0        0.556231    2.329182    0.898405
      8          1           0       -0.337990    0.113517    1.523464
      9          6           0        1.459612   -0.999280    0.985076
     10          1           0        1.889507   -0.917784    1.988422
     11          1           0        0.939242   -1.957153    0.942698
     12          6           0        2.400074    1.526641    0.121689
     13          1           0        2.824822    2.511480   -0.037221
     14          6           0        3.119623    0.428287   -0.247977
     15          1           0        4.085353    0.547852   -0.723900
     16          6           0        2.592636   -0.958956   -0.042799
     17          1           0        2.246423   -1.357949   -1.005214
     18          1           0        3.401580   -1.623929    0.270629
     19          6           0       -1.112786   -1.427748   -0.675736
     20          1           0       -0.556231   -2.329182   -0.898405
     21          6           0       -2.400074   -1.526641   -0.121689
     22          1           0       -2.824822   -2.511480    0.037221
     23          6           0       -1.459612    0.999279   -0.985076
     24          1           0       -0.939242    1.957153   -0.942698
     25          1           0       -1.889507    0.917784   -1.988422
     26          6           0       -2.592636    0.958956    0.042799
     27          1           0       -3.401580    1.623929   -0.270628
     28          1           0       -2.246422    1.357949    1.005214
 ---------------------------------------------------------------------
                    Distance matrix (angstroms):
                    1          2          3          4          5
     1  C    0.000000
     2  C    2.862978   0.000000
     3  H    1.083251   3.943443   0.000000
     4  H    3.897714   1.088349   4.980487   0.000000
     5  C    4.641242   2.668024   5.561112   2.795047   0.000000
     6  C    3.673023   1.862148   4.605607   2.333544   1.442983
     7  H    4.640969   3.164691   5.463706   3.446717   1.082552
     8  H    3.107716   2.333544   3.888373   3.129259   2.133213
     9  C    4.673194   2.758367   5.569438   2.887107   2.471122
    10  H    5.325424   3.727063   6.118400   3.922677   2.797849
    11  H    4.392545   2.878197   5.223079   3.137268   3.399844
    12  C    5.857025   3.441672   6.835711   3.106258   1.404941
    13  H    6.637770   4.295758   7.595350   3.909458   2.147987
    14  C    6.317268   3.673023   7.335467   3.107716   2.424781
    15  H    7.335467   4.605607   8.370014   3.888373   3.401375
    16  C    5.744220   3.254969   6.734417   2.826759   2.898725
    17  H    5.588310   2.981598   6.613432   2.336517   3.445408
    18  H    6.629944   4.277506   7.577438   3.858199   3.836069
    19  C    2.424781   1.442983   3.401375   2.133213   3.864389
    20  H    3.390954   2.191290   4.273138   2.469717   4.402052
    21  C    1.364106   2.469875   2.124433   3.385098   4.658807
    22  H    2.114478   3.443448   2.432345   4.264897   5.606244
    23  C    2.512768   1.524471   3.494099   2.181639   3.091782
    24  H    3.444139   2.156938   4.353230   2.501257   2.666537
    25  H    2.885580   2.139058   3.785039   2.498302   4.046179
    26  C    1.498084   2.534828   2.227683   3.491697   3.788209
    27  H    2.135425   3.463958   2.484605   4.309606   4.616665
    28  H    2.127564   2.940350   2.663247   3.903666   3.376049
                    6          7          8          9         10
     6  C    0.000000
     7  H    2.191290   0.000000
     8  H    1.088349   2.469717   0.000000
     9  C    1.524472   3.449966   2.181640   0.000000
    10  H    2.139058   3.675398   2.498302   1.094602   0.000000
    11  H    2.156938   4.303641   2.501257   1.090918   1.754090
    12  C    2.469875   2.155717   3.385098   2.830227   3.117785
    13  H    3.443448   2.460718   4.264897   3.903117   4.091197
    14  C    2.862978   3.390954   3.897714   2.512768   2.885580
    15  H    3.943443   4.273138   4.980487   3.494100   3.785039
    16  C    2.534828   3.980535   3.491697   1.530326   2.149871
    17  H    2.940351   4.480564   3.903667   2.170016   3.046800
    18  H    3.463958   4.910927   4.309605   2.161449   2.394957
    19  C    2.668024   4.402052   2.795047   3.091781   4.046179
    20  H    3.164691   5.115316   3.446717   3.062640   4.038248
    21  C    3.441672   4.964645   3.106258   4.049718   4.819106
    22  H    4.295758   5.967006   3.909458   4.641288   5.345274
    23  C    2.758367   3.062640   2.887106   4.049396   4.871696
    24  H    2.878197   2.400938   3.137268   4.267471   4.985835
    25  H    3.727063   4.038248   3.922677   4.871696   5.784941
    26  C    3.254969   3.539060   2.826759   4.598183   5.234234
    27  H    4.277506   4.186680   3.858198   5.664734   6.289612
    28  H    2.981597   2.968091   2.336516   4.392223   4.821988
                   11         12         13         14         15
    11  H    0.000000
    12  C    3.865864   0.000000
    13  H    4.948165   1.084238   0.000000
    14  C    3.444139   1.364106   2.114478   0.000000
    15  H    4.353230   2.124433   2.432345   1.083251   0.000000
    16  C    2.168251   2.498465   3.478199   1.498084   2.227683
    17  H    2.421183   3.100706   4.030389   2.127563   2.663246
    18  H    2.574067   3.309273   4.186768   2.135426   2.484606
    19  C    2.666537   4.658807   5.606244   4.641242   5.561112
    20  H    2.400938   4.964645   5.967006   4.640969   5.463706
    21  C    3.531188   5.694136   6.604021   5.857025   6.835711
    22  H    3.910926   6.604021   7.560036   6.637770   7.595350
    23  C    4.267470   4.049718   4.641288   4.673194   5.569438
    24  H    4.733414   3.531188   3.910926   4.392545   5.223079
    25  H    4.985835   4.819106   5.345274   5.325424   6.118400
    26  C    4.667727   5.025499   5.636097   5.744220   6.734417
    27  H    5.756652   5.815717   6.293672   6.629944   7.577438
    28  H    4.598072   4.732758   5.304227   5.588309   6.613431
                   16         17         18         19         20
    16  C    0.000000
    17  H    1.097862   0.000000
    18  H    1.093077   1.741525   0.000000
    19  C    3.788209   3.376050   4.616665   0.000000
    20  H    3.539060   2.968092   4.186680   1.082552   0.000000
    21  C    5.025499   4.732759   5.815717   1.404941   2.155717
    22  H    5.636097   5.304228   6.293672   2.147987   2.460718
    23  C    4.598183   4.392223   5.664733   2.471121   3.449965
    24  H    4.667727   4.598073   5.756652   3.399844   4.303641
    25  H    5.234234   4.821989   6.289612   2.797849   3.675398
    26  C    5.529264   5.466523   6.530990   2.898725   3.980535
    27  H    6.530990   6.428931   7.558077   3.836069   4.910927
    28  H    5.466522   5.621706   6.428930   3.445407   4.480563
                   21         22         23         24         25
    21  C    0.000000
    22  H    1.084238   0.000000
    23  C    2.830226   3.903116   0.000000
    24  H    3.865864   4.948165   1.090919   0.000000
    25  H    3.117785   4.091197   1.094602   1.754090   0.000000
    26  C    2.498465   3.478199   1.530326   2.168251   2.149871
    27  H    3.309273   4.186768   2.161449   2.574068   2.394958
    28  H    3.100706   4.030389   2.170016   2.421183   3.046800
                   26         27         28
    26  C    0.000000
    27  H    1.093076   0.000000
    28  H    1.097863   1.741525   0.000000
 Symmetry turned off by external request.
 Stoichiometry    C12H16
 Framework group  CI[X(C12H16)]
 Deg. of freedom    39
 Full point group                 CI      NOp   2
 Rotational constants (GHZ):           1.9575662           0.6396404           0.5527243
 Leave Link  202 at Mon Aug  3 16:35:18 2020, MaxMem=  6442450944 cpu:               0.3 elap:               0.0
 (Enter /scratch/scicomp/CentOS/7.3.1611/Haswell/software/Gaussian/g16/l301.exe)
 Standard basis: def2TZVP (6D, 10F)
 Ernie: Thresh=  0.10000D-02 Tol=  0.10000D-05 Strict=F.
   528 basis functions,   740 primitive gaussians,   528 cartesian basis functions
    44 alpha electrons       44 beta electrons
       nuclear repulsion energy       692.2640138581 Hartrees.
 IExCor= 4639 DFT=T Ex+Corr=wB97XD ExCW=0 ScaHFX=  1.000000
 ScaDFX=  1.000000  1.000000  1.000000  1.000000 ScalE2=  1.000000  1.000000
 IRadAn=      5 IRanWt=     -1 IRanGd=            0 ICorTp=0 IEmpDi=121
 HFx  wShort=  0.000000 wLong=  0.200000 cFull=  0.222036 cShort=  0.000000 cLong=  0.777964
 DFx  wShort=  0.000000 wLong=  0.200000 cFull=  0.000000 cShort=  0.000000 cLong=  1.000000
 NAtoms=   28 NActive=   28 NUniq=   28 SFac= 1.00D+00 NAtFMM=   60 NAOKFM=F Big=F
 Integral buffers will be    131072 words long.
 Raffenetti 2 integral format.
 Two-electron integral symmetry is turned off.
 R6Disp:  Grimme-D2 Dispersion energy=       -0.0228803717 Hartrees.
 Nuclear repulsion after empirical dispersion term =      692.2411334865 Hartrees.
 Using the following non-standard input for PCM:
 norep pcmdoc geomview  nodis nocav g03defaults tsare=0.075
 Warning! Using old PCM defaults because the g03defaults keyword was found.
 These settings can be overridden by following keywords.
 nsfe=28
 NVESolv=36  SolvMW=84.1595   Rsolv=2.815
 eps=2.0165 RhoS=0.7781
 --- end of non-standard input.
 Reading user-defined spheres from input:
 ISph  on   Nord    Re0     Alpha      Xe            Ye            Ze
 --- end of user-defined spheres data.
 ------------------------------------------------------------------------------
 Polarizable Continuum Model (PCM)
 =================================
 Model                : PCM.
 Atomic radii         : UA0 (Simple United Atom Topological Model).
 Polarization charges : Total charges.
 Charge compensation  : None.
 Solution method      : On-the-fly selection.
 Cavity type          : SES (Solvent Excluding Surface) (Alpha=1.000).
 Cavity algorithm     : GePol (RMin=0.200 OFac=0.890).
                        User-defined sphere list used, NSphG=   28.
                        Tesserae with average area of 0.075 Ang**2.
                        Smoothing algorithm: None.
                        Polarization charges: point-like.
                        Self-potential: constant (ISelfS= 1).
                        Self-field    : global E.n sum rule (ISelfD= 3).
 Solvent              : CycloHexane, Eps=   2.016500 Eps(inf)=   2.035188
                        RSolv=   2.815000 Ang.
 ------------------------------------------------------------------------------
 GePol: Number of generator spheres                  =      28
 GePol: Total number of spheres                      =     162
 GePol: Number of exposed spheres                    =     122 ( 75.31%)
 GePol: Number of tesserae                           =    4569
 GePol: Average area of tesserae                     =       0.05 Ang**2
 GePol: Minimum area of tessera                      =   0.10D-02 Ang**2
 GePol: Maximum area of tessera                      =    0.12591 Ang**2
 GePol: Number of small tesserae                     =       0
 GePol: Fraction of small tesserae (<1% of avg)      =       0.00%
 GePol: Total count of vertices                      =   16133
 GePol: Maximum number of vertices in a tessera      =       6
 GePol: Cavity surface area                          =    219.085 Ang**2
 GePol: Cavity volume                                =    245.788 Ang**3
 Leave Link  301 at Mon Aug  3 16:35:19 2020, MaxMem=  6442450944 cpu:               8.0 elap:               0.4
 (Enter /scratch/scicomp/CentOS/7.3.1611/Haswell/software/Gaussian/g16/l302.exe)
 NPDir=0 NMtPBC=     1 NCelOv=     1 NCel=       1 NClECP=     1 NCelD=      1
         NCelK=      1 NCelE2=     1 NClLst=     1 CellRange=     0.0.
 One-electron integrals computed using PRISM.
   1 Symmetry operations used in ECPInt.
 ECPInt:  NShTT=   19306 NPrTT=   56928 LenC2=   18526 LenP2D=   42282.
 LDataN:  DoStor=T MaxTD1= 6 Len=  172
 NBasis=   528 RedAO= T EigKep=  2.63D-05  NBF=   528
 NBsUse=   528 1.00D-06 EigRej= -1.00D+00 NBFU=   528
 Precomputing XC quadrature grid using
 IXCGrd= 4 IRadAn=           5 IRanWt=          -1 IRanGd=           0 AccXCQ= 0.00D+00.
 Generated NRdTot=       0 NPtTot=           0 NUsed=           0 NTot=          32
 NSgBfM=   526   526   526   526   526 MxSgAt=    28 MxSgA2=    28.
 Leave Link  302 at Mon Aug  3 16:35:20 2020, MaxMem=  6442450944 cpu:              16.3 elap:               0.7
 (Enter /scratch/scicomp/CentOS/7.3.1611/Haswell/software/Gaussian/g16/l303.exe)
 DipDrv:  MaxL=1.
 Leave Link  303 at Mon Aug  3 16:35:20 2020, MaxMem=  6442450944 cpu:               1.5 elap:               0.1
 (Enter /scratch/scicomp/CentOS/7.3.1611/Haswell/software/Gaussian/g16/l401.exe)
 ExpMin= 9.52D-02 ExpMax= 1.36D+04 ExpMxC= 4.63D+02 IAcc=3 IRadAn=         5 AccDes= 0.00D+00
 Harris functional with IExCor= 4639 and IRadAn=       5 diagonalized for initial guess.
 HarFok:  IExCor= 4639 AccDes= 0.00D+00 IRadAn=         5 IDoV= 1 UseB2=F ITyADJ=14
 ICtDFT=  3500011 ScaDFX=  1.000000  1.000000  1.000000  1.000000
 FoFCou: FMM=F IPFlag=           0 FMFlag=      100000 FMFlg1=           0
         NFxFlg=           0 DoJE=T BraDBF=F KetDBF=T FulRan=T
         wScrn=  0.000000 ICntrl=       500 IOpCl=  0 I1Cent=   200000004 NGrid=           0
         NMat0=    1 NMatS0=      1 NMatT0=    0 NMatD0=    1 NMtDS0=    0 NMtDT0=    0
 Symmetry not used in FoFCou.
 Harris En= -444.614388225524    
 JPrj=0 DoOrth=F DoCkMO=T.
 Mixing orbitals, IMix= 1 IMixAn=  0 NRI=1 NE=   44 Coef=  7.07106781D-01  7.07106781D-01
 Mixing orbitals, IMix= 1 IMixAn=  0 NRI=1 NE=   44 Coef= -7.07106781D-01  7.07106781D-01
 Initial guess <Sx>= 0.0000 <Sy>= 0.0000 <Sz>= 0.0000 <S**2>= 1.0000 S= 0.6180
 Leave Link  401 at Mon Aug  3 16:35:22 2020, MaxMem=  6442450944 cpu:              49.6 elap:               2.1
 (Enter /scratch/scicomp/CentOS/7.3.1611/Haswell/software/Gaussian/g16/l502.exe)
 Two-electron integral symmetry not used.
 UHF open shell SCF:
 Using DIIS extrapolation, IDIIS=  1040.
 NGot=  6442450944 LenX=  6441877030 LenY=  6441597718
 Requested convergence on RMS density matrix=1.00D-08 within 128 cycles.
 Requested convergence on MAX density matrix=1.00D-06.
 Requested convergence on             energy=1.00D-06.
 No special actions if energy rises.
 Fock matrices will be formed incrementally for  20 cycles.

 Cycle   1  Pass 1  IDiag  1:
 FoFJK:  IHMeth= 1 ICntrl=       0 DoSepK=T KAlg= 0 I1Cent=           0 FoldK=F
 IRaf=         1 NMat=       1 IRICut=       1 DoRegI=T DoRafI=F ISym2E= 0 IDoP0=0 IntGTp=1.
 FoFCou: FMM=F IPFlag=           0 FMFlag=      100000 FMFlg1=           0
         NFxFlg=           0 DoJE=T BraDBF=F KetDBF=F FulRan=T
         wScrn=  0.000000 ICntrl=       500 IOpCl=  0 I1Cent=           0 NGrid=           0
         NMat0=    1 NMatS0=      1 NMatT0=    0 NMatD0=    1 NMtDS0=    0 NMtDT0=    0
 Symmetry not used in FoFCou.
 Inv3:  Mode=1 IEnd=    62627283.
 Iteration    1 A*A^-1 deviation from unit magnitude is 3.77D-15 for   3207.
 Iteration    1 A*A^-1 deviation from orthogonality  is 2.09D-15 for   3763   2605.
 Iteration    1 A^-1*A deviation from unit magnitude is 3.33D-15 for   2033.
 Iteration    1 A^-1*A deviation from orthogonality  is 1.76D-15 for   3159   3066.
 E= -466.669715096308    
 DIIS: error= 4.85D-02 at cycle   1 NSaved=   1.
 NSaved= 1 IEnMin= 1 EnMin= -466.669715096308     IErMin= 1 ErrMin= 4.85D-02
 ErrMax= 4.85D-02  0.00D+00 EMaxC= 1.00D-01 BMatC= 4.11D+00 BMatP= 4.11D+00
 IDIUse=3 WtCom= 5.15D-01 WtEn= 4.85D-01
 Coeff-Com:  0.100D+01
 Coeff-En:   0.100D+01
 Coeff:      0.100D+01
 Gap=     0.222 Goal=   None    Shift=    0.000
 Gap=     0.222 Goal=   None    Shift=    0.000
 GapD=    0.222 DampG=1.000 DampE=0.500 DampFc=0.5000 IDamp=-1.
 Damping current iteration by 5.00D-01
 RMSDP=1.38D-03 MaxDP=9.23D-02              OVMax= 1.02D-01

 Cycle   2  Pass 1  IDiag  1:
 RMSU=  6.72D-04    CP:  9.75D-01
 E= -466.742667567098     Delta-E=       -0.072952470790 Rises=F Damp=T
 DIIS: error= 2.29D-02 at cycle   2 NSaved=   2.
 NSaved= 2 IEnMin= 2 EnMin= -466.742667567098     IErMin= 2 ErrMin= 2.29D-02
 ErrMax= 2.29D-02  0.00D+00 EMaxC= 1.00D-01 BMatC= 9.21D-01 BMatP= 4.11D+00
 IDIUse=3 WtCom= 7.71D-01 WtEn= 2.29D-01
 Coeff-Com: -0.862D+00 0.186D+01
 Coeff-En:   0.000D+00 0.100D+01
 Coeff:     -0.665D+00 0.166D+01
 Gap=     0.235 Goal=   None    Shift=    0.000
 Gap=     0.235 Goal=   None    Shift=    0.000
 RMSDP=8.40D-04 MaxDP=4.82D-02 DE=-7.30D-02 OVMax= 4.35D-02

 Cycle   3  Pass 1  IDiag  1:
 RMSU=  4.40D-04    CP:  9.45D-01  2.03D+00
 E= -466.814972274326     Delta-E=       -0.072304707228 Rises=F Damp=F
 DIIS: error= 2.65D-03 at cycle   3 NSaved=   3.
 NSaved= 3 IEnMin= 3 EnMin= -466.814972274326     IErMin= 3 ErrMin= 2.65D-03
 ErrMax= 2.65D-03  0.00D+00 EMaxC= 1.00D-01 BMatC= 1.99D-02 BMatP= 9.21D-01
 IDIUse=3 WtCom= 9.74D-01 WtEn= 2.65D-02
 Coeff-Com: -0.324D+00 0.697D+00 0.627D+00
 Coeff-En:   0.000D+00 0.000D+00 0.100D+01
 Coeff:     -0.315D+00 0.678D+00 0.637D+00
 Gap=     0.239 Goal=   None    Shift=    0.000
 Gap=     0.239 Goal=   None    Shift=    0.000
 RMSDP=1.21D-04 MaxDP=5.72D-03 DE=-7.23D-02 OVMax= 1.69D-02

 Cycle   4  Pass 1  IDiag  1:
 RMSU=  9.89D-05    CP:  9.43D-01  2.10D+00  8.97D-01
 E= -466.820223059769     Delta-E=       -0.005250785444 Rises=F Damp=F
 DIIS: error= 1.25D-03 at cycle   4 NSaved=   4.
 NSaved= 4 IEnMin= 4 EnMin= -466.820223059769     IErMin= 4 ErrMin= 1.25D-03
 ErrMax= 1.25D-03  0.00D+00 EMaxC= 1.00D-01 BMatC= 5.52D-04 BMatP= 1.99D-02
 IDIUse=3 WtCom= 9.88D-01 WtEn= 1.25D-02
 Coeff-Com:  0.118D+00-0.254D+00-0.131D+00 0.127D+01
 Coeff-En:   0.000D+00 0.000D+00 0.000D+00 0.100D+01
 Coeff:      0.117D+00-0.251D+00-0.129D+00 0.126D+01
 Gap=     0.243 Goal=   None    Shift=    0.000
 Gap=     0.243 Goal=   None    Shift=    0.000
 RMSDP=9.10D-05 MaxDP=4.55D-03 DE=-5.25D-03 OVMax= 1.99D-02

 Cycle   5  Pass 1  IDiag  1:
 RMSU=  3.82D-05    CP:  9.41D-01  2.14D+00  1.03D+00  1.53D+00
 E= -466.820968033411     Delta-E=       -0.000744973642 Rises=F Damp=F
 DIIS: error= 4.14D-04 at cycle   5 NSaved=   5.
 NSaved= 5 IEnMin= 5 EnMin= -466.820968033411     IErMin= 5 ErrMin= 4.14D-04
 ErrMax= 4.14D-04  0.00D+00 EMaxC= 1.00D-01 BMatC= 1.10D-04 BMatP= 5.52D-04
 IDIUse=3 WtCom= 9.96D-01 WtEn= 4.14D-03
 Coeff-Com:  0.327D-01-0.709D-01-0.637D-01-0.113D-01 0.111D+01
 Coeff-En:   0.000D+00 0.000D+00 0.000D+00 0.000D+00 0.100D+01
 Coeff:      0.326D-01-0.706D-01-0.634D-01-0.112D-01 0.111D+01
 Gap=     0.244 Goal=   None    Shift=    0.000
 Gap=     0.244 Goal=   None    Shift=    0.000
 RMSDP=3.72D-05 MaxDP=2.50D-03 DE=-7.45D-04 OVMax= 8.35D-03

 Cycle   6  Pass 1  IDiag  1:
 RMSU=  1.36D-05    CP:  9.40D-01  2.14D+00  1.06D+00  1.75D+00  1.59D+00
 E= -466.821117893400     Delta-E=       -0.000149859989 Rises=F Damp=F
 DIIS: error= 1.78D-04 at cycle   6 NSaved=   6.
 NSaved= 6 IEnMin= 6 EnMin= -466.821117893400     IErMin= 6 ErrMin= 1.78D-04
 ErrMax= 1.78D-04  0.00D+00 EMaxC= 1.00D-01 BMatC= 3.92D-05 BMatP= 1.10D-04
 IDIUse=3 WtCom= 9.98D-01 WtEn= 1.78D-03
 Coeff-Com: -0.233D-01 0.501D-01 0.161D-01-0.375D+00 0.404D+00 0.928D+00
 Coeff-En:   0.000D+00 0.000D+00 0.000D+00 0.000D+00 0.000D+00 0.100D+01
 Coeff:     -0.233D-01 0.500D-01 0.161D-01-0.374D+00 0.403D+00 0.928D+00
 Gap=     0.245 Goal=   None    Shift=    0.000
 Gap=     0.245 Goal=   None    Shift=    0.000
 RMSDP=1.95D-05 MaxDP=1.22D-03 DE=-1.50D-04 OVMax= 4.71D-03

 Cycle   7  Pass 1  IDiag  1:
 RMSU=  7.44D-06    CP:  9.40D-01  2.14D+00  1.06D+00  1.84D+00  1.96D+00
                    CP:  1.42D+00
 E= -466.821157189364     Delta-E=       -0.000039295965 Rises=F Damp=F
 DIIS: error= 6.57D-05 at cycle   7 NSaved=   7.
 NSaved= 7 IEnMin= 7 EnMin= -466.821157189364     IErMin= 7 ErrMin= 6.57D-05
 ErrMax= 6.57D-05  0.00D+00 EMaxC= 1.00D-01 BMatC= 4.07D-06 BMatP= 3.92D-05
 IDIUse=1 WtCom= 1.00D+00 WtEn= 0.00D+00
 Coeff-Com: -0.886D-02 0.192D-01 0.119D-01-0.582D-01-0.929D-01 0.135D+00
 Coeff-Com:  0.993D+00
 Coeff:     -0.886D-02 0.192D-01 0.119D-01-0.582D-01-0.929D-01 0.135D+00
 Coeff:      0.993D+00
 Gap=     0.245 Goal=   None    Shift=    0.000
 Gap=     0.245 Goal=   None    Shift=    0.000
 RMSDP=7.39D-06 MaxDP=4.76D-04 DE=-3.93D-05 OVMax= 1.79D-03

 Cycle   8  Pass 1  IDiag  1:
 RMSU=  2.93D-06    CP:  9.40D-01  2.14D+00  1.06D+00  1.85D+00  2.07D+00
                    CP:  1.71D+00  1.35D+00
 E= -466.821162239018     Delta-E=       -0.000005049653 Rises=F Damp=F
 DIIS: error= 3.65D-05 at cycle   8 NSaved=   8.
 NSaved= 8 IEnMin= 8 EnMin= -466.821162239018     IErMin= 8 ErrMin= 3.65D-05
 ErrMax= 3.65D-05  0.00D+00 EMaxC= 1.00D-01 BMatC= 1.00D-06 BMatP= 4.07D-06
 IDIUse=1 WtCom= 1.00D+00 WtEn= 0.00D+00
 Coeff-Com:  0.190D-02-0.409D-02 0.234D-03 0.535D-01-0.954D-01-0.143D+00
 Coeff-Com:  0.258D+00 0.929D+00
 Coeff:      0.190D-02-0.409D-02 0.234D-03 0.535D-01-0.954D-01-0.143D+00
 Coeff:      0.258D+00 0.929D+00
 Gap=     0.245 Goal=   None    Shift=    0.000
 Gap=     0.245 Goal=   None    Shift=    0.000
 RMSDP=3.19D-06 MaxDP=1.89D-04 DE=-5.05D-06 OVMax= 7.28D-04

 Cycle   9  Pass 1  IDiag  1:
 RMSU=  1.35D-06    CP:  9.40D-01  2.14D+00  1.06D+00  1.85D+00  2.09D+00
                    CP:  1.81D+00  1.62D+00  1.35D+00
 E= -466.821163326385     Delta-E=       -0.000001087367 Rises=F Damp=F
 DIIS: error= 1.46D-05 at cycle   9 NSaved=   9.
 NSaved= 9 IEnMin= 9 EnMin= -466.821163326385     IErMin= 9 ErrMin= 1.46D-05
 ErrMax= 1.46D-05  0.00D+00 EMaxC= 1.00D-01 BMatC= 2.33D-07 BMatP= 1.00D-06
 IDIUse=1 WtCom= 1.00D+00 WtEn= 0.00D+00
 Coeff-Com:  0.247D-02-0.535D-02-0.253D-02 0.274D-01-0.570D-02-0.706D-01
 Coeff-Com: -0.130D+00 0.261D+00 0.924D+00
 Coeff:      0.247D-02-0.535D-02-0.253D-02 0.274D-01-0.570D-02-0.706D-01
 Coeff:     -0.130D+00 0.261D+00 0.924D+00
 Gap=     0.245 Goal=   None    Shift=    0.000
 Gap=     0.245 Goal=   None    Shift=    0.000
 RMSDP=1.43D-06 MaxDP=8.10D-05 DE=-1.09D-06 OVMax= 3.75D-04

 Cycle  10  Pass 1  IDiag  1:
 RMSU=  5.08D-07    CP:  9.40D-01  2.14D+00  1.06D+00  1.84D+00  2.10D+00
                    CP:  1.84D+00  1.72D+00  1.65D+00  1.33D+00
 E= -466.821163589841     Delta-E=       -0.000000263456 Rises=F Damp=F
 DIIS: error= 7.93D-06 at cycle  10 NSaved=  10.
 NSaved=10 IEnMin=10 EnMin= -466.821163589841     IErMin=10 ErrMin= 7.93D-06
 ErrMax= 7.93D-06  0.00D+00 EMaxC= 1.00D-01 BMatC= 4.74D-08 BMatP= 2.33D-07
 IDIUse=1 WtCom= 1.00D+00 WtEn= 0.00D+00
 Coeff-Com: -0.843D-03 0.182D-02 0.355D-03-0.172D-01 0.257D-01 0.445D-01
 Coeff-Com: -0.444D-01-0.275D+00-0.129D+00 0.139D+01
 Coeff:     -0.843D-03 0.182D-02 0.355D-03-0.172D-01 0.257D-01 0.445D-01
 Coeff:     -0.444D-01-0.275D+00-0.129D+00 0.139D+01
 Gap=     0.245 Goal=   None    Shift=    0.000
 Gap=     0.245 Goal=   None    Shift=    0.000
 RMSDP=9.55D-07 MaxDP=5.06D-05 DE=-2.63D-07 OVMax= 2.41D-04

 Cycle  11  Pass 1  IDiag  1:
 RMSU=  3.40D-07    CP:  9.40D-01  2.14D+00  1.06D+00  1.84D+00  2.10D+00
                    CP:  1.84D+00  1.77D+00  1.79D+00  1.72D+00  1.76D+00
 E= -466.821163681491     Delta-E=       -0.000000091650 Rises=F Damp=F
 DIIS: error= 5.28D-06 at cycle  11 NSaved=  11.
 NSaved=11 IEnMin=11 EnMin= -466.821163681491     IErMin=11 ErrMin= 5.28D-06
 ErrMax= 5.28D-06  0.00D+00 EMaxC= 1.00D-01 BMatC= 1.16D-08 BMatP= 4.74D-08
 IDIUse=1 WtCom= 1.00D+00 WtEn= 0.00D+00
 Coeff-Com: -0.650D-03 0.141D-02 0.508D-03-0.959D-02 0.926D-02 0.251D-01
 Coeff-Com:  0.653D-02-0.130D+00-0.188D+00 0.440D+00 0.845D+00
 Coeff:     -0.650D-03 0.141D-02 0.508D-03-0.959D-02 0.926D-02 0.251D-01
 Coeff:      0.653D-02-0.130D+00-0.188D+00 0.440D+00 0.845D+00
 Gap=     0.245 Goal=   None    Shift=    0.000
 Gap=     0.245 Goal=   None    Shift=    0.000
 RMSDP=3.07D-07 MaxDP=1.26D-05 DE=-9.17D-08 OVMax= 9.19D-05

 Cycle  12  Pass 1  IDiag  1:
 RMSU=  1.21D-07    CP:  9.40D-01  2.14D+00  1.06D+00  1.85D+00  2.10D+00
                    CP:  1.84D+00  1.77D+00  1.81D+00  1.79D+00  2.08D+00
                    CP:  1.43D+00
 E= -466.821163697277     Delta-E=       -0.000000015787 Rises=F Damp=F
 DIIS: error= 3.88D-06 at cycle  12 NSaved=  12.
 NSaved=12 IEnMin=12 EnMin= -466.821163697277     IErMin=12 ErrMin= 3.88D-06
 ErrMax= 3.88D-06  0.00D+00 EMaxC= 1.00D-01 BMatC= 2.88D-09 BMatP= 1.16D-08
 IDIUse=1 WtCom= 1.00D+00 WtEn= 0.00D+00
 Coeff-Com:  0.221D-03-0.480D-03-0.731D-04 0.479D-02-0.673D-02-0.121D-01
 Coeff-Com:  0.113D-01 0.720D-01 0.302D-01-0.391D+00 0.809D-01 0.121D+01
 Coeff:      0.221D-03-0.480D-03-0.731D-04 0.479D-02-0.673D-02-0.121D-01
 Coeff:      0.113D-01 0.720D-01 0.302D-01-0.391D+00 0.809D-01 0.121D+01
 Gap=     0.245 Goal=   None    Shift=    0.000
 Gap=     0.245 Goal=   None    Shift=    0.000
 RMSDP=2.73D-07 MaxDP=1.15D-05 DE=-1.58D-08 OVMax= 8.83D-05

 Cycle  13  Pass 1  IDiag  1:
 RMSU=  8.45D-08    CP:  9.40D-01  2.14D+00  1.06D+00  1.85D+00  2.11D+00
                    CP:  1.84D+00  1.78D+00  1.80D+00  1.81D+00  2.27D+00
                    CP:  1.92D+00  1.64D+00
 E= -466.821163704032     Delta-E=       -0.000000006755 Rises=F Damp=F
 DIIS: error= 1.85D-06 at cycle  13 NSaved=  13.
 NSaved=13 IEnMin=13 EnMin= -466.821163704032     IErMin=13 ErrMin= 1.85D-06
 ErrMax= 1.85D-06  0.00D+00 EMaxC= 1.00D-01 BMatC= 6.38D-10 BMatP= 2.88D-09
 IDIUse=1 WtCom= 1.00D+00 WtEn= 0.00D+00
 Coeff-Com:  0.163D-03-0.352D-03-0.106D-03 0.269D-02-0.273D-02-0.692D-02
 Coeff-Com:  0.187D-03 0.354D-01 0.421D-01-0.149D+00-0.145D+00 0.193D+00
 Coeff-Com:  0.103D+01
 Coeff:      0.163D-03-0.352D-03-0.106D-03 0.269D-02-0.273D-02-0.692D-02
 Coeff:      0.187D-03 0.354D-01 0.421D-01-0.149D+00-0.145D+00 0.193D+00
 Coeff:      0.103D+01
 Gap=     0.245 Goal=   None    Shift=    0.000
 Gap=     0.245 Goal=   None    Shift=    0.000
 RMSDP=1.24D-07 MaxDP=6.66D-06 DE=-6.75D-09 OVMax= 4.26D-05

 Cycle  14  Pass 1  IDiag  1:
 RMSU=  3.66D-08    CP:  9.40D-01  2.14D+00  1.06D+00  1.85D+00  2.11D+00
                    CP:  1.84D+00  1.78D+00  1.80D+00  1.80D+00  2.33D+00
                    CP:  2.10D+00  2.04D+00  1.50D+00
 E= -466.821163705551     Delta-E=       -0.000000001518 Rises=F Damp=F
 DIIS: error= 8.39D-07 at cycle  14 NSaved=  14.
 NSaved=14 IEnMin=14 EnMin= -466.821163705551     IErMin=14 ErrMin= 8.39D-07
 ErrMax= 8.39D-07  0.00D+00 EMaxC= 1.00D-01 BMatC= 2.06D-10 BMatP= 6.38D-10
 IDIUse=1 WtCom= 1.00D+00 WtEn= 0.00D+00
 Coeff-Com: -0.444D-04 0.966D-04 0.102D-04-0.105D-02 0.184D-02 0.256D-02
 Coeff-Com: -0.457D-02-0.181D-01-0.971D-03 0.101D+00-0.529D-01-0.367D+00
 Coeff-Com:  0.216D+00 0.112D+01
 Coeff:     -0.444D-04 0.966D-04 0.102D-04-0.105D-02 0.184D-02 0.256D-02
 Coeff:     -0.457D-02-0.181D-01-0.971D-03 0.101D+00-0.529D-01-0.367D+00
 Coeff:      0.216D+00 0.112D+01
 Gap=     0.245 Goal=   None    Shift=    0.000
 Gap=     0.245 Goal=   None    Shift=    0.000
 RMSDP=7.85D-08 MaxDP=3.77D-06 DE=-1.52D-09 OVMax= 2.85D-05

 Cycle  15  Pass 1  IDiag  1:
 RMSU=  1.84D-08    CP:  9.40D-01  2.14D+00  1.06D+00  1.85D+00  2.11D+00
                    CP:  1.84D+00  1.78D+00  1.80D+00  1.81D+00  2.36D+00
                    CP:  2.18D+00  2.26D+00  1.99D+00  1.56D+00
 E= -466.821163706030     Delta-E=       -0.000000000480 Rises=F Damp=F
 DIIS: error= 2.64D-07 at cycle  15 NSaved=  15.
 NSaved=15 IEnMin=15 EnMin= -466.821163706030     IErMin=15 ErrMin= 2.64D-07
 ErrMax= 2.64D-07  0.00D+00 EMaxC= 1.00D-01 BMatC= 3.54D-11 BMatP= 2.06D-10
 IDIUse=1 WtCom= 1.00D+00 WtEn= 0.00D+00
 Coeff-Com: -0.448D-04 0.969D-04 0.213D-04-0.849D-03 0.112D-02 0.216D-02
 Coeff-Com: -0.145D-02-0.128D-01-0.993D-02 0.606D-01 0.206D-01-0.141D+00
 Coeff-Com: -0.196D+00 0.269D+00 0.101D+01
 Coeff:     -0.448D-04 0.969D-04 0.213D-04-0.849D-03 0.112D-02 0.216D-02
 Coeff:     -0.145D-02-0.128D-01-0.993D-02 0.606D-01 0.206D-01-0.141D+00
 Coeff:     -0.196D+00 0.269D+00 0.101D+01
 Gap=     0.245 Goal=   None    Shift=    0.000
 Gap=     0.245 Goal=   None    Shift=    0.000
 RMSDP=3.32D-08 MaxDP=1.54D-06 DE=-4.80D-10 OVMax= 1.22D-05

 Cycle  16  Pass 1  IDiag  1:
 RMSU=  7.37D-09    CP:  9.40D-01  2.14D+00  1.06D+00  1.85D+00  2.11D+00
                    CP:  1.84D+00  1.78D+00  1.81D+00  1.81D+00  2.38D+00
                    CP:  2.21D+00  2.34D+00  2.17D+00  1.90D+00  1.44D+00
 E= -466.821163706104     Delta-E=       -0.000000000074 Rises=F Damp=F
 DIIS: error= 4.65D-08 at cycle  16 NSaved=  16.
 NSaved=16 IEnMin=16 EnMin= -466.821163706104     IErMin=16 ErrMin= 4.65D-08
 ErrMax= 4.65D-08  0.00D+00 EMaxC= 1.00D-01 BMatC= 3.22D-12 BMatP= 3.54D-11
 IDIUse=1 WtCom= 1.00D+00 WtEn= 0.00D+00
 Coeff-Com:  0.196D-05-0.442D-05-0.293D-06 0.627D-04-0.117D-03-0.157D-03
 Coeff-Com:  0.435D-03 0.122D-02-0.929D-03-0.779D-02 0.102D-01 0.383D-01
 Coeff-Com: -0.509D-01-0.134D+00 0.121D+00 0.102D+01
 Coeff:      0.196D-05-0.442D-05-0.293D-06 0.627D-04-0.117D-03-0.157D-03
 Coeff:      0.435D-03 0.122D-02-0.929D-03-0.779D-02 0.102D-01 0.383D-01
 Coeff:     -0.509D-01-0.134D+00 0.121D+00 0.102D+01
 Gap=     0.245 Goal=   None    Shift=    0.000
 Gap=     0.245 Goal=   None    Shift=    0.000
 RMSDP=7.60D-09 MaxDP=2.76D-07 DE=-7.37D-11 OVMax= 2.26D-06

 Error on total polarization charges =  0.01170
 SCF Done:  E(UwB97XD) =  -466.821163706     A.U. after   16 cycles
            NFock= 16  Conv=0.76D-08     -V/T= 2.0062
 <Sx>= 0.0000 <Sy>= 0.0000 <Sz>= 0.0000 <S**2>= 0.9497 S= 0.5953
 <L.S>=  0.00000000000    
 KE= 4.639653780365D+02 PE=-2.465971046980D+03 EE= 8.429433717504D+02
 --------------------------------------------------------------------
 Variational PCM results
 =======================
 <psi(f)|   H    |psi(f)>                     (a.u.) =    -466.819898
 <psi(f)|H+V(f)/2|psi(f)>                     (a.u.) =    -466.821164
 (Polarized solute)-Solvent               (kcal/mol) =      -0.79
 --------------------------------------------------------------------
 Partition over spheres:
 Sphere  on Atom  Surface  Charge   GEl     GCav    GDR
    1      C1       7.39   0.011   -0.04    0.00    0.00
    2      C2       0.59   0.000   -0.00    0.00    0.00
    3      H3       7.51  -0.010   -0.04    0.00    0.00
    4      H4       3.54  -0.004   -0.01    0.00    0.00
    5      C5       4.76   0.008   -0.04    0.00    0.00
    6      C6       0.41   0.000   -0.00    0.00    0.00
    7      H7       4.94  -0.007   -0.03    0.00    0.00
    8      H8       3.32  -0.004   -0.01    0.00    0.00
    9      C9       3.06   0.002   -0.00    0.00    0.00
   10      H10      7.16  -0.006   -0.01    0.00    0.00
   11      H11      3.74  -0.003   -0.01    0.00    0.00
   12      C12      6.85   0.011   -0.06    0.00    0.00
   13      H13      7.51  -0.010   -0.03    0.00    0.00
   14      C14      7.30   0.011   -0.04    0.00    0.00
   15      H15      7.51  -0.010   -0.04    0.00    0.00
   16      C16      3.70   0.002    0.00    0.00    0.00
   17      H17      4.74  -0.005   -0.02    0.00    0.00
   18      H18      7.42  -0.008   -0.03    0.00    0.00
   19      C19      4.98   0.009   -0.04    0.00    0.00
   20      H20      5.39  -0.007   -0.03    0.00    0.00
   21      C21      6.65   0.011   -0.06    0.00    0.00
   22      H22      7.50  -0.010   -0.03    0.00    0.00
   23      C23      3.01   0.002   -0.00    0.00    0.00
   24      H24      3.29  -0.002   -0.01    0.00    0.00
   25      H25      7.16  -0.006   -0.01    0.00    0.00
   26      C26      3.22   0.001    0.00    0.00    0.00
   27      H27      7.42  -0.008   -0.03    0.00    0.00
   28      H28      4.16  -0.004   -0.02    0.00    0.00
 Added spheres:    74.86   0.024   -0.18    0.00    0.00
 --------------------------------------------------------------------
 After PCM corrections, the energy is  -466.821163706     a.u.
 --------------------------------------------------------------------
 Annihilation of the first spin contaminant:
 S**2 before annihilation     0.9497,   after     0.4379
 Leave Link  502 at Mon Aug  3 16:40:10 2020, MaxMem=  6442450944 cpu:            6840.4 elap:             287.7
 (Enter /scratch/scicomp/CentOS/7.3.1611/Haswell/software/Gaussian/g16/l601.exe)
 Copying SCF densities to generalized density rwf, IOpCl= 1 IROHF=0.

 **********************************************************************

            Population analysis using the SCF Density.

 **********************************************************************

 Alpha  occ. eigenvalues --  -10.29981 -10.29714 -10.28742 -10.28480 -10.28460
 Alpha  occ. eigenvalues --  -10.28438 -10.28199 -10.28121 -10.28023 -10.27998
 Alpha  occ. eigenvalues --  -10.27892 -10.27760  -0.94951  -0.92972  -0.85144
 Alpha  occ. eigenvalues --   -0.84508  -0.83631  -0.81898  -0.71133  -0.70162
 Alpha  occ. eigenvalues --   -0.69594  -0.67799  -0.59978  -0.59296  -0.58393
 Alpha  occ. eigenvalues --   -0.56351  -0.53439  -0.52933  -0.50767  -0.49655
 Alpha  occ. eigenvalues --   -0.49054  -0.48162  -0.47844  -0.47427  -0.46548
 Alpha  occ. eigenvalues --   -0.44732  -0.41515  -0.40925  -0.39891  -0.39661
 Alpha  occ. eigenvalues --   -0.38719  -0.37208  -0.33108  -0.24678
 Alpha virt. eigenvalues --   -0.00177   0.09569   0.10479   0.12531   0.13105
 Alpha virt. eigenvalues --    0.14109   0.14565   0.15454   0.16010   0.16296
 Alpha virt. eigenvalues --    0.16750   0.17086   0.18305   0.19860   0.20501
 Alpha virt. eigenvalues --    0.21097   0.21487   0.22523   0.23293   0.23565
 Alpha virt. eigenvalues --    0.24749   0.25109   0.26321   0.26507   0.27121
 Alpha virt. eigenvalues --    0.28541   0.28673   0.29704   0.30527   0.30645
 Alpha virt. eigenvalues --    0.31356   0.31749   0.31915   0.32666   0.33927
 Alpha virt. eigenvalues --    0.34099   0.35496   0.35987   0.36512   0.37095
 Alpha virt. eigenvalues --    0.37662   0.38597   0.40881   0.41246   0.41912
 Alpha virt. eigenvalues --    0.43211   0.43826   0.44814   0.45493   0.45579
 Alpha virt. eigenvalues --    0.46413   0.46737   0.48249   0.48395   0.48483
 Alpha virt. eigenvalues --    0.48493   0.49055   0.49229   0.49964   0.50296
 Alpha virt. eigenvalues --    0.50452   0.50993   0.51271   0.52091   0.52806
 Alpha virt. eigenvalues --    0.52897   0.54101   0.54163   0.54700   0.55920
 Alpha virt. eigenvalues --    0.56210   0.56457   0.57708   0.58269   0.58450
 Alpha virt. eigenvalues --    0.58645   0.60410   0.61120   0.63295   0.65251
 Alpha virt. eigenvalues --    0.66349   0.67540   0.67622   0.68888   0.69009
 Alpha virt. eigenvalues --    0.70507   0.71507   0.73708   0.75442   0.75605
 Alpha virt. eigenvalues --    0.78633   0.78854   0.79169   0.81470   0.82063
 Alpha virt. eigenvalues --    0.82803   0.84226   0.86007   0.87600   0.87774
 Alpha virt. eigenvalues --    0.88894   0.89353   0.92846   0.93973   0.94681
 Alpha virt. eigenvalues --    0.96504   0.96592   0.97884   0.98686   0.99682
 Alpha virt. eigenvalues --    1.01541   1.01667   1.03954   1.04589   1.05568
 Alpha virt. eigenvalues --    1.07005   1.08109   1.08733   1.09604   1.10138
 Alpha virt. eigenvalues --    1.11928   1.14015   1.15519   1.16692   1.17349
 Alpha virt. eigenvalues --    1.18284   1.19082   1.19495   1.19594   1.20044
 Alpha virt. eigenvalues --    1.21176   1.22746   1.24445   1.25631   1.26012
 Alpha virt. eigenvalues --    1.26901   1.27902   1.28465   1.28666   1.29245
 Alpha virt. eigenvalues --    1.30204   1.30594   1.33053   1.34166   1.34413
 Alpha virt. eigenvalues --    1.35152   1.35752   1.36004   1.38103   1.38903
 Alpha virt. eigenvalues --    1.39084   1.39291   1.40079   1.41284   1.42112
 Alpha virt. eigenvalues --    1.42944   1.43102   1.44196   1.44696   1.45811
 Alpha virt. eigenvalues --    1.46186   1.47130   1.47366   1.49200   1.49900
 Alpha virt. eigenvalues --    1.50664   1.53640   1.54511   1.56985   1.57584
 Alpha virt. eigenvalues --    1.59636   1.59907   1.60067   1.62791   1.63534
 Alpha virt. eigenvalues --    1.63880   1.66314   1.67241   1.68789   1.68961
 Alpha virt. eigenvalues --    1.73003   1.73967   1.76869   1.77239   1.78208
 Alpha virt. eigenvalues --    1.79800   1.80982   1.81638   1.85246   1.86159
 Alpha virt. eigenvalues --    1.87615   1.89251   1.91351   1.92274   1.94150
 Alpha virt. eigenvalues --    1.97505   1.97800   2.01162   2.04526   2.04619
 Alpha virt. eigenvalues --    2.06948   2.07185   2.08552   2.10439   2.11080
 Alpha virt. eigenvalues --    2.12702   2.14279   2.16427   2.17424   2.18119
 Alpha virt. eigenvalues --    2.18236   2.18842   2.20053   2.21472   2.23935
 Alpha virt. eigenvalues --    2.25029   2.25798   2.28550   2.30268   2.31905
 Alpha virt. eigenvalues --    2.34458   2.36894   2.37103   2.39550   2.43584
 Alpha virt. eigenvalues --    2.45612   2.46889   2.46982   2.48049   2.49754
 Alpha virt. eigenvalues --    2.50813   2.54911   2.54988   2.56800   2.57557
 Alpha virt. eigenvalues --    2.57890   2.59400   2.60708   2.62294   2.63527
 Alpha virt. eigenvalues --    2.63834   2.64053   2.67966   2.68197   2.68611
 Alpha virt. eigenvalues --    2.68738   2.70774   2.72027   2.72915   2.73844
 Alpha virt. eigenvalues --    2.73914   2.75217   2.76193   2.77770   2.78478
 Alpha virt. eigenvalues --    2.79607   2.80993   2.81706   2.82282   2.82596
 Alpha virt. eigenvalues --    2.82898   2.84651   2.85492   2.85847   2.86498
 Alpha virt. eigenvalues --    2.87529   2.88793   2.89003   2.89469   2.90630
 Alpha virt. eigenvalues --    2.92880   2.94136   2.94392   2.95196   2.95863
 Alpha virt. eigenvalues --    2.96343   2.99237   3.00388   3.01879   3.02665
 Alpha virt. eigenvalues --    3.04499   3.05494   3.06462   3.06750   3.06970
 Alpha virt. eigenvalues --    3.09227   3.09638   3.10234   3.10761   3.11202
 Alpha virt. eigenvalues --    3.12891   3.12971   3.14256   3.14462   3.15238
 Alpha virt. eigenvalues --    3.15402   3.16016   3.17357   3.19612   3.20189
 Alpha virt. eigenvalues --    3.20904   3.21189   3.21410   3.22369   3.22959
 Alpha virt. eigenvalues --    3.23800   3.24341   3.25711   3.25879   3.26110
 Alpha virt. eigenvalues --    3.26578   3.26946   3.27944   3.29739   3.30542
 Alpha virt. eigenvalues --    3.31354   3.31730   3.32546   3.33013   3.34847
 Alpha virt. eigenvalues --    3.35724   3.35968   3.37064   3.37388   3.37703
 Alpha virt. eigenvalues --    3.39067   3.39915   3.40798   3.41034   3.41892
 Alpha virt. eigenvalues --    3.42763   3.44717   3.45485   3.46811   3.48146
 Alpha virt. eigenvalues --    3.48633   3.49202   3.49998   3.50797   3.51498
 Alpha virt. eigenvalues --    3.52044   3.53087   3.54150   3.56384   3.57260
 Alpha virt. eigenvalues --    3.57305   3.57932   3.58767   3.60331   3.60984
 Alpha virt. eigenvalues --    3.61665   3.62322   3.62948   3.64207   3.65983
 Alpha virt. eigenvalues --    3.66891   3.67801   3.70236   3.70503   3.72696
 Alpha virt. eigenvalues --    3.73103   3.77670   3.78736   3.78962   3.80191
 Alpha virt. eigenvalues --    3.81242   3.82330   3.82903   3.83153   3.84852
 Alpha virt. eigenvalues --    3.85403   3.87991   3.90415   3.90878   3.93443
 Alpha virt. eigenvalues --    3.93921   3.95244   3.95943   3.98501   4.02200
 Alpha virt. eigenvalues --    4.03337   4.05305   4.05627   4.09093   4.10094
 Alpha virt. eigenvalues --    4.11746   4.12260   4.12414   4.14498   4.16381
 Alpha virt. eigenvalues --    4.18136   4.18711   4.21080   4.22132   4.22543
 Alpha virt. eigenvalues --    4.22988   4.25033   4.26277   4.27660   4.28810
 Alpha virt. eigenvalues --    4.31556   4.32934   4.35405   4.36442   4.37011
 Alpha virt. eigenvalues --    4.39289   4.43747   4.45648   4.46462   4.49448
 Alpha virt. eigenvalues --    4.50076   4.52418   4.53027   4.54170   4.55573
 Alpha virt. eigenvalues --    4.56758   4.59984   4.63092   4.63563   4.66667
 Alpha virt. eigenvalues --    4.67862   4.69779   4.73192   4.75210   4.76513
 Alpha virt. eigenvalues --    4.76670   4.80058   4.80776   4.88136   4.91094
 Alpha virt. eigenvalues --    4.91322   4.91762   4.93077   4.95436   4.96137
 Alpha virt. eigenvalues --    4.96887   5.03993   5.05290   5.10011   5.10967
 Alpha virt. eigenvalues --    5.18369   5.20965   5.23067   5.25710   5.26177
 Alpha virt. eigenvalues --    5.31023   5.36155   5.37333   5.38151   5.38834
 Alpha virt. eigenvalues --    5.40961   5.41977   5.52186   5.52251   5.55603
 Alpha virt. eigenvalues --    5.62263   5.72057   5.72988   5.80712   5.85253
 Alpha virt. eigenvalues --    7.94089   7.94900   8.02403   8.04417   8.07200
 Alpha virt. eigenvalues --    8.09789   8.11192   8.15133   8.17153   8.21568
 Alpha virt. eigenvalues --    8.34137   8.37907  34.75482  34.75990  34.81083
 Alpha virt. eigenvalues --   34.81946  34.85059  34.87837  34.98157  34.99465
 Alpha virt. eigenvalues --   35.01361  35.03790  35.18350  35.22632
  Beta  occ. eigenvalues --  -10.29982 -10.29714 -10.28741 -10.28479 -10.28459
  Beta  occ. eigenvalues --  -10.28439 -10.28200 -10.28122 -10.28023 -10.27998
  Beta  occ. eigenvalues --  -10.27891 -10.27761  -0.94951  -0.92972  -0.85144
  Beta  occ. eigenvalues --   -0.84508  -0.83631  -0.81898  -0.71133  -0.70162
  Beta  occ. eigenvalues --   -0.69594  -0.67799  -0.59978  -0.59296  -0.58393
  Beta  occ. eigenvalues --   -0.56351  -0.53440  -0.52933  -0.50767  -0.49655
  Beta  occ. eigenvalues --   -0.49054  -0.48162  -0.47845  -0.47427  -0.46548
  Beta  occ. eigenvalues --   -0.44732  -0.41515  -0.40926  -0.39891  -0.39661
  Beta  occ. eigenvalues --   -0.38718  -0.37209  -0.33108  -0.24678
  Beta virt. eigenvalues --   -0.00178   0.09570   0.10479   0.12531   0.13105
  Beta virt. eigenvalues --    0.14109   0.14565   0.15454   0.16010   0.16296
  Beta virt. eigenvalues --    0.16750   0.17086   0.18305   0.19860   0.20501
  Beta virt. eigenvalues --    0.21097   0.21488   0.22523   0.23293   0.23564
  Beta virt. eigenvalues --    0.24749   0.25109   0.26321   0.26507   0.27121
  Beta virt. eigenvalues --    0.28541   0.28673   0.29704   0.30527   0.30645
  Beta virt. eigenvalues --    0.31356   0.31749   0.31915   0.32666   0.33927
  Beta virt. eigenvalues --    0.34099   0.35496   0.35987   0.36512   0.37095
  Beta virt. eigenvalues --    0.37662   0.38597   0.40881   0.41246   0.41912
  Beta virt. eigenvalues --    0.43211   0.43826   0.44814   0.45494   0.45578
  Beta virt. eigenvalues --    0.46413   0.46738   0.48249   0.48395   0.48483
  Beta virt. eigenvalues --    0.48494   0.49055   0.49229   0.49964   0.50295
  Beta virt. eigenvalues --    0.50452   0.50993   0.51271   0.52091   0.52806
  Beta virt. eigenvalues --    0.52897   0.54101   0.54163   0.54700   0.55920
  Beta virt. eigenvalues --    0.56210   0.56457   0.57708   0.58269   0.58450
  Beta virt. eigenvalues --    0.58645   0.60410   0.61119   0.63295   0.65251
  Beta virt. eigenvalues --    0.66349   0.67540   0.67622   0.68888   0.69009
  Beta virt. eigenvalues --    0.70507   0.71507   0.73708   0.75442   0.75604
  Beta virt. eigenvalues --    0.78633   0.78854   0.79169   0.81470   0.82063
  Beta virt. eigenvalues --    0.82803   0.84226   0.86007   0.87600   0.87774
  Beta virt. eigenvalues --    0.88894   0.89353   0.92846   0.93973   0.94681
  Beta virt. eigenvalues --    0.96504   0.96592   0.97884   0.98686   0.99682
  Beta virt. eigenvalues --    1.01541   1.01667   1.03954   1.04589   1.05568
  Beta virt. eigenvalues --    1.07005   1.08109   1.08733   1.09604   1.10138
  Beta virt. eigenvalues --    1.11928   1.14015   1.15519   1.16692   1.17349
  Beta virt. eigenvalues --    1.18284   1.19082   1.19495   1.19594   1.20044
  Beta virt. eigenvalues --    1.21176   1.22746   1.24445   1.25631   1.26012
  Beta virt. eigenvalues --    1.26901   1.27902   1.28465   1.28666   1.29245
  Beta virt. eigenvalues --    1.30204   1.30594   1.33053   1.34166   1.34413
  Beta virt. eigenvalues --    1.35152   1.35752   1.36004   1.38103   1.38904
  Beta virt. eigenvalues --    1.39084   1.39291   1.40079   1.41284   1.42112
  Beta virt. eigenvalues --    1.42944   1.43102   1.44196   1.44696   1.45811
  Beta virt. eigenvalues --    1.46186   1.47130   1.47366   1.49200   1.49900
  Beta virt. eigenvalues --    1.50664   1.53640   1.54510   1.56985   1.57584
  Beta virt. eigenvalues --    1.59637   1.59907   1.60067   1.62791   1.63534
  Beta virt. eigenvalues --    1.63880   1.66314   1.67241   1.68789   1.68961
  Beta virt. eigenvalues --    1.73003   1.73966   1.76869   1.77239   1.78208
  Beta virt. eigenvalues --    1.79800   1.80981   1.81638   1.85246   1.86159
  Beta virt. eigenvalues --    1.87615   1.89251   1.91351   1.92274   1.94150
  Beta virt. eigenvalues --    1.97505   1.97800   2.01162   2.04526   2.04619
  Beta virt. eigenvalues --    2.06948   2.07185   2.08552   2.10439   2.11080
  Beta virt. eigenvalues --    2.12702   2.14279   2.16427   2.17424   2.18119
  Beta virt. eigenvalues --    2.18236   2.18842   2.20053   2.21472   2.23935
  Beta virt. eigenvalues --    2.25029   2.25798   2.28550   2.30268   2.31905
  Beta virt. eigenvalues --    2.34458   2.36894   2.37103   2.39550   2.43584
  Beta virt. eigenvalues --    2.45612   2.46889   2.46982   2.48049   2.49754
  Beta virt. eigenvalues --    2.50813   2.54911   2.54988   2.56800   2.57557
  Beta virt. eigenvalues --    2.57890   2.59400   2.60708   2.62294   2.63527
  Beta virt. eigenvalues --    2.63834   2.64053   2.67966   2.68197   2.68611
  Beta virt. eigenvalues --    2.68738   2.70774   2.72027   2.72915   2.73844
  Beta virt. eigenvalues --    2.73914   2.75217   2.76193   2.77770   2.78478
  Beta virt. eigenvalues --    2.79607   2.80993   2.81706   2.82282   2.82596
  Beta virt. eigenvalues --    2.82898   2.84651   2.85492   2.85847   2.86498
  Beta virt. eigenvalues --    2.87529   2.88793   2.89003   2.89469   2.90630
  Beta virt. eigenvalues --    2.92880   2.94137   2.94391   2.95196   2.95863
  Beta virt. eigenvalues --    2.96343   2.99237   3.00388   3.01879   3.02665
  Beta virt. eigenvalues --    3.04499   3.05494   3.06462   3.06750   3.06970
  Beta virt. eigenvalues --    3.09227   3.09638   3.10234   3.10761   3.11202
  Beta virt. eigenvalues --    3.12891   3.12971   3.14256   3.14462   3.15238
  Beta virt. eigenvalues --    3.15402   3.16016   3.17357   3.19612   3.20189
  Beta virt. eigenvalues --    3.20904   3.21189   3.21410   3.22369   3.22959
  Beta virt. eigenvalues --    3.23800   3.24341   3.25711   3.25878   3.26110
  Beta virt. eigenvalues --    3.26578   3.26947   3.27944   3.29738   3.30542
  Beta virt. eigenvalues --    3.31354   3.31730   3.32546   3.33013   3.34847
  Beta virt. eigenvalues --    3.35724   3.35968   3.37064   3.37388   3.37704
  Beta virt. eigenvalues --    3.39067   3.39915   3.40798   3.41034   3.41892
  Beta virt. eigenvalues --    3.42762   3.44717   3.45485   3.46811   3.48146
  Beta virt. eigenvalues --    3.48633   3.49202   3.49998   3.50797   3.51498
  Beta virt. eigenvalues --    3.52044   3.53087   3.54150   3.56384   3.57260
  Beta virt. eigenvalues --    3.57305   3.57932   3.58767   3.60331   3.60984
  Beta virt. eigenvalues --    3.61665   3.62322   3.62948   3.64207   3.65983
  Beta virt. eigenvalues --    3.66891   3.67801   3.70236   3.70502   3.72696
  Beta virt. eigenvalues --    3.73103   3.77670   3.78736   3.78963   3.80191
  Beta virt. eigenvalues --    3.81242   3.82330   3.82903   3.83153   3.84852
  Beta virt. eigenvalues --    3.85402   3.87991   3.90415   3.90878   3.93443
  Beta virt. eigenvalues --    3.93921   3.95244   3.95942   3.98501   4.02200
  Beta virt. eigenvalues --    4.03337   4.05305   4.05627   4.09093   4.10094
  Beta virt. eigenvalues --    4.11746   4.12260   4.12414   4.14498   4.16381
  Beta virt. eigenvalues --    4.18136   4.18711   4.21080   4.22132   4.22543
  Beta virt. eigenvalues --    4.22988   4.25032   4.26277   4.27660   4.28810
  Beta virt. eigenvalues --    4.31556   4.32934   4.35405   4.36442   4.37010
  Beta virt. eigenvalues --    4.39289   4.43747   4.45648   4.46462   4.49448
  Beta virt. eigenvalues --    4.50076   4.52418   4.53027   4.54170   4.55573
  Beta virt. eigenvalues --    4.56758   4.59984   4.63092   4.63563   4.66667
  Beta virt. eigenvalues --    4.67862   4.69779   4.73192   4.75210   4.76512
  Beta virt. eigenvalues --    4.76670   4.80058   4.80776   4.88136   4.91094
  Beta virt. eigenvalues --    4.91322   4.91761   4.93077   4.95436   4.96137
  Beta virt. eigenvalues --    4.96887   5.03993   5.05290   5.10011   5.10967
  Beta virt. eigenvalues --    5.18369   5.20965   5.23067   5.25710   5.26177
  Beta virt. eigenvalues --    5.31023   5.36155   5.37333   5.38151   5.38834
  Beta virt. eigenvalues --    5.40961   5.41977   5.52186   5.52251   5.55603
  Beta virt. eigenvalues --    5.62263   5.72058   5.72987   5.80712   5.85253
  Beta virt. eigenvalues --    7.94089   7.94899   8.02404   8.04417   8.07200
  Beta virt. eigenvalues --    8.09789   8.11192   8.15133   8.17153   8.21568
  Beta virt. eigenvalues --    8.34137   8.37907  34.75483  34.75990  34.81083
  Beta virt. eigenvalues --   34.81945  34.85059  34.87837  34.98157  34.99465
  Beta virt. eigenvalues --   35.01361  35.03790  35.18350  35.22632
          Condensed to atoms (all electrons):
               1          2          3          4          5          6
     1  C    5.235752   0.015882   0.428530  -0.003202   0.001372  -0.007051
     2  C    0.015882   5.324789  -0.001707   0.428313  -0.112252   0.277285
     3  H    0.428530  -0.001707   0.492350   0.000045  -0.000011   0.000140
     4  H   -0.003202   0.428313   0.000045   0.519931  -0.002667  -0.016855
     5  C    0.001372  -0.112252  -0.000011  -0.002667   5.306647   0.299992
     6  C   -0.007051   0.277285   0.000140  -0.016855   0.299992   5.324968
     7  H    0.000075  -0.000834   0.000003   0.000149   0.436917  -0.035501
     8  H   -0.000899  -0.016877  -0.000107   0.001291  -0.047481   0.428333
     9  C    0.002303  -0.062853  -0.000002  -0.005243  -0.048217   0.252866
    10  H   -0.000020   0.007687  -0.000001  -0.000431  -0.002351  -0.045229
    11  H   -0.000281  -0.007844   0.000004   0.001031   0.011799  -0.056838
    12  C   -0.000223   0.009323  -0.000001   0.004971   0.397531  -0.065199
    13  H   -0.000000  -0.000070   0.000000   0.000012  -0.031305   0.003678
    14  C    0.000081  -0.007039  -0.000000  -0.000906  -0.055708   0.015832
    15  H   -0.000000   0.000140  -0.000000  -0.000107   0.004626  -0.001706
    16  C   -0.000342   0.014894   0.000000  -0.000116  -0.000828  -0.078502
    17  H    0.000037   0.002147  -0.000000  -0.003835   0.007682  -0.009066
    18  H    0.000001  -0.000099   0.000000   0.000390  -0.002460   0.012627
    19  C   -0.055715   0.300113   0.004623  -0.047494  -0.001632  -0.112231
    20  H    0.004940  -0.035403  -0.000150  -0.006141  -0.000432  -0.000833
    21  C    0.484494  -0.065256  -0.033848   0.007298   0.001217   0.009333
    22  H   -0.030079   0.003672  -0.005773  -0.000111   0.000054  -0.000070
    23  C   -0.093839   0.252888   0.005445  -0.019402   0.012580  -0.062862
    24  H    0.013295  -0.056849  -0.000080  -0.003355   0.006982  -0.007843
    25  H    0.000704  -0.045222  -0.000110  -0.005122  -0.000492   0.007687
    26  C    0.275255  -0.078527  -0.030400   0.008632  -0.009759   0.014907
    27  H   -0.031323   0.012629  -0.004282  -0.000158   0.000189  -0.000100
    28  H   -0.036422  -0.009075   0.000802  -0.000153  -0.002488   0.002151
               7          8          9         10         11         12
     1  C    0.000075  -0.000899   0.002303  -0.000020  -0.000281  -0.000223
     2  C   -0.000834  -0.016877  -0.062853   0.007687  -0.007844   0.009323
     3  H    0.000003  -0.000107  -0.000002  -0.000001   0.000004  -0.000001
     4  H    0.000149   0.001291  -0.005243  -0.000431   0.001031   0.004971
     5  C    0.436917  -0.047481  -0.048217  -0.002351   0.011799   0.397531
     6  C   -0.035501   0.428333   0.252866  -0.045229  -0.056838  -0.065199
     7  H    0.482547  -0.006143   0.003817   0.000132  -0.000057  -0.037252
     8  H   -0.006143   0.519948  -0.019424  -0.005122  -0.003355   0.007299
     9  C    0.003817  -0.019424   4.998837   0.407365   0.453722   0.027512
    10  H    0.000132  -0.005122   0.407365   0.564716  -0.018080   0.001592
    11  H   -0.000057  -0.003355   0.453722  -0.018080   0.533477  -0.005183
    12  C   -0.037252   0.007299   0.027512   0.001592  -0.005183   5.010729
    13  H   -0.004565  -0.000111   0.000364  -0.000138   0.000038   0.422233
    14  C    0.004939  -0.003203  -0.093837   0.000709   0.013295   0.484540
    15  H   -0.000150   0.000045   0.005445  -0.000110  -0.000080  -0.033862
    16  C   -0.001411   0.008633   0.340954  -0.027055  -0.054303  -0.048558
    17  H   -0.000000  -0.000153  -0.029325   0.005575  -0.005417  -0.009041
    18  H    0.000053  -0.000158  -0.039986  -0.007282  -0.002185   0.004850
    19  C   -0.000433  -0.002676   0.012563  -0.000492   0.006981   0.001219
    20  H    0.000002   0.000148   0.002592   0.000337  -0.002846  -0.000076
    21  C   -0.000076   0.004972  -0.002965  -0.000164   0.000290  -0.000033
    22  H   -0.000002   0.000012  -0.000064  -0.000003  -0.000017   0.000000
    23  C    0.002591  -0.005227   0.007929  -0.000306   0.000245  -0.002960
    24  H   -0.002850   0.001031   0.000245  -0.000030  -0.000010   0.000289
    25  H    0.000337  -0.000431  -0.000305   0.000018  -0.000030  -0.000163
    26  C   -0.001286  -0.000128  -0.001761   0.000063   0.000000   0.001335
    27  H   -0.000029   0.000390   0.000021  -0.000001  -0.000003  -0.000020
    28  H    0.002204  -0.003842   0.000736   0.000007   0.000016   0.000083
              13         14         15         16         17         18
     1  C   -0.000000   0.000081  -0.000000  -0.000342   0.000037   0.000001
     2  C   -0.000070  -0.007039   0.000140   0.014894   0.002147  -0.000099
     3  H    0.000000  -0.000000  -0.000000   0.000000  -0.000000   0.000000
     4  H    0.000012  -0.000906  -0.000107  -0.000116  -0.003835   0.000390
     5  C   -0.031305  -0.055708   0.004626  -0.000828   0.007682  -0.002460
     6  C    0.003678   0.015832  -0.001706  -0.078502  -0.009066   0.012627
     7  H   -0.004565   0.004939  -0.000150  -0.001411  -0.000000   0.000053
     8  H   -0.000111  -0.003203   0.000045   0.008633  -0.000153  -0.000158
     9  C    0.000364  -0.093837   0.005445   0.340954  -0.029325  -0.039986
    10  H   -0.000138   0.000709  -0.000110  -0.027055   0.005575  -0.007282
    11  H    0.000038   0.013295  -0.000080  -0.054303  -0.005417  -0.002185
    12  C    0.422233   0.484540  -0.033862  -0.048558  -0.009041   0.004850
    13  H    0.498514  -0.030093  -0.005773   0.004710  -0.000420  -0.000143
    14  C   -0.030093   5.235728   0.428528   0.275251  -0.036377  -0.031331
    15  H   -0.005773   0.428528   0.492354  -0.030395   0.000804  -0.004283
    16  C    0.004710   0.275251  -0.030395   4.969139   0.400413   0.418014
    17  H   -0.000420  -0.036377   0.000804   0.400413   0.582699  -0.023324
    18  H   -0.000143  -0.031331  -0.004283   0.418014  -0.023324   0.547891
    19  C    0.000055   0.001370  -0.000011  -0.009757  -0.002488   0.000188
    20  H   -0.000002   0.000075   0.000003  -0.001288   0.002200  -0.000029
    21  C    0.000000  -0.000222  -0.000001   0.001335   0.000081  -0.000020
    22  H    0.000000  -0.000000   0.000000   0.000004  -0.000004  -0.000001
    23  C   -0.000064   0.002302  -0.000002  -0.001760   0.000736   0.000021
    24  H   -0.000017  -0.000281   0.000004   0.000000   0.000016  -0.000003
    25  H   -0.000003  -0.000020  -0.000001   0.000063   0.000007  -0.000001
    26  C    0.000004  -0.000342   0.000000   0.000356  -0.000043  -0.000001
    27  H   -0.000001   0.000001   0.000000  -0.000001   0.000001  -0.000000
    28  H   -0.000004   0.000037  -0.000000  -0.000043  -0.000007   0.000001
              19         20         21         22         23         24
     1  C   -0.055715   0.004940   0.484494  -0.030079  -0.093839   0.013295
     2  C    0.300113  -0.035403  -0.065256   0.003672   0.252888  -0.056849
     3  H    0.004623  -0.000150  -0.033848  -0.005773   0.005445  -0.000080
     4  H   -0.047494  -0.006141   0.007298  -0.000111  -0.019402  -0.003355
     5  C   -0.001632  -0.000432   0.001217   0.000054   0.012580   0.006982
     6  C   -0.112231  -0.000833   0.009333  -0.000070  -0.062862  -0.007843
     7  H   -0.000433   0.000002  -0.000076  -0.000002   0.002591  -0.002850
     8  H   -0.002676   0.000148   0.004972   0.000012  -0.005227   0.001031
     9  C    0.012563   0.002592  -0.002965  -0.000064   0.007929   0.000245
    10  H   -0.000492   0.000337  -0.000164  -0.000003  -0.000306  -0.000030
    11  H    0.006981  -0.002846   0.000290  -0.000017   0.000245  -0.000010
    12  C    0.001219  -0.000076  -0.000033   0.000000  -0.002960   0.000289
    13  H    0.000055  -0.000002   0.000000   0.000000  -0.000064  -0.000017
    14  C    0.001370   0.000075  -0.000222  -0.000000   0.002302  -0.000281
    15  H   -0.000011   0.000003  -0.000001   0.000000  -0.000002   0.000004
    16  C   -0.009757  -0.001288   0.001335   0.000004  -0.001760   0.000000
    17  H   -0.002488   0.002200   0.000081  -0.000004   0.000736   0.000016
    18  H    0.000188  -0.000029  -0.000020  -0.000001   0.000021  -0.000003
    19  C    5.306751   0.436919   0.397489  -0.031315  -0.048255   0.011801
    20  H    0.436919   0.482347  -0.037326  -0.004562   0.003814  -0.000057
    21  C    0.397489  -0.037326   5.010759   0.422232   0.027516  -0.005183
    22  H   -0.031315  -0.004562   0.422232   0.498519   0.000364   0.000038
    23  C   -0.048255   0.003814   0.027516   0.000364   4.998884   0.453732
    24  H    0.011801  -0.000057  -0.005183   0.000038   0.453732   0.533486
    25  H   -0.002353   0.000132   0.001602  -0.000138   0.407342  -0.018075
    26  C   -0.000815  -0.001413  -0.048553   0.004711   0.340948  -0.054315
    27  H   -0.002456   0.000053   0.004837  -0.000144  -0.039985  -0.002185
    28  H    0.007670  -0.000000  -0.009003  -0.000420  -0.029350  -0.005421
              25         26         27         28
     1  C    0.000704   0.275255  -0.031323  -0.036422
     2  C   -0.045222  -0.078527   0.012629  -0.009075
     3  H   -0.000110  -0.030400  -0.004282   0.000802
     4  H   -0.005122   0.008632  -0.000158  -0.000153
     5  C   -0.000492  -0.009759   0.000189  -0.002488
     6  C    0.007687   0.014907  -0.000100   0.002151
     7  H    0.000337  -0.001286  -0.000029   0.002204
     8  H   -0.000431  -0.000128   0.000390  -0.003842
     9  C   -0.000305  -0.001761   0.000021   0.000736
    10  H    0.000018   0.000063  -0.000001   0.000007
    11  H   -0.000030   0.000000  -0.000003   0.000016
    12  C   -0.000163   0.001335  -0.000020   0.000083
    13  H   -0.000003   0.000004  -0.000001  -0.000004
    14  C   -0.000020  -0.000342   0.000001   0.000037
    15  H   -0.000001   0.000000   0.000000  -0.000000
    16  C    0.000063   0.000356  -0.000001  -0.000043
    17  H    0.000007  -0.000043   0.000001  -0.000007
    18  H   -0.000001  -0.000001  -0.000000   0.000001
    19  C   -0.002353  -0.000815  -0.002456   0.007670
    20  H    0.000132  -0.001413   0.000053  -0.000000
    21  C    0.001602  -0.048553   0.004837  -0.009003
    22  H   -0.000138   0.004711  -0.000144  -0.000420
    23  C    0.407342   0.340948  -0.039985  -0.029350
    24  H   -0.018075  -0.054315  -0.002185  -0.005421
    25  H    0.564707  -0.027042  -0.007282   0.005578
    26  C   -0.027042   4.969095   0.418026   0.400401
    27  H   -0.007282   0.418026   0.547856  -0.023330
    28  H    0.005578   0.400401  -0.023330   0.582924
          Atomic-Atomic Spin Densities.
               1          2          3          4          5          6
     1  C   -0.601033  -0.003122   0.000709  -0.000160  -0.000059  -0.006525
     2  C   -0.003122   0.242875  -0.000123  -0.005600  -0.078011   0.000022
     3  H    0.000709  -0.000123   0.021839   0.000001   0.000002   0.000037
     4  H   -0.000160  -0.005600   0.000001  -0.014526   0.005465   0.011675
     5  C   -0.000059  -0.078011   0.000002   0.005465   0.754788  -0.036748
     6  C   -0.006525   0.000022   0.000037   0.011675  -0.036748  -0.242837
     7  H    0.000000   0.000426   0.000000   0.000011  -0.002263   0.000166
     8  H    0.002171  -0.011681   0.000002   0.000000   0.001076   0.005590
     9  C    0.000022  -0.015123  -0.000000  -0.001341  -0.000082   0.015444
    10  H   -0.000061   0.000780  -0.000000   0.000049  -0.001397   0.001599
    11  H    0.000313   0.001099  -0.000001  -0.000180   0.000101   0.003123
    12  C    0.000104   0.012119  -0.000000  -0.002793  -0.015720   0.016563
    13  H    0.000000   0.000205  -0.000000  -0.000043  -0.001266   0.000414
    14  C   -0.000000   0.006525  -0.000000  -0.002172  -0.052695   0.003121
    15  H    0.000000  -0.000037  -0.000000  -0.000002  -0.000234   0.000123
    16  C    0.000028  -0.001684   0.000000   0.001109   0.005525  -0.002000
    17  H   -0.000019  -0.004275  -0.000000   0.001162   0.005048  -0.003706
    18  H    0.000001   0.000376   0.000000  -0.000069  -0.000505   0.000894
    19  C    0.052695   0.036712   0.000234  -0.001069  -0.000002   0.077973
    20  H    0.000292  -0.000161  -0.000006  -0.000354  -0.000098  -0.000425
    21  C   -0.006528  -0.016549  -0.000270   0.001577   0.001480  -0.012108
    22  H    0.000693  -0.000413  -0.000228   0.000029   0.000015  -0.000204
    23  C   -0.003055  -0.015464   0.000262  -0.004200   0.002670   0.015122
    24  H   -0.000181  -0.003123  -0.000004   0.000409   0.004251  -0.001100
    25  H    0.000929  -0.001598   0.000000   0.000014  -0.000983  -0.000779
    26  C    0.029000   0.002002  -0.000982  -0.000056   0.000778   0.001681
    27  H    0.006986  -0.000894  -0.000141   0.000054  -0.000009  -0.000376
    28  H    0.018064   0.003707   0.000011  -0.000234  -0.000234   0.004278
               7          8          9         10         11         12
     1  C    0.000000   0.002171   0.000022  -0.000061   0.000313   0.000104
     2  C    0.000426  -0.011681  -0.015123   0.000780   0.001099   0.012119
     3  H    0.000000   0.000002  -0.000000  -0.000000  -0.000001  -0.000000
     4  H    0.000011   0.000000  -0.001341   0.000049  -0.000180  -0.002793
     5  C   -0.002263   0.001076  -0.000082  -0.001397   0.000101  -0.015720
     6  C    0.000166   0.005590   0.015444   0.001599   0.003123   0.016563
     7  H   -0.025094   0.000354  -0.000258  -0.000022   0.000007   0.002012
     8  H    0.000354   0.014531   0.004200  -0.000014  -0.000409  -0.001579
     9  C   -0.000258   0.004200   0.010515  -0.002982  -0.001007  -0.004657
    10  H   -0.000022  -0.000014  -0.002982  -0.004251   0.001418   0.000936
    11  H    0.000007  -0.000409  -0.001007   0.001418  -0.002237  -0.000152
    12  C    0.002012  -0.001579  -0.004657   0.000936  -0.000152  -0.234536
    13  H    0.000258  -0.000029  -0.000151   0.000026  -0.000002   0.001510
    14  C   -0.000292   0.000160   0.003056  -0.000930   0.000181   0.006538
    15  H    0.000006  -0.000001  -0.000262  -0.000000   0.000004   0.000270
    16  C    0.000062   0.000056   0.005324   0.001084  -0.000259   0.003791
    17  H   -0.000016   0.000234  -0.001592   0.000001  -0.000115  -0.001447
    18  H    0.000000  -0.000054   0.002310  -0.000303   0.000135   0.001013
    19  C    0.000097  -0.005459  -0.002654   0.000983  -0.004252  -0.001481
    20  H    0.000000  -0.000011   0.000164   0.000012  -0.000170   0.000033
    21  C   -0.000033   0.002791   0.000358  -0.000113   0.000396  -0.000000
    22  H   -0.000000   0.000043   0.000002  -0.000001   0.000019  -0.000000
    23  C   -0.000164   0.001343   0.000001   0.000001  -0.000212  -0.000360
    24  H    0.000170   0.000180   0.000212  -0.000005   0.000000  -0.000396
    25  H   -0.000012  -0.000049  -0.000001   0.000000   0.000005   0.000114
    26  C    0.000131  -0.001108  -0.000046   0.000021  -0.000043  -0.000259
    27  H    0.000004   0.000069   0.000008  -0.000000   0.000002   0.000012
    28  H   -0.000057  -0.001161  -0.000168   0.000020  -0.000047  -0.000158
              13         14         15         16         17         18
     1  C    0.000000  -0.000000   0.000000   0.000028  -0.000019   0.000001
     2  C    0.000205   0.006525  -0.000037  -0.001684  -0.004275   0.000376
     3  H   -0.000000  -0.000000  -0.000000   0.000000  -0.000000   0.000000
     4  H   -0.000043  -0.002172  -0.000002   0.001109   0.001162  -0.000069
     5  C   -0.001266  -0.052695  -0.000234   0.005525   0.005048  -0.000505
     6  C    0.000414   0.003121   0.000123  -0.002000  -0.003706   0.000894
     7  H    0.000258  -0.000292   0.000006   0.000062  -0.000016   0.000000
     8  H   -0.000029   0.000160  -0.000001   0.000056   0.000234  -0.000054
     9  C   -0.000151   0.003056  -0.000262   0.005324  -0.001592   0.002310
    10  H    0.000026  -0.000930  -0.000000   0.001084   0.000001  -0.000303
    11  H   -0.000002   0.000181   0.000004  -0.000259  -0.000115   0.000135
    12  C    0.001510   0.006538   0.000270   0.003791  -0.001447   0.001013
    13  H    0.008201  -0.000693   0.000228   0.000066  -0.000044   0.000019
    14  C   -0.000693   0.601023  -0.000709  -0.029013  -0.018055  -0.006986
    15  H    0.000228  -0.000709  -0.021839   0.000982  -0.000011   0.000141
    16  C    0.000066  -0.029013   0.000982  -0.031671   0.010515   0.004198
    17  H   -0.000044  -0.018055  -0.000011   0.010515   0.047356  -0.007639
    18  H    0.000019  -0.006986   0.000141   0.004198  -0.007639   0.018661
    19  C   -0.000015   0.000060  -0.000002  -0.000781   0.000234   0.000009
    20  H    0.000000  -0.000000  -0.000000  -0.000131   0.000056  -0.000004
    21  C    0.000000  -0.000104   0.000000   0.000259   0.000158  -0.000012
    22  H   -0.000000  -0.000000   0.000000   0.000004   0.000002  -0.000000
    23  C   -0.000002  -0.000023   0.000000   0.000046   0.000168  -0.000008
    24  H   -0.000019  -0.000312   0.000001   0.000043   0.000047  -0.000002
    25  H    0.000001   0.000061   0.000000  -0.000021  -0.000020   0.000000
    26  C   -0.000004  -0.000028  -0.000000  -0.000000   0.000017  -0.000001
    27  H    0.000000  -0.000001  -0.000000   0.000001  -0.000000  -0.000000
    28  H   -0.000002   0.000019   0.000000  -0.000017   0.000000   0.000000
              19         20         21         22         23         24
     1  C    0.052695   0.000292  -0.006528   0.000693  -0.003055  -0.000181
     2  C    0.036712  -0.000161  -0.016549  -0.000413  -0.015464  -0.003123
     3  H    0.000234  -0.000006  -0.000270  -0.000228   0.000262  -0.000004
     4  H   -0.001069  -0.000354   0.001577   0.000029  -0.004200   0.000409
     5  C   -0.000002  -0.000098   0.001480   0.000015   0.002670   0.004251
     6  C    0.077973  -0.000425  -0.012108  -0.000204   0.015122  -0.001100
     7  H    0.000097   0.000000  -0.000033  -0.000000  -0.000164   0.000170
     8  H   -0.005459  -0.000011   0.002791   0.000043   0.001343   0.000180
     9  C   -0.002654   0.000164   0.000358   0.000002   0.000001   0.000212
    10  H    0.000983   0.000012  -0.000113  -0.000001   0.000001  -0.000005
    11  H   -0.004252  -0.000170   0.000396   0.000019  -0.000212   0.000000
    12  C   -0.001481   0.000033  -0.000000  -0.000000  -0.000360  -0.000396
    13  H   -0.000015   0.000000   0.000000  -0.000000  -0.000002  -0.000019
    14  C    0.000060  -0.000000  -0.000104  -0.000000  -0.000023  -0.000312
    15  H   -0.000002  -0.000000   0.000000   0.000000   0.000000   0.000001
    16  C   -0.000781  -0.000131   0.000259   0.000004   0.000046   0.000043
    17  H    0.000234   0.000056   0.000158   0.000002   0.000168   0.000047
    18  H    0.000009  -0.000004  -0.000012  -0.000000  -0.000008  -0.000002
    19  C   -0.754724   0.002267   0.015694   0.001265   0.000087  -0.000101
    20  H    0.002267   0.025085  -0.002016  -0.000258   0.000258  -0.000007
    21  C    0.015694  -0.002016   0.234547  -0.001509   0.004657   0.000152
    22  H    0.001265  -0.000258  -0.001509  -0.008201   0.000152   0.000002
    23  C    0.000087   0.000258   0.004657   0.000152  -0.010514   0.001009
    24  H   -0.000101  -0.000007   0.000152   0.000002   0.001009   0.002236
    25  H    0.001398   0.000022  -0.000935  -0.000026   0.002980  -0.001418
    26  C   -0.005516  -0.000062  -0.003799  -0.000066  -0.005325   0.000258
    27  H    0.000504  -0.000000  -0.001010  -0.000019  -0.002311  -0.000135
    28  H   -0.005047   0.000016   0.001443   0.000043   0.001594   0.000115
              25         26         27         28
     1  C    0.000929   0.029000   0.006986   0.018064
     2  C   -0.001598   0.002002  -0.000894   0.003707
     3  H    0.000000  -0.000982  -0.000141   0.000011
     4  H    0.000014  -0.000056   0.000054  -0.000234
     5  C   -0.000983   0.000778  -0.000009  -0.000234
     6  C   -0.000779   0.001681  -0.000376   0.004278
     7  H   -0.000012   0.000131   0.000004  -0.000057
     8  H   -0.000049  -0.001108   0.000069  -0.001161
     9  C   -0.000001  -0.000046   0.000008  -0.000168
    10  H    0.000000   0.000021  -0.000000   0.000020
    11  H    0.000005  -0.000043   0.000002  -0.000047
    12  C    0.000114  -0.000259   0.000012  -0.000158
    13  H    0.000001  -0.000004   0.000000  -0.000002
    14  C    0.000061  -0.000028  -0.000001   0.000019
    15  H    0.000000  -0.000000  -0.000000   0.000000
    16  C   -0.000021  -0.000000   0.000001  -0.000017
    17  H   -0.000020   0.000017  -0.000000   0.000000
    18  H    0.000000  -0.000001  -0.000000   0.000000
    19  C    0.001398  -0.005516   0.000504  -0.005047
    20  H    0.000022  -0.000062  -0.000000   0.000016
    21  C   -0.000935  -0.003799  -0.001010   0.001443
    22  H   -0.000026  -0.000066  -0.000019   0.000043
    23  C    0.002980  -0.005325  -0.002311   0.001594
    24  H   -0.001418   0.000258  -0.000135   0.000115
    25  H    0.004251  -0.001083   0.000303  -0.000001
    26  C   -0.001083   0.031680  -0.004202  -0.010502
    27  H    0.000303  -0.004202  -0.018659   0.007642
    28  H   -0.000001  -0.010502   0.007642  -0.047385
 Mulliken charges and spin densities:
               1          2
     1  C   -0.203324  -0.508737
     2  C   -0.149856   0.148990
     3  H    0.144530   0.021343
     4  H    0.143236  -0.011244
     5  C   -0.169506   0.590891
     6  C   -0.149912  -0.148983
     7  H    0.156822  -0.024504
     8  H    0.143235   0.011245
     9  C   -0.213288   0.011291
    10  H    0.118613  -0.003151
    11  H    0.135630  -0.002283
    12  C   -0.170934  -0.218525
    13  H    0.143101   0.008661
    14  C   -0.203330   0.508731
    15  H    0.144531  -0.021342
    16  C   -0.179409  -0.032483
    17  H    0.117105   0.028059
    18  H    0.127268   0.012174
    19  C   -0.169616  -0.590891
    20  H    0.156995   0.024500
    21  C   -0.170805   0.218525
    22  H    0.143094  -0.008661
    23  C   -0.213326  -0.011288
    24  H    0.135634   0.002282
    25  H    0.118616   0.003151
    26  C   -0.179348   0.032484
    27  H    0.127294  -0.012173
    28  H    0.116949  -0.028062
 Sum of Mulliken charges =  -0.00000   0.00000
 Mulliken charges and spin densities with hydrogens summed into heavy atoms:
               1          2
     1  C   -0.058794  -0.487394
     2  C   -0.006620   0.137746
     5  C   -0.012684   0.566387
     6  C   -0.006677  -0.137738
     9  C    0.040955   0.005858
    12  C   -0.027834  -0.209863
    14  C   -0.058798   0.487389
    16  C    0.064964   0.007750
    19  C   -0.012621  -0.566391
    21  C   -0.027710   0.209863
    23  C    0.040924  -0.005855
    26  C    0.064895  -0.007751
 Electronic spatial extent (au):  <R**2>=           2188.1248
 Charge=              0.0000 electrons
 Dipole moment (field-independent basis, Debye):
    X=              0.0002    Y=             -0.0011    Z=             -0.0005  Tot=              0.0012
 Quadrupole moment (field-independent basis, Debye-Ang):
   XX=            -72.2998   YY=            -71.0215   ZZ=            -76.4030
   XY=             -2.7804   XZ=             -3.0913   YZ=             -0.5011
 Traceless Quadrupole moment (field-independent basis, Debye-Ang):
   XX=              0.9416   YY=              2.2199   ZZ=             -3.1616
   XY=             -2.7804   XZ=             -3.0913   YZ=             -0.5011
 Octapole moment (field-independent basis, Debye-Ang**2):
  XXX=              0.0005  YYY=             -0.0057  ZZZ=             -0.0020  XYY=              0.0012
  XXY=             -0.0010  XXZ=              0.0005  XZZ=              0.0004  YZZ=             -0.0014
  YYZ=             -0.0019  XYZ=              0.0017
 Hexadecapole moment (field-independent basis, Debye-Ang**3):
 XXXX=          -2022.6522 YYYY=           -638.5994 ZZZZ=           -308.3337 XXXY=            -92.4365
 XXXZ=           -114.6117 YYYX=            -60.1420 YYYZ=              0.2594 ZZZX=            -64.2749
 ZZZY=             -7.0835 XXYY=           -442.8595 XXZZ=           -416.1765 YYZZ=           -172.8250
 XXYZ=            -20.3068 YYXZ=            -25.4433 ZZXY=            -40.9957
 N-N= 6.922411334865D+02 E-N=-2.465971050871D+03  KE= 4.639653780365D+02
                          Isotropic Fermi Contact Couplings
        Atom                 a.u.       MegaHertz       Gauss      10(-4) cm-1
     1  C(13)             -0.03867     -21.73557      -7.75579      -7.25021
     2  C(13)              0.07652      43.01222      15.34783      14.34733
     3  H(1)               0.00765      17.09156       6.09869       5.70113
     4  H(1)              -0.00605     -13.52761      -4.82699      -4.51232
     5  C(13)              0.04560      25.63424       9.14693       8.55066
     6  C(13)             -0.07653     -43.01596     -15.34916     -14.34858
     7  H(1)              -0.00894     -19.98637      -7.13163      -6.66674
     8  H(1)               0.00605      13.52795       4.82711       4.51244
     9  C(13)              0.00707       3.97373       1.41792       1.32549
    10  H(1)              -0.00188      -4.19225      -1.49590      -1.39838
    11  H(1)              -0.00055      -1.22101      -0.43569      -0.40728
    12  C(13)             -0.04021     -22.60378      -8.06559      -7.53981
    13  H(1)               0.00281       6.26903       2.23694       2.09112
    14  C(13)              0.03867      21.73497       7.75558       7.25001
    15  H(1)              -0.00765     -17.09130      -6.09860      -5.70104
    16  C(13)             -0.01670      -9.38866      -3.35011      -3.13172
    17  H(1)               0.01365      30.51665      10.88910      10.17926
    18  H(1)               0.00580      12.97290       4.62905       4.32729
    19  C(13)             -0.04560     -25.63320      -9.14656      -8.55032
    20  H(1)               0.00894      19.98678       7.13178       6.66687
    21  C(13)              0.04021      22.60391       8.06564       7.53985
    22  H(1)              -0.00281      -6.26906      -2.23696      -2.09113
    23  C(13)             -0.00707      -3.97400      -1.41802      -1.32558
    24  H(1)               0.00055       1.22094       0.43566       0.40726
    25  H(1)               0.00188       4.19218       1.49587       1.39836
    26  C(13)              0.01670       9.38935       3.35036       3.13195
    27  H(1)              -0.00580     -12.97246      -4.62889      -4.32715
    28  H(1)              -0.01365     -30.51463     -10.88838     -10.17859
 --------------------------------------------------------
       Center         ----  Spin Dipole Couplings  ----
                      3XX-RR        3YY-RR        3ZZ-RR
 --------------------------------------------------------
     1   Atom        0.109950      0.300113     -0.410063
     2   Atom       -0.025218     -0.081354      0.106571
     3   Atom       -0.029277      0.038078     -0.008800
     4   Atom        0.001564     -0.010342      0.008779
     5   Atom       -0.214814     -0.350501      0.565315
     6   Atom        0.025214      0.081351     -0.106564
     7   Atom       -0.015376      0.014490      0.000886
     8   Atom       -0.001563      0.010342     -0.008779
     9   Atom       -0.000314      0.006499     -0.006185
    10   Atom       -0.003882      0.003144      0.000739
    11   Atom       -0.005078      0.005746     -0.000669
    12   Atom        0.066078      0.098287     -0.164366
    13   Atom        0.007349     -0.002966     -0.004382
    14   Atom       -0.109947     -0.300107      0.410053
    15   Atom        0.029277     -0.038077      0.008800
    16   Atom       -0.004467      0.002717      0.001750
    17   Atom       -0.007078      0.007873     -0.000794
    18   Atom       -0.005604      0.009160     -0.003556
    19   Atom        0.214814      0.350498     -0.565311
    20   Atom        0.015376     -0.014490     -0.000886
    21   Atom       -0.066080     -0.098290      0.164370
    22   Atom       -0.007349      0.002966      0.004382
    23   Atom        0.000313     -0.006498      0.006185
    24   Atom        0.005078     -0.005746      0.000669
    25   Atom        0.003882     -0.003144     -0.000739
    26   Atom        0.004466     -0.002720     -0.001746
    27   Atom        0.005605     -0.009160      0.003556
    28   Atom        0.007078     -0.007874      0.000796
 --------------------------------------------------------
                        XY            XZ            YZ
 --------------------------------------------------------
     1   Atom        0.003410     -0.353874      0.010587
     2   Atom        0.018790      0.105256      0.046726
     3   Atom       -0.007116      0.015260      0.004333
     4   Atom       -0.003851     -0.000350      0.008302
     5   Atom       -0.022062      0.348799     -0.022796
     6   Atom       -0.018789     -0.105253     -0.046722
     7   Atom       -0.041434      0.005981      0.013697
     8   Atom        0.003851      0.000350     -0.008303
     9   Atom       -0.011202     -0.010519      0.003588
    10   Atom       -0.000369     -0.003610     -0.004558
    11   Atom        0.004312     -0.007486     -0.000231
    12   Atom       -0.009660     -0.125023      0.018436
    13   Atom       -0.007176     -0.007394      0.003024
    14   Atom       -0.003405      0.353868     -0.010578
    15   Atom        0.007116     -0.015260     -0.004332
    16   Atom        0.001815      0.007031     -0.000502
    17   Atom        0.003755      0.001809      0.004366
    18   Atom       -0.002022     -0.000572     -0.002319
    19   Atom        0.022065     -0.348793      0.022806
    20   Atom        0.041433     -0.005981     -0.013697
    21   Atom        0.009660      0.125026     -0.018436
    22   Atom        0.007177      0.007394     -0.003024
    23   Atom        0.011202      0.010519     -0.003588
    24   Atom       -0.004312      0.007486      0.000231
    25   Atom        0.000369      0.003610      0.004558
    26   Atom       -0.001815     -0.007028      0.000504
    27   Atom        0.002022      0.000572      0.002319
    28   Atom       -0.003756     -0.001809     -0.004366
 --------------------------------------------------------


 ---------------------------------------------------------------------------------
              Anisotropic Spin Dipole Couplings in Principal Axis System
 ---------------------------------------------------------------------------------

       Atom             a.u.   MegaHertz   Gauss  10(-4) cm-1        Axes

              Baa    -0.5893   -79.081   -28.218   -26.378  0.4516 -0.0124  0.8922
     1 C(13)  Bbb     0.2888    38.755    13.829    12.927  0.8829  0.1502 -0.4448
              Bcc     0.3005    40.326    14.389    13.451 -0.1285  0.9886  0.0787
 
              Baa    -0.0945   -12.679    -4.524    -4.229  0.3439  0.8588 -0.3796
     2 C(13)  Bbb    -0.0801   -10.754    -3.837    -3.587  0.8121 -0.4750 -0.3389
              Bcc     0.1746    23.433     8.361     7.816  0.4714  0.1917  0.8608
 
              Baa    -0.0383   -20.446    -7.296    -6.820  0.8765  0.1082 -0.4690
     3 H(1)   Bbb    -0.0007    -0.356    -0.127    -0.119  0.4729 -0.0117  0.8811
              Bcc     0.0390    20.803     7.423     6.939 -0.0899  0.9941  0.0614
 
              Baa    -0.0142    -7.587    -2.707    -2.531  0.2170  0.9192 -0.3286
     4 H(1)   Bbb     0.0021     1.100     0.392     0.367  0.9624 -0.1452  0.2295
              Bcc     0.0122     6.487     2.315     2.164 -0.1633  0.3660  0.9162
 
              Baa    -0.3622   -48.610   -17.345   -16.215  0.6232  0.7517 -0.2159
     5 C(13)  Bbb    -0.3371   -45.234   -16.140   -15.088  0.6958 -0.6590 -0.2856
              Bcc     0.6993    93.843    33.486    31.303  0.3569 -0.0278  0.9337
 
              Baa    -0.1746   -23.431    -8.361    -7.816  0.4714  0.1917  0.8608
     6 C(13)  Bbb     0.0801    10.753     3.837     3.587  0.8121 -0.4750 -0.3389
              Bcc     0.0945    12.678     4.524     4.229  0.3439  0.8588 -0.3796
 
              Baa    -0.0479   -25.544    -9.115    -8.521  0.7781  0.5733 -0.2565
     7 H(1)   Bbb     0.0028     1.520     0.542     0.507  0.3136 -0.0009  0.9495
              Bcc     0.0450    24.024     8.572     8.014 -0.5442  0.8193  0.1805
 
              Baa    -0.0122    -6.487    -2.315    -2.164 -0.1633  0.3660  0.9162
     8 H(1)   Bbb    -0.0021    -1.099    -0.392    -0.367  0.9624 -0.1452  0.2295
              Bcc     0.0142     7.586     2.707     2.531  0.2170  0.9192 -0.3286
 
              Baa    -0.0151    -2.028    -0.724    -0.677  0.6744  0.2332  0.7006
     9 C(13)  Bbb    -0.0033    -0.443    -0.158    -0.148  0.4004  0.6818 -0.6123
              Bcc     0.0184     2.472     0.882     0.824 -0.6204  0.6934  0.3664
 
              Baa    -0.0066    -3.536    -1.262    -1.179  0.7758  0.2906  0.5601
    10 H(1)   Bbb    -0.0004    -0.211    -0.075    -0.071 -0.6021  0.6062  0.5195
              Bcc     0.0070     3.747     1.337     1.250  0.1886  0.7403 -0.6453
 
              Baa    -0.0113    -6.050    -2.159    -2.018  0.8048 -0.1956  0.5604
    11 H(1)   Bbb     0.0029     1.525     0.544     0.509 -0.3582  0.5928  0.7213
              Bcc     0.0085     4.524     1.614     1.509  0.4733  0.7813 -0.4070
 
              Baa    -0.2197   -29.481   -10.520    -9.834  0.3993 -0.0410  0.9159
    12 C(13)  Bbb     0.0902    12.107     4.320     4.038  0.4435  0.8829 -0.1539
              Bcc     0.1295    17.374     6.200     5.795  0.8024 -0.4677 -0.3707
 
              Baa    -0.0080    -4.290    -1.531    -1.431  0.5004  0.2067  0.8408
    13 H(1)   Bbb    -0.0064    -3.396    -1.212    -1.133  0.2630  0.8889 -0.3751
              Bcc     0.0144     7.686     2.742     2.564  0.8249 -0.4088 -0.3905
 
              Baa    -0.3005   -40.325   -14.389   -13.451 -0.1285  0.9886  0.0787
    14 C(13)  Bbb    -0.2888   -38.754   -13.828   -12.927  0.8829  0.1502 -0.4448
              Bcc     0.5893    79.079    28.217    26.378  0.4516 -0.0123  0.8922
 
              Baa    -0.0390   -20.802    -7.423    -6.939 -0.0899  0.9941  0.0614
    15 H(1)   Bbb     0.0007     0.356     0.127     0.119  0.4729 -0.0117  0.8811
              Bcc     0.0383    20.446     7.296     6.820  0.8765  0.1082 -0.4690
 
              Baa    -0.0093    -1.250    -0.446    -0.417  0.8317 -0.1478 -0.5352
    16 C(13)  Bbb     0.0029     0.388     0.138     0.129  0.0346  0.9758 -0.2157
              Bcc     0.0064     0.862     0.308     0.287  0.5542  0.1608  0.8167
 
              Baa    -0.0081    -4.302    -1.535    -1.435  0.9728 -0.1950 -0.1250
    17 H(1)   Bbb    -0.0026    -1.389    -0.496    -0.463  0.0384 -0.3961  0.9174
              Bcc     0.0107     5.692     2.031     1.899  0.2284  0.8973  0.3778
 
              Baa    -0.0062    -3.311    -1.181    -1.104  0.9201  0.1741  0.3510
    18 H(1)   Bbb    -0.0036    -1.920    -0.685    -0.640 -0.3722  0.1086  0.9218
              Bcc     0.0098     5.230     1.866     1.745 -0.1224  0.9787 -0.1647
 
              Baa    -0.6993   -93.843   -33.485   -31.303  0.3569 -0.0278  0.9337
    19 C(13)  Bbb     0.3371    45.233    16.140    15.088  0.6959 -0.6589 -0.2856
              Bcc     0.3622    48.609    17.345    16.214  0.6232  0.7517 -0.2159
 
              Baa    -0.0450   -24.024    -8.572    -8.013 -0.5442  0.8193  0.1805
    20 H(1)   Bbb    -0.0028    -1.520    -0.542    -0.507  0.3136 -0.0009  0.9495
              Bcc     0.0479    25.543     9.115     8.520  0.7782  0.5733 -0.2565
 
              Baa    -0.1295   -17.375    -6.200    -5.796  0.8024 -0.4677 -0.3707
    21 C(13)  Bbb    -0.0902   -12.107    -4.320    -4.039  0.4435  0.8829 -0.1539
              Bcc     0.2197    29.482    10.520     9.834  0.3993 -0.0410  0.9159
 
              Baa    -0.0144    -7.686    -2.742    -2.564  0.8249 -0.4088 -0.3905
    22 H(1)   Bbb     0.0064     3.396     1.212     1.133  0.2629  0.8889 -0.3752
              Bcc     0.0080     4.290     1.531     1.431  0.5004  0.2068  0.8407
 
              Baa    -0.0184    -2.471    -0.882    -0.824 -0.6205  0.6934  0.3664
    23 C(13)  Bbb     0.0033     0.443     0.158     0.148  0.4003  0.6818 -0.6123
              Bcc     0.0151     2.028     0.724     0.677  0.6744  0.2332  0.7006
 
              Baa    -0.0085    -4.524    -1.614    -1.509  0.4733  0.7813 -0.4070
    24 H(1)   Bbb    -0.0029    -1.526    -0.544    -0.509 -0.3582  0.5928  0.7213
              Bcc     0.0113     6.050     2.159     2.018  0.8048 -0.1956  0.5604
 
              Baa    -0.0070    -3.747    -1.337    -1.250  0.1886  0.7403 -0.6453
    25 H(1)   Bbb     0.0004     0.211     0.075     0.071 -0.6021  0.6062  0.5195
              Bcc     0.0066     3.536     1.262     1.179  0.7758  0.2906  0.5601
 
              Baa    -0.0064    -0.861    -0.307    -0.287  0.5542  0.1608  0.8167
    26 C(13)  Bbb    -0.0029    -0.389    -0.139    -0.130  0.0347  0.9758 -0.2157
              Bcc     0.0093     1.250     0.446     0.417  0.8317 -0.1478 -0.5353
 
              Baa    -0.0098    -5.231    -1.866    -1.745 -0.1223  0.9787 -0.1647
    27 H(1)   Bbb     0.0036     1.920     0.685     0.640 -0.3721  0.1086  0.9218
              Bcc     0.0062     3.311     1.181     1.104  0.9201  0.1740  0.3509
 
              Baa    -0.0107    -5.692    -2.031    -1.899  0.2284  0.8973  0.3777
    28 H(1)   Bbb     0.0026     1.390     0.496     0.464  0.0384 -0.3960  0.9174
              Bcc     0.0081     4.302     1.535     1.435  0.9728 -0.1950 -0.1249
 

 ---------------------------------------------------------------------------------

 No NMR shielding tensors so no spin-rotation constants.
 Leave Link  601 at Mon Aug  3 16:40:10 2020, MaxMem=  6442450944 cpu:               8.2 elap:               0.4
 (Enter /scratch/scicomp/CentOS/7.3.1611/Haswell/software/Gaussian/g16/l9999.exe)
 1\1\GINC-ATLAS-205\SP\UwB97XD\def2TZVP\C12H16\BOCHEN\03-Aug-2020\0\\#p
  uwb97xd guess=mix def2tzvp # scrf=(iefpcm,solvent=Cyclohexane,read) n
 osym 6d 10f\\endo-2 xp-pcm for eta=3\\0,1\C,0,-3.119623,-0.428287,0.24
 7977\C,0,-0.467744,-0.142247,-0.792389\H,0,-4.085353,-0.547852,0.7239\
 H,0,0.33799,-0.113517,-1.523464\C,0,1.112786,1.427748,0.675736\C,0,0.4
 67744,0.142247,0.792389\H,0,0.556231,2.329182,0.898405\H,0,-0.33799,0.
 113517,1.523464\C,0,1.459612,-0.99928,0.985076\H,0,1.889507,-0.917784,
 1.988422\H,0,0.939242,-1.957153,0.942698\C,0,2.400074,1.526641,0.12168
 9\H,0,2.824822,2.51148,-0.037221\C,0,3.119623,0.428287,-0.247977\H,0,4
 .085353,0.547852,-0.7239\C,0,2.592636,-0.958956,-0.042799\H,0,2.246423
 ,-1.357949,-1.005214\H,0,3.40158,-1.623929,0.270629\C,0,-1.112786,-1.4
 27748,-0.675736\H,0,-0.556231,-2.329182,-0.898405\C,0,-2.400074,-1.526
 641,-0.121689\H,0,-2.824822,-2.51148,0.037221\C,0,-1.459612,0.999279,-
 0.985076\H,0,-0.939242,1.957153,-0.942698\H,0,-1.889507,0.917784,-1.98
 8422\C,0,-2.592636,0.958956,0.042799\H,0,-3.40158,1.623929,-0.270628\H
 ,0,-2.246422,1.357949,1.005214\\Version=ES64L-G16RevB.01\HF=-466.82116
 37\S2=0.949716\S2-1=0.\S2A=0.437934\RMSD=7.603e-09\Dipole=0.0000832,-0
 .0004319,-0.0001964\Quadrupole=0.7000802,1.650468,-2.3505482,-2.067156
 ,-2.2983055,-0.3725475\PG=CI [X(C12H16)]\\@


 DON'T WORRY CHARLIE BROWN...WE LEARN MORE FROM LOSING 
 THAN WE DO FROM WINNING.
 THEN THAT MAKES ME THE SMARTEST PERSON IN THE WORLD...
 CHARLES SCHULZ 'PEANUTS'
 Job cpu time:       0 days  1 hours 55 minutes 32.5 seconds.
 Elapsed time:       0 days  0 hours  4 minutes 51.9 seconds.
 File lengths (MBytes):  RWF=    618 Int=      0 D2E=      0 Chk=     23 Scr=      1
 Normal termination of Gaussian 16 at Mon Aug  3 16:40:10 2020.
