 Entering Gaussian System, Link 0=g16
 Input=meso-TS_10_1_xp-Vc.com
 Output=meso-TS_10_1_xp-Vc.log
 Initial command:
 /scratch/scicomp/CentOS/7.3.1611/Haswell/software/Gaussian/g16/l1.exe "/scratch/bochen/cyclohexadiene-dimerization/wb97xd-def2tzvp/xp-pcm/meso/Gau-111214.inp" -scrdir="/scratch/bochen/cyclohexadiene-dimerization/wb97xd-def2tzvp/xp-pcm/meso/"
 Entering Link 1 = /scratch/scicomp/CentOS/7.3.1611/Haswell/software/Gaussian/g16/l1.exe PID=    111215.
  
 Copyright (c) 1988-2017, Gaussian, Inc.  All Rights Reserved.
  
 This is part of the Gaussian(R) 16 program.  It is based on
 the Gaussian(R) 09 system (copyright 2009, Gaussian, Inc.),
 the Gaussian(R) 03 system (copyright 2003, Gaussian, Inc.),
 the Gaussian(R) 98 system (copyright 1998, Gaussian, Inc.),
 the Gaussian(R) 94 system (copyright 1995, Gaussian, Inc.),
 the Gaussian 92(TM) system (copyright 1992, Gaussian, Inc.),
 the Gaussian 90(TM) system (copyright 1990, Gaussian, Inc.),
 the Gaussian 88(TM) system (copyright 1988, Gaussian, Inc.),
 the Gaussian 86(TM) system (copyright 1986, Carnegie Mellon
 University), and the Gaussian 82(TM) system (copyright 1983,
 Carnegie Mellon University). Gaussian is a federally registered
 trademark of Gaussian, Inc.
  
 This software contains proprietary and confidential information,
 including trade secrets, belonging to Gaussian, Inc.
  
 This software is provided under written license and may be
 used, copied, transmitted, or stored only in accord with that
 written license.
  
 The following legend is applicable only to US Government
 contracts under FAR:
  
                    RESTRICTED RIGHTS LEGEND
  
 Use, reproduction and disclosure by the US Government is
 subject to restrictions as set forth in subparagraphs (a)
 and (c) of the Commercial Computer Software - Restricted
 Rights clause in FAR 52.227-19.
  
 Gaussian, Inc.
 340 Quinnipiac St., Bldg. 40, Wallingford CT 06492
  
  
 ---------------------------------------------------------------
 Warning -- This program may not be used in any manner that
 competes with the business of Gaussian, Inc. or will provide
 assistance to any competitor of Gaussian, Inc.  The licensee
 of this program is prohibited from giving any competitor of
 Gaussian, Inc. access to this program.  By using this program,
 the user acknowledges that Gaussian, Inc. is engaged in the
 business of creating and licensing software in the field of
 computational chemistry and represents and warrants to the
 licensee that it is not a competitor of Gaussian, Inc. and that
 it will not use this program in any manner prohibited above.
 ---------------------------------------------------------------
  

 Cite this work as:
 Gaussian 16, Revision B.01,
 M. J. Frisch, G. W. Trucks, H. B. Schlegel, G. E. Scuseria, 
 M. A. Robb, J. R. Cheeseman, G. Scalmani, V. Barone, 
 G. A. Petersson, H. Nakatsuji, X. Li, M. Caricato, A. V. Marenich, 
 J. Bloino, B. G. Janesko, R. Gomperts, B. Mennucci, H. P. Hratchian, 
 J. V. Ortiz, A. F. Izmaylov, J. L. Sonnenberg, D. Williams-Young, 
 F. Ding, F. Lipparini, F. Egidi, J. Goings, B. Peng, A. Petrone, 
 T. Henderson, D. Ranasinghe, V. G. Zakrzewski, J. Gao, N. Rega, 
 G. Zheng, W. Liang, M. Hada, M. Ehara, K. Toyota, R. Fukuda, 
 J. Hasegawa, M. Ishida, T. Nakajima, Y. Honda, O. Kitao, H. Nakai, 
 T. Vreven, K. Throssell, J. A. Montgomery, Jr., J. E. Peralta, 
 F. Ogliaro, M. J. Bearpark, J. J. Heyd, E. N. Brothers, K. N. Kudin, 
 V. N. Staroverov, T. A. Keith, R. Kobayashi, J. Normand, 
 K. Raghavachari, A. P. Rendell, J. C. Burant, S. S. Iyengar, 
 J. Tomasi, M. Cossi, J. M. Millam, M. Klene, C. Adamo, R. Cammi, 
 J. W. Ochterski, R. L. Martin, K. Morokuma, O. Farkas, 
 J. B. Foresman, and D. J. Fox, Gaussian, Inc., Wallingford CT, 2016.
 
 ******************************************
 Gaussian 16:  ES64L-G16RevB.01 20-Dec-2017
                 3-Aug-2020 
 ******************************************
 %chk=meso-TS_10_1_xp-12.chk
 %nproc=24
 Will use up to   24 processors via shared memory.
 %mem=48GB
 ----------------------------------------------------------------------
 #p uwb97xd guess=mix def2tzvp # scrf=(iefpcm,solvent=Cyclohexane,read)
  nosym guess=only pop=none
 ----------------------------------------------------------------------
 1/38=1,40=2,172=1/1;
 2/12=2,15=1,17=6,18=5,40=1/2;
 3/5=44,7=101,11=2,25=1,30=1,70=2203,72=17,74=-58,89=1,116=2/1,2;
 4/13=-1/1;
 99/5=2/99;
 Leave Link    1 at Mon Aug  3 17:33:15 2020, MaxMem=  6442450944 cpu:               1.5 elap:               0.1
 (Enter /scratch/scicomp/CentOS/7.3.1611/Haswell/software/Gaussian/g16/l101.exe)
 -----------------------
 endo-2 xp-pcm for eta=3
 -----------------------
 Symbolic Z-matrix:
 Charge =  0 Multiplicity = 1
 6                    -3.11973  -0.42693   0.24821 
 6                    -0.45263  -0.13438  -0.76652 
 1                    -4.08603  -0.54735   0.72263 
 1                     0.3327   -0.11178  -1.52177 
 6                     1.11517   1.43066   0.67263 
 6                     0.45263   0.13438   0.76652 
 1                     0.562     2.3317    0.90552 
 1                    -0.3327    0.11178   1.52177 
 6                     1.45722  -0.99872   0.98256 
 1                     1.88213  -0.90424   1.98647 
 1                     0.94466  -1.96124   0.94627 
 6                     2.39769   1.52836   0.12339 
 1                     2.82598   2.5125   -0.03105 
 6                     3.11973   0.42693  -0.24821 
 1                     4.08603   0.54735  -0.72263 
 6                     2.5928   -0.9593   -0.04255 
 1                     2.24621  -1.35883  -1.00479 
 1                     3.4016   -1.62455   0.27105 
 6                    -1.11517  -1.43066  -0.67263 
 1                    -0.562    -2.3317   -0.90552 
 6                    -2.39769  -1.52836  -0.12339 
 1                    -2.82598  -2.5125    0.03105 
 6                    -1.45722   0.99872  -0.98256 
 1                    -0.94466   1.96124  -0.94627 
 1                    -1.88213   0.90424  -1.98647 
 6                    -2.5928    0.9593    0.04255 
 1                    -3.4016    1.62455  -0.27105 
 1                    -2.24621   1.35883   1.00479 
 
 ITRead=  0  0  0  0  0  0  0  0  0  0  0  0  0  0  0  0  0  0  0  0
 ITRead=  0  0  0  0  0  0  0  0
 MicOpt= -1 -1 -1 -1 -1 -1 -1 -1 -1 -1 -1 -1 -1 -1 -1 -1 -1 -1 -1 -1
 MicOpt= -1 -1 -1 -1 -1 -1 -1 -1
 NAtoms=     28 NQM=       28 NQMF=       0 NMMI=      0 NMMIF=      0
                NMic=       0 NMicF=      0.
                    Isotopes and Nuclear Properties:
 (Nuclear quadrupole moments (NQMom) in fm**2, nuclear magnetic moments (NMagM)
  in nuclear magnetons)

  Atom         1           2           3           4           5           6           7           8           9          10
 IAtWgt=          12          12           1           1          12          12           1           1          12           1
 AtmWgt=  12.0000000  12.0000000   1.0078250   1.0078250  12.0000000  12.0000000   1.0078250   1.0078250  12.0000000   1.0078250
 NucSpn=           0           0           1           1           0           0           1           1           0           1
 AtZEff=  -0.0000000  -0.0000000  -0.0000000  -0.0000000  -0.0000000  -0.0000000  -0.0000000  -0.0000000  -0.0000000  -0.0000000
 NQMom=    0.0000000   0.0000000   0.0000000   0.0000000   0.0000000   0.0000000   0.0000000   0.0000000   0.0000000   0.0000000
 NMagM=    0.0000000   0.0000000   2.7928460   2.7928460   0.0000000   0.0000000   2.7928460   2.7928460   0.0000000   2.7928460
 AtZNuc=   6.0000000   6.0000000   1.0000000   1.0000000   6.0000000   6.0000000   1.0000000   1.0000000   6.0000000   1.0000000

  Atom        11          12          13          14          15          16          17          18          19          20
 IAtWgt=           1          12           1          12           1          12           1           1          12           1
 AtmWgt=   1.0078250  12.0000000   1.0078250  12.0000000   1.0078250  12.0000000   1.0078250   1.0078250  12.0000000   1.0078250
 NucSpn=           1           0           1           0           1           0           1           1           0           1
 AtZEff=  -0.0000000  -0.0000000  -0.0000000  -0.0000000  -0.0000000  -0.0000000  -0.0000000  -0.0000000  -0.0000000  -0.0000000
 NQMom=    0.0000000   0.0000000   0.0000000   0.0000000   0.0000000   0.0000000   0.0000000   0.0000000   0.0000000   0.0000000
 NMagM=    2.7928460   0.0000000   2.7928460   0.0000000   2.7928460   0.0000000   2.7928460   2.7928460   0.0000000   2.7928460
 AtZNuc=   1.0000000   6.0000000   1.0000000   6.0000000   1.0000000   6.0000000   1.0000000   1.0000000   6.0000000   1.0000000

  Atom        21          22          23          24          25          26          27          28
 IAtWgt=          12           1          12           1           1          12           1           1
 AtmWgt=  12.0000000   1.0078250  12.0000000   1.0078250   1.0078250  12.0000000   1.0078250   1.0078250
 NucSpn=           0           1           0           1           1           0           1           1
 AtZEff=  -0.0000000  -0.0000000  -0.0000000  -0.0000000  -0.0000000  -0.0000000  -0.0000000  -0.0000000
 NQMom=    0.0000000   0.0000000   0.0000000   0.0000000   0.0000000   0.0000000   0.0000000   0.0000000
 NMagM=    0.0000000   2.7928460   0.0000000   2.7928460   2.7928460   0.0000000   2.7928460   2.7928460
 AtZNuc=   6.0000000   1.0000000   6.0000000   1.0000000   1.0000000   6.0000000   1.0000000   1.0000000
 Leave Link  101 at Mon Aug  3 17:33:15 2020, MaxMem=  6442450944 cpu:               2.4 elap:               0.1
 (Enter /scratch/scicomp/CentOS/7.3.1611/Haswell/software/Gaussian/g16/l202.exe)
                          Input orientation:                          
 ---------------------------------------------------------------------
 Center     Atomic      Atomic             Coordinates (Angstroms)
 Number     Number       Type             X           Y           Z
 ---------------------------------------------------------------------
      1          6           0       -3.119734   -0.426930    0.248214
      2          6           0       -0.452630   -0.134377   -0.766522
      3          1           0       -4.086028   -0.547352    0.722629
      4          1           0        0.332703   -0.111776   -1.521768
      5          6           0        1.115166    1.430657    0.672626
      6          6           0        0.452630    0.134377    0.766522
      7          1           0        0.561998    2.331699    0.905522
      8          1           0       -0.332703    0.111776    1.521768
      9          6           0        1.457223   -0.998723    0.982555
     10          1           0        1.882127   -0.904241    1.986471
     11          1           0        0.944658   -1.961243    0.946268
     12          6           0        2.397689    1.528359    0.123394
     13          1           0        2.825979    2.512496   -0.031045
     14          6           0        3.119734    0.426930   -0.248214
     15          1           0        4.086028    0.547352   -0.722629
     16          6           0        2.592798   -0.959299   -0.042549
     17          1           0        2.246207   -1.358828   -1.004791
     18          1           0        3.401603   -1.624548    0.271052
     19          6           0       -1.115166   -1.430657   -0.672626
     20          1           0       -0.561998   -2.331699   -0.905522
     21          6           0       -2.397689   -1.528359   -0.123394
     22          1           0       -2.825979   -2.512496    0.031045
     23          6           0       -1.457223    0.998723   -0.982556
     24          1           0       -0.944658    1.961243   -0.946268
     25          1           0       -1.882127    0.904241   -1.986471
     26          6           0       -2.592798    0.959299    0.042549
     27          1           0       -3.401603    1.624548   -0.271052
     28          1           0       -2.246207    1.358828    1.004791
 ---------------------------------------------------------------------
                    Distance matrix (angstroms):
                    1          2          3          4          5
     1  C    0.000000
     2  C    2.868575   0.000000
     3  H    1.083187   3.948379   0.000000
     4  H    3.892490   1.089796   4.975161   0.000000
     5  C    4.643827   2.641678   5.564840   2.794050   0.000000
     6  C    3.653148   1.800541   4.589782   2.304614   1.458805
     7  H    4.647283   3.147496   5.470515   3.451794   1.082641
     8  H    3.111219   2.304614   3.893651   3.123436   2.134669
     9  C    4.670625   2.730184   5.567668   2.884936   2.472842
    10  H    5.316764   3.690901   6.110936   3.916179   2.786784
    11  H    4.400077   2.867665   5.230383   3.144236   3.407189
    12  C    5.854972   3.417742   6.834197   3.108178   1.398595
    13  H    6.638502   4.277399   7.596482   3.914778   2.142991
    14  C    6.317157   3.653148   7.335855   3.111219   2.423573
    15  H    7.335855   4.589782   8.370761   3.893651   3.398968
    16  C    5.744648   3.237169   6.735125   2.830974   2.899442
    17  H    5.588540   2.973176   6.613598   2.341773   3.445897
    18  H    6.630433   4.260549   7.578185   3.862749   3.837100
    19  C    2.423573   1.458805   3.398968   2.134669   3.869264
    20  H    3.391352   2.204429   4.272418   2.471499   4.411208
    21  C    1.368425   2.477913   2.128055   3.378934   4.661499
    22  H    2.117319   3.453165   2.434708   4.260511   5.611836
    23  C    2.512215   1.529638   3.494084   2.174349   3.089236
    24  H    3.443997   2.160098   4.352754   2.502051   2.673053
    25  H    2.880539   2.147199   3.782000   2.480668   4.041247
    26  C    1.497194   2.535950   2.227609   3.486093   3.790537
    27  H    2.134865   3.469258   2.484550   4.303969   4.618368
    28  H    2.127061   2.929868   2.664222   3.898327   3.378509
                    6          7          8          9         10
     6  C    0.000000
     7  H    2.204429   0.000000
     8  H    1.089796   2.471499   0.000000
     9  C    1.529638   3.449503   2.174349   0.000000
    10  H    2.147199   3.658210   2.480668   1.094220   0.000000
    11  H    2.160098   4.310155   2.502051   1.091093   1.754458
    12  C    2.477913   2.151009   3.378934   2.829978   3.107153
    13  H    3.453165   2.456716   4.260511   3.902504   4.078642
    14  C    2.868575   3.391352   3.892490   2.512214   2.880539
    15  H    3.948379   4.272418   4.975161   3.494083   3.782000
    16  C    2.535950   3.981665   3.486093   1.530334   2.150583
    17  H    2.929868   4.483954   3.898327   2.168344   3.047434
    18  H    3.469258   4.910988   4.303969   2.162986   2.402147
    19  C    2.641678   4.411208   2.794050   3.089236   4.041247
    20  H    3.147496   5.127429   3.451794   3.069025   4.046604
    21  C    3.417742   4.971767   3.108178   4.045242   4.812263
    22  H    4.277399   5.975728   3.914778   4.641411   5.345693
    23  C    2.730184   3.069025   2.884937   4.042950   4.856712
    24  H    2.867665   2.415859   3.144236   4.272094   4.980228
    25  H    3.690901   4.046604   3.916179   4.856711   5.764068
    26  C    3.237169   3.546962   2.830974   4.595664   5.222697
    27  H    4.260549   4.194582   3.862749   5.662267   6.277658
    28  H    2.973176   2.973609   2.341773   4.390209   4.809191
                   11         12         13         14         15
    11  H    0.000000
    12  C    3.868558   0.000000
    13  H    4.950641   1.084347   0.000000
    14  C    3.443997   1.368425   2.117319   0.000000
    15  H    4.352754   2.128055   2.434708   1.083187   0.000000
    16  C    2.167491   2.500809   3.479636   1.497194   2.227609
    17  H    2.421480   3.103481   4.033791   2.127061   2.664222
    18  H    2.570187   3.312170   4.187808   2.134865   2.484550
    19  C    2.673053   4.661499   5.611836   4.643827   5.564840
    20  H    2.415859   4.971767   5.975728   4.647283   5.470515
    21  C    3.535937   5.692107   6.604827   5.854972   6.834197
    22  H    3.919084   6.604827   7.563004   6.638502   7.596482
    23  C    4.272095   4.045242   4.641412   4.670625   5.567668
    24  H    4.747326   3.535937   3.919084   4.400077   5.230383
    25  H    4.980228   4.812263   5.345693   5.316764   6.110936
    26  C    4.675454   5.023477   5.637462   5.744648   6.735125
    27  H    5.764525   5.813487   6.295144   6.630433   7.578185
    28  H    4.605205   4.729838   5.303864   5.588540   6.613598
                   16         17         18         19         20
    16  C    0.000000
    17  H    1.098025   0.000000
    18  H    1.093191   1.741644   0.000000
    19  C    3.790537   3.378509   4.618368   0.000000
    20  H    3.546962   2.973609   4.194582   1.082641   0.000000
    21  C    5.023477   4.729838   5.813487   1.398595   2.151009
    22  H    5.637462   5.303864   6.295144   2.142991   2.456716
    23  C    4.595665   4.390209   5.662268   2.472842   3.449503
    24  H    4.675454   4.605205   5.764525   3.407189   4.310155
    25  H    5.222697   4.809191   6.277658   2.786784   3.658210
    26  C    5.529798   5.466864   6.531564   2.899442   3.981665
    27  H    6.531564   6.429359   7.558711   3.837100   4.910988
    28  H    5.466864   5.621909   6.429359   3.445897   4.483954
                   21         22         23         24         25
    21  C    0.000000
    22  H    1.084347   0.000000
    23  C    2.829979   3.902504   0.000000
    24  H    3.868558   4.950641   1.091093   0.000000
    25  H    3.107153   4.078642   1.094219   1.754458   0.000000
    26  C    2.500809   3.479636   1.530335   2.167491   2.150583
    27  H    3.312170   4.187808   2.162986   2.570187   2.402147
    28  H    3.103481   4.033791   2.168345   2.421480   3.047434
                   26         27         28
    26  C    0.000000
    27  H    1.093191   0.000000
    28  H    1.098025   1.741644   0.000000
 Symmetry turned off by external request.
 Stoichiometry    C12H16
 Framework group  CI[X(C12H16)]
 Deg. of freedom    39
 Full point group                 CI      NOp   2
 Rotational constants (GHZ):           1.9639847           0.6410689           0.5529977
 Leave Link  202 at Mon Aug  3 17:33:15 2020, MaxMem=  6442450944 cpu:               0.3 elap:               0.0
 (Enter /scratch/scicomp/CentOS/7.3.1611/Haswell/software/Gaussian/g16/l301.exe)
 Standard basis: def2TZVP (5D, 7F)
 Ernie: Thresh=  0.10000D-02 Tol=  0.10000D-05 Strict=F.
   468 basis functions,   740 primitive gaussians,   528 cartesian basis functions
    44 alpha electrons       44 beta electrons
       nuclear repulsion energy       692.7544140269 Hartrees.
 IExCor= 4639 DFT=T Ex+Corr=wB97XD ExCW=0 ScaHFX=  1.000000
 ScaDFX=  1.000000  1.000000  1.000000  1.000000 ScalE2=  1.000000  1.000000
 IRadAn=      5 IRanWt=     -1 IRanGd=            0 ICorTp=0 IEmpDi=121
 HFx  wShort=  0.000000 wLong=  0.200000 cFull=  0.222036 cShort=  0.000000 cLong=  0.777964
 DFx  wShort=  0.000000 wLong=  0.200000 cFull=  0.000000 cShort=  0.000000 cLong=  1.000000
 NAtoms=   28 NActive=   28 NUniq=   28 SFac= 1.00D+00 NAtFMM=   60 NAOKFM=F Big=F
 Integral buffers will be    131072 words long.
 Raffenetti 2 integral format.
 Two-electron integral symmetry is turned off.
 R6Disp:  Grimme-D2 Dispersion energy=       -0.0228701961 Hartrees.
 Nuclear repulsion after empirical dispersion term =      692.7315438308 Hartrees.
 Using the following non-standard input for PCM:
 qrep pcmdoc geomview  nodis nocav g03defaults tsare=0.075
 Warning! Using old PCM defaults because the g03defaults keyword was found.
 These settings can be overridden by following keywords.
 nsfe=28
 NVESolv=36  SolvMW=84.1595   Rsolv=2.815
 eps=2.0165 RhoS=0.7781
 --- end of non-standard input.
 Reading user-defined spheres from input:
 ISph  on   Nord    Re0     Alpha      Xe            Ye            Ze
 --- end of user-defined spheres data.
 ------------------------------------------------------------------------------
 Polarizable Continuum Model (PCM)
 =================================
 Model                : PCM.
 Atomic radii         : UA0 (Simple United Atom Topological Model).
 Polarization charges : Total charges.
 Charge compensation  : None.
 Solution method      : On-the-fly selection.
 Cavity type          : SES (Solvent Excluding Surface) (Alpha=1.000).
 Cavity algorithm     : GePol (RMin=0.200 OFac=0.890).
                        User-defined sphere list used, NSphG=   28.
                        Tesserae with average area of 0.075 Ang**2.
                        Smoothing algorithm: None.
                        Polarization charges: point-like.
                        Self-potential: constant (ISelfS= 1).
                        Self-field    : global E.n sum rule (ISelfD= 3).
 Solvent              : CycloHexane, Eps=   2.016500 Eps(inf)=   2.035188
                        RSolv=   2.815000 Ang.
 ------------------------------------------------------------------------------
 GePol: Number of generator spheres                  =      28
 GePol: Total number of spheres                      =     178
 GePol: Number of exposed spheres                    =     130 ( 73.03%)
 GePol: Number of tesserae                           =    4689
 GePol: Average area of tesserae                     =       0.05 Ang**2
 GePol: Minimum area of tessera                      =   0.10D-02 Ang**2
 GePol: Maximum area of tessera                      =    0.12570 Ang**2
 GePol: Number of small tesserae                     =       0
 GePol: Fraction of small tesserae (<1% of avg)      =       0.00%
 GePol: Total count of vertices                      =   16605
 GePol: Maximum number of vertices in a tessera      =       7
 GePol: Cavity surface area                          =    218.816 Ang**2
 GePol: Cavity volume                                =    246.174 Ang**3
 Leave Link  301 at Mon Aug  3 17:33:16 2020, MaxMem=  6442450944 cpu:               7.7 elap:               0.4
 (Enter /scratch/scicomp/CentOS/7.3.1611/Haswell/software/Gaussian/g16/l302.exe)
 NPDir=0 NMtPBC=     1 NCelOv=     1 NCel=       1 NClECP=     1 NCelD=      1
         NCelK=      1 NCelE2=     1 NClLst=     1 CellRange=     0.0.
 One-electron integrals computed using PRISM.
   1 Symmetry operations used in ECPInt.
 ECPInt:  NShTT=   19306 NPrTT=   56928 LenC2=   18534 LenP2D=   42286.
 LDataN:  DoStor=T MaxTD1= 6 Len=  172
 NBasis=   468 RedAO= T EigKep=  3.53D-05  NBF=   468
 NBsUse=   468 1.00D-06 EigRej= -1.00D+00 NBFU=   468
 Precomputing XC quadrature grid using
 IXCGrd= 4 IRadAn=           5 IRanWt=          -1 IRanGd=           0 AccXCQ= 0.00D+00.
 Generated NRdTot=       0 NPtTot=           0 NUsed=           0 NTot=          32
 NSgBfM=   526   526   526   526   526 MxSgAt=    28 MxSgA2=    28.
 Leave Link  302 at Mon Aug  3 17:33:16 2020, MaxMem=  6442450944 cpu:              11.8 elap:               0.5
 (Enter /scratch/scicomp/CentOS/7.3.1611/Haswell/software/Gaussian/g16/l401.exe)
 ExpMin= 9.52D-02 ExpMax= 1.36D+04 ExpMxC= 4.63D+02 IAcc=3 IRadAn=         5 AccDes= 0.00D+00
 Harris functional with IExCor= 4639 and IRadAn=       5 diagonalized for initial guess.
 HarFok:  IExCor= 4639 AccDes= 0.00D+00 IRadAn=         5 IDoV= 1 UseB2=F ITyADJ=14
 ICtDFT=  3500011 ScaDFX=  1.000000  1.000000  1.000000  1.000000
 FoFCou: FMM=F IPFlag=           0 FMFlag=      100000 FMFlg1=           0
         NFxFlg=           0 DoJE=T BraDBF=F KetDBF=T FulRan=T
         wScrn=  0.000000 ICntrl=       500 IOpCl=  0 I1Cent=   200000004 NGrid=           0
         NMat0=    1 NMatS0=      1 NMatT0=    0 NMatD0=    1 NMtDS0=    0 NMtDT0=    0
 Symmetry not used in FoFCou.
 Harris En= -444.590698216891    
 JPrj=0 DoOrth=F DoCkMO=T.
 Mixing orbitals, IMix= 1 IMixAn=  0 NRI=1 NE=   44 Coef=  7.07106781D-01  7.07106781D-01
 Mixing orbitals, IMix= 1 IMixAn=  0 NRI=1 NE=   44 Coef= -7.07106781D-01  7.07106781D-01
 Initial guess <Sx>= 0.0000 <Sy>= 0.0000 <Sz>= 0.0000 <S**2>= 1.0000 S= 0.6180
 Leave Link  401 at Mon Aug  3 17:33:18 2020, MaxMem=  6442450944 cpu:              47.9 elap:               2.1
 (Enter /scratch/scicomp/CentOS/7.3.1611/Haswell/software/Gaussian/g16/l9999.exe)

 This type of calculation cannot be archived.


 SCIENCE IS A VERY HUMAN FORM OF KNOWLEDGE.
 WE ARE ALWAYS AT THE BRINK OF THE KNOWN,
 WE ALWAYS FEEL FORWARD FOR WHAT IS HOPED.
 EVERY JUDGEMENT IN SCIENCE STANDS ON THE EDGE OF ERROR, AND IS PERSONAL.
 SCIENCE IS A TRIBUTE TO WHAT WE CAN KNOW ALTHOUGH WE ARE FALLIBLE.

                     -- J. BRONOWSKI
 Job cpu time:       0 days  0 hours  1 minutes 12.6 seconds.
 Elapsed time:       0 days  0 hours  0 minutes  3.3 seconds.
 File lengths (MBytes):  RWF=    403 Int=      0 D2E=      0 Chk=      1 Scr=      1
 Normal termination of Gaussian 16 at Mon Aug  3 17:33:18 2020.
 Initial command:
 /scratch/scicomp/CentOS/7.3.1611/Haswell/software/Gaussian/g16/l1.exe "/scratch/bochen/cyclohexadiene-dimerization/wb97xd-def2tzvp/xp-pcm/meso/Gau-111214.inp" -scrdir="/scratch/bochen/cyclohexadiene-dimerization/wb97xd-def2tzvp/xp-pcm/meso/"
 Entering Link 1 = /scratch/scicomp/CentOS/7.3.1611/Haswell/software/Gaussian/g16/l1.exe PID=    111379.
  
 Copyright (c) 1988-2017, Gaussian, Inc.  All Rights Reserved.
  
 This is part of the Gaussian(R) 16 program.  It is based on
 the Gaussian(R) 09 system (copyright 2009, Gaussian, Inc.),
 the Gaussian(R) 03 system (copyright 2003, Gaussian, Inc.),
 the Gaussian(R) 98 system (copyright 1998, Gaussian, Inc.),
 the Gaussian(R) 94 system (copyright 1995, Gaussian, Inc.),
 the Gaussian 92(TM) system (copyright 1992, Gaussian, Inc.),
 the Gaussian 90(TM) system (copyright 1990, Gaussian, Inc.),
 the Gaussian 88(TM) system (copyright 1988, Gaussian, Inc.),
 the Gaussian 86(TM) system (copyright 1986, Carnegie Mellon
 University), and the Gaussian 82(TM) system (copyright 1983,
 Carnegie Mellon University). Gaussian is a federally registered
 trademark of Gaussian, Inc.
  
 This software contains proprietary and confidential information,
 including trade secrets, belonging to Gaussian, Inc.
  
 This software is provided under written license and may be
 used, copied, transmitted, or stored only in accord with that
 written license.
  
 The following legend is applicable only to US Government
 contracts under FAR:
  
                    RESTRICTED RIGHTS LEGEND
  
 Use, reproduction and disclosure by the US Government is
 subject to restrictions as set forth in subparagraphs (a)
 and (c) of the Commercial Computer Software - Restricted
 Rights clause in FAR 52.227-19.
  
 Gaussian, Inc.
 340 Quinnipiac St., Bldg. 40, Wallingford CT 06492
  
  
 ---------------------------------------------------------------
 Warning -- This program may not be used in any manner that
 competes with the business of Gaussian, Inc. or will provide
 assistance to any competitor of Gaussian, Inc.  The licensee
 of this program is prohibited from giving any competitor of
 Gaussian, Inc. access to this program.  By using this program,
 the user acknowledges that Gaussian, Inc. is engaged in the
 business of creating and licensing software in the field of
 computational chemistry and represents and warrants to the
 licensee that it is not a competitor of Gaussian, Inc. and that
 it will not use this program in any manner prohibited above.
 ---------------------------------------------------------------
  

 Cite this work as:
 Gaussian 16, Revision B.01,
 M. J. Frisch, G. W. Trucks, H. B. Schlegel, G. E. Scuseria, 
 M. A. Robb, J. R. Cheeseman, G. Scalmani, V. Barone, 
 G. A. Petersson, H. Nakatsuji, X. Li, M. Caricato, A. V. Marenich, 
 J. Bloino, B. G. Janesko, R. Gomperts, B. Mennucci, H. P. Hratchian, 
 J. V. Ortiz, A. F. Izmaylov, J. L. Sonnenberg, D. Williams-Young, 
 F. Ding, F. Lipparini, F. Egidi, J. Goings, B. Peng, A. Petrone, 
 T. Henderson, D. Ranasinghe, V. G. Zakrzewski, J. Gao, N. Rega, 
 G. Zheng, W. Liang, M. Hada, M. Ehara, K. Toyota, R. Fukuda, 
 J. Hasegawa, M. Ishida, T. Nakajima, Y. Honda, O. Kitao, H. Nakai, 
 T. Vreven, K. Throssell, J. A. Montgomery, Jr., J. E. Peralta, 
 F. Ogliaro, M. J. Bearpark, J. J. Heyd, E. N. Brothers, K. N. Kudin, 
 V. N. Staroverov, T. A. Keith, R. Kobayashi, J. Normand, 
 K. Raghavachari, A. P. Rendell, J. C. Burant, S. S. Iyengar, 
 J. Tomasi, M. Cossi, J. M. Millam, M. Klene, C. Adamo, R. Cammi, 
 J. W. Ochterski, R. L. Martin, K. Morokuma, O. Farkas, 
 J. B. Foresman, and D. J. Fox, Gaussian, Inc., Wallingford CT, 2016.
 
 ******************************************
 Gaussian 16:  ES64L-G16RevB.01 20-Dec-2017
                 3-Aug-2020 
 ******************************************
 %chk=meso-TS_10_1_xp-115.chk
 %nproc=24
 Will use up to   24 processors via shared memory.
 %mem=48GB
 ----------------------------------------------------------------------
 #p uwb97xd guess=mix def2tzvp # scrf=(iefpcm,solvent=Cyclohexane,read)
  nosym guess=only pop=none
 ----------------------------------------------------------------------
 1/38=1,40=2,172=1/1;
 2/12=2,15=1,17=6,18=5,40=1/2;
 3/5=44,7=101,11=2,25=1,30=1,70=2203,72=17,74=-58,89=1,116=2/1,2;
 4/13=-1/1;
 99/5=2/99;
 Leave Link    1 at Mon Aug  3 17:33:19 2020, MaxMem=  6442450944 cpu:               1.4 elap:               0.1
 (Enter /scratch/scicomp/CentOS/7.3.1611/Haswell/software/Gaussian/g16/l101.exe)
 -----------------------
 endo-2 xp-pcm for eta=3
 -----------------------
 Symbolic Z-matrix:
 Charge =  0 Multiplicity = 1
 6                    -3.11973  -0.42693   0.24821 
 6                    -0.45263  -0.13438  -0.76652 
 1                    -4.08603  -0.54735   0.72263 
 1                     0.3327   -0.11178  -1.52177 
 6                     1.11517   1.43066   0.67263 
 6                     0.45263   0.13438   0.76652 
 1                     0.562     2.3317    0.90552 
 1                    -0.3327    0.11178   1.52177 
 6                     1.45722  -0.99872   0.98256 
 1                     1.88213  -0.90424   1.98647 
 1                     0.94466  -1.96124   0.94627 
 6                     2.39769   1.52836   0.12339 
 1                     2.82598   2.5125   -0.03105 
 6                     3.11973   0.42693  -0.24821 
 1                     4.08603   0.54735  -0.72263 
 6                     2.5928   -0.9593   -0.04255 
 1                     2.24621  -1.35883  -1.00479 
 1                     3.4016   -1.62455   0.27105 
 6                    -1.11517  -1.43066  -0.67263 
 1                    -0.562    -2.3317   -0.90552 
 6                    -2.39769  -1.52836  -0.12339 
 1                    -2.82598  -2.5125    0.03105 
 6                    -1.45722   0.99872  -0.98256 
 1                    -0.94466   1.96124  -0.94627 
 1                    -1.88213   0.90424  -1.98647 
 6                    -2.5928    0.9593    0.04255 
 1                    -3.4016    1.62455  -0.27105 
 1                    -2.24621   1.35883   1.00479 
 
 ITRead=  0  0  0  0  0  0  0  0  0  0  0  0  0  0  0  0  0  0  0  0
 ITRead=  0  0  0  0  0  0  0  0
 MicOpt= -1 -1 -1 -1 -1 -1 -1 -1 -1 -1 -1 -1 -1 -1 -1 -1 -1 -1 -1 -1
 MicOpt= -1 -1 -1 -1 -1 -1 -1 -1
 NAtoms=     28 NQM=       28 NQMF=       0 NMMI=      0 NMMIF=      0
                NMic=       0 NMicF=      0.
                    Isotopes and Nuclear Properties:
 (Nuclear quadrupole moments (NQMom) in fm**2, nuclear magnetic moments (NMagM)
  in nuclear magnetons)

  Atom         1           2           3           4           5           6           7           8           9          10
 IAtWgt=          12          12           1           1          12          12           1           1          12           1
 AtmWgt=  12.0000000  12.0000000   1.0078250   1.0078250  12.0000000  12.0000000   1.0078250   1.0078250  12.0000000   1.0078250
 NucSpn=           0           0           1           1           0           0           1           1           0           1
 AtZEff=  -0.0000000  -0.0000000  -0.0000000  -0.0000000  -0.0000000  -0.0000000  -0.0000000  -0.0000000  -0.0000000  -0.0000000
 NQMom=    0.0000000   0.0000000   0.0000000   0.0000000   0.0000000   0.0000000   0.0000000   0.0000000   0.0000000   0.0000000
 NMagM=    0.0000000   0.0000000   2.7928460   2.7928460   0.0000000   0.0000000   2.7928460   2.7928460   0.0000000   2.7928460
 AtZNuc=   6.0000000   6.0000000   1.0000000   1.0000000   6.0000000   6.0000000   1.0000000   1.0000000   6.0000000   1.0000000

  Atom        11          12          13          14          15          16          17          18          19          20
 IAtWgt=           1          12           1          12           1          12           1           1          12           1
 AtmWgt=   1.0078250  12.0000000   1.0078250  12.0000000   1.0078250  12.0000000   1.0078250   1.0078250  12.0000000   1.0078250
 NucSpn=           1           0           1           0           1           0           1           1           0           1
 AtZEff=  -0.0000000  -0.0000000  -0.0000000  -0.0000000  -0.0000000  -0.0000000  -0.0000000  -0.0000000  -0.0000000  -0.0000000
 NQMom=    0.0000000   0.0000000   0.0000000   0.0000000   0.0000000   0.0000000   0.0000000   0.0000000   0.0000000   0.0000000
 NMagM=    2.7928460   0.0000000   2.7928460   0.0000000   2.7928460   0.0000000   2.7928460   2.7928460   0.0000000   2.7928460
 AtZNuc=   1.0000000   6.0000000   1.0000000   6.0000000   1.0000000   6.0000000   1.0000000   1.0000000   6.0000000   1.0000000

  Atom        21          22          23          24          25          26          27          28
 IAtWgt=          12           1          12           1           1          12           1           1
 AtmWgt=  12.0000000   1.0078250  12.0000000   1.0078250   1.0078250  12.0000000   1.0078250   1.0078250
 NucSpn=           0           1           0           1           1           0           1           1
 AtZEff=  -0.0000000  -0.0000000  -0.0000000  -0.0000000  -0.0000000  -0.0000000  -0.0000000  -0.0000000
 NQMom=    0.0000000   0.0000000   0.0000000   0.0000000   0.0000000   0.0000000   0.0000000   0.0000000
 NMagM=    0.0000000   2.7928460   0.0000000   2.7928460   2.7928460   0.0000000   2.7928460   2.7928460
 AtZNuc=   6.0000000   1.0000000   6.0000000   1.0000000   1.0000000   6.0000000   1.0000000   1.0000000
 Leave Link  101 at Mon Aug  3 17:33:19 2020, MaxMem=  6442450944 cpu:               2.4 elap:               0.1
 (Enter /scratch/scicomp/CentOS/7.3.1611/Haswell/software/Gaussian/g16/l202.exe)
                          Input orientation:                          
 ---------------------------------------------------------------------
 Center     Atomic      Atomic             Coordinates (Angstroms)
 Number     Number       Type             X           Y           Z
 ---------------------------------------------------------------------
      1          6           0       -3.119734   -0.426930    0.248214
      2          6           0       -0.452630   -0.134377   -0.766522
      3          1           0       -4.086028   -0.547352    0.722629
      4          1           0        0.332703   -0.111776   -1.521768
      5          6           0        1.115166    1.430657    0.672626
      6          6           0        0.452630    0.134377    0.766522
      7          1           0        0.561998    2.331699    0.905522
      8          1           0       -0.332703    0.111776    1.521768
      9          6           0        1.457223   -0.998723    0.982555
     10          1           0        1.882127   -0.904241    1.986471
     11          1           0        0.944658   -1.961243    0.946268
     12          6           0        2.397689    1.528359    0.123394
     13          1           0        2.825979    2.512496   -0.031045
     14          6           0        3.119734    0.426930   -0.248214
     15          1           0        4.086028    0.547352   -0.722629
     16          6           0        2.592798   -0.959299   -0.042549
     17          1           0        2.246207   -1.358828   -1.004791
     18          1           0        3.401603   -1.624548    0.271052
     19          6           0       -1.115166   -1.430657   -0.672626
     20          1           0       -0.561998   -2.331699   -0.905522
     21          6           0       -2.397689   -1.528359   -0.123394
     22          1           0       -2.825979   -2.512496    0.031045
     23          6           0       -1.457223    0.998723   -0.982556
     24          1           0       -0.944658    1.961243   -0.946268
     25          1           0       -1.882127    0.904241   -1.986471
     26          6           0       -2.592798    0.959299    0.042549
     27          1           0       -3.401603    1.624548   -0.271052
     28          1           0       -2.246207    1.358828    1.004791
 ---------------------------------------------------------------------
                    Distance matrix (angstroms):
                    1          2          3          4          5
     1  C    0.000000
     2  C    2.868575   0.000000
     3  H    1.083187   3.948379   0.000000
     4  H    3.892490   1.089796   4.975161   0.000000
     5  C    4.643827   2.641678   5.564840   2.794050   0.000000
     6  C    3.653148   1.800541   4.589782   2.304614   1.458805
     7  H    4.647283   3.147496   5.470515   3.451794   1.082641
     8  H    3.111219   2.304614   3.893651   3.123436   2.134669
     9  C    4.670625   2.730184   5.567668   2.884936   2.472842
    10  H    5.316764   3.690901   6.110936   3.916179   2.786784
    11  H    4.400077   2.867665   5.230383   3.144236   3.407189
    12  C    5.854972   3.417742   6.834197   3.108178   1.398595
    13  H    6.638502   4.277399   7.596482   3.914778   2.142991
    14  C    6.317157   3.653148   7.335855   3.111219   2.423573
    15  H    7.335855   4.589782   8.370761   3.893651   3.398968
    16  C    5.744648   3.237169   6.735125   2.830974   2.899442
    17  H    5.588540   2.973176   6.613598   2.341773   3.445897
    18  H    6.630433   4.260549   7.578185   3.862749   3.837100
    19  C    2.423573   1.458805   3.398968   2.134669   3.869264
    20  H    3.391352   2.204429   4.272418   2.471499   4.411208
    21  C    1.368425   2.477913   2.128055   3.378934   4.661499
    22  H    2.117319   3.453165   2.434708   4.260511   5.611836
    23  C    2.512215   1.529638   3.494084   2.174349   3.089236
    24  H    3.443997   2.160098   4.352754   2.502051   2.673053
    25  H    2.880539   2.147199   3.782000   2.480668   4.041247
    26  C    1.497194   2.535950   2.227609   3.486093   3.790537
    27  H    2.134865   3.469258   2.484550   4.303969   4.618368
    28  H    2.127061   2.929868   2.664222   3.898327   3.378509
                    6          7          8          9         10
     6  C    0.000000
     7  H    2.204429   0.000000
     8  H    1.089796   2.471499   0.000000
     9  C    1.529638   3.449503   2.174349   0.000000
    10  H    2.147199   3.658210   2.480668   1.094220   0.000000
    11  H    2.160098   4.310155   2.502051   1.091093   1.754458
    12  C    2.477913   2.151009   3.378934   2.829978   3.107153
    13  H    3.453165   2.456716   4.260511   3.902504   4.078642
    14  C    2.868575   3.391352   3.892490   2.512214   2.880539
    15  H    3.948379   4.272418   4.975161   3.494083   3.782000
    16  C    2.535950   3.981665   3.486093   1.530334   2.150583
    17  H    2.929868   4.483954   3.898327   2.168344   3.047434
    18  H    3.469258   4.910988   4.303969   2.162986   2.402147
    19  C    2.641678   4.411208   2.794050   3.089236   4.041247
    20  H    3.147496   5.127429   3.451794   3.069025   4.046604
    21  C    3.417742   4.971767   3.108178   4.045242   4.812263
    22  H    4.277399   5.975728   3.914778   4.641411   5.345693
    23  C    2.730184   3.069025   2.884937   4.042950   4.856712
    24  H    2.867665   2.415859   3.144236   4.272094   4.980228
    25  H    3.690901   4.046604   3.916179   4.856711   5.764068
    26  C    3.237169   3.546962   2.830974   4.595664   5.222697
    27  H    4.260549   4.194582   3.862749   5.662267   6.277658
    28  H    2.973176   2.973609   2.341773   4.390209   4.809191
                   11         12         13         14         15
    11  H    0.000000
    12  C    3.868558   0.000000
    13  H    4.950641   1.084347   0.000000
    14  C    3.443997   1.368425   2.117319   0.000000
    15  H    4.352754   2.128055   2.434708   1.083187   0.000000
    16  C    2.167491   2.500809   3.479636   1.497194   2.227609
    17  H    2.421480   3.103481   4.033791   2.127061   2.664222
    18  H    2.570187   3.312170   4.187808   2.134865   2.484550
    19  C    2.673053   4.661499   5.611836   4.643827   5.564840
    20  H    2.415859   4.971767   5.975728   4.647283   5.470515
    21  C    3.535937   5.692107   6.604827   5.854972   6.834197
    22  H    3.919084   6.604827   7.563004   6.638502   7.596482
    23  C    4.272095   4.045242   4.641412   4.670625   5.567668
    24  H    4.747326   3.535937   3.919084   4.400077   5.230383
    25  H    4.980228   4.812263   5.345693   5.316764   6.110936
    26  C    4.675454   5.023477   5.637462   5.744648   6.735125
    27  H    5.764525   5.813487   6.295144   6.630433   7.578185
    28  H    4.605205   4.729838   5.303864   5.588540   6.613598
                   16         17         18         19         20
    16  C    0.000000
    17  H    1.098025   0.000000
    18  H    1.093191   1.741644   0.000000
    19  C    3.790537   3.378509   4.618368   0.000000
    20  H    3.546962   2.973609   4.194582   1.082641   0.000000
    21  C    5.023477   4.729838   5.813487   1.398595   2.151009
    22  H    5.637462   5.303864   6.295144   2.142991   2.456716
    23  C    4.595665   4.390209   5.662268   2.472842   3.449503
    24  H    4.675454   4.605205   5.764525   3.407189   4.310155
    25  H    5.222697   4.809191   6.277658   2.786784   3.658210
    26  C    5.529798   5.466864   6.531564   2.899442   3.981665
    27  H    6.531564   6.429359   7.558711   3.837100   4.910988
    28  H    5.466864   5.621909   6.429359   3.445897   4.483954
                   21         22         23         24         25
    21  C    0.000000
    22  H    1.084347   0.000000
    23  C    2.829979   3.902504   0.000000
    24  H    3.868558   4.950641   1.091093   0.000000
    25  H    3.107153   4.078642   1.094219   1.754458   0.000000
    26  C    2.500809   3.479636   1.530335   2.167491   2.150583
    27  H    3.312170   4.187808   2.162986   2.570187   2.402147
    28  H    3.103481   4.033791   2.168345   2.421480   3.047434
                   26         27         28
    26  C    0.000000
    27  H    1.093191   0.000000
    28  H    1.098025   1.741644   0.000000
 Symmetry turned off by external request.
 Stoichiometry    C12H16
 Framework group  CI[X(C12H16)]
 Deg. of freedom    39
 Full point group                 CI      NOp   2
 Rotational constants (GHZ):           1.9639847           0.6410689           0.5529977
 Leave Link  202 at Mon Aug  3 17:33:19 2020, MaxMem=  6442450944 cpu:               0.3 elap:               0.0
 (Enter /scratch/scicomp/CentOS/7.3.1611/Haswell/software/Gaussian/g16/l301.exe)
 Standard basis: def2TZVP (5D, 7F)
 Ernie: Thresh=  0.10000D-02 Tol=  0.10000D-05 Strict=F.
   468 basis functions,   740 primitive gaussians,   528 cartesian basis functions
    44 alpha electrons       44 beta electrons
       nuclear repulsion energy       692.7544140269 Hartrees.
 IExCor= 4639 DFT=T Ex+Corr=wB97XD ExCW=0 ScaHFX=  1.000000
 ScaDFX=  1.000000  1.000000  1.000000  1.000000 ScalE2=  1.000000  1.000000
 IRadAn=      5 IRanWt=     -1 IRanGd=            0 ICorTp=0 IEmpDi=121
 HFx  wShort=  0.000000 wLong=  0.200000 cFull=  0.222036 cShort=  0.000000 cLong=  0.777964
 DFx  wShort=  0.000000 wLong=  0.200000 cFull=  0.000000 cShort=  0.000000 cLong=  1.000000
 NAtoms=   28 NActive=   28 NUniq=   28 SFac= 1.00D+00 NAtFMM=   60 NAOKFM=F Big=F
 Integral buffers will be    131072 words long.
 Raffenetti 2 integral format.
 Two-electron integral symmetry is turned off.
 R6Disp:  Grimme-D2 Dispersion energy=       -0.0228701961 Hartrees.
 Nuclear repulsion after empirical dispersion term =      692.7315438308 Hartrees.
 Using the following non-standard input for PCM:
 qrep pcmdoc geomview  nodis nocav g03defaults tsare=0.075
 Warning! Using old PCM defaults because the g03defaults keyword was found.
 These settings can be overridden by following keywords.
 nsfe=28
 NVESolv=36  SolvMW=84.1595   Rsolv=2.815
 eps=2.0165 RhoS=0.7781
 --- end of non-standard input.
 Reading user-defined spheres from input:
 ISph  on   Nord    Re0     Alpha      Xe            Ye            Ze
 --- end of user-defined spheres data.
 ------------------------------------------------------------------------------
 Polarizable Continuum Model (PCM)
 =================================
 Model                : PCM.
 Atomic radii         : UA0 (Simple United Atom Topological Model).
 Polarization charges : Total charges.
 Charge compensation  : None.
 Solution method      : On-the-fly selection.
 Cavity type          : SES (Solvent Excluding Surface) (Alpha=1.000).
 Cavity algorithm     : GePol (RMin=0.200 OFac=0.890).
                        User-defined sphere list used, NSphG=   28.
                        Tesserae with average area of 0.075 Ang**2.
                        Smoothing algorithm: None.
                        Polarization charges: point-like.
                        Self-potential: constant (ISelfS= 1).
                        Self-field    : global E.n sum rule (ISelfD= 3).
 Solvent              : CycloHexane, Eps=   2.016500 Eps(inf)=   2.035188
                        RSolv=   2.815000 Ang.
 ------------------------------------------------------------------------------
 GePol: Number of generator spheres                  =      28
 GePol: Total number of spheres                      =     198
 GePol: Number of exposed spheres                    =     148 ( 74.75%)
 GePol: Number of tesserae                           =    4731
 GePol: Average area of tesserae                     =       0.04 Ang**2
 GePol: Minimum area of tessera                      =   0.10D-02 Ang**2
 GePol: Maximum area of tessera                      =    0.11598 Ang**2
 GePol: Number of small tesserae                     =       0
 GePol: Fraction of small tesserae (<1% of avg)      =       0.00%
 GePol: Total count of vertices                      =   16852
 GePol: Maximum number of vertices in a tessera      =       7
 GePol: Cavity surface area                          =    211.633 Ang**2
 GePol: Cavity volume                                =    231.187 Ang**3
 Leave Link  301 at Mon Aug  3 17:33:19 2020, MaxMem=  6442450944 cpu:               7.6 elap:               0.4
 (Enter /scratch/scicomp/CentOS/7.3.1611/Haswell/software/Gaussian/g16/l302.exe)
 NPDir=0 NMtPBC=     1 NCelOv=     1 NCel=       1 NClECP=     1 NCelD=      1
         NCelK=      1 NCelE2=     1 NClLst=     1 CellRange=     0.0.
 One-electron integrals computed using PRISM.
   1 Symmetry operations used in ECPInt.
 ECPInt:  NShTT=   19306 NPrTT=   56928 LenC2=   18534 LenP2D=   42286.
 LDataN:  DoStor=T MaxTD1= 6 Len=  172
 NBasis=   468 RedAO= T EigKep=  3.53D-05  NBF=   468
 NBsUse=   468 1.00D-06 EigRej= -1.00D+00 NBFU=   468
 Precomputing XC quadrature grid using
 IXCGrd= 4 IRadAn=           5 IRanWt=          -1 IRanGd=           0 AccXCQ= 0.00D+00.
 Generated NRdTot=       0 NPtTot=           0 NUsed=           0 NTot=          32
 NSgBfM=   526   526   526   526   526 MxSgAt=    28 MxSgA2=    28.
 Leave Link  302 at Mon Aug  3 17:33:20 2020, MaxMem=  6442450944 cpu:              11.9 elap:               0.5
 (Enter /scratch/scicomp/CentOS/7.3.1611/Haswell/software/Gaussian/g16/l401.exe)
 ExpMin= 9.52D-02 ExpMax= 1.36D+04 ExpMxC= 4.63D+02 IAcc=3 IRadAn=         5 AccDes= 0.00D+00
 Harris functional with IExCor= 4639 and IRadAn=       5 diagonalized for initial guess.
 HarFok:  IExCor= 4639 AccDes= 0.00D+00 IRadAn=         5 IDoV= 1 UseB2=F ITyADJ=14
 ICtDFT=  3500011 ScaDFX=  1.000000  1.000000  1.000000  1.000000
 FoFCou: FMM=F IPFlag=           0 FMFlag=      100000 FMFlg1=           0
         NFxFlg=           0 DoJE=T BraDBF=F KetDBF=T FulRan=T
         wScrn=  0.000000 ICntrl=       500 IOpCl=  0 I1Cent=   200000004 NGrid=           0
         NMat0=    1 NMatS0=      1 NMatT0=    0 NMatD0=    1 NMtDS0=    0 NMtDT0=    0
 Symmetry not used in FoFCou.
 Harris En= -444.590698216891    
 JPrj=0 DoOrth=F DoCkMO=T.
 Mixing orbitals, IMix= 1 IMixAn=  0 NRI=1 NE=   44 Coef=  7.07106781D-01  7.07106781D-01
 Mixing orbitals, IMix= 1 IMixAn=  0 NRI=1 NE=   44 Coef= -7.07106781D-01  7.07106781D-01
 Initial guess <Sx>= 0.0000 <Sy>= 0.0000 <Sz>= 0.0000 <S**2>= 1.0000 S= 0.6180
 Leave Link  401 at Mon Aug  3 17:33:22 2020, MaxMem=  6442450944 cpu:              47.9 elap:               2.1
 (Enter /scratch/scicomp/CentOS/7.3.1611/Haswell/software/Gaussian/g16/l9999.exe)

 This type of calculation cannot be archived.


 GOORD'S AXIOM:  A MEETING IS AN EVENT AT WHICH
 THE MINUTES ARE KEPT AND THE HOURS ARE LOST.
 Job cpu time:       0 days  0 hours  1 minutes 12.4 seconds.
 Elapsed time:       0 days  0 hours  0 minutes  3.3 seconds.
 File lengths (MBytes):  RWF=    407 Int=      0 D2E=      0 Chk=      1 Scr=      1
 Normal termination of Gaussian 16 at Mon Aug  3 17:33:22 2020.
 Initial command:
 /scratch/scicomp/CentOS/7.3.1611/Haswell/software/Gaussian/g16/l1.exe "/scratch/bochen/cyclohexadiene-dimerization/wb97xd-def2tzvp/xp-pcm/meso/Gau-111214.inp" -scrdir="/scratch/bochen/cyclohexadiene-dimerization/wb97xd-def2tzvp/xp-pcm/meso/"
 Entering Link 1 = /scratch/scicomp/CentOS/7.3.1611/Haswell/software/Gaussian/g16/l1.exe PID=    111545.
  
 Copyright (c) 1988-2017, Gaussian, Inc.  All Rights Reserved.
  
 This is part of the Gaussian(R) 16 program.  It is based on
 the Gaussian(R) 09 system (copyright 2009, Gaussian, Inc.),
 the Gaussian(R) 03 system (copyright 2003, Gaussian, Inc.),
 the Gaussian(R) 98 system (copyright 1998, Gaussian, Inc.),
 the Gaussian(R) 94 system (copyright 1995, Gaussian, Inc.),
 the Gaussian 92(TM) system (copyright 1992, Gaussian, Inc.),
 the Gaussian 90(TM) system (copyright 1990, Gaussian, Inc.),
 the Gaussian 88(TM) system (copyright 1988, Gaussian, Inc.),
 the Gaussian 86(TM) system (copyright 1986, Carnegie Mellon
 University), and the Gaussian 82(TM) system (copyright 1983,
 Carnegie Mellon University). Gaussian is a federally registered
 trademark of Gaussian, Inc.
  
 This software contains proprietary and confidential information,
 including trade secrets, belonging to Gaussian, Inc.
  
 This software is provided under written license and may be
 used, copied, transmitted, or stored only in accord with that
 written license.
  
 The following legend is applicable only to US Government
 contracts under FAR:
  
                    RESTRICTED RIGHTS LEGEND
  
 Use, reproduction and disclosure by the US Government is
 subject to restrictions as set forth in subparagraphs (a)
 and (c) of the Commercial Computer Software - Restricted
 Rights clause in FAR 52.227-19.
  
 Gaussian, Inc.
 340 Quinnipiac St., Bldg. 40, Wallingford CT 06492
  
  
 ---------------------------------------------------------------
 Warning -- This program may not be used in any manner that
 competes with the business of Gaussian, Inc. or will provide
 assistance to any competitor of Gaussian, Inc.  The licensee
 of this program is prohibited from giving any competitor of
 Gaussian, Inc. access to this program.  By using this program,
 the user acknowledges that Gaussian, Inc. is engaged in the
 business of creating and licensing software in the field of
 computational chemistry and represents and warrants to the
 licensee that it is not a competitor of Gaussian, Inc. and that
 it will not use this program in any manner prohibited above.
 ---------------------------------------------------------------
  

 Cite this work as:
 Gaussian 16, Revision B.01,
 M. J. Frisch, G. W. Trucks, H. B. Schlegel, G. E. Scuseria, 
 M. A. Robb, J. R. Cheeseman, G. Scalmani, V. Barone, 
 G. A. Petersson, H. Nakatsuji, X. Li, M. Caricato, A. V. Marenich, 
 J. Bloino, B. G. Janesko, R. Gomperts, B. Mennucci, H. P. Hratchian, 
 J. V. Ortiz, A. F. Izmaylov, J. L. Sonnenberg, D. Williams-Young, 
 F. Ding, F. Lipparini, F. Egidi, J. Goings, B. Peng, A. Petrone, 
 T. Henderson, D. Ranasinghe, V. G. Zakrzewski, J. Gao, N. Rega, 
 G. Zheng, W. Liang, M. Hada, M. Ehara, K. Toyota, R. Fukuda, 
 J. Hasegawa, M. Ishida, T. Nakajima, Y. Honda, O. Kitao, H. Nakai, 
 T. Vreven, K. Throssell, J. A. Montgomery, Jr., J. E. Peralta, 
 F. Ogliaro, M. J. Bearpark, J. J. Heyd, E. N. Brothers, K. N. Kudin, 
 V. N. Staroverov, T. A. Keith, R. Kobayashi, J. Normand, 
 K. Raghavachari, A. P. Rendell, J. C. Burant, S. S. Iyengar, 
 J. Tomasi, M. Cossi, J. M. Millam, M. Klene, C. Adamo, R. Cammi, 
 J. W. Ochterski, R. L. Martin, K. Morokuma, O. Farkas, 
 J. B. Foresman, and D. J. Fox, Gaussian, Inc., Wallingford CT, 2016.
 
 ******************************************
 Gaussian 16:  ES64L-G16RevB.01 20-Dec-2017
                 3-Aug-2020 
 ******************************************
 %chk=meso-TS_10_1_xp-110.chk
 %nproc=24
 Will use up to   24 processors via shared memory.
 %mem=48GB
 ----------------------------------------------------------------------
 #p uwb97xd guess=mix def2tzvp # scrf=(iefpcm,solvent=Cyclohexane,read)
  nosym guess=only pop=none
 ----------------------------------------------------------------------
 1/38=1,40=2,172=1/1;
 2/12=2,15=1,17=6,18=5,40=1/2;
 3/5=44,7=101,11=2,25=1,30=1,70=2203,72=17,74=-58,89=1,116=2/1,2;
 4/13=-1/1;
 99/5=2/99;
 Leave Link    1 at Mon Aug  3 17:33:22 2020, MaxMem=  6442450944 cpu:               1.6 elap:               0.1
 (Enter /scratch/scicomp/CentOS/7.3.1611/Haswell/software/Gaussian/g16/l101.exe)
 -----------------------
 endo-2 xp-pcm for eta=3
 -----------------------
 Symbolic Z-matrix:
 Charge =  0 Multiplicity = 1
 6                    -3.11973  -0.42693   0.24821 
 6                    -0.45263  -0.13438  -0.76652 
 1                    -4.08603  -0.54735   0.72263 
 1                     0.3327   -0.11178  -1.52177 
 6                     1.11517   1.43066   0.67263 
 6                     0.45263   0.13438   0.76652 
 1                     0.562     2.3317    0.90552 
 1                    -0.3327    0.11178   1.52177 
 6                     1.45722  -0.99872   0.98256 
 1                     1.88213  -0.90424   1.98647 
 1                     0.94466  -1.96124   0.94627 
 6                     2.39769   1.52836   0.12339 
 1                     2.82598   2.5125   -0.03105 
 6                     3.11973   0.42693  -0.24821 
 1                     4.08603   0.54735  -0.72263 
 6                     2.5928   -0.9593   -0.04255 
 1                     2.24621  -1.35883  -1.00479 
 1                     3.4016   -1.62455   0.27105 
 6                    -1.11517  -1.43066  -0.67263 
 1                    -0.562    -2.3317   -0.90552 
 6                    -2.39769  -1.52836  -0.12339 
 1                    -2.82598  -2.5125    0.03105 
 6                    -1.45722   0.99872  -0.98256 
 1                    -0.94466   1.96124  -0.94627 
 1                    -1.88213   0.90424  -1.98647 
 6                    -2.5928    0.9593    0.04255 
 1                    -3.4016    1.62455  -0.27105 
 1                    -2.24621   1.35883   1.00479 
 
 ITRead=  0  0  0  0  0  0  0  0  0  0  0  0  0  0  0  0  0  0  0  0
 ITRead=  0  0  0  0  0  0  0  0
 MicOpt= -1 -1 -1 -1 -1 -1 -1 -1 -1 -1 -1 -1 -1 -1 -1 -1 -1 -1 -1 -1
 MicOpt= -1 -1 -1 -1 -1 -1 -1 -1
 NAtoms=     28 NQM=       28 NQMF=       0 NMMI=      0 NMMIF=      0
                NMic=       0 NMicF=      0.
                    Isotopes and Nuclear Properties:
 (Nuclear quadrupole moments (NQMom) in fm**2, nuclear magnetic moments (NMagM)
  in nuclear magnetons)

  Atom         1           2           3           4           5           6           7           8           9          10
 IAtWgt=          12          12           1           1          12          12           1           1          12           1
 AtmWgt=  12.0000000  12.0000000   1.0078250   1.0078250  12.0000000  12.0000000   1.0078250   1.0078250  12.0000000   1.0078250
 NucSpn=           0           0           1           1           0           0           1           1           0           1
 AtZEff=  -0.0000000  -0.0000000  -0.0000000  -0.0000000  -0.0000000  -0.0000000  -0.0000000  -0.0000000  -0.0000000  -0.0000000
 NQMom=    0.0000000   0.0000000   0.0000000   0.0000000   0.0000000   0.0000000   0.0000000   0.0000000   0.0000000   0.0000000
 NMagM=    0.0000000   0.0000000   2.7928460   2.7928460   0.0000000   0.0000000   2.7928460   2.7928460   0.0000000   2.7928460
 AtZNuc=   6.0000000   6.0000000   1.0000000   1.0000000   6.0000000   6.0000000   1.0000000   1.0000000   6.0000000   1.0000000

  Atom        11          12          13          14          15          16          17          18          19          20
 IAtWgt=           1          12           1          12           1          12           1           1          12           1
 AtmWgt=   1.0078250  12.0000000   1.0078250  12.0000000   1.0078250  12.0000000   1.0078250   1.0078250  12.0000000   1.0078250
 NucSpn=           1           0           1           0           1           0           1           1           0           1
 AtZEff=  -0.0000000  -0.0000000  -0.0000000  -0.0000000  -0.0000000  -0.0000000  -0.0000000  -0.0000000  -0.0000000  -0.0000000
 NQMom=    0.0000000   0.0000000   0.0000000   0.0000000   0.0000000   0.0000000   0.0000000   0.0000000   0.0000000   0.0000000
 NMagM=    2.7928460   0.0000000   2.7928460   0.0000000   2.7928460   0.0000000   2.7928460   2.7928460   0.0000000   2.7928460
 AtZNuc=   1.0000000   6.0000000   1.0000000   6.0000000   1.0000000   6.0000000   1.0000000   1.0000000   6.0000000   1.0000000

  Atom        21          22          23          24          25          26          27          28
 IAtWgt=          12           1          12           1           1          12           1           1
 AtmWgt=  12.0000000   1.0078250  12.0000000   1.0078250   1.0078250  12.0000000   1.0078250   1.0078250
 NucSpn=           0           1           0           1           1           0           1           1
 AtZEff=  -0.0000000  -0.0000000  -0.0000000  -0.0000000  -0.0000000  -0.0000000  -0.0000000  -0.0000000
 NQMom=    0.0000000   0.0000000   0.0000000   0.0000000   0.0000000   0.0000000   0.0000000   0.0000000
 NMagM=    0.0000000   2.7928460   0.0000000   2.7928460   2.7928460   0.0000000   2.7928460   2.7928460
 AtZNuc=   6.0000000   1.0000000   6.0000000   1.0000000   1.0000000   6.0000000   1.0000000   1.0000000
 Leave Link  101 at Mon Aug  3 17:33:22 2020, MaxMem=  6442450944 cpu:               2.4 elap:               0.1
 (Enter /scratch/scicomp/CentOS/7.3.1611/Haswell/software/Gaussian/g16/l202.exe)
                          Input orientation:                          
 ---------------------------------------------------------------------
 Center     Atomic      Atomic             Coordinates (Angstroms)
 Number     Number       Type             X           Y           Z
 ---------------------------------------------------------------------
      1          6           0       -3.119734   -0.426930    0.248214
      2          6           0       -0.452630   -0.134377   -0.766522
      3          1           0       -4.086028   -0.547352    0.722629
      4          1           0        0.332703   -0.111776   -1.521768
      5          6           0        1.115166    1.430657    0.672626
      6          6           0        0.452630    0.134377    0.766522
      7          1           0        0.561998    2.331699    0.905522
      8          1           0       -0.332703    0.111776    1.521768
      9          6           0        1.457223   -0.998723    0.982555
     10          1           0        1.882127   -0.904241    1.986471
     11          1           0        0.944658   -1.961243    0.946268
     12          6           0        2.397689    1.528359    0.123394
     13          1           0        2.825979    2.512496   -0.031045
     14          6           0        3.119734    0.426930   -0.248214
     15          1           0        4.086028    0.547352   -0.722629
     16          6           0        2.592798   -0.959299   -0.042549
     17          1           0        2.246207   -1.358828   -1.004791
     18          1           0        3.401603   -1.624548    0.271052
     19          6           0       -1.115166   -1.430657   -0.672626
     20          1           0       -0.561998   -2.331699   -0.905522
     21          6           0       -2.397689   -1.528359   -0.123394
     22          1           0       -2.825979   -2.512496    0.031045
     23          6           0       -1.457223    0.998723   -0.982556
     24          1           0       -0.944658    1.961243   -0.946268
     25          1           0       -1.882127    0.904241   -1.986471
     26          6           0       -2.592798    0.959299    0.042549
     27          1           0       -3.401603    1.624548   -0.271052
     28          1           0       -2.246207    1.358828    1.004791
 ---------------------------------------------------------------------
                    Distance matrix (angstroms):
                    1          2          3          4          5
     1  C    0.000000
     2  C    2.868575   0.000000
     3  H    1.083187   3.948379   0.000000
     4  H    3.892490   1.089796   4.975161   0.000000
     5  C    4.643827   2.641678   5.564840   2.794050   0.000000
     6  C    3.653148   1.800541   4.589782   2.304614   1.458805
     7  H    4.647283   3.147496   5.470515   3.451794   1.082641
     8  H    3.111219   2.304614   3.893651   3.123436   2.134669
     9  C    4.670625   2.730184   5.567668   2.884936   2.472842
    10  H    5.316764   3.690901   6.110936   3.916179   2.786784
    11  H    4.400077   2.867665   5.230383   3.144236   3.407189
    12  C    5.854972   3.417742   6.834197   3.108178   1.398595
    13  H    6.638502   4.277399   7.596482   3.914778   2.142991
    14  C    6.317157   3.653148   7.335855   3.111219   2.423573
    15  H    7.335855   4.589782   8.370761   3.893651   3.398968
    16  C    5.744648   3.237169   6.735125   2.830974   2.899442
    17  H    5.588540   2.973176   6.613598   2.341773   3.445897
    18  H    6.630433   4.260549   7.578185   3.862749   3.837100
    19  C    2.423573   1.458805   3.398968   2.134669   3.869264
    20  H    3.391352   2.204429   4.272418   2.471499   4.411208
    21  C    1.368425   2.477913   2.128055   3.378934   4.661499
    22  H    2.117319   3.453165   2.434708   4.260511   5.611836
    23  C    2.512215   1.529638   3.494084   2.174349   3.089236
    24  H    3.443997   2.160098   4.352754   2.502051   2.673053
    25  H    2.880539   2.147199   3.782000   2.480668   4.041247
    26  C    1.497194   2.535950   2.227609   3.486093   3.790537
    27  H    2.134865   3.469258   2.484550   4.303969   4.618368
    28  H    2.127061   2.929868   2.664222   3.898327   3.378509
                    6          7          8          9         10
     6  C    0.000000
     7  H    2.204429   0.000000
     8  H    1.089796   2.471499   0.000000
     9  C    1.529638   3.449503   2.174349   0.000000
    10  H    2.147199   3.658210   2.480668   1.094220   0.000000
    11  H    2.160098   4.310155   2.502051   1.091093   1.754458
    12  C    2.477913   2.151009   3.378934   2.829978   3.107153
    13  H    3.453165   2.456716   4.260511   3.902504   4.078642
    14  C    2.868575   3.391352   3.892490   2.512214   2.880539
    15  H    3.948379   4.272418   4.975161   3.494083   3.782000
    16  C    2.535950   3.981665   3.486093   1.530334   2.150583
    17  H    2.929868   4.483954   3.898327   2.168344   3.047434
    18  H    3.469258   4.910988   4.303969   2.162986   2.402147
    19  C    2.641678   4.411208   2.794050   3.089236   4.041247
    20  H    3.147496   5.127429   3.451794   3.069025   4.046604
    21  C    3.417742   4.971767   3.108178   4.045242   4.812263
    22  H    4.277399   5.975728   3.914778   4.641411   5.345693
    23  C    2.730184   3.069025   2.884937   4.042950   4.856712
    24  H    2.867665   2.415859   3.144236   4.272094   4.980228
    25  H    3.690901   4.046604   3.916179   4.856711   5.764068
    26  C    3.237169   3.546962   2.830974   4.595664   5.222697
    27  H    4.260549   4.194582   3.862749   5.662267   6.277658
    28  H    2.973176   2.973609   2.341773   4.390209   4.809191
                   11         12         13         14         15
    11  H    0.000000
    12  C    3.868558   0.000000
    13  H    4.950641   1.084347   0.000000
    14  C    3.443997   1.368425   2.117319   0.000000
    15  H    4.352754   2.128055   2.434708   1.083187   0.000000
    16  C    2.167491   2.500809   3.479636   1.497194   2.227609
    17  H    2.421480   3.103481   4.033791   2.127061   2.664222
    18  H    2.570187   3.312170   4.187808   2.134865   2.484550
    19  C    2.673053   4.661499   5.611836   4.643827   5.564840
    20  H    2.415859   4.971767   5.975728   4.647283   5.470515
    21  C    3.535937   5.692107   6.604827   5.854972   6.834197
    22  H    3.919084   6.604827   7.563004   6.638502   7.596482
    23  C    4.272095   4.045242   4.641412   4.670625   5.567668
    24  H    4.747326   3.535937   3.919084   4.400077   5.230383
    25  H    4.980228   4.812263   5.345693   5.316764   6.110936
    26  C    4.675454   5.023477   5.637462   5.744648   6.735125
    27  H    5.764525   5.813487   6.295144   6.630433   7.578185
    28  H    4.605205   4.729838   5.303864   5.588540   6.613598
                   16         17         18         19         20
    16  C    0.000000
    17  H    1.098025   0.000000
    18  H    1.093191   1.741644   0.000000
    19  C    3.790537   3.378509   4.618368   0.000000
    20  H    3.546962   2.973609   4.194582   1.082641   0.000000
    21  C    5.023477   4.729838   5.813487   1.398595   2.151009
    22  H    5.637462   5.303864   6.295144   2.142991   2.456716
    23  C    4.595665   4.390209   5.662268   2.472842   3.449503
    24  H    4.675454   4.605205   5.764525   3.407189   4.310155
    25  H    5.222697   4.809191   6.277658   2.786784   3.658210
    26  C    5.529798   5.466864   6.531564   2.899442   3.981665
    27  H    6.531564   6.429359   7.558711   3.837100   4.910988
    28  H    5.466864   5.621909   6.429359   3.445897   4.483954
                   21         22         23         24         25
    21  C    0.000000
    22  H    1.084347   0.000000
    23  C    2.829979   3.902504   0.000000
    24  H    3.868558   4.950641   1.091093   0.000000
    25  H    3.107153   4.078642   1.094219   1.754458   0.000000
    26  C    2.500809   3.479636   1.530335   2.167491   2.150583
    27  H    3.312170   4.187808   2.162986   2.570187   2.402147
    28  H    3.103481   4.033791   2.168345   2.421480   3.047434
                   26         27         28
    26  C    0.000000
    27  H    1.093191   0.000000
    28  H    1.098025   1.741644   0.000000
 Symmetry turned off by external request.
 Stoichiometry    C12H16
 Framework group  CI[X(C12H16)]
 Deg. of freedom    39
 Full point group                 CI      NOp   2
 Rotational constants (GHZ):           1.9639847           0.6410689           0.5529977
 Leave Link  202 at Mon Aug  3 17:33:23 2020, MaxMem=  6442450944 cpu:               0.3 elap:               0.0
 (Enter /scratch/scicomp/CentOS/7.3.1611/Haswell/software/Gaussian/g16/l301.exe)
 Standard basis: def2TZVP (5D, 7F)
 Ernie: Thresh=  0.10000D-02 Tol=  0.10000D-05 Strict=F.
   468 basis functions,   740 primitive gaussians,   528 cartesian basis functions
    44 alpha electrons       44 beta electrons
       nuclear repulsion energy       692.7544140269 Hartrees.
 IExCor= 4639 DFT=T Ex+Corr=wB97XD ExCW=0 ScaHFX=  1.000000
 ScaDFX=  1.000000  1.000000  1.000000  1.000000 ScalE2=  1.000000  1.000000
 IRadAn=      5 IRanWt=     -1 IRanGd=            0 ICorTp=0 IEmpDi=121
 HFx  wShort=  0.000000 wLong=  0.200000 cFull=  0.222036 cShort=  0.000000 cLong=  0.777964
 DFx  wShort=  0.000000 wLong=  0.200000 cFull=  0.000000 cShort=  0.000000 cLong=  1.000000
 NAtoms=   28 NActive=   28 NUniq=   28 SFac= 1.00D+00 NAtFMM=   60 NAOKFM=F Big=F
 Integral buffers will be    131072 words long.
 Raffenetti 2 integral format.
 Two-electron integral symmetry is turned off.
 R6Disp:  Grimme-D2 Dispersion energy=       -0.0228701961 Hartrees.
 Nuclear repulsion after empirical dispersion term =      692.7315438308 Hartrees.
 Using the following non-standard input for PCM:
 qrep pcmdoc geomview  nodis nocav g03defaults tsare=0.075
 Warning! Using old PCM defaults because the g03defaults keyword was found.
 These settings can be overridden by following keywords.
 nsfe=28
 NVESolv=36  SolvMW=84.1595   Rsolv=2.815
 eps=2.0165 RhoS=0.7781
 --- end of non-standard input.
 Reading user-defined spheres from input:
 ISph  on   Nord    Re0     Alpha      Xe            Ye            Ze
 --- end of user-defined spheres data.
 ------------------------------------------------------------------------------
 Polarizable Continuum Model (PCM)
 =================================
 Model                : PCM.
 Atomic radii         : UA0 (Simple United Atom Topological Model).
 Polarization charges : Total charges.
 Charge compensation  : None.
 Solution method      : On-the-fly selection.
 Cavity type          : SES (Solvent Excluding Surface) (Alpha=1.000).
 Cavity algorithm     : GePol (RMin=0.200 OFac=0.890).
                        User-defined sphere list used, NSphG=   28.
                        Tesserae with average area of 0.075 Ang**2.
                        Smoothing algorithm: None.
                        Polarization charges: point-like.
                        Self-potential: constant (ISelfS= 1).
                        Self-field    : global E.n sum rule (ISelfD= 3).
 Solvent              : CycloHexane, Eps=   2.016500 Eps(inf)=   2.035188
                        RSolv=   2.815000 Ang.
 ------------------------------------------------------------------------------
 GePol: Number of generator spheres                  =      28
 GePol: Total number of spheres                      =     265
 GePol: Number of exposed spheres                    =     187 ( 70.57%)
 GePol: Number of tesserae                           =    4643
 GePol: Average area of tesserae                     =       0.04 Ang**2
 GePol: Minimum area of tessera                      =   0.10D-02 Ang**2
 GePol: Maximum area of tessera                      =    0.11641 Ang**2
 GePol: Number of small tesserae                     =       0
 GePol: Fraction of small tesserae (<1% of avg)      =       0.00%
 GePol: Total count of vertices                      =   16815
 GePol: Maximum number of vertices in a tessera      =       8
 GePol: Cavity surface area                          =    204.449 Ang**2
 GePol: Cavity volume                                =    217.990 Ang**3
 Leave Link  301 at Mon Aug  3 17:33:23 2020, MaxMem=  6442450944 cpu:               8.8 elap:               0.4
 (Enter /scratch/scicomp/CentOS/7.3.1611/Haswell/software/Gaussian/g16/l302.exe)
 NPDir=0 NMtPBC=     1 NCelOv=     1 NCel=       1 NClECP=     1 NCelD=      1
         NCelK=      1 NCelE2=     1 NClLst=     1 CellRange=     0.0.
 One-electron integrals computed using PRISM.
   1 Symmetry operations used in ECPInt.
 ECPInt:  NShTT=   19306 NPrTT=   56928 LenC2=   18534 LenP2D=   42286.
 LDataN:  DoStor=T MaxTD1= 6 Len=  172
 NBasis=   468 RedAO= T EigKep=  3.53D-05  NBF=   468
 NBsUse=   468 1.00D-06 EigRej= -1.00D+00 NBFU=   468
 Precomputing XC quadrature grid using
 IXCGrd= 4 IRadAn=           5 IRanWt=          -1 IRanGd=           0 AccXCQ= 0.00D+00.
 Generated NRdTot=       0 NPtTot=           0 NUsed=           0 NTot=          32
 NSgBfM=   526   526   526   526   526 MxSgAt=    28 MxSgA2=    28.
 Leave Link  302 at Mon Aug  3 17:33:24 2020, MaxMem=  6442450944 cpu:              11.8 elap:               0.5
 (Enter /scratch/scicomp/CentOS/7.3.1611/Haswell/software/Gaussian/g16/l401.exe)
 ExpMin= 9.52D-02 ExpMax= 1.36D+04 ExpMxC= 4.63D+02 IAcc=3 IRadAn=         5 AccDes= 0.00D+00
 Harris functional with IExCor= 4639 and IRadAn=       5 diagonalized for initial guess.
 HarFok:  IExCor= 4639 AccDes= 0.00D+00 IRadAn=         5 IDoV= 1 UseB2=F ITyADJ=14
 ICtDFT=  3500011 ScaDFX=  1.000000  1.000000  1.000000  1.000000
 FoFCou: FMM=F IPFlag=           0 FMFlag=      100000 FMFlg1=           0
         NFxFlg=           0 DoJE=T BraDBF=F KetDBF=T FulRan=T
         wScrn=  0.000000 ICntrl=       500 IOpCl=  0 I1Cent=   200000004 NGrid=           0
         NMat0=    1 NMatS0=      1 NMatT0=    0 NMatD0=    1 NMtDS0=    0 NMtDT0=    0
 Symmetry not used in FoFCou.
 Harris En= -444.590698216891    
 JPrj=0 DoOrth=F DoCkMO=T.
 Mixing orbitals, IMix= 1 IMixAn=  0 NRI=1 NE=   44 Coef=  7.07106781D-01  7.07106781D-01
 Mixing orbitals, IMix= 1 IMixAn=  0 NRI=1 NE=   44 Coef= -7.07106781D-01  7.07106781D-01
 Initial guess <Sx>= 0.0000 <Sy>= 0.0000 <Sz>= 0.0000 <S**2>= 1.0000 S= 0.6180
 Leave Link  401 at Mon Aug  3 17:33:26 2020, MaxMem=  6442450944 cpu:              48.0 elap:               2.1
 (Enter /scratch/scicomp/CentOS/7.3.1611/Haswell/software/Gaussian/g16/l9999.exe)

 This type of calculation cannot be archived.


      THE ONE-EYED VIEW OF OUR UNIVERSE SAYS YOU MUST NOT LOOK
      FAR AFIELD FOR PROBLEMS.  SUCH PROBLEMS MAY NEVER ARRIVE. 
      INSTEAD, TEND TO THE WOLF WITHIN YOUR FENCES.
      THE PACKS RANGING OUTSIDE MAY NOT EVEN EXIST.

                              -- THE AZHAR BOOK SHAMRA I:4
                                 CHILDREN OF DUNE, BY FRANK HERBERT
 Job cpu time:       0 days  0 hours  1 minutes 13.8 seconds.
 Elapsed time:       0 days  0 hours  0 minutes  3.4 seconds.
 File lengths (MBytes):  RWF=    396 Int=      0 D2E=      0 Chk=      1 Scr=      1
 Normal termination of Gaussian 16 at Mon Aug  3 17:33:26 2020.
 Initial command:
 /scratch/scicomp/CentOS/7.3.1611/Haswell/software/Gaussian/g16/l1.exe "/scratch/bochen/cyclohexadiene-dimerization/wb97xd-def2tzvp/xp-pcm/meso/Gau-111214.inp" -scrdir="/scratch/bochen/cyclohexadiene-dimerization/wb97xd-def2tzvp/xp-pcm/meso/"
 Entering Link 1 = /scratch/scicomp/CentOS/7.3.1611/Haswell/software/Gaussian/g16/l1.exe PID=    111707.
  
 Copyright (c) 1988-2017, Gaussian, Inc.  All Rights Reserved.
  
 This is part of the Gaussian(R) 16 program.  It is based on
 the Gaussian(R) 09 system (copyright 2009, Gaussian, Inc.),
 the Gaussian(R) 03 system (copyright 2003, Gaussian, Inc.),
 the Gaussian(R) 98 system (copyright 1998, Gaussian, Inc.),
 the Gaussian(R) 94 system (copyright 1995, Gaussian, Inc.),
 the Gaussian 92(TM) system (copyright 1992, Gaussian, Inc.),
 the Gaussian 90(TM) system (copyright 1990, Gaussian, Inc.),
 the Gaussian 88(TM) system (copyright 1988, Gaussian, Inc.),
 the Gaussian 86(TM) system (copyright 1986, Carnegie Mellon
 University), and the Gaussian 82(TM) system (copyright 1983,
 Carnegie Mellon University). Gaussian is a federally registered
 trademark of Gaussian, Inc.
  
 This software contains proprietary and confidential information,
 including trade secrets, belonging to Gaussian, Inc.
  
 This software is provided under written license and may be
 used, copied, transmitted, or stored only in accord with that
 written license.
  
 The following legend is applicable only to US Government
 contracts under FAR:
  
                    RESTRICTED RIGHTS LEGEND
  
 Use, reproduction and disclosure by the US Government is
 subject to restrictions as set forth in subparagraphs (a)
 and (c) of the Commercial Computer Software - Restricted
 Rights clause in FAR 52.227-19.
  
 Gaussian, Inc.
 340 Quinnipiac St., Bldg. 40, Wallingford CT 06492
  
  
 ---------------------------------------------------------------
 Warning -- This program may not be used in any manner that
 competes with the business of Gaussian, Inc. or will provide
 assistance to any competitor of Gaussian, Inc.  The licensee
 of this program is prohibited from giving any competitor of
 Gaussian, Inc. access to this program.  By using this program,
 the user acknowledges that Gaussian, Inc. is engaged in the
 business of creating and licensing software in the field of
 computational chemistry and represents and warrants to the
 licensee that it is not a competitor of Gaussian, Inc. and that
 it will not use this program in any manner prohibited above.
 ---------------------------------------------------------------
  

 Cite this work as:
 Gaussian 16, Revision B.01,
 M. J. Frisch, G. W. Trucks, H. B. Schlegel, G. E. Scuseria, 
 M. A. Robb, J. R. Cheeseman, G. Scalmani, V. Barone, 
 G. A. Petersson, H. Nakatsuji, X. Li, M. Caricato, A. V. Marenich, 
 J. Bloino, B. G. Janesko, R. Gomperts, B. Mennucci, H. P. Hratchian, 
 J. V. Ortiz, A. F. Izmaylov, J. L. Sonnenberg, D. Williams-Young, 
 F. Ding, F. Lipparini, F. Egidi, J. Goings, B. Peng, A. Petrone, 
 T. Henderson, D. Ranasinghe, V. G. Zakrzewski, J. Gao, N. Rega, 
 G. Zheng, W. Liang, M. Hada, M. Ehara, K. Toyota, R. Fukuda, 
 J. Hasegawa, M. Ishida, T. Nakajima, Y. Honda, O. Kitao, H. Nakai, 
 T. Vreven, K. Throssell, J. A. Montgomery, Jr., J. E. Peralta, 
 F. Ogliaro, M. J. Bearpark, J. J. Heyd, E. N. Brothers, K. N. Kudin, 
 V. N. Staroverov, T. A. Keith, R. Kobayashi, J. Normand, 
 K. Raghavachari, A. P. Rendell, J. C. Burant, S. S. Iyengar, 
 J. Tomasi, M. Cossi, J. M. Millam, M. Klene, C. Adamo, R. Cammi, 
 J. W. Ochterski, R. L. Martin, K. Morokuma, O. Farkas, 
 J. B. Foresman, and D. J. Fox, Gaussian, Inc., Wallingford CT, 2016.
 
 ******************************************
 Gaussian 16:  ES64L-G16RevB.01 20-Dec-2017
                 3-Aug-2020 
 ******************************************
 %chk=meso-TS_10_1_xp-105.chk
 %nproc=24
 Will use up to   24 processors via shared memory.
 %mem=48GB
 ----------------------------------------------------------------------
 #p uwb97xd guess=mix def2tzvp # scrf=(iefpcm,solvent=Cyclohexane,read)
  nosym guess=only pop=none
 ----------------------------------------------------------------------
 1/38=1,40=2,172=1/1;
 2/12=2,15=1,17=6,18=5,40=1/2;
 3/5=44,7=101,11=2,25=1,30=1,70=2203,72=17,74=-58,89=1,116=2/1,2;
 4/13=-1/1;
 99/5=2/99;
 Leave Link    1 at Mon Aug  3 17:33:26 2020, MaxMem=  6442450944 cpu:               1.5 elap:               0.1
 (Enter /scratch/scicomp/CentOS/7.3.1611/Haswell/software/Gaussian/g16/l101.exe)
 -----------------------
 endo-2 xp-pcm for eta=3
 -----------------------
 Symbolic Z-matrix:
 Charge =  0 Multiplicity = 1
 6                    -3.11973  -0.42693   0.24821 
 6                    -0.45263  -0.13438  -0.76652 
 1                    -4.08603  -0.54735   0.72263 
 1                     0.3327   -0.11178  -1.52177 
 6                     1.11517   1.43066   0.67263 
 6                     0.45263   0.13438   0.76652 
 1                     0.562     2.3317    0.90552 
 1                    -0.3327    0.11178   1.52177 
 6                     1.45722  -0.99872   0.98256 
 1                     1.88213  -0.90424   1.98647 
 1                     0.94466  -1.96124   0.94627 
 6                     2.39769   1.52836   0.12339 
 1                     2.82598   2.5125   -0.03105 
 6                     3.11973   0.42693  -0.24821 
[...]
 1                    -4.08603  -0.54735   0.72263 
 1                     0.3327   -0.11178  -1.52177 
 6                     1.11517   1.43066   0.67263 
 6                     0.45263   0.13438   0.76652 
 1                     0.562     2.3317    0.90552 
 1                    -0.3327    0.11178   1.52177 
 6                     1.45722  -0.99872   0.98256 
 1                     1.88213  -0.90424   1.98647 
 1                     0.94466  -1.96124   0.94627 
 6                     2.39769   1.52836   0.12339 
 1                     2.82598   2.5125   -0.03105 
 6                     3.11973   0.42693  -0.24821 
 1                     4.08603   0.54735  -0.72263 
 6                     2.5928   -0.9593   -0.04255 
 1                     2.24621  -1.35883  -1.00479 
 1                     3.4016   -1.62455   0.27105 
 6                    -1.11517  -1.43066  -0.67263 
 1                    -0.562    -2.3317   -0.90552 
 6                    -2.39769  -1.52836  -0.12339 
 1                    -2.82598  -2.5125    0.03105 
 6                    -1.45722   0.99872  -0.98256 
 1                    -0.94466   1.96124  -0.94627 
 1                    -1.88213   0.90424  -1.98647 
 6                    -2.5928    0.9593    0.04255 
 1                    -3.4016    1.62455  -0.27105 
 1                    -2.24621   1.35883   1.00479 
 
 ITRead=  0  0  0  0  0  0  0  0  0  0  0  0  0  0  0  0  0  0  0  0
 ITRead=  0  0  0  0  0  0  0  0
 MicOpt= -1 -1 -1 -1 -1 -1 -1 -1 -1 -1 -1 -1 -1 -1 -1 -1 -1 -1 -1 -1
 MicOpt= -1 -1 -1 -1 -1 -1 -1 -1
 NAtoms=     28 NQM=       28 NQMF=       0 NMMI=      0 NMMIF=      0
                NMic=       0 NMicF=      0.
                    Isotopes and Nuclear Properties:
 (Nuclear quadrupole moments (NQMom) in fm**2, nuclear magnetic moments (NMagM)
  in nuclear magnetons)

  Atom         1           2           3           4           5           6           7           8           9          10
 IAtWgt=          12          12           1           1          12          12           1           1          12           1
 AtmWgt=  12.0000000  12.0000000   1.0078250   1.0078250  12.0000000  12.0000000   1.0078250   1.0078250  12.0000000   1.0078250
 NucSpn=           0           0           1           1           0           0           1           1           0           1
 AtZEff=  -0.0000000  -0.0000000  -0.0000000  -0.0000000  -0.0000000  -0.0000000  -0.0000000  -0.0000000  -0.0000000  -0.0000000
 NQMom=    0.0000000   0.0000000   0.0000000   0.0000000   0.0000000   0.0000000   0.0000000   0.0000000   0.0000000   0.0000000
 NMagM=    0.0000000   0.0000000   2.7928460   2.7928460   0.0000000   0.0000000   2.7928460   2.7928460   0.0000000   2.7928460
 AtZNuc=   6.0000000   6.0000000   1.0000000   1.0000000   6.0000000   6.0000000   1.0000000   1.0000000   6.0000000   1.0000000

  Atom        11          12          13          14          15          16          17          18          19          20
 IAtWgt=           1          12           1          12           1          12           1           1          12           1
 AtmWgt=   1.0078250  12.0000000   1.0078250  12.0000000   1.0078250  12.0000000   1.0078250   1.0078250  12.0000000   1.0078250
 NucSpn=           1           0           1           0           1           0           1           1           0           1
 AtZEff=  -0.0000000  -0.0000000  -0.0000000  -0.0000000  -0.0000000  -0.0000000  -0.0000000  -0.0000000  -0.0000000  -0.0000000
 NQMom=    0.0000000   0.0000000   0.0000000   0.0000000   0.0000000   0.0000000   0.0000000   0.0000000   0.0000000   0.0000000
 NMagM=    2.7928460   0.0000000   2.7928460   0.0000000   2.7928460   0.0000000   2.7928460   2.7928460   0.0000000   2.7928460
 AtZNuc=   1.0000000   6.0000000   1.0000000   6.0000000   1.0000000   6.0000000   1.0000000   1.0000000   6.0000000   1.0000000

  Atom        21          22          23          24          25          26          27          28
 IAtWgt=          12           1          12           1           1          12           1           1
 AtmWgt=  12.0000000   1.0078250  12.0000000   1.0078250   1.0078250  12.0000000   1.0078250   1.0078250
 NucSpn=           0           1           0           1           1           0           1           1
 AtZEff=  -0.0000000  -0.0000000  -0.0000000  -0.0000000  -0.0000000  -0.0000000  -0.0000000  -0.0000000
 NQMom=    0.0000000   0.0000000   0.0000000   0.0000000   0.0000000   0.0000000   0.0000000   0.0000000
 NMagM=    0.0000000   2.7928460   0.0000000   2.7928460   2.7928460   0.0000000   2.7928460   2.7928460
 AtZNuc=   6.0000000   1.0000000   6.0000000   1.0000000   1.0000000   6.0000000   1.0000000   1.0000000
 Leave Link  101 at Mon Aug  3 17:33:38 2020, MaxMem=  6442450944 cpu:               2.4 elap:               0.1
 (Enter /scratch/scicomp/CentOS/7.3.1611/Haswell/software/Gaussian/g16/l202.exe)
                          Input orientation:                          
 ---------------------------------------------------------------------
 Center     Atomic      Atomic             Coordinates (Angstroms)
 Number     Number       Type             X           Y           Z
 ---------------------------------------------------------------------
      1          6           0       -3.119734   -0.426930    0.248214
      2          6           0       -0.452630   -0.134377   -0.766522
      3          1           0       -4.086028   -0.547352    0.722629
      4          1           0        0.332703   -0.111776   -1.521768
      5          6           0        1.115166    1.430657    0.672626
      6          6           0        0.452630    0.134377    0.766522
      7          1           0        0.561998    2.331699    0.905522
      8          1           0       -0.332703    0.111776    1.521768
      9          6           0        1.457223   -0.998723    0.982555
     10          1           0        1.882127   -0.904241    1.986471
     11          1           0        0.944658   -1.961243    0.946268
     12          6           0        2.397689    1.528359    0.123394
     13          1           0        2.825979    2.512496   -0.031045
     14          6           0        3.119734    0.426930   -0.248214
     15          1           0        4.086028    0.547352   -0.722629
     16          6           0        2.592798   -0.959299   -0.042549
     17          1           0        2.246207   -1.358828   -1.004791
     18          1           0        3.401603   -1.624548    0.271052
     19          6           0       -1.115166   -1.430657   -0.672626
     20          1           0       -0.561998   -2.331699   -0.905522
     21          6           0       -2.397689   -1.528359   -0.123394
     22          1           0       -2.825979   -2.512496    0.031045
     23          6           0       -1.457223    0.998723   -0.982556
     24          1           0       -0.944658    1.961243   -0.946268
     25          1           0       -1.882127    0.904241   -1.986471
     26          6           0       -2.592798    0.959299    0.042549
     27          1           0       -3.401603    1.624548   -0.271052
     28          1           0       -2.246207    1.358828    1.004791
 ---------------------------------------------------------------------
                    Distance matrix (angstroms):
                    1          2          3          4          5
     1  C    0.000000
     2  C    2.868575   0.000000
     3  H    1.083187   3.948379   0.000000
     4  H    3.892490   1.089796   4.975161   0.000000
     5  C    4.643827   2.641678   5.564840   2.794050   0.000000
     6  C    3.653148   1.800541   4.589782   2.304614   1.458805
     7  H    4.647283   3.147496   5.470515   3.451794   1.082641
     8  H    3.111219   2.304614   3.893651   3.123436   2.134669
     9  C    4.670625   2.730184   5.567668   2.884936   2.472842
    10  H    5.316764   3.690901   6.110936   3.916179   2.786784
    11  H    4.400077   2.867665   5.230383   3.144236   3.407189
    12  C    5.854972   3.417742   6.834197   3.108178   1.398595
    13  H    6.638502   4.277399   7.596482   3.914778   2.142991
    14  C    6.317157   3.653148   7.335855   3.111219   2.423573
    15  H    7.335855   4.589782   8.370761   3.893651   3.398968
    16  C    5.744648   3.237169   6.735125   2.830974   2.899442
    17  H    5.588540   2.973176   6.613598   2.341773   3.445897
    18  H    6.630433   4.260549   7.578185   3.862749   3.837100
    19  C    2.423573   1.458805   3.398968   2.134669   3.869264
    20  H    3.391352   2.204429   4.272418   2.471499   4.411208
    21  C    1.368425   2.477913   2.128055   3.378934   4.661499
    22  H    2.117319   3.453165   2.434708   4.260511   5.611836
    23  C    2.512215   1.529638   3.494084   2.174349   3.089236
    24  H    3.443997   2.160098   4.352754   2.502051   2.673053
    25  H    2.880539   2.147199   3.782000   2.480668   4.041247
    26  C    1.497194   2.535950   2.227609   3.486093   3.790537
    27  H    2.134865   3.469258   2.484550   4.303969   4.618368
    28  H    2.127061   2.929868   2.664222   3.898327   3.378509
                    6          7          8          9         10
     6  C    0.000000
     7  H    2.204429   0.000000
     8  H    1.089796   2.471499   0.000000
     9  C    1.529638   3.449503   2.174349   0.000000
    10  H    2.147199   3.658210   2.480668   1.094220   0.000000
    11  H    2.160098   4.310155   2.502051   1.091093   1.754458
    12  C    2.477913   2.151009   3.378934   2.829978   3.107153
    13  H    3.453165   2.456716   4.260511   3.902504   4.078642
    14  C    2.868575   3.391352   3.892490   2.512214   2.880539
    15  H    3.948379   4.272418   4.975161   3.494083   3.782000
    16  C    2.535950   3.981665   3.486093   1.530334   2.150583
    17  H    2.929868   4.483954   3.898327   2.168344   3.047434
    18  H    3.469258   4.910988   4.303969   2.162986   2.402147
    19  C    2.641678   4.411208   2.794050   3.089236   4.041247
    20  H    3.147496   5.127429   3.451794   3.069025   4.046604
    21  C    3.417742   4.971767   3.108178   4.045242   4.812263
    22  H    4.277399   5.975728   3.914778   4.641411   5.345693
    23  C    2.730184   3.069025   2.884937   4.042950   4.856712
    24  H    2.867665   2.415859   3.144236   4.272094   4.980228
    25  H    3.690901   4.046604   3.916179   4.856711   5.764068
    26  C    3.237169   3.546962   2.830974   4.595664   5.222697
    27  H    4.260549   4.194582   3.862749   5.662267   6.277658
    28  H    2.973176   2.973609   2.341773   4.390209   4.809191
                   11         12         13         14         15
    11  H    0.000000
    12  C    3.868558   0.000000
    13  H    4.950641   1.084347   0.000000
    14  C    3.443997   1.368425   2.117319   0.000000
    15  H    4.352754   2.128055   2.434708   1.083187   0.000000
    16  C    2.167491   2.500809   3.479636   1.497194   2.227609
    17  H    2.421480   3.103481   4.033791   2.127061   2.664222
    18  H    2.570187   3.312170   4.187808   2.134865   2.484550
    19  C    2.673053   4.661499   5.611836   4.643827   5.564840
    20  H    2.415859   4.971767   5.975728   4.647283   5.470515
    21  C    3.535937   5.692107   6.604827   5.854972   6.834197
    22  H    3.919084   6.604827   7.563004   6.638502   7.596482
    23  C    4.272095   4.045242   4.641412   4.670625   5.567668
    24  H    4.747326   3.535937   3.919084   4.400077   5.230383
    25  H    4.980228   4.812263   5.345693   5.316764   6.110936
    26  C    4.675454   5.023477   5.637462   5.744648   6.735125
    27  H    5.764525   5.813487   6.295144   6.630433   7.578185
    28  H    4.605205   4.729838   5.303864   5.588540   6.613598
                   16         17         18         19         20
    16  C    0.000000
    17  H    1.098025   0.000000
    18  H    1.093191   1.741644   0.000000
    19  C    3.790537   3.378509   4.618368   0.000000
    20  H    3.546962   2.973609   4.194582   1.082641   0.000000
    21  C    5.023477   4.729838   5.813487   1.398595   2.151009
    22  H    5.637462   5.303864   6.295144   2.142991   2.456716
    23  C    4.595665   4.390209   5.662268   2.472842   3.449503
    24  H    4.675454   4.605205   5.764525   3.407189   4.310155
    25  H    5.222697   4.809191   6.277658   2.786784   3.658210
    26  C    5.529798   5.466864   6.531564   2.899442   3.981665
    27  H    6.531564   6.429359   7.558711   3.837100   4.910988
    28  H    5.466864   5.621909   6.429359   3.445897   4.483954
                   21         22         23         24         25
    21  C    0.000000
    22  H    1.084347   0.000000
    23  C    2.829979   3.902504   0.000000
    24  H    3.868558   4.950641   1.091093   0.000000
    25  H    3.107153   4.078642   1.094219   1.754458   0.000000
    26  C    2.500809   3.479636   1.530335   2.167491   2.150583
    27  H    3.312170   4.187808   2.162986   2.570187   2.402147
    28  H    3.103481   4.033791   2.168345   2.421480   3.047434
                   26         27         28
    26  C    0.000000
    27  H    1.093191   0.000000
    28  H    1.098025   1.741644   0.000000
 Symmetry turned off by external request.
 Stoichiometry    C12H16
 Framework group  CI[X(C12H16)]
 Deg. of freedom    39
 Full point group                 CI      NOp   2
 Rotational constants (GHZ):           1.9639847           0.6410689           0.5529977
 Leave Link  202 at Mon Aug  3 17:33:39 2020, MaxMem=  6442450944 cpu:               0.3 elap:               0.0
 (Enter /scratch/scicomp/CentOS/7.3.1611/Haswell/software/Gaussian/g16/l301.exe)
 Standard basis: def2TZVP (5D, 7F)
 Ernie: Thresh=  0.10000D-02 Tol=  0.10000D-05 Strict=F.
   468 basis functions,   740 primitive gaussians,   528 cartesian basis functions
    44 alpha electrons       44 beta electrons
       nuclear repulsion energy       692.7544140269 Hartrees.
 IExCor= 4639 DFT=T Ex+Corr=wB97XD ExCW=0 ScaHFX=  1.000000
 ScaDFX=  1.000000  1.000000  1.000000  1.000000 ScalE2=  1.000000  1.000000
 IRadAn=      5 IRanWt=     -1 IRanGd=            0 ICorTp=0 IEmpDi=121
 HFx  wShort=  0.000000 wLong=  0.200000 cFull=  0.222036 cShort=  0.000000 cLong=  0.777964
 DFx  wShort=  0.000000 wLong=  0.200000 cFull=  0.000000 cShort=  0.000000 cLong=  1.000000
 NAtoms=   28 NActive=   28 NUniq=   28 SFac= 1.00D+00 NAtFMM=   60 NAOKFM=F Big=F
 Integral buffers will be    131072 words long.
 Raffenetti 2 integral format.
 Two-electron integral symmetry is turned off.
 R6Disp:  Grimme-D2 Dispersion energy=       -0.0228701961 Hartrees.
 Nuclear repulsion after empirical dispersion term =      692.7315438308 Hartrees.
 Using the following non-standard input for PCM:
 qrep pcmdoc geomview  nodis nocav g03defaults tsare=0.075
 Warning! Using old PCM defaults because the g03defaults keyword was found.
 These settings can be overridden by following keywords.
 nsfe=28
 NVESolv=36  SolvMW=84.1595   Rsolv=2.815
 eps=2.0165 RhoS=0.7781
 --- end of non-standard input.
 Reading user-defined spheres from input:
 ISph  on   Nord    Re0     Alpha      Xe            Ye            Ze
 --- end of user-defined spheres data.
 ------------------------------------------------------------------------------
 Polarizable Continuum Model (PCM)
 =================================
 Model                : PCM.
 Atomic radii         : UA0 (Simple United Atom Topological Model).
 Polarization charges : Total charges.
 Charge compensation  : None.
 Solution method      : On-the-fly selection.
 Cavity type          : SES (Solvent Excluding Surface) (Alpha=1.000).
 Cavity algorithm     : GePol (RMin=0.200 OFac=0.890).
                        User-defined sphere list used, NSphG=   28.
                        Tesserae with average area of 0.075 Ang**2.
                        Smoothing algorithm: None.
                        Polarization charges: point-like.
                        Self-potential: constant (ISelfS= 1).
                        Self-field    : global E.n sum rule (ISelfD= 3).
 Solvent              : CycloHexane, Eps=   2.016500 Eps(inf)=   2.035188
                        RSolv=   2.815000 Ang.
 ------------------------------------------------------------------------------
 GePol: Number of generator spheres                  =      28
 GePol: Total number of spheres                      =     450
 GePol: Number of exposed spheres                    =     292 ( 64.89%)
 GePol: Number of tesserae                           =    4574
 GePol: Average area of tesserae                     =       0.04 Ang**2
 GePol: Minimum area of tessera                      =   0.10D-02 Ang**2
 GePol: Maximum area of tessera                      =    0.12546 Ang**2
 GePol: Number of small tesserae                     =       0
 GePol: Fraction of small tesserae (<1% of avg)      =       0.00%
 GePol: Total count of vertices                      =   17256
 GePol: Maximum number of vertices in a tessera      =       9
 GePol: Cavity surface area                          =    183.745 Ang**2
 GePol: Cavity volume                                =    179.643 Ang**3
 Leave Link  301 at Mon Aug  3 17:33:39 2020, MaxMem=  6442450944 cpu:              12.0 elap:               0.5
 (Enter /scratch/scicomp/CentOS/7.3.1611/Haswell/software/Gaussian/g16/l302.exe)
 NPDir=0 NMtPBC=     1 NCelOv=     1 NCel=       1 NClECP=     1 NCelD=      1
         NCelK=      1 NCelE2=     1 NClLst=     1 CellRange=     0.0.
 One-electron integrals computed using PRISM.
   1 Symmetry operations used in ECPInt.
 ECPInt:  NShTT=   19306 NPrTT=   56928 LenC2=   18534 LenP2D=   42286.
 LDataN:  DoStor=T MaxTD1= 6 Len=  172
 NBasis=   468 RedAO= T EigKep=  3.53D-05  NBF=   468
 NBsUse=   468 1.00D-06 EigRej= -1.00D+00 NBFU=   468
 Precomputing XC quadrature grid using
 IXCGrd= 4 IRadAn=           5 IRanWt=          -1 IRanGd=           0 AccXCQ= 0.00D+00.
 Generated NRdTot=       0 NPtTot=           0 NUsed=           0 NTot=          32
 NSgBfM=   526   526   526   526   526 MxSgAt=    28 MxSgA2=    28.
 Leave Link  302 at Mon Aug  3 17:33:40 2020, MaxMem=  6442450944 cpu:              11.7 elap:               0.5
 (Enter /scratch/scicomp/CentOS/7.3.1611/Haswell/software/Gaussian/g16/l401.exe)
 ExpMin= 9.52D-02 ExpMax= 1.36D+04 ExpMxC= 4.63D+02 IAcc=3 IRadAn=         5 AccDes= 0.00D+00
 Harris functional with IExCor= 4639 and IRadAn=       5 diagonalized for initial guess.
 HarFok:  IExCor= 4639 AccDes= 0.00D+00 IRadAn=         5 IDoV= 1 UseB2=F ITyADJ=14
 ICtDFT=  3500011 ScaDFX=  1.000000  1.000000  1.000000  1.000000
 FoFCou: FMM=F IPFlag=           0 FMFlag=      100000 FMFlg1=           0
         NFxFlg=           0 DoJE=T BraDBF=F KetDBF=T FulRan=T
         wScrn=  0.000000 ICntrl=       500 IOpCl=  0 I1Cent=   200000004 NGrid=           0
         NMat0=    1 NMatS0=      1 NMatT0=    0 NMatD0=    1 NMtDS0=    0 NMtDT0=    0
 Symmetry not used in FoFCou.
 Harris En= -444.590698216891    
 JPrj=0 DoOrth=F DoCkMO=T.
 Mixing orbitals, IMix= 1 IMixAn=  0 NRI=1 NE=   44 Coef=  7.07106781D-01  7.07106781D-01
 Mixing orbitals, IMix= 1 IMixAn=  0 NRI=1 NE=   44 Coef= -7.07106781D-01  7.07106781D-01
 Initial guess <Sx>= 0.0000 <Sy>= 0.0000 <Sz>= 0.0000 <S**2>= 1.0000 S= 0.6180
 Leave Link  401 at Mon Aug  3 17:33:42 2020, MaxMem=  6442450944 cpu:              48.5 elap:               2.1
 (Enter /scratch/scicomp/CentOS/7.3.1611/Haswell/software/Gaussian/g16/l9999.exe)

 This type of calculation cannot be archived.



 WE LOSE BECAUSE WE WIN

 GAMBLERS,

 RECOLLECTING WHICH,

 TOSS THEIR DICE AGAIN....


                          EMILY DICKINSON  BOLTS OF MELODY NO. 533
 Job cpu time:       0 days  0 hours  1 minutes 17.5 seconds.
 Elapsed time:       0 days  0 hours  0 minutes  3.5 seconds.
 File lengths (MBytes):  RWF=    384 Int=      0 D2E=      0 Chk=      1 Scr=      1
 Normal termination of Gaussian 16 at Mon Aug  3 17:33:42 2020.
