 Entering Gaussian System, Link 0=g16
 Input=meso-TS_49_2_xp-Ger.com
 Output=meso-TS_49_2_xp-Ger.log
 Initial command:
 /scratch/scicomp/CentOS/7.3.1611/Haswell/software/Gaussian/g16/l1.exe "/scratch/bochen/cyclohexadiene-dimerization/wb97xd-def2tzvp/xp-pcm/meso/Gau-263135.inp" -scrdir="/scratch/bochen/cyclohexadiene-dimerization/wb97xd-def2tzvp/xp-pcm/meso/"
 Entering Link 1 = /scratch/scicomp/CentOS/7.3.1611/Haswell/software/Gaussian/g16/l1.exe PID=    263136.
  
 Copyright (c) 1988-2017, Gaussian, Inc.  All Rights Reserved.
  
 This is part of the Gaussian(R) 16 program.  It is based on
 the Gaussian(R) 09 system (copyright 2009, Gaussian, Inc.),
 the Gaussian(R) 03 system (copyright 2003, Gaussian, Inc.),
 the Gaussian(R) 98 system (copyright 1998, Gaussian, Inc.),
 the Gaussian(R) 94 system (copyright 1995, Gaussian, Inc.),
 the Gaussian 92(TM) system (copyright 1992, Gaussian, Inc.),
 the Gaussian 90(TM) system (copyright 1990, Gaussian, Inc.),
 the Gaussian 88(TM) system (copyright 1988, Gaussian, Inc.),
 the Gaussian 86(TM) system (copyright 1986, Carnegie Mellon
 University), and the Gaussian 82(TM) system (copyright 1983,
 Carnegie Mellon University). Gaussian is a federally registered
 trademark of Gaussian, Inc.
  
 This software contains proprietary and confidential information,
 including trade secrets, belonging to Gaussian, Inc.
  
 This software is provided under written license and may be
 used, copied, transmitted, or stored only in accord with that
 written license.
  
 The following legend is applicable only to US Government
 contracts under FAR:
  
                    RESTRICTED RIGHTS LEGEND
  
 Use, reproduction and disclosure by the US Government is
 subject to restrictions as set forth in subparagraphs (a)
 and (c) of the Commercial Computer Software - Restricted
 Rights clause in FAR 52.227-19.
  
 Gaussian, Inc.
 340 Quinnipiac St., Bldg. 40, Wallingford CT 06492
  
  
 ---------------------------------------------------------------
 Warning -- This program may not be used in any manner that
 competes with the business of Gaussian, Inc. or will provide
 assistance to any competitor of Gaussian, Inc.  The licensee
 of this program is prohibited from giving any competitor of
 Gaussian, Inc. access to this program.  By using this program,
 the user acknowledges that Gaussian, Inc. is engaged in the
 business of creating and licensing software in the field of
 computational chemistry and represents and warrants to the
 licensee that it is not a competitor of Gaussian, Inc. and that
 it will not use this program in any manner prohibited above.
 ---------------------------------------------------------------
  

 Cite this work as:
 Gaussian 16, Revision B.01,
 M. J. Frisch, G. W. Trucks, H. B. Schlegel, G. E. Scuseria, 
 M. A. Robb, J. R. Cheeseman, G. Scalmani, V. Barone, 
 G. A. Petersson, H. Nakatsuji, X. Li, M. Caricato, A. V. Marenich, 
 J. Bloino, B. G. Janesko, R. Gomperts, B. Mennucci, H. P. Hratchian, 
 J. V. Ortiz, A. F. Izmaylov, J. L. Sonnenberg, D. Williams-Young, 
 F. Ding, F. Lipparini, F. Egidi, J. Goings, B. Peng, A. Petrone, 
 T. Henderson, D. Ranasinghe, V. G. Zakrzewski, J. Gao, N. Rega, 
 G. Zheng, W. Liang, M. Hada, M. Ehara, K. Toyota, R. Fukuda, 
 J. Hasegawa, M. Ishida, T. Nakajima, Y. Honda, O. Kitao, H. Nakai, 
 T. Vreven, K. Throssell, J. A. Montgomery, Jr., J. E. Peralta, 
 F. Ogliaro, M. J. Bearpark, J. J. Heyd, E. N. Brothers, K. N. Kudin, 
 V. N. Staroverov, T. A. Keith, R. Kobayashi, J. Normand, 
 K. Raghavachari, A. P. Rendell, J. C. Burant, S. S. Iyengar, 
 J. Tomasi, M. Cossi, J. M. Millam, M. Klene, C. Adamo, R. Cammi, 
 J. W. Ochterski, R. L. Martin, K. Morokuma, O. Farkas, 
 J. B. Foresman, and D. J. Fox, Gaussian, Inc., Wallingford CT, 2016.
 
 ******************************************
 Gaussian 16:  ES64L-G16RevB.01 20-Dec-2017
                 4-Aug-2020 
 ******************************************
 %chk=meso-TS_49_2_xp-12.chk
 %nproc=24
 Will use up to   24 processors via shared memory.
 %mem=48GB
 ----------------------------------------------------------------------
 #p uwb97xd guess=mix def2tzvp # scrf=(iefpcm,solvent=Cyclohexane,read)
  nosym 6d 10f
 ----------------------------------------------------------------------
 1/38=1,40=2,172=1/1;
 2/12=2,15=1,17=6,18=5,40=1/2;
 3/5=44,7=101,8=22,11=2,25=1,30=1,70=2203,72=17,74=-58,116=2/1,2,3;
 4/13=-1/1;
 5/5=2,38=5,53=17/2;
 6/7=2,8=2,9=2,10=2,28=1/1;
 99/5=1,9=1/99;
 Leave Link    1 at Tue Aug  4 02:39:36 2020, MaxMem=  6442450944 cpu:               2.5 elap:               0.1
 (Enter /scratch/scicomp/CentOS/7.3.1611/Haswell/software/Gaussian/g16/l101.exe)
 -----------------------
 endo-2 xp-pcm for eta=3
 -----------------------
 Symbolic Z-matrix:
 Charge =  0 Multiplicity = 1
 6                    -3.12775  -0.44152   0.26112 
 6                    -0.71992  -0.24822  -1.21984 
 1                    -4.0736   -0.53513   0.78213 
 1                     0.23413  -0.16473  -1.7252 
 6                     1.16007   1.42422   0.7826 
 6                     0.71992   0.24822   1.21984 
 1                     0.56693   2.32073   0.91735 
 1                    -0.23413   0.16473   1.7252 
 6                     1.55459  -0.99429   1.10423 
 1                     2.07784  -1.12631   2.05986 
 1                     0.91189  -1.86751   0.99096 
 6                     2.45364   1.5293    0.10781 
 1                     2.85378   2.51504  -0.09747 
 6                     3.12775   0.44152  -0.26112 
 1                     4.0736    0.53513  -0.78213 
 6                     2.57732  -0.94051  -0.03613 
 1                     2.12125  -1.28557  -0.97224 
 1                     3.39036  -1.6399    0.16813 
 6                    -1.16007  -1.42422  -0.7826 
 1                    -0.56693  -2.32073  -0.91735 
 6                    -2.45364  -1.5293   -0.10781 
 1                    -2.85378  -2.51504   0.09747 
 6                    -1.55459   0.99429  -1.10423 
 1                    -0.91189   1.86751  -0.99096 
 1                    -2.07784   1.12631  -2.05986 
 6                    -2.57732   0.94051   0.03613 
 1                    -3.39036   1.6399   -0.16813 
 1                    -2.12125   1.28557   0.97224 
 
 ITRead=  0  0  0  0  0  0  0  0  0  0  0  0  0  0  0  0  0  0  0  0
 ITRead=  0  0  0  0  0  0  0  0
 MicOpt= -1 -1 -1 -1 -1 -1 -1 -1 -1 -1 -1 -1 -1 -1 -1 -1 -1 -1 -1 -1
 MicOpt= -1 -1 -1 -1 -1 -1 -1 -1
 NAtoms=     28 NQM=       28 NQMF=       0 NMMI=      0 NMMIF=      0
                NMic=       0 NMicF=      0.
                    Isotopes and Nuclear Properties:
 (Nuclear quadrupole moments (NQMom) in fm**2, nuclear magnetic moments (NMagM)
  in nuclear magnetons)

  Atom         1           2           3           4           5           6           7           8           9          10
 IAtWgt=          12          12           1           1          12          12           1           1          12           1
 AtmWgt=  12.0000000  12.0000000   1.0078250   1.0078250  12.0000000  12.0000000   1.0078250   1.0078250  12.0000000   1.0078250
 NucSpn=           0           0           1           1           0           0           1           1           0           1
 AtZEff=  -0.0000000  -0.0000000  -0.0000000  -0.0000000  -0.0000000  -0.0000000  -0.0000000  -0.0000000  -0.0000000  -0.0000000
 NQMom=    0.0000000   0.0000000   0.0000000   0.0000000   0.0000000   0.0000000   0.0000000   0.0000000   0.0000000   0.0000000
 NMagM=    0.0000000   0.0000000   2.7928460   2.7928460   0.0000000   0.0000000   2.7928460   2.7928460   0.0000000   2.7928460
 AtZNuc=   6.0000000   6.0000000   1.0000000   1.0000000   6.0000000   6.0000000   1.0000000   1.0000000   6.0000000   1.0000000

  Atom        11          12          13          14          15          16          17          18          19          20
 IAtWgt=           1          12           1          12           1          12           1           1          12           1
 AtmWgt=   1.0078250  12.0000000   1.0078250  12.0000000   1.0078250  12.0000000   1.0078250   1.0078250  12.0000000   1.0078250
 NucSpn=           1           0           1           0           1           0           1           1           0           1
 AtZEff=  -0.0000000  -0.0000000  -0.0000000  -0.0000000  -0.0000000  -0.0000000  -0.0000000  -0.0000000  -0.0000000  -0.0000000
 NQMom=    0.0000000   0.0000000   0.0000000   0.0000000   0.0000000   0.0000000   0.0000000   0.0000000   0.0000000   0.0000000
 NMagM=    2.7928460   0.0000000   2.7928460   0.0000000   2.7928460   0.0000000   2.7928460   2.7928460   0.0000000   2.7928460
 AtZNuc=   1.0000000   6.0000000   1.0000000   6.0000000   1.0000000   6.0000000   1.0000000   1.0000000   6.0000000   1.0000000

  Atom        21          22          23          24          25          26          27          28
 IAtWgt=          12           1          12           1           1          12           1           1
 AtmWgt=  12.0000000   1.0078250  12.0000000   1.0078250   1.0078250  12.0000000   1.0078250   1.0078250
 NucSpn=           0           1           0           1           1           0           1           1
 AtZEff=  -0.0000000  -0.0000000  -0.0000000  -0.0000000  -0.0000000  -0.0000000  -0.0000000  -0.0000000
 NQMom=    0.0000000   0.0000000   0.0000000   0.0000000   0.0000000   0.0000000   0.0000000   0.0000000
 NMagM=    0.0000000   2.7928460   0.0000000   2.7928460   2.7928460   0.0000000   2.7928460   2.7928460
 AtZNuc=   6.0000000   1.0000000   6.0000000   1.0000000   1.0000000   6.0000000   1.0000000   1.0000000
 Leave Link  101 at Tue Aug  4 02:39:37 2020, MaxMem=  6442450944 cpu:               2.4 elap:               0.1
 (Enter /scratch/scicomp/CentOS/7.3.1611/Haswell/software/Gaussian/g16/l202.exe)
                          Input orientation:                          
 ---------------------------------------------------------------------
 Center     Atomic      Atomic             Coordinates (Angstroms)
 Number     Number       Type             X           Y           Z
 ---------------------------------------------------------------------
      1          6           0       -3.127753   -0.441522    0.261122
      2          6           0       -0.719921   -0.248221   -1.219838
      3          1           0       -4.073595   -0.535125    0.782132
      4          1           0        0.234126   -0.164733   -1.725204
      5          6           0        1.160074    1.424218    0.782600
      6          6           0        0.719921    0.248221    1.219838
      7          1           0        0.566933    2.320735    0.917353
      8          1           0       -0.234126    0.164733    1.725204
      9          6           0        1.554591   -0.994289    1.104230
     10          1           0        2.077836   -1.126314    2.059864
     11          1           0        0.911886   -1.867512    0.990956
     12          6           0        2.453641    1.529303    0.107811
     13          1           0        2.853781    2.515042   -0.097470
     14          6           0        3.127753    0.441522   -0.261122
     15          1           0        4.073595    0.535125   -0.782132
     16          6           0        2.577324   -0.940508   -0.036133
     17          1           0        2.121249   -1.285571   -0.972240
     18          1           0        3.390356   -1.639895    0.168128
     19          6           0       -1.160074   -1.424218   -0.782600
     20          1           0       -0.566933   -2.320735   -0.917353
     21          6           0       -2.453641   -1.529303   -0.107811
     22          1           0       -2.853781   -2.515042    0.097470
     23          6           0       -1.554591    0.994289   -1.104230
     24          1           0       -0.911886    1.867512   -0.990956
     25          1           0       -2.077836    1.126314   -2.059864
     26          6           0       -2.577324    0.940508    0.036133
     27          1           0       -3.390356    1.639895   -0.168129
     28          1           0       -2.121249    1.285571    0.972240
 ---------------------------------------------------------------------
                    Distance matrix (angstroms):
                    1          2          3          4          5
     1  C    0.000000
     2  C    2.833419   0.000000
     3  H    1.083896   3.916290   0.000000
     4  H    3.914631   1.082853   4.998038   0.000000
     5  C    4.705145   3.215772   5.588409   3.109859   0.000000
     6  C    4.024857   2.876042   4.876783   3.013271   1.329617
     7  H    4.659550   3.580938   5.450571   3.642996   1.083382
     8  H    3.299115   3.013271   4.015060   3.497588   2.102046
     9  C    4.789648   3.336362   5.656064   3.230710   2.471491
    10  H    5.550006   4.399425   6.310484   4.318639   2.996482
    11  H    4.345663   3.189437   5.164677   3.276635   3.307642
    12  C    5.921116   3.872175   6.879054   3.340052   1.462771
    13  H    6.681961   4.654748   7.620089   4.085744   2.198423
    14  C    6.339074   4.024857   7.341773   3.299115   2.434504
    15  H    7.341773   4.876783   8.364751   4.015060   3.424540
    16  C    5.734566   3.571028   6.713316   2.990880   2.875909
    17  H    5.457621   3.034740   6.482059   2.320445   3.368424
    18  H    6.628008   4.556049   7.570210   3.965173   3.839339
    19  C    2.434504   1.329617   3.424540   2.102046   3.993310
    20  H    3.387926   2.100052   4.286412   2.437758   4.460613
    21  C    1.331843   2.425605   2.098723   3.420834   4.751321
    22  H    2.097934   3.380405   2.424207   4.287337   5.665528
    23  C    2.529936   1.501290   3.498978   2.220011   3.333822
    24  H    3.436481   2.136718   4.348897   2.445912   2.763156
    25  H    2.991222   2.106875   3.849724   2.669076   4.318844
    26  C    1.504526   2.537811   2.229985   3.496872   3.841788
    27  H    2.141381   3.435447   2.469924   4.337976   4.653688
    28  H    2.121695   3.020173   2.676328   3.863596   3.289721
                    6          7          8          9         10
     6  C    0.000000
     7  H    2.100052   0.000000
     8  H    1.082853   2.437758   0.000000
     9  C    1.501290   3.464069   2.220011   0.000000
    10  H    2.106875   3.933231   2.669076   1.097475   0.000000
    11  H    2.136718   4.203073   2.445912   1.090146   1.746819
    12  C    2.425605   2.200316   3.420834   2.858261   3.317234
    13  H    3.380405   2.509441   4.287337   3.930316   4.302982
    14  C    2.833419   3.387926   3.914631   2.529936   2.991222
    15  H    3.916290   4.286412   4.998038   3.498978   3.849724
    16  C    2.537811   3.947976   3.496872   1.532744   2.162687
    17  H    3.020173   4.357970   3.863596   2.172021   3.036594
    18  H    3.435447   4.921346   4.337976   2.159428   2.359055
    19  C    3.215772   4.460613   3.109859   3.333822   4.318844
    20  H    3.580938   5.118109   3.642996   3.216694   4.157555
    21  C    3.872175   4.999762   3.340052   4.221517   5.039395
    22  H    4.654748   5.979819   4.085744   4.770744   5.486383
    23  C    3.336362   3.216694   3.230710   4.301017   5.263361
    24  H    3.189437   2.456412   3.276635   4.320095   5.216218
    25  H    4.399425   4.157555   4.318639   5.263361   6.270255
    26  C    3.571028   3.545127   2.990880   4.685829   5.480671
    27  H    4.556049   4.159561   3.965173   5.745461   6.520505
    28  H    3.034740   2.881128   2.320445   4.327468   4.963107
                   11         12         13         14         15
    11  H    0.000000
    12  C    3.833446   0.000000
    13  H    4.915527   1.083482   0.000000
    14  C    3.436481   1.331843   2.097934   0.000000
    15  H    4.348897   2.098723   2.424207   1.083896   0.000000
    16  C    2.165163   2.477092   3.467134   1.504526   2.229985
    17  H    2.378099   3.033234   3.968184   2.121695   2.676328
    18  H    2.621387   3.305282   4.197851   2.141381   2.469923
    19  C    2.763156   4.751321   5.665528   4.705145   5.588409
    20  H    2.456412   4.999762   5.979819   4.659550   5.450571
    21  C    3.556465   5.786448   6.672748   5.921116   6.879054
    22  H    3.924011   6.672748   7.610257   6.681961   7.620089
    23  C    4.320095   4.221517   4.770744   4.789648   5.656064
    24  H    4.604837   3.556465   3.924011   4.345663   5.164677
    25  H    5.216218   5.039395   5.486383   5.550006   6.310484
    26  C    4.579438   5.065810   5.656316   5.734566   6.713316
    27  H    5.670509   5.851553   6.305563   6.628008   7.570210
    28  H    4.375179   4.662216   5.235151   5.457621   6.482059
                   16         17         18         19         20
    16  C    0.000000
    17  H    1.096982   0.000000
    18  H    1.091735   1.742589   0.000000
    19  C    3.841788   3.289721   4.653688   0.000000
    20  H    3.545127   2.881128   4.159561   1.083382   0.000000
    21  C    5.065810   4.662216   5.851553   1.462771   2.200316
    22  H    5.656316   5.235151   6.305563   2.198423   2.509441
    23  C    4.685829   4.327468   5.745461   2.471491   3.464069
    24  H    4.579438   4.375179   5.670508   3.307642   4.203073
    25  H    5.480671   4.963107   6.520505   2.996482   3.933231
    26  C    5.487608   5.296115   6.503008   2.875909   3.947976
    27  H    6.503008   6.291481   7.539771   3.839339   4.921346
    28  H    5.296115   5.328280   6.291481   3.368424   4.357970
                   21         22         23         24         25
    21  C    0.000000
    22  H    1.083482   0.000000
    23  C    2.858261   3.930316   0.000000
    24  H    3.833446   4.915527   1.090146   0.000000
    25  H    3.317234   4.302982   1.097475   1.746819   0.000000
    26  C    2.477092   3.467134   1.532744   2.165163   2.162687
    27  H    3.305282   4.197851   2.159427   2.621387   2.359054
    28  H    3.033234   3.968184   2.172021   2.378099   3.036594
                   26         27         28
    26  C    0.000000
    27  H    1.091735   0.000000
    28  H    1.096982   1.742590   0.000000
 Symmetry turned off by external request.
 Stoichiometry    C12H16
 Framework group  CI[X(C12H16)]
 Deg. of freedom    39
 Full point group                 CI      NOp   2
 Rotational constants (GHZ):           1.7702073           0.5971610           0.5372422
 Leave Link  202 at Tue Aug  4 02:39:37 2020, MaxMem=  6442450944 cpu:               0.3 elap:               0.0
 (Enter /scratch/scicomp/CentOS/7.3.1611/Haswell/software/Gaussian/g16/l301.exe)
 Standard basis: def2TZVP (6D, 10F)
 Ernie: Thresh=  0.10000D-02 Tol=  0.10000D-05 Strict=F.
   528 basis functions,   740 primitive gaussians,   528 cartesian basis functions
    44 alpha electrons       44 beta electrons
       nuclear repulsion energy       677.2008204301 Hartrees.
 IExCor= 4639 DFT=T Ex+Corr=wB97XD ExCW=0 ScaHFX=  1.000000
 ScaDFX=  1.000000  1.000000  1.000000  1.000000 ScalE2=  1.000000  1.000000
 IRadAn=      5 IRanWt=     -1 IRanGd=            0 ICorTp=0 IEmpDi=121
 HFx  wShort=  0.000000 wLong=  0.200000 cFull=  0.222036 cShort=  0.000000 cLong=  0.777964
 DFx  wShort=  0.000000 wLong=  0.200000 cFull=  0.000000 cShort=  0.000000 cLong=  1.000000
 NAtoms=   28 NActive=   28 NUniq=   28 SFac= 1.00D+00 NAtFMM=   60 NAOKFM=F Big=F
 Integral buffers will be    131072 words long.
 Raffenetti 2 integral format.
 Two-electron integral symmetry is turned off.
 R6Disp:  Grimme-D2 Dispersion energy=       -0.0223066379 Hartrees.
 Nuclear repulsion after empirical dispersion term =      677.1785137922 Hartrees.
 Using the following non-standard input for PCM:
 qrep pcmdoc geomview  nodis nocav g03defaults tsare=0.075
 Warning! Using old PCM defaults because the g03defaults keyword was found.
 These settings can be overridden by following keywords.
 nsfe=28
 NVESolv=36  SolvMW=84.1595   Rsolv=2.815
 eps=2.0165 RhoS=0.778099999999998
 --- end of non-standard input.
 Reading user-defined spheres from input:
 ISph  on   Nord    Re0     Alpha      Xe            Ye            Ze
 --- end of user-defined spheres data.
 ------------------------------------------------------------------------------
 Polarizable Continuum Model (PCM)
 =================================
 Model                : PCM.
 Atomic radii         : UA0 (Simple United Atom Topological Model).
 Polarization charges : Total charges.
 Charge compensation  : None.
 Solution method      : On-the-fly selection.
 Cavity type          : SES (Solvent Excluding Surface) (Alpha=1.000).
 Cavity algorithm     : GePol (RMin=0.200 OFac=0.890).
                        User-defined sphere list used, NSphG=   28.
                        Tesserae with average area of 0.075 Ang**2.
                        Smoothing algorithm: None.
                        Polarization charges: point-like.
                        Self-potential: constant (ISelfS= 1).
                        Self-field    : global E.n sum rule (ISelfD= 3).
 Solvent              : CycloHexane, Eps=   2.016500 Eps(inf)=   2.035188
                        RSolv=   2.815000 Ang.
 ------------------------------------------------------------------------------
 GePol: Number of generator spheres                  =      28
 GePol: Total number of spheres                      =     188
 GePol: Number of exposed spheres                    =     130 ( 69.15%)
 GePol: Number of tesserae                           =    4675
 GePol: Average area of tesserae                     =       0.05 Ang**2
 GePol: Minimum area of tessera                      =   0.10D-02 Ang**2
 GePol: Maximum area of tessera                      =    0.12395 Ang**2
 GePol: Number of small tesserae                     =       0
 GePol: Fraction of small tesserae (<1% of avg)      =       0.00%
 GePol: Total count of vertices                      =   16561
 GePol: Maximum number of vertices in a tessera      =       7
 GePol: Cavity surface area                          =    221.876 Ang**2
 GePol: Cavity volume                                =    252.319 Ang**3
 Leave Link  301 at Tue Aug  4 02:39:37 2020, MaxMem=  6442450944 cpu:               8.0 elap:               0.4
 (Enter /scratch/scicomp/CentOS/7.3.1611/Haswell/software/Gaussian/g16/l302.exe)
 NPDir=0 NMtPBC=     1 NCelOv=     1 NCel=       1 NClECP=     1 NCelD=      1
         NCelK=      1 NCelE2=     1 NClLst=     1 CellRange=     0.0.
 One-electron integrals computed using PRISM.
   1 Symmetry operations used in ECPInt.
 ECPInt:  NShTT=   19306 NPrTT=   56928 LenC2=   18478 LenP2D=   41942.
 LDataN:  DoStor=T MaxTD1= 6 Len=  172
 NBasis=   528 RedAO= T EigKep=  1.84D-05  NBF=   528
 NBsUse=   528 1.00D-06 EigRej= -1.00D+00 NBFU=   528
 Precomputing XC quadrature grid using
 IXCGrd= 4 IRadAn=           5 IRanWt=          -1 IRanGd=           0 AccXCQ= 0.00D+00.
 Generated NRdTot=       0 NPtTot=           0 NUsed=           0 NTot=          32
 NSgBfM=   526   526   526   526   526 MxSgAt=    28 MxSgA2=    28.
 Leave Link  302 at Tue Aug  4 02:39:38 2020, MaxMem=  6442450944 cpu:              13.5 elap:               0.6
 (Enter /scratch/scicomp/CentOS/7.3.1611/Haswell/software/Gaussian/g16/l303.exe)
 DipDrv:  MaxL=1.
 Leave Link  303 at Tue Aug  4 02:39:38 2020, MaxMem=  6442450944 cpu:               1.5 elap:               0.1
 (Enter /scratch/scicomp/CentOS/7.3.1611/Haswell/software/Gaussian/g16/l401.exe)
 ExpMin= 9.52D-02 ExpMax= 1.36D+04 ExpMxC= 4.63D+02 IAcc=3 IRadAn=         5 AccDes= 0.00D+00
 Harris functional with IExCor= 4639 and IRadAn=       5 diagonalized for initial guess.
 HarFok:  IExCor= 4639 AccDes= 0.00D+00 IRadAn=         5 IDoV= 1 UseB2=F ITyADJ=14
 ICtDFT=  3500011 ScaDFX=  1.000000  1.000000  1.000000  1.000000
 FoFCou: FMM=F IPFlag=           0 FMFlag=      100000 FMFlg1=           0
         NFxFlg=           0 DoJE=T BraDBF=F KetDBF=T FulRan=T
         wScrn=  0.000000 ICntrl=       500 IOpCl=  0 I1Cent=   200000004 NGrid=           0
         NMat0=    1 NMatS0=      1 NMatT0=    0 NMatD0=    1 NMtDS0=    0 NMtDT0=    0
 Symmetry not used in FoFCou.
 Harris En= -444.655667047765    
 JPrj=0 DoOrth=F DoCkMO=T.
 Mixing orbitals, IMix= 1 IMixAn=  0 NRI=1 NE=   44 Coef=  7.07106781D-01  7.07106781D-01
 Mixing orbitals, IMix= 1 IMixAn=  0 NRI=1 NE=   44 Coef= -7.07106781D-01  7.07106781D-01
 Initial guess <Sx>= 0.0000 <Sy>= 0.0000 <Sz>= 0.0000 <S**2>= 1.0000 S= 0.6180
 Leave Link  401 at Tue Aug  4 02:39:40 2020, MaxMem=  6442450944 cpu:              49.1 elap:               2.1
 (Enter /scratch/scicomp/CentOS/7.3.1611/Haswell/software/Gaussian/g16/l502.exe)
 Two-electron integral symmetry not used.
 UHF open shell SCF:
 Using DIIS extrapolation, IDIIS=  1040.
 NGot=  6442450944 LenX=  6441877030 LenY=  6441597718
 Requested convergence on RMS density matrix=1.00D-08 within 128 cycles.
 Requested convergence on MAX density matrix=1.00D-06.
 Requested convergence on             energy=1.00D-06.
 No special actions if energy rises.
 Fock matrices will be formed incrementally for  20 cycles.

 Cycle   1  Pass 1  IDiag  1:
 FoFJK:  IHMeth= 1 ICntrl=       0 DoSepK=T KAlg= 0 I1Cent=           0 FoldK=F
 IRaf=         1 NMat=       1 IRICut=       1 DoRegI=T DoRafI=F ISym2E= 0 IDoP0=0 IntGTp=1.
 FoFCou: FMM=F IPFlag=           0 FMFlag=      100000 FMFlg1=           0
         NFxFlg=           0 DoJE=T BraDBF=F KetDBF=F FulRan=T
         wScrn=  0.000000 ICntrl=       500 IOpCl=  0 I1Cent=           0 NGrid=           0
         NMat0=    1 NMatS0=      1 NMatT0=    0 NMatD0=    1 NMtDS0=    0 NMtDT0=    0
 Symmetry not used in FoFCou.
 Inv3:  Mode=1 IEnd=    65566875.
 Iteration    1 A*A^-1 deviation from unit magnitude is 3.55D-15 for   3421.
 Iteration    1 A*A^-1 deviation from orthogonality  is 1.69D-15 for   3960   3943.
 Iteration    1 A^-1*A deviation from unit magnitude is 3.55D-15 for   3421.
 Iteration    1 A^-1*A deviation from orthogonality  is 2.40D-15 for   3986   2486.
 E= -466.570732812242    
 DIIS: error= 5.08D-02 at cycle   1 NSaved=   1.
 NSaved= 1 IEnMin= 1 EnMin= -466.570732812242     IErMin= 1 ErrMin= 5.08D-02
 ErrMax= 5.08D-02  0.00D+00 EMaxC= 1.00D-01 BMatC= 4.11D+00 BMatP= 4.11D+00
 IDIUse=3 WtCom= 4.92D-01 WtEn= 5.08D-01
 Coeff-Com:  0.100D+01
 Coeff-En:   0.100D+01
 Coeff:      0.100D+01
 Gap=     0.182 Goal=   None    Shift=    0.000
 Gap=     0.182 Goal=   None    Shift=    0.000
 GapD=    0.182 DampG=1.000 DampE=0.500 DampFc=0.5000 IDamp=-1.
 Damping current iteration by 5.00D-01
 RMSDP=1.70D-03 MaxDP=9.28D-02              OVMax= 3.46D-01

 Cycle   2  Pass 1  IDiag  1:
 RMSU=  8.20D-04    CP:  9.64D-01
 E= -466.681557088087     Delta-E=       -0.110824275846 Rises=F Damp=T
 DIIS: error= 2.42D-02 at cycle   2 NSaved=   2.
 NSaved= 2 IEnMin= 2 EnMin= -466.681557088087     IErMin= 2 ErrMin= 2.42D-02
 ErrMax= 2.42D-02  0.00D+00 EMaxC= 1.00D-01 BMatC= 9.36D-01 BMatP= 4.11D+00
 IDIUse=3 WtCom= 7.58D-01 WtEn= 2.42D-01
 Coeff-Com: -0.869D+00 0.187D+01
 Coeff-En:   0.000D+00 0.100D+01
 Coeff:     -0.659D+00 0.166D+01
 Gap=     0.277 Goal=   None    Shift=    0.000
 Gap=     0.277 Goal=   None    Shift=    0.000
 RMSDP=1.21D-03 MaxDP=5.04D-02 DE=-1.11D-01 OVMax= 1.40D-01

 Cycle   3  Pass 1  IDiag  1:
 RMSU=  6.00D-04    CP:  9.11D-01  2.22D+00
 E= -466.826406988137     Delta-E=       -0.144849900050 Rises=F Damp=F
 DIIS: error= 7.80D-03 at cycle   3 NSaved=   3.
 NSaved= 3 IEnMin= 3 EnMin= -466.826406988137     IErMin= 3 ErrMin= 7.80D-03
 ErrMax= 7.80D-03  0.00D+00 EMaxC= 1.00D-01 BMatC= 2.39D-02 BMatP= 9.36D-01
 IDIUse=3 WtCom= 9.22D-01 WtEn= 7.80D-02
 Coeff-Com: -0.317D+00 0.678D+00 0.638D+00
 Coeff-En:   0.000D+00 0.000D+00 0.100D+01
 Coeff:     -0.292D+00 0.625D+00 0.666D+00
 Gap=     0.298 Goal=   None    Shift=    0.000
 Gap=     0.298 Goal=   None    Shift=    0.000
 RMSDP=2.23D-04 MaxDP=1.14D-02 DE=-1.45D-01 OVMax= 6.49D-02

 Cycle   4  Pass 1  IDiag  1:
 RMSU=  2.07D-04    CP:  9.04D-01  2.30D+00  1.01D+00
 E= -466.837221792375     Delta-E=       -0.010814804238 Rises=F Damp=F
 DIIS: error= 5.17D-03 at cycle   4 NSaved=   4.
 NSaved= 4 IEnMin= 4 EnMin= -466.837221792375     IErMin= 4 ErrMin= 5.17D-03
 ErrMax= 5.17D-03  0.00D+00 EMaxC= 1.00D-01 BMatC= 2.11D-03 BMatP= 2.39D-02
 IDIUse=3 WtCom= 9.48D-01 WtEn= 5.17D-02
 Coeff-Com:  0.143D+00-0.307D+00-0.697D-01 0.123D+01
 Coeff-En:   0.000D+00 0.000D+00 0.000D+00 0.100D+01
 Coeff:      0.136D+00-0.291D+00-0.661D-01 0.122D+01
 Gap=     0.310 Goal=   None    Shift=    0.000
 Gap=     0.310 Goal=   None    Shift=    0.000
 RMSDP=2.23D-04 MaxDP=1.29D-02 DE=-1.08D-02 OVMax= 7.86D-02

 Cycle   5  Pass 1  IDiag  1:
 RMSU=  8.96D-05    CP:  8.97D-01  2.36D+00  1.24D+00  1.65D+00
 E= -466.842008048088     Delta-E=       -0.004786255713 Rises=F Damp=F
 DIIS: error= 2.38D-03 at cycle   5 NSaved=   5.
 NSaved= 5 IEnMin= 5 EnMin= -466.842008048088     IErMin= 5 ErrMin= 2.38D-03
 ErrMax= 2.38D-03  0.00D+00 EMaxC= 1.00D-01 BMatC= 8.90D-04 BMatP= 2.11D-03
 IDIUse=3 WtCom= 9.76D-01 WtEn= 2.38D-02
 Coeff-Com:  0.702D-01-0.151D+00-0.752D-01 0.399D+00 0.757D+00
 Coeff-En:   0.000D+00 0.000D+00 0.000D+00 0.000D+00 0.100D+01
 Coeff:      0.685D-01-0.147D+00-0.734D-01 0.389D+00 0.763D+00
 Gap=     0.312 Goal=   None    Shift=    0.000
 Gap=     0.312 Goal=   None    Shift=    0.000
 RMSDP=7.96D-05 MaxDP=3.59D-03 DE=-4.79D-03 OVMax= 2.84D-02

 Cycle   6  Pass 1  IDiag  1:
 RMSU=  3.24D-05    CP:  8.95D-01  2.36D+00  1.28D+00  1.93D+00  1.38D+00
 E= -466.843384164399     Delta-E=       -0.001376116310 Rises=F Damp=F
 DIIS: error= 1.75D-03 at cycle   6 NSaved=   6.
 NSaved= 6 IEnMin= 6 EnMin= -466.843384164399     IErMin= 6 ErrMin= 1.75D-03
 ErrMax= 1.75D-03  0.00D+00 EMaxC= 1.00D-01 BMatC= 5.34D-04 BMatP= 8.90D-04
 IDIUse=3 WtCom= 9.82D-01 WtEn= 1.75D-02
 Coeff-Com: -0.795D-01 0.171D+00 0.571D-01-0.582D+00 0.378D-01 0.140D+01
 Coeff-En:   0.000D+00 0.000D+00 0.000D+00 0.000D+00 0.000D+00 0.100D+01
 Coeff:     -0.781D-01 0.168D+00 0.561D-01-0.572D+00 0.372D-01 0.139D+01
 Gap=     0.308 Goal=   None    Shift=    0.000
 Gap=     0.308 Goal=   None    Shift=    0.000
 RMSDP=1.06D-04 MaxDP=4.13D-03 DE=-1.38D-03 OVMax= 3.85D-02

 Cycle   7  Pass 1  IDiag  1:
 RMSU=  3.22D-05    CP:  8.93D-01  2.36D+00  1.32D+00  2.23D+00  2.09D+00
                    CP:  2.23D+00
 E= -466.845032558331     Delta-E=       -0.001648393933 Rises=F Damp=F
 DIIS: error= 1.12D-03 at cycle   7 NSaved=   7.
 NSaved= 7 IEnMin= 7 EnMin= -466.845032558331     IErMin= 7 ErrMin= 1.12D-03
 ErrMax= 1.12D-03  0.00D+00 EMaxC= 1.00D-01 BMatC= 2.76D-04 BMatP= 5.34D-04
 IDIUse=3 WtCom= 9.89D-01 WtEn= 1.12D-02
 Coeff-Com: -0.241D-01 0.522D-01 0.421D-01 0.103D-01-0.665D+00-0.610D+00
 Coeff-Com:  0.219D+01
 Coeff-En:   0.000D+00 0.000D+00 0.000D+00 0.000D+00 0.000D+00 0.000D+00
 Coeff-En:   0.100D+01
 Coeff:     -0.238D-01 0.516D-01 0.416D-01 0.102D-01-0.658D+00-0.603D+00
 Coeff:      0.218D+01
 Gap=     0.308 Goal=   None    Shift=    0.000
 Gap=     0.308 Goal=   None    Shift=    0.000
 RMSDP=1.45D-04 MaxDP=6.83D-03 DE=-1.65D-03 OVMax= 5.34D-02

 Cycle   8  Pass 1  IDiag  1:
 RMSU=  5.40D-05    CP:  8.91D-01  2.35D+00  1.36D+00  2.55D+00  2.98D+00
                    CP:  3.00D+00  2.73D+00
 E= -466.846512807978     Delta-E=       -0.001480249647 Rises=F Damp=F
 DIIS: error= 4.14D-04 at cycle   8 NSaved=   8.
 NSaved= 8 IEnMin= 8 EnMin= -466.846512807978     IErMin= 8 ErrMin= 4.14D-04
 ErrMax= 4.14D-04  0.00D+00 EMaxC= 1.00D-01 BMatC= 7.21D-05 BMatP= 2.76D-04
 IDIUse=3 WtCom= 9.96D-01 WtEn= 4.14D-03
 Coeff-Com:  0.263D-01-0.566D-01-0.814D-02 0.278D+00-0.217D+00-0.815D+00
 Coeff-Com:  0.665D+00 0.113D+01
 Coeff-En:   0.000D+00 0.000D+00 0.000D+00 0.000D+00 0.000D+00 0.000D+00
 Coeff-En:   0.000D+00 0.100D+01
 Coeff:      0.262D-01-0.564D-01-0.811D-02 0.277D+00-0.216D+00-0.812D+00
 Coeff:      0.663D+00 0.113D+01
 Gap=     0.310 Goal=   None    Shift=    0.000
 Gap=     0.310 Goal=   None    Shift=    0.000
 RMSDP=7.05D-05 MaxDP=3.49D-03 DE=-1.48D-03 OVMax= 2.64D-02

 Cycle   9  Pass 1  IDiag  1:
 RMSU=  4.27D-05    CP:  8.90D-01  2.35D+00  1.39D+00  2.67D+00  3.00D+00
                    CP:  3.00D+00  3.00D+00  1.77D+00
 E= -466.846807796070     Delta-E=       -0.000294988092 Rises=F Damp=F
 DIIS: error= 1.37D-04 at cycle   9 NSaved=   9.
 NSaved= 9 IEnMin= 9 EnMin= -466.846807796070     IErMin= 9 ErrMin= 1.37D-04
 ErrMax= 1.37D-04  0.00D+00 EMaxC= 1.00D-01 BMatC= 1.25D-05 BMatP= 7.21D-05
 IDIUse=3 WtCom= 9.99D-01 WtEn= 1.37D-03
 Coeff-Com:  0.148D-01-0.319D-01-0.100D-01 0.108D+00 0.282D-01-0.212D+00
 Coeff-Com: -0.112D+00 0.370D+00 0.845D+00
 Coeff-En:   0.000D+00 0.000D+00 0.000D+00 0.000D+00 0.000D+00 0.000D+00
 Coeff-En:   0.000D+00 0.000D+00 0.100D+01
 Coeff:      0.148D-01-0.319D-01-0.100D-01 0.108D+00 0.282D-01-0.212D+00
 Coeff:     -0.112D+00 0.370D+00 0.845D+00
 Gap=     0.310 Goal=   None    Shift=    0.000
 Gap=     0.310 Goal=   None    Shift=    0.000
 RMSDP=1.85D-05 MaxDP=9.19D-04 DE=-2.95D-04 OVMax= 6.91D-03

 Cycle  10  Pass 1  IDiag  1:
 RMSU=  5.42D-06    CP:  8.89D-01  2.35D+00  1.39D+00  2.70D+00  3.00D+00
                    CP:  3.00D+00  3.00D+00  1.96D+00  1.30D+00
 E= -466.846832265757     Delta-E=       -0.000024469687 Rises=F Damp=F
 DIIS: error= 6.07D-05 at cycle  10 NSaved=  10.
 NSaved=10 IEnMin=10 EnMin= -466.846832265757     IErMin=10 ErrMin= 6.07D-05
 ErrMax= 6.07D-05  0.00D+00 EMaxC= 1.00D-01 BMatC= 1.99D-06 BMatP= 1.25D-05
 IDIUse=1 WtCom= 1.00D+00 WtEn= 0.00D+00
 Coeff-Com: -0.106D-02 0.231D-02-0.898D-03-0.261D-01 0.419D-01 0.960D-01
 Coeff-Com: -0.129D+00-0.169D+00 0.176D+00 0.101D+01
 Coeff:     -0.106D-02 0.231D-02-0.898D-03-0.261D-01 0.419D-01 0.960D-01
 Coeff:     -0.129D+00-0.169D+00 0.176D+00 0.101D+01
 Gap=     0.309 Goal=   None    Shift=    0.000
 Gap=     0.309 Goal=   None    Shift=    0.000
 RMSDP=8.52D-06 MaxDP=3.93D-04 DE=-2.45D-05 OVMax= 3.15D-03

 Cycle  11  Pass 1  IDiag  1:
 RMSU=  2.67D-06    CP:  8.89D-01  2.35D+00  1.40D+00  2.71D+00  3.00D+00
                    CP:  3.00D+00  3.00D+00  2.04D+00  1.43D+00  1.41D+00
 E= -466.846835732564     Delta-E=       -0.000003466808 Rises=F Damp=F
 DIIS: error= 2.42D-05 at cycle  11 NSaved=  11.
 NSaved=11 IEnMin=11 EnMin= -466.846835732564     IErMin=11 ErrMin= 2.42D-05
 ErrMax= 2.42D-05  0.00D+00 EMaxC= 1.00D-01 BMatC= 4.53D-07 BMatP= 1.99D-06
 IDIUse=1 WtCom= 1.00D+00 WtEn= 0.00D+00
 Coeff-Com: -0.155D-02 0.334D-02 0.418D-03-0.184D-01 0.127D-01 0.511D-01
 Coeff-Com: -0.327D-01-0.989D-01-0.184D-01 0.398D+00 0.705D+00
 Coeff:     -0.155D-02 0.334D-02 0.418D-03-0.184D-01 0.127D-01 0.511D-01
 Coeff:     -0.327D-01-0.989D-01-0.184D-01 0.398D+00 0.705D+00
 Gap=     0.309 Goal=   None    Shift=    0.000
 Gap=     0.309 Goal=   None    Shift=    0.000
 RMSDP=1.47D-06 MaxDP=7.55D-05 DE=-3.47D-06 OVMax= 4.34D-04

 Cycle  12  Pass 1  IDiag  1:
 RMSU=  8.49D-07    CP:  8.89D-01  2.35D+00  1.40D+00  2.71D+00  3.00D+00
                    CP:  3.00D+00  3.00D+00  2.05D+00  1.45D+00  1.48D+00
                    CP:  1.20D+00
 E= -466.846836001569     Delta-E=       -0.000000269004 Rises=F Damp=F
 DIIS: error= 1.41D-05 at cycle  12 NSaved=  12.
 NSaved=12 IEnMin=12 EnMin= -466.846836001569     IErMin=12 ErrMin= 1.41D-05
 ErrMax= 1.41D-05  0.00D+00 EMaxC= 1.00D-01 BMatC= 7.40D-08 BMatP= 4.53D-07
 IDIUse=1 WtCom= 1.00D+00 WtEn= 0.00D+00
 Coeff-Com:  0.498D-03-0.108D-02-0.772D-04 0.725D-02-0.667D-02-0.234D-01
 Coeff-Com:  0.246D-01 0.409D-01-0.287D-01-0.237D+00 0.109D-01 0.121D+01
 Coeff:      0.498D-03-0.108D-02-0.772D-04 0.725D-02-0.667D-02-0.234D-01
 Coeff:      0.246D-01 0.409D-01-0.287D-01-0.237D+00 0.109D-01 0.121D+01
 Gap=     0.309 Goal=   None    Shift=    0.000
 Gap=     0.309 Goal=   None    Shift=    0.000
 RMSDP=8.67D-07 MaxDP=3.60D-05 DE=-2.69D-07 OVMax= 1.61D-04

 Cycle  13  Pass 1  IDiag  1:
 RMSU=  5.20D-07    CP:  8.89D-01  2.35D+00  1.40D+00  2.71D+00  3.00D+00
                    CP:  3.00D+00  3.00D+00  2.04D+00  1.45D+00  1.50D+00
                    CP:  1.37D+00  1.57D+00
 E= -466.846836110928     Delta-E=       -0.000000109359 Rises=F Damp=F
 DIIS: error= 7.44D-06 at cycle  13 NSaved=  13.
 NSaved=13 IEnMin=13 EnMin= -466.846836110928     IErMin=13 ErrMin= 7.44D-06
 ErrMax= 7.44D-06  0.00D+00 EMaxC= 1.00D-01 BMatC= 1.77D-08 BMatP= 7.40D-08
 IDIUse=1 WtCom= 1.00D+00 WtEn= 0.00D+00
 Coeff-Com: -0.129D-03 0.283D-03 0.112D-03-0.985D-03 0.182D-03 0.231D-02
 Coeff-Com: -0.220D-02-0.121D-02 0.289D-02 0.527D-02-0.942D-01-0.257D+00
 Coeff-Com:  0.134D+01
 Coeff:     -0.129D-03 0.283D-03 0.112D-03-0.985D-03 0.182D-03 0.231D-02
 Coeff:     -0.220D-02-0.121D-02 0.289D-02 0.527D-02-0.942D-01-0.257D+00
 Coeff:      0.134D+01
 Gap=     0.309 Goal=   None    Shift=    0.000
 Gap=     0.309 Goal=   None    Shift=    0.000
 RMSDP=4.48D-07 MaxDP=2.48D-05 DE=-1.09D-07 OVMax= 1.06D-04

 Cycle  14  Pass 1  IDiag  1:
 RMSU=  3.02D-07    CP:  8.89D-01  2.35D+00  1.40D+00  2.71D+00  3.00D+00
                    CP:  3.00D+00  3.00D+00  2.04D+00  1.45D+00  1.51D+00
                    CP:  1.39D+00  1.70D+00  1.55D+00
 E= -466.846836147836     Delta-E=       -0.000000036908 Rises=F Damp=F
 DIIS: error= 4.16D-06 at cycle  14 NSaved=  14.
 NSaved=14 IEnMin=14 EnMin= -466.846836147836     IErMin=14 ErrMin= 4.16D-06
 ErrMax= 4.16D-06  0.00D+00 EMaxC= 1.00D-01 BMatC= 5.74D-09 BMatP= 1.77D-08
 IDIUse=1 WtCom= 1.00D+00 WtEn= 0.00D+00
 Coeff-Com: -0.232D-03 0.501D-03 0.107D-03-0.267D-02 0.190D-02 0.803D-02
 Coeff-Com: -0.805D-02-0.133D-01 0.102D-01 0.811D-01-0.202D-01-0.456D+00
 Coeff-Com:  0.131D+00 0.127D+01
 Coeff:     -0.232D-03 0.501D-03 0.107D-03-0.267D-02 0.190D-02 0.803D-02
 Coeff:     -0.805D-02-0.133D-01 0.102D-01 0.811D-01-0.202D-01-0.456D+00
 Coeff:      0.131D+00 0.127D+01
 Gap=     0.309 Goal=   None    Shift=    0.000
 Gap=     0.309 Goal=   None    Shift=    0.000
 RMSDP=3.43D-07 MaxDP=1.54D-05 DE=-3.69D-08 OVMax= 7.82D-05

 Cycle  15  Pass 1  IDiag  1:
 RMSU=  1.20D-07    CP:  8.89D-01  2.35D+00  1.40D+00  2.71D+00  3.00D+00
                    CP:  3.00D+00  3.00D+00  2.04D+00  1.45D+00  1.52D+00
                    CP:  1.38D+00  1.75D+00  1.95D+00  1.76D+00
 E= -466.846836160836     Delta-E=       -0.000000013000 Rises=F Damp=F
 DIIS: error= 1.45D-06 at cycle  15 NSaved=  15.
 NSaved=15 IEnMin=15 EnMin= -466.846836160836     IErMin=15 ErrMin= 1.45D-06
 ErrMax= 1.45D-06  0.00D+00 EMaxC= 1.00D-01 BMatC= 8.33D-10 BMatP= 5.74D-09
 IDIUse=1 WtCom= 1.00D+00 WtEn= 0.00D+00
 Coeff-Com:  0.288D-04-0.626D-04-0.373D-04 0.114D-03 0.231D-03 0.862D-04
 Coeff-Com: -0.877D-03-0.416D-03 0.274D-02 0.928D-02 0.119D-01-0.220D-01
 Coeff-Com: -0.261D+00 0.197D+00 0.106D+01
 Coeff:      0.288D-04-0.626D-04-0.373D-04 0.114D-03 0.231D-03 0.862D-04
 Coeff:     -0.877D-03-0.416D-03 0.274D-02 0.928D-02 0.119D-01-0.220D-01
 Coeff:     -0.261D+00 0.197D+00 0.106D+01
 Gap=     0.309 Goal=   None    Shift=    0.000
 Gap=     0.309 Goal=   None    Shift=    0.000
 RMSDP=1.40D-07 MaxDP=5.80D-06 DE=-1.30D-08 OVMax= 3.23D-05

 Cycle  16  Pass 1  IDiag  1:
 RMSU=  5.35D-08    CP:  8.89D-01  2.35D+00  1.40D+00  2.71D+00  3.00D+00
                    CP:  3.00D+00  3.00D+00  2.04D+00  1.45D+00  1.52D+00
                    CP:  1.38D+00  1.76D+00  2.07D+00  2.03D+00  1.51D+00
 E= -466.846836162278     Delta-E=       -0.000000001441 Rises=F Damp=F
 DIIS: error= 3.33D-07 at cycle  16 NSaved=  16.
 NSaved=16 IEnMin=16 EnMin= -466.846836162278     IErMin=16 ErrMin= 3.33D-07
 ErrMax= 3.33D-07  0.00D+00 EMaxC= 1.00D-01 BMatC= 8.52D-11 BMatP= 8.33D-10
 IDIUse=1 WtCom= 1.00D+00 WtEn= 0.00D+00
 Coeff-Com:  0.176D-04-0.380D-04-0.138D-04 0.186D-03-0.705D-04-0.456D-03
 Coeff-Com:  0.309D-03 0.876D-03-0.323D-03-0.502D-02 0.502D-02 0.365D-01
 Coeff-Com: -0.690D-01-0.865D-01 0.243D+00 0.876D+00
 Coeff:      0.176D-04-0.380D-04-0.138D-04 0.186D-03-0.705D-04-0.456D-03
 Coeff:      0.309D-03 0.876D-03-0.323D-03-0.502D-02 0.502D-02 0.365D-01
 Coeff:     -0.690D-01-0.865D-01 0.243D+00 0.876D+00
 Gap=     0.309 Goal=   None    Shift=    0.000
 Gap=     0.309 Goal=   None    Shift=    0.000
 RMSDP=3.35D-08 MaxDP=1.38D-06 DE=-1.44D-09 OVMax= 5.82D-06

 Cycle  17  Pass 1  IDiag  1:
 RMSU=  1.46D-08    CP:  8.89D-01  2.35D+00  1.40D+00  2.71D+00  3.00D+00
                    CP:  3.00D+00  3.00D+00  2.04D+00  1.45D+00  1.52D+00
                    CP:  1.38D+00  1.76D+00  2.07D+00  2.07D+00  1.65D+00
                    CP:  1.32D+00
 E= -466.846836162347     Delta-E=       -0.000000000069 Rises=F Damp=F
 DIIS: error= 8.48D-08 at cycle  17 NSaved=  17.
 NSaved=17 IEnMin=17 EnMin= -466.846836162347     IErMin=17 ErrMin= 8.48D-08
 ErrMax= 8.48D-08  0.00D+00 EMaxC= 1.00D-01 BMatC= 9.68D-12 BMatP= 8.52D-11
 IDIUse=1 WtCom= 1.00D+00 WtEn= 0.00D+00
 Coeff-Com: -0.470D-06 0.109D-05 0.371D-06 0.106D-05-0.176D-04 0.230D-05
 Coeff-Com:  0.396D-04 0.102D-03-0.323D-03-0.148D-02-0.132D-03 0.745D-02
 Coeff-Com:  0.169D-01-0.365D-01-0.785D-01 0.168D+00 0.924D+00
 Coeff:     -0.470D-06 0.109D-05 0.371D-06 0.106D-05-0.176D-04 0.230D-05
 Coeff:      0.396D-04 0.102D-03-0.323D-03-0.148D-02-0.132D-03 0.745D-02
 Coeff:      0.169D-01-0.365D-01-0.785D-01 0.168D+00 0.924D+00
 Gap=     0.309 Goal=   None    Shift=    0.000
 Gap=     0.309 Goal=   None    Shift=    0.000
 RMSDP=1.12D-08 MaxDP=3.86D-07 DE=-6.90D-11 OVMax= 1.80D-06

 Cycle  18  Pass 1  IDiag  1:
 RMSU=  5.67D-09    CP:  8.89D-01  2.35D+00  1.40D+00  2.71D+00  3.00D+00
                    CP:  3.00D+00  3.00D+00  2.04D+00  1.45D+00  1.52D+00
                    CP:  1.38D+00  1.76D+00  2.07D+00  2.07D+00  1.69D+00
                    CP:  1.43D+00  1.21D+00
 E= -466.846836162344     Delta-E=        0.000000000002 Rises=F Damp=F
 DIIS: error= 3.33D-08 at cycle  18 NSaved=  18.
 NSaved=18 IEnMin=17 EnMin= -466.846836162347     IErMin=18 ErrMin= 3.33D-08
 ErrMax= 3.33D-08  0.00D+00 EMaxC= 1.00D-01 BMatC= 1.05D-12 BMatP= 9.68D-12
 IDIUse=1 WtCom= 1.00D+00 WtEn= 0.00D+00
 Coeff-Com: -0.293D-06 0.631D-06 0.741D-06-0.455D-05-0.805D-05 0.159D-04
 Coeff-Com: -0.340D-05-0.187D-04-0.169D-04 0.103D-03-0.468D-03-0.189D-02
 Coeff-Com:  0.891D-02 0.223D-02-0.346D-01-0.646D-01 0.142D+00 0.948D+00
 Coeff:     -0.293D-06 0.631D-06 0.741D-06-0.455D-05-0.805D-05 0.159D-04
 Coeff:     -0.340D-05-0.187D-04-0.169D-04 0.103D-03-0.468D-03-0.189D-02
 Coeff:      0.891D-02 0.223D-02-0.346D-01-0.646D-01 0.142D+00 0.948D+00
 Gap=     0.309 Goal=   None    Shift=    0.000
 Gap=     0.309 Goal=   None    Shift=    0.000
 RMSDP=3.52D-09 MaxDP=1.47D-07 DE= 2.39D-12 OVMax= 5.00D-07

 Error on total polarization charges =  0.01123
 SCF Done:  E(UwB97XD) =  -466.846836162     A.U. after   18 cycles
            NFock= 18  Conv=0.35D-08     -V/T= 2.0057
 <Sx>= 0.0000 <Sy>= 0.0000 <Sz>= 0.0000 <S**2>= 0.0000 S= 0.0000
 <L.S>=  0.00000000000    
 KE= 4.642144492006D+02 PE=-2.436304428176D+03 EE= 8.280646290213D+02
 --------------------------------------------------------------------
 Variational PCM results
 =======================
 <psi(f)|   H    |psi(f)>                     (a.u.) =    -466.854457
 <psi(f)|H+V(f)/2|psi(f)>                     (a.u.) =    -466.855992
 Total free energy in solution:
 - with all non electrostatic terms           (a.u.) =    -466.846836
 --------------------------------------------------------------------
 (Polarized solute)-Solvent               (kcal/mol) =      -0.96
 --------------------------------------------------------------------
 Quantum repulsion energy                 (kcal/mol) =       5.75
 Total non electrostatic                  (kcal/mol) =       5.75
 --------------------------------------------------------------------
 Partition over spheres:
 Sphere  on Atom  Surface  Charge   GEl     GCav    GDR
    1               7.06   0.011   -0.05    0.00    0.00
    2               3.91   0.006   -0.04    0.00    0.00
    3               7.52  -0.010   -0.04    0.00    0.00
    4               3.51  -0.004   -0.01    0.00    0.00
    5               5.32   0.009   -0.06    0.00    0.00
    6               4.80   0.007   -0.04    0.00    0.00
    7               4.66  -0.007   -0.03    0.00    0.00
    8               3.74  -0.005   -0.01    0.00    0.00
    9               3.14   0.002    0.00    0.00    0.00
   10               6.92  -0.007   -0.01    0.00    0.00
   11               2.61  -0.002   -0.01    0.00    0.00
   12               6.73   0.010   -0.06    0.00    0.00
   13               7.52  -0.010   -0.03    0.00    0.00
   14               7.32   0.011   -0.05    0.00    0.00
   15               7.52  -0.010   -0.04    0.00    0.00
   16               3.73   0.002    0.00    0.00    0.00
   17               3.31  -0.003   -0.01    0.00    0.00
   18               6.95  -0.008   -0.03    0.00    0.00
   19               5.08   0.009   -0.06    0.00    0.00
   20               5.16  -0.007   -0.03    0.00    0.00
   21               6.26   0.010   -0.06    0.00    0.00
   22               7.51  -0.010   -0.03    0.00    0.00
   23               3.61   0.002    0.00    0.00    0.00
   24               3.97  -0.003   -0.01    0.00    0.00
   25               6.90  -0.007   -0.01    0.00    0.00
   26               3.14   0.001    0.00    0.00    0.00
   27               7.05  -0.008   -0.03    0.00    0.00
   28               3.33  -0.003   -0.01    0.00    0.00
 Added spheres:    73.60   0.014   -0.21    0.00    0.00
 --------------------------------------------------------------------
 After PCM corrections, the energy is  -466.846836162     a.u.
 --------------------------------------------------------------------
 Annihilation of the first spin contaminant:
 S**2 before annihilation     0.0000,   after    -0.0000
 Leave Link  502 at Tue Aug  4 02:45:13 2020, MaxMem=  6442450944 cpu:            7931.7 elap:             333.3
 (Enter /scratch/scicomp/CentOS/7.3.1611/Haswell/software/Gaussian/g16/l601.exe)
 Copying SCF densities to generalized density rwf, IOpCl= 1 IROHF=0.

 **********************************************************************

            Population analysis using the SCF Density.

 **********************************************************************

 Alpha  occ. eigenvalues --  -10.28358 -10.28358 -10.28100 -10.28100 -10.28081
 Alpha  occ. eigenvalues --  -10.28080 -10.28009 -10.28008 -10.27798 -10.27797
 Alpha  occ. eigenvalues --  -10.27361 -10.27360  -0.94086  -0.93442  -0.84197
 Alpha  occ. eigenvalues --   -0.84071  -0.83658  -0.83565  -0.71368  -0.71056
 Alpha  occ. eigenvalues --   -0.67910  -0.67797  -0.59652  -0.59509  -0.57283
 Alpha  occ. eigenvalues --   -0.56518  -0.53554  -0.52686  -0.50845  -0.50814
 Alpha  occ. eigenvalues --   -0.49754  -0.49235  -0.47281  -0.46765  -0.45172
 Alpha  occ. eigenvalues --   -0.44910  -0.41200  -0.40876  -0.39641  -0.39160
 Alpha  occ. eigenvalues --   -0.39094  -0.38810  -0.29708  -0.27330
 Alpha virt. eigenvalues --    0.03590   0.05296   0.11386   0.13078   0.14366
 Alpha virt. eigenvalues --    0.15465   0.15515   0.16368   0.16525   0.16931
 Alpha virt. eigenvalues --    0.17564   0.17676   0.18119   0.19190   0.20922
 Alpha virt. eigenvalues --    0.22115   0.22361   0.23673   0.24281   0.24445
 Alpha virt. eigenvalues --    0.25509   0.26292   0.26542   0.27445   0.28655
 Alpha virt. eigenvalues --    0.29009   0.29616   0.29926   0.30840   0.31167
 Alpha virt. eigenvalues --    0.32035   0.32309   0.32837   0.33165   0.34134
 Alpha virt. eigenvalues --    0.34414   0.34862   0.36357   0.36537   0.37866
 Alpha virt. eigenvalues --    0.38520   0.39730   0.40471   0.41876   0.42292
 Alpha virt. eigenvalues --    0.42306   0.44296   0.44765   0.45848   0.46541
 Alpha virt. eigenvalues --    0.47134   0.47481   0.48549   0.48579   0.49176
 Alpha virt. eigenvalues --    0.49378   0.49640   0.49779   0.50360   0.50783
 Alpha virt. eigenvalues --    0.51198   0.51290   0.52486   0.52769   0.53358
 Alpha virt. eigenvalues --    0.53891   0.54832   0.54924   0.55647   0.55910
 Alpha virt. eigenvalues --    0.57635   0.58163   0.58427   0.59441   0.60538
 Alpha virt. eigenvalues --    0.60784   0.61184   0.62716   0.63561   0.65178
 Alpha virt. eigenvalues --    0.66196   0.67314   0.68337   0.68749   0.68978
 Alpha virt. eigenvalues --    0.70270   0.72931   0.73246   0.74062   0.75096
 Alpha virt. eigenvalues --    0.77795   0.78604   0.78755   0.80554   0.80758
 Alpha virt. eigenvalues --    0.81956   0.82743   0.83581   0.87734   0.88066
 Alpha virt. eigenvalues --    0.89655   0.90331   0.90599   0.92038   0.93176
 Alpha virt. eigenvalues --    0.93886   0.95355   0.96796   0.98723   0.99143
 Alpha virt. eigenvalues --    1.01144   1.03953   1.05131   1.05252   1.05305
 Alpha virt. eigenvalues --    1.06877   1.07934   1.08345   1.09271   1.11688
 Alpha virt. eigenvalues --    1.13098   1.13892   1.14330   1.15192   1.16104
 Alpha virt. eigenvalues --    1.16524   1.17310   1.18028   1.19144   1.20508
 Alpha virt. eigenvalues --    1.20806   1.21639   1.24271   1.24745   1.25099
 Alpha virt. eigenvalues --    1.25786   1.26434   1.27706   1.28414   1.28917
 Alpha virt. eigenvalues --    1.29458   1.31403   1.31800   1.32814   1.32894
 Alpha virt. eigenvalues --    1.34339   1.35088   1.37453   1.37742   1.37754
 Alpha virt. eigenvalues --    1.38991   1.39048   1.40940   1.41372   1.42136
 Alpha virt. eigenvalues --    1.43213   1.43642   1.43729   1.44019   1.45193
 Alpha virt. eigenvalues --    1.46167   1.46504   1.47276   1.48054   1.48936
 Alpha virt. eigenvalues --    1.49433   1.51136   1.52256   1.54434   1.56091
 Alpha virt. eigenvalues --    1.57776   1.58307   1.58976   1.60037   1.61470
 Alpha virt. eigenvalues --    1.62138   1.63588   1.63783   1.66073   1.67732
 Alpha virt. eigenvalues --    1.68628   1.70726   1.73255   1.74528   1.78617
 Alpha virt. eigenvalues --    1.78908   1.80856   1.81267   1.83782   1.84826
 Alpha virt. eigenvalues --    1.87108   1.87538   1.90441   1.91421   1.92091
 Alpha virt. eigenvalues --    1.93169   1.97555   1.98237   2.00606   2.00945
 Alpha virt. eigenvalues --    2.03434   2.03794   2.07683   2.08931   2.09201
 Alpha virt. eigenvalues --    2.10485   2.12087   2.12876   2.14255   2.15668
 Alpha virt. eigenvalues --    2.17806   2.20356   2.20755   2.21381   2.22819
 Alpha virt. eigenvalues --    2.23507   2.25022   2.25409   2.27295   2.27560
 Alpha virt. eigenvalues --    2.32099   2.35713   2.37793   2.39207   2.41742
 Alpha virt. eigenvalues --    2.43670   2.45243   2.45672   2.49336   2.49887
 Alpha virt. eigenvalues --    2.50268   2.50860   2.53492   2.55040   2.55461
 Alpha virt. eigenvalues --    2.56378   2.57860   2.58951   2.61439   2.62083
 Alpha virt. eigenvalues --    2.62679   2.64936   2.65057   2.65600   2.66239
 Alpha virt. eigenvalues --    2.66832   2.67815   2.71130   2.72450   2.72970
 Alpha virt. eigenvalues --    2.73298   2.74121   2.75046   2.76019   2.77062
 Alpha virt. eigenvalues --    2.77640   2.78974   2.80019   2.80838   2.81410
 Alpha virt. eigenvalues --    2.81435   2.83034   2.83167   2.84309   2.85447
 Alpha virt. eigenvalues --    2.86367   2.86921   2.87337   2.87794   2.90277
 Alpha virt. eigenvalues --    2.91317   2.91631   2.92753   2.92805   2.94469
 Alpha virt. eigenvalues --    2.95390   2.95837   2.96086   2.97082   3.01074
 Alpha virt. eigenvalues --    3.01386   3.02464   3.03422   3.05040   3.06004
 Alpha virt. eigenvalues --    3.07696   3.09361   3.10060   3.10338   3.10587
 Alpha virt. eigenvalues --    3.11901   3.13224   3.13673   3.14797   3.15483
 Alpha virt. eigenvalues --    3.15691   3.16778   3.17295   3.18807   3.19448
 Alpha virt. eigenvalues --    3.20089   3.20607   3.20780   3.21142   3.21773
 Alpha virt. eigenvalues --    3.22113   3.23009   3.23492   3.24127   3.24629
 Alpha virt. eigenvalues --    3.25913   3.26427   3.26796   3.27044   3.27938
 Alpha virt. eigenvalues --    3.28345   3.30706   3.30923   3.31870   3.31918
 Alpha virt. eigenvalues --    3.32588   3.32893   3.33766   3.34660   3.34911
 Alpha virt. eigenvalues --    3.36107   3.36415   3.36863   3.37910   3.39116
 Alpha virt. eigenvalues --    3.40498   3.42286   3.43084   3.43513   3.44268
 Alpha virt. eigenvalues --    3.45586   3.45646   3.46762   3.47243   3.47335
 Alpha virt. eigenvalues --    3.48319   3.49546   3.49988   3.51012   3.51951
 Alpha virt. eigenvalues --    3.52583   3.53415   3.54001   3.55038   3.55062
 Alpha virt. eigenvalues --    3.57521   3.58076   3.58227   3.60819   3.65578
 Alpha virt. eigenvalues --    3.65578   3.65951   3.66185   3.68177   3.68856
 Alpha virt. eigenvalues --    3.69265   3.69535   3.72047   3.72176   3.74073
 Alpha virt. eigenvalues --    3.77120   3.77283   3.79006   3.81106   3.82998
 Alpha virt. eigenvalues --    3.85308   3.85698   3.85827   3.86725   3.87430
 Alpha virt. eigenvalues --    3.89304   3.91559   3.92489   3.94216   3.95405
 Alpha virt. eigenvalues --    3.97537   3.98983   4.01645   4.01994   4.04440
 Alpha virt. eigenvalues --    4.06174   4.08268   4.09230   4.09238   4.10780
 Alpha virt. eigenvalues --    4.12181   4.13096   4.14918   4.15005   4.18608
 Alpha virt. eigenvalues --    4.18747   4.20824   4.20949   4.23457   4.24949
 Alpha virt. eigenvalues --    4.25881   4.27168   4.31068   4.31202   4.35013
 Alpha virt. eigenvalues --    4.35355   4.38498   4.38808   4.40016   4.42007
 Alpha virt. eigenvalues --    4.44191   4.44847   4.47973   4.49304   4.52074
 Alpha virt. eigenvalues --    4.53874   4.59240   4.61401   4.64365   4.67599
 Alpha virt. eigenvalues --    4.68126   4.69161   4.73509   4.73685   4.76298
 Alpha virt. eigenvalues --    4.77442   4.79905   4.80954   4.84124   4.84752
 Alpha virt. eigenvalues --    4.85564   4.86775   4.91802   4.94043   4.95097
 Alpha virt. eigenvalues --    4.97219   4.98028   5.00092   5.06941   5.07868
 Alpha virt. eigenvalues --    5.14077   5.15295   5.19431   5.20788   5.22780
 Alpha virt. eigenvalues --    5.23506   5.32991   5.33117   5.41451   5.42512
 Alpha virt. eigenvalues --    5.43994   5.44673   5.50362   5.51774   5.69652
 Alpha virt. eigenvalues --    5.71312   5.76636   5.79197   5.95150   6.02460
 Alpha virt. eigenvalues --    7.94228   7.95538   8.01103   8.04768   8.05438
 Alpha virt. eigenvalues --    8.08538   8.09798   8.12492   8.17622   8.18868
 Alpha virt. eigenvalues --    8.35644   8.35859  34.76339  34.77838  34.81222
 Alpha virt. eigenvalues --   34.81885  34.85475  34.89239  34.96435  34.99163
 Alpha virt. eigenvalues --   35.01482  35.01930  35.16679  35.18680
  Beta  occ. eigenvalues --  -10.28358 -10.28358 -10.28100 -10.28100 -10.28081
  Beta  occ. eigenvalues --  -10.28080 -10.28009 -10.28008 -10.27798 -10.27797
  Beta  occ. eigenvalues --  -10.27361 -10.27360  -0.94086  -0.93442  -0.84197
  Beta  occ. eigenvalues --   -0.84071  -0.83658  -0.83565  -0.71368  -0.71056
  Beta  occ. eigenvalues --   -0.67910  -0.67797  -0.59652  -0.59509  -0.57283
  Beta  occ. eigenvalues --   -0.56518  -0.53554  -0.52686  -0.50845  -0.50814
  Beta  occ. eigenvalues --   -0.49754  -0.49235  -0.47281  -0.46765  -0.45172
  Beta  occ. eigenvalues --   -0.44910  -0.41200  -0.40876  -0.39641  -0.39160
  Beta  occ. eigenvalues --   -0.39094  -0.38810  -0.29708  -0.27330
  Beta virt. eigenvalues --    0.03590   0.05296   0.11386   0.13078   0.14366
  Beta virt. eigenvalues --    0.15465   0.15515   0.16368   0.16525   0.16931
  Beta virt. eigenvalues --    0.17564   0.17676   0.18119   0.19190   0.20922
  Beta virt. eigenvalues --    0.22115   0.22361   0.23673   0.24281   0.24445
  Beta virt. eigenvalues --    0.25509   0.26292   0.26542   0.27445   0.28655
  Beta virt. eigenvalues --    0.29009   0.29616   0.29926   0.30840   0.31167
  Beta virt. eigenvalues --    0.32035   0.32309   0.32837   0.33165   0.34134
  Beta virt. eigenvalues --    0.34414   0.34862   0.36357   0.36537   0.37866
  Beta virt. eigenvalues --    0.38520   0.39730   0.40471   0.41876   0.42292
  Beta virt. eigenvalues --    0.42306   0.44296   0.44765   0.45848   0.46541
  Beta virt. eigenvalues --    0.47134   0.47481   0.48549   0.48579   0.49176
  Beta virt. eigenvalues --    0.49378   0.49640   0.49779   0.50360   0.50783
  Beta virt. eigenvalues --    0.51198   0.51290   0.52486   0.52769   0.53358
  Beta virt. eigenvalues --    0.53891   0.54832   0.54924   0.55647   0.55910
  Beta virt. eigenvalues --    0.57635   0.58163   0.58427   0.59441   0.60538
  Beta virt. eigenvalues --    0.60784   0.61184   0.62716   0.63561   0.65178
  Beta virt. eigenvalues --    0.66196   0.67314   0.68337   0.68749   0.68978
  Beta virt. eigenvalues --    0.70270   0.72931   0.73246   0.74062   0.75096
  Beta virt. eigenvalues --    0.77795   0.78604   0.78755   0.80554   0.80758
  Beta virt. eigenvalues --    0.81956   0.82743   0.83581   0.87734   0.88066
  Beta virt. eigenvalues --    0.89655   0.90331   0.90599   0.92038   0.93176
  Beta virt. eigenvalues --    0.93886   0.95355   0.96796   0.98723   0.99143
  Beta virt. eigenvalues --    1.01144   1.03953   1.05131   1.05252   1.05305
  Beta virt. eigenvalues --    1.06877   1.07934   1.08345   1.09271   1.11688
  Beta virt. eigenvalues --    1.13098   1.13892   1.14330   1.15192   1.16104
  Beta virt. eigenvalues --    1.16524   1.17310   1.18028   1.19144   1.20508
  Beta virt. eigenvalues --    1.20806   1.21639   1.24271   1.24745   1.25099
  Beta virt. eigenvalues --    1.25786   1.26434   1.27706   1.28414   1.28917
  Beta virt. eigenvalues --    1.29458   1.31403   1.31800   1.32814   1.32894
  Beta virt. eigenvalues --    1.34339   1.35088   1.37453   1.37742   1.37754
  Beta virt. eigenvalues --    1.38991   1.39048   1.40940   1.41372   1.42136
  Beta virt. eigenvalues --    1.43213   1.43642   1.43729   1.44019   1.45193
  Beta virt. eigenvalues --    1.46167   1.46504   1.47276   1.48054   1.48936
  Beta virt. eigenvalues --    1.49433   1.51136   1.52256   1.54434   1.56091
  Beta virt. eigenvalues --    1.57776   1.58307   1.58976   1.60037   1.61470
  Beta virt. eigenvalues --    1.62138   1.63588   1.63783   1.66073   1.67732
  Beta virt. eigenvalues --    1.68628   1.70726   1.73255   1.74528   1.78617
  Beta virt. eigenvalues --    1.78908   1.80856   1.81267   1.83782   1.84826
  Beta virt. eigenvalues --    1.87108   1.87538   1.90441   1.91421   1.92091
  Beta virt. eigenvalues --    1.93169   1.97555   1.98237   2.00606   2.00945
  Beta virt. eigenvalues --    2.03434   2.03794   2.07683   2.08931   2.09201
  Beta virt. eigenvalues --    2.10485   2.12087   2.12876   2.14255   2.15668
  Beta virt. eigenvalues --    2.17806   2.20356   2.20755   2.21381   2.22819
  Beta virt. eigenvalues --    2.23507   2.25022   2.25409   2.27295   2.27560
  Beta virt. eigenvalues --    2.32099   2.35713   2.37793   2.39207   2.41742
  Beta virt. eigenvalues --    2.43670   2.45243   2.45672   2.49336   2.49887
  Beta virt. eigenvalues --    2.50268   2.50860   2.53492   2.55040   2.55461
  Beta virt. eigenvalues --    2.56378   2.57860   2.58951   2.61439   2.62083
  Beta virt. eigenvalues --    2.62679   2.64936   2.65057   2.65600   2.66239
  Beta virt. eigenvalues --    2.66832   2.67815   2.71130   2.72450   2.72970
  Beta virt. eigenvalues --    2.73298   2.74121   2.75046   2.76019   2.77062
  Beta virt. eigenvalues --    2.77640   2.78974   2.80019   2.80838   2.81410
  Beta virt. eigenvalues --    2.81435   2.83034   2.83167   2.84309   2.85447
  Beta virt. eigenvalues --    2.86367   2.86921   2.87337   2.87794   2.90277
  Beta virt. eigenvalues --    2.91317   2.91631   2.92753   2.92805   2.94469
  Beta virt. eigenvalues --    2.95390   2.95837   2.96086   2.97082   3.01074
  Beta virt. eigenvalues --    3.01386   3.02464   3.03422   3.05040   3.06004
  Beta virt. eigenvalues --    3.07696   3.09361   3.10060   3.10338   3.10587
  Beta virt. eigenvalues --    3.11901   3.13224   3.13673   3.14797   3.15483
  Beta virt. eigenvalues --    3.15691   3.16778   3.17295   3.18807   3.19448
  Beta virt. eigenvalues --    3.20089   3.20607   3.20780   3.21142   3.21773
  Beta virt. eigenvalues --    3.22113   3.23009   3.23492   3.24127   3.24629
  Beta virt. eigenvalues --    3.25913   3.26427   3.26796   3.27044   3.27938
  Beta virt. eigenvalues --    3.28345   3.30706   3.30923   3.31870   3.31918
  Beta virt. eigenvalues --    3.32588   3.32893   3.33766   3.34660   3.34911
  Beta virt. eigenvalues --    3.36107   3.36415   3.36863   3.37910   3.39116
  Beta virt. eigenvalues --    3.40498   3.42286   3.43084   3.43513   3.44268
  Beta virt. eigenvalues --    3.45586   3.45646   3.46762   3.47243   3.47335
  Beta virt. eigenvalues --    3.48319   3.49546   3.49988   3.51012   3.51951
  Beta virt. eigenvalues --    3.52583   3.53415   3.54001   3.55038   3.55062
  Beta virt. eigenvalues --    3.57521   3.58076   3.58227   3.60819   3.65578
  Beta virt. eigenvalues --    3.65578   3.65951   3.66185   3.68177   3.68856
  Beta virt. eigenvalues --    3.69265   3.69535   3.72047   3.72176   3.74073
  Beta virt. eigenvalues --    3.77120   3.77283   3.79006   3.81106   3.82998
  Beta virt. eigenvalues --    3.85308   3.85698   3.85827   3.86725   3.87430
  Beta virt. eigenvalues --    3.89304   3.91559   3.92489   3.94216   3.95405
  Beta virt. eigenvalues --    3.97537   3.98983   4.01645   4.01994   4.04440
  Beta virt. eigenvalues --    4.06174   4.08268   4.09230   4.09238   4.10780
  Beta virt. eigenvalues --    4.12181   4.13096   4.14918   4.15005   4.18608
  Beta virt. eigenvalues --    4.18747   4.20824   4.20949   4.23457   4.24949
  Beta virt. eigenvalues --    4.25881   4.27168   4.31068   4.31202   4.35013
  Beta virt. eigenvalues --    4.35355   4.38498   4.38808   4.40016   4.42007
  Beta virt. eigenvalues --    4.44191   4.44847   4.47973   4.49304   4.52074
  Beta virt. eigenvalues --    4.53874   4.59240   4.61401   4.64365   4.67599
  Beta virt. eigenvalues --    4.68126   4.69161   4.73509   4.73685   4.76298
  Beta virt. eigenvalues --    4.77442   4.79905   4.80954   4.84124   4.84752
  Beta virt. eigenvalues --    4.85564   4.86775   4.91802   4.94043   4.95097
  Beta virt. eigenvalues --    4.97219   4.98028   5.00092   5.06941   5.07868
  Beta virt. eigenvalues --    5.14077   5.15295   5.19431   5.20788   5.22780
  Beta virt. eigenvalues --    5.23506   5.32991   5.33117   5.41451   5.42512
  Beta virt. eigenvalues --    5.43994   5.44673   5.50362   5.51774   5.69652
  Beta virt. eigenvalues --    5.71312   5.76636   5.79197   5.95150   6.02460
  Beta virt. eigenvalues --    7.94228   7.95538   8.01103   8.04768   8.05438
  Beta virt. eigenvalues --    8.08538   8.09798   8.12492   8.17622   8.18868
  Beta virt. eigenvalues --    8.35644   8.35859  34.76339  34.77838  34.81222
  Beta virt. eigenvalues --   34.81885  34.85475  34.89239  34.96435  34.99163
  Beta virt. eigenvalues --   35.01482  35.01930  35.16679  35.18680
          Condensed to atoms (all electrons):
               1          2          3          4          5          6
     1  C    5.142715   0.000947   0.423866  -0.001795   0.001163  -0.005397
     2  C    0.000947   5.351281  -0.002165   0.426331  -0.033638  -0.037920
     3  H    0.423866  -0.002165   0.491574   0.000026  -0.000042   0.000001
     4  H   -0.001795   0.426331   0.000026   0.465685  -0.004121   0.003179
     5  C    0.001163  -0.033638  -0.000042  -0.004121   5.175458   0.497573
     6  C   -0.005397  -0.037920   0.000001   0.003179   0.497573   5.352033
     7  H    0.000290  -0.001867   0.000001  -0.000071   0.424571  -0.026680
     8  H   -0.001751   0.003199  -0.000026  -0.000006  -0.040282   0.426175
     9  C    0.001851  -0.006046  -0.000006  -0.001561  -0.058517   0.213496
    10  H   -0.000040   0.000389  -0.000001  -0.000116  -0.004552  -0.035572
    11  H    0.000046  -0.004981   0.000001   0.000218   0.009058  -0.059643
    12  C   -0.000150   0.010103   0.000002   0.001678   0.289795  -0.068451
    13  H   -0.000001   0.000031   0.000000   0.000015  -0.035879   0.004716
    14  C    0.000153  -0.005343  -0.000000  -0.001699  -0.051457   0.000717
    15  H   -0.000000   0.000001  -0.000000  -0.000024   0.007009  -0.002141
    16  C   -0.000621   0.012648  -0.000000   0.000650  -0.000436  -0.060024
    17  H   -0.000042  -0.000596  -0.000001  -0.001266   0.009287  -0.001600
    18  H    0.000003   0.000490   0.000000   0.000215  -0.003204   0.011634
    19  C   -0.051150   0.497761   0.007051  -0.040523  -0.011861  -0.033749
    20  H    0.003579  -0.025960  -0.000080  -0.004233   0.000313  -0.001881
    21  C    0.579508  -0.068553  -0.031724   0.004938   0.001377   0.010222
    22  H   -0.024951   0.004793  -0.005600  -0.000051   0.000021   0.000031
    23  C   -0.081140   0.214043   0.005110  -0.013254   0.009142  -0.006100
    24  H    0.013534  -0.059743  -0.000081  -0.003946   0.001126  -0.004989
    25  H    0.003605  -0.035410  -0.000055  -0.000529   0.000557   0.000387
    26  C    0.276377  -0.059908  -0.028818   0.003585  -0.005994   0.012677
    27  H   -0.039254   0.011596  -0.004406  -0.000085   0.000282   0.000492
    28  H   -0.035629  -0.001563   0.000993  -0.000129  -0.003311  -0.000651
               7          8          9         10         11         12
     1  C    0.000290  -0.001751   0.001851  -0.000040   0.000046  -0.000150
     2  C   -0.001867   0.003199  -0.006046   0.000389  -0.004981   0.010103
     3  H    0.000001  -0.000026  -0.000006  -0.000001   0.000001   0.000002
     4  H   -0.000071  -0.000006  -0.001561  -0.000116   0.000218   0.001678
     5  C    0.424571  -0.040282  -0.058517  -0.004552   0.009058   0.289795
     6  C   -0.026680   0.426175   0.213496  -0.035572  -0.059643  -0.068451
     7  H    0.474865  -0.004218   0.002844  -0.000260  -0.000016  -0.029175
     8  H   -0.004218   0.465190  -0.013197  -0.000535  -0.003927   0.004893
     9  C    0.002844  -0.013197   4.989927   0.385824   0.462845   0.036485
    10  H   -0.000260  -0.000535   0.385824   0.569020  -0.020731   0.001514
    11  H   -0.000016  -0.003927   0.462845  -0.020731   0.532704  -0.004631
    12  C   -0.029175   0.004893   0.036485   0.001514  -0.004631   5.008653
    13  H   -0.003140  -0.000051  -0.000290  -0.000050   0.000025   0.424853
    14  C    0.003569  -0.001774  -0.081020   0.003668   0.013511   0.580255
    15  H   -0.000081   0.000026   0.005100  -0.000053  -0.000082  -0.031336
    16  C   -0.000801   0.003556   0.344253  -0.021387  -0.056906  -0.057934
    17  H    0.000017  -0.000129  -0.032874   0.006577  -0.008236  -0.014343
    18  H    0.000027  -0.000084  -0.044775  -0.008672  -0.000740   0.006427
    19  C    0.000313  -0.004145   0.009115   0.000553   0.001153   0.001400
    20  H    0.000008  -0.000071   0.002447   0.000203  -0.001408  -0.000141
    21  C   -0.000143   0.001696  -0.001778  -0.000022  -0.000036  -0.000303
    22  H   -0.000001   0.000016  -0.000051  -0.000001   0.000008  -0.000000
    23  C    0.002420  -0.001554   0.001194  -0.000026   0.000227  -0.001774
    24  H   -0.001387   0.000219   0.000231  -0.000007  -0.000020  -0.000038
    25  H    0.000203  -0.000116  -0.000027   0.000003  -0.000007  -0.000021
    26  C   -0.001637   0.000657  -0.000881   0.000071  -0.000097   0.000878
    27  H   -0.000024   0.000214  -0.000023   0.000001  -0.000001  -0.000044
    28  H    0.001512  -0.001296   0.000479  -0.000005   0.000012   0.000511
              13         14         15         16         17         18
     1  C   -0.000001   0.000153  -0.000000  -0.000621  -0.000042   0.000003
     2  C    0.000031  -0.005343   0.000001   0.012648  -0.000596   0.000490
     3  H    0.000000  -0.000000  -0.000000  -0.000000  -0.000001   0.000000
     4  H    0.000015  -0.001699  -0.000024   0.000650  -0.001266   0.000215
     5  C   -0.035879  -0.051457   0.007009  -0.000436   0.009287  -0.003204
     6  C    0.004716   0.000717  -0.002141  -0.060024  -0.001600   0.011634
     7  H   -0.003140   0.003569  -0.000081  -0.000801   0.000017   0.000027
     8  H   -0.000051  -0.001774   0.000026   0.003556  -0.000129  -0.000084
     9  C   -0.000290  -0.081020   0.005100   0.344253  -0.032874  -0.044775
    10  H   -0.000050   0.003668  -0.000053  -0.021387   0.006577  -0.008672
    11  H    0.000025   0.013511  -0.000082  -0.056906  -0.008236  -0.000740
    12  C    0.424853   0.580255  -0.031336  -0.057934  -0.014343   0.006427
    13  H    0.488418  -0.025088  -0.005585   0.004163  -0.000371  -0.000088
    14  C   -0.025088   5.142488   0.423461   0.276538  -0.035661  -0.039447
    15  H   -0.005585   0.423461   0.491472  -0.028799   0.000999  -0.004424
    16  C    0.004163   0.276538  -0.028799   4.940419   0.401714   0.437680
    17  H   -0.000371  -0.035661   0.000999   0.401714   0.584301  -0.022077
    18  H   -0.000088  -0.039447  -0.004424   0.437680  -0.022077   0.537269
    19  C    0.000021   0.001146  -0.000042  -0.005973  -0.003361   0.000281
    20  H   -0.000001   0.000289   0.000001  -0.001661   0.001500  -0.000023
    21  C   -0.000000  -0.000149   0.000002   0.000875   0.000510  -0.000044
    22  H    0.000000  -0.000001   0.000000   0.000015  -0.000001  -0.000001
    23  C   -0.000053   0.001846  -0.000006  -0.000885   0.000482  -0.000022
    24  H    0.000010   0.000046   0.000001  -0.000096   0.000012  -0.000001
    25  H   -0.000001  -0.000040  -0.000001   0.000071  -0.000005   0.000001
    26  C    0.000015  -0.000620  -0.000000   0.000920   0.000067  -0.000004
    27  H   -0.000001   0.000003   0.000000  -0.000004   0.000002  -0.000000
    28  H   -0.000001  -0.000041  -0.000001   0.000067  -0.000019   0.000002
              19         20         21         22         23         24
     1  C   -0.051150   0.003579   0.579508  -0.024951  -0.081140   0.013534
     2  C    0.497761  -0.025960  -0.068553   0.004793   0.214043  -0.059743
     3  H    0.007051  -0.000080  -0.031724  -0.005600   0.005110  -0.000081
     4  H   -0.040523  -0.004233   0.004938  -0.000051  -0.013254  -0.003946
     5  C   -0.011861   0.000313   0.001377   0.000021   0.009142   0.001126
     6  C   -0.033749  -0.001881   0.010222   0.000031  -0.006100  -0.004989
     7  H    0.000313   0.000008  -0.000143  -0.000001   0.002420  -0.001387
     8  H   -0.004145  -0.000071   0.001696   0.000016  -0.001554   0.000219
     9  C    0.009115   0.002447  -0.001778  -0.000051   0.001194   0.000231
    10  H    0.000553   0.000203  -0.000022  -0.000001  -0.000026  -0.000007
    11  H    0.001153  -0.001408  -0.000036   0.000008   0.000227  -0.000020
    12  C    0.001400  -0.000141  -0.000303  -0.000000  -0.001774  -0.000038
    13  H    0.000021  -0.000001  -0.000000   0.000000  -0.000053   0.000010
    14  C    0.001146   0.000289  -0.000149  -0.000001   0.001846   0.000046
    15  H   -0.000042   0.000001   0.000002   0.000000  -0.000006   0.000001
    16  C   -0.005973  -0.001661   0.000875   0.000015  -0.000885  -0.000096
    17  H   -0.003361   0.001500   0.000510  -0.000001   0.000482   0.000012
    18  H    0.000281  -0.000023  -0.000044  -0.000001  -0.000022  -0.000001
    19  C    5.176297   0.424097   0.288879  -0.036040  -0.058831   0.009131
    20  H    0.424097   0.474552  -0.029390  -0.003133   0.002839  -0.000016
    21  C    0.288879  -0.029390   5.010228   0.424777   0.036619  -0.004649
    22  H   -0.036040  -0.003133   0.424777   0.488405  -0.000291   0.000025
    23  C   -0.058831   0.002839   0.036619  -0.000291   4.989836   0.463012
    24  H    0.009131  -0.000016  -0.004649   0.000025   0.463012   0.532344
    25  H   -0.004611  -0.000261   0.001574  -0.000050   0.385586  -0.020679
    26  C   -0.000779  -0.000808  -0.057740   0.004181   0.344306  -0.056952
    27  H   -0.003168   0.000027   0.006313  -0.000089  -0.044728  -0.000741
    28  H    0.009278   0.000017  -0.014279  -0.000371  -0.033070  -0.008218
              25         26         27         28
     1  C    0.003605   0.276377  -0.039254  -0.035629
     2  C   -0.035410  -0.059908   0.011596  -0.001563
     3  H   -0.000055  -0.028818  -0.004406   0.000993
     4  H   -0.000529   0.003585  -0.000085  -0.000129
     5  C    0.000557  -0.005994   0.000282  -0.003311
     6  C    0.000387   0.012677   0.000492  -0.000651
     7  H    0.000203  -0.001637  -0.000024   0.001512
     8  H   -0.000116   0.000657   0.000214  -0.001296
     9  C   -0.000027  -0.000881  -0.000023   0.000479
    10  H    0.000003   0.000071   0.000001  -0.000005
    11  H   -0.000007  -0.000097  -0.000001   0.000012
    12  C   -0.000021   0.000878  -0.000044   0.000511
    13  H   -0.000001   0.000015  -0.000001  -0.000001
    14  C   -0.000040  -0.000620   0.000003  -0.000041
    15  H   -0.000001  -0.000000   0.000000  -0.000001
    16  C    0.000071   0.000920  -0.000004   0.000067
    17  H   -0.000005   0.000067   0.000002  -0.000019
    18  H    0.000001  -0.000004  -0.000000   0.000002
    19  C   -0.004611  -0.000779  -0.003168   0.009278
    20  H   -0.000261  -0.000808   0.000027   0.000017
    21  C    0.001574  -0.057740   0.006313  -0.014279
    22  H   -0.000050   0.004181  -0.000089  -0.000371
    23  C    0.385586   0.344306  -0.044728  -0.033070
    24  H   -0.020679  -0.056952  -0.000741  -0.008218
    25  H    0.569061  -0.021301  -0.008681   0.006577
    26  C   -0.021301   4.940583   0.437516   0.401885
    27  H   -0.008681   0.437516   0.537371  -0.022069
    28  H    0.006577   0.401885  -0.022069   0.584065
          Atomic-Atomic Spin Densities.
               1          2          3          4          5          6
     1  C    0.000001   0.000000  -0.000000  -0.000000  -0.000000  -0.000000
     2  C    0.000000  -0.000001  -0.000000  -0.000000   0.000000   0.000000
     3  H   -0.000000  -0.000000  -0.000000   0.000000   0.000000  -0.000000
     4  H   -0.000000  -0.000000   0.000000   0.000000   0.000000  -0.000000
     5  C   -0.000000   0.000000   0.000000   0.000000   0.000000   0.000000
     6  C   -0.000000   0.000000  -0.000000  -0.000000   0.000000  -0.000000
     7  H    0.000000  -0.000000  -0.000000   0.000000   0.000000   0.000000
     8  H   -0.000000   0.000000   0.000000   0.000000  -0.000000   0.000000
     9  C    0.000000  -0.000000   0.000000   0.000000  -0.000000  -0.000000
    10  H   -0.000000   0.000000   0.000000  -0.000000   0.000000  -0.000000
    11  H   -0.000000   0.000000  -0.000000  -0.000000  -0.000000   0.000000
    12  C    0.000000  -0.000000  -0.000000  -0.000000   0.000000  -0.000000
    13  H   -0.000000  -0.000000  -0.000000  -0.000000  -0.000000   0.000000
    14  C    0.000000   0.000000   0.000000   0.000000  -0.000000  -0.000000
    15  H   -0.000000   0.000000   0.000000  -0.000000  -0.000000   0.000000
    16  C    0.000000  -0.000000  -0.000000  -0.000000   0.000000   0.000000
    17  H   -0.000000   0.000000   0.000000  -0.000000  -0.000000   0.000000
    18  H    0.000000  -0.000000   0.000000  -0.000000   0.000000   0.000000
    19  C   -0.000000  -0.000000  -0.000000  -0.000000  -0.000000  -0.000000
    20  H    0.000000  -0.000000  -0.000000  -0.000000   0.000000   0.000000
    21  C   -0.000000   0.000000  -0.000000   0.000000  -0.000000   0.000000
    22  H    0.000000  -0.000000   0.000000   0.000000  -0.000000   0.000000
    23  C    0.000000   0.000000  -0.000000   0.000000   0.000000   0.000000
    24  H    0.000000  -0.000000   0.000000  -0.000000  -0.000000  -0.000000
    25  H    0.000000   0.000000  -0.000000  -0.000000   0.000000  -0.000000
    26  C   -0.000000  -0.000000   0.000000   0.000000  -0.000000   0.000000
    27  H   -0.000000   0.000000   0.000000  -0.000000  -0.000000  -0.000000
    28  H   -0.000000  -0.000000   0.000000  -0.000000   0.000000  -0.000000
               7          8          9         10         11         12
     1  C    0.000000  -0.000000   0.000000  -0.000000  -0.000000   0.000000
     2  C   -0.000000   0.000000  -0.000000   0.000000   0.000000  -0.000000
     3  H   -0.000000   0.000000   0.000000   0.000000  -0.000000  -0.000000
     4  H    0.000000   0.000000   0.000000  -0.000000  -0.000000  -0.000000
     5  C    0.000000  -0.000000  -0.000000   0.000000  -0.000000   0.000000
     6  C    0.000000   0.000000  -0.000000  -0.000000   0.000000  -0.000000
     7  H   -0.000000   0.000000  -0.000000   0.000000   0.000000   0.000000
     8  H    0.000000   0.000000  -0.000000   0.000000  -0.000000  -0.000000
     9  C   -0.000000  -0.000000   0.000001   0.000000  -0.000000   0.000000
    10  H    0.000000   0.000000   0.000000  -0.000000   0.000000  -0.000000
    11  H    0.000000  -0.000000  -0.000000   0.000000  -0.000000   0.000000
    12  C    0.000000  -0.000000   0.000000  -0.000000   0.000000  -0.000000
    13  H   -0.000000  -0.000000  -0.000000   0.000000   0.000000   0.000000
    14  C   -0.000000   0.000000  -0.000000  -0.000000  -0.000000   0.000000
    15  H    0.000000  -0.000000   0.000000   0.000000  -0.000000   0.000000
    16  C    0.000000  -0.000000  -0.000000   0.000000   0.000000  -0.000000
    17  H    0.000000   0.000000  -0.000000  -0.000000   0.000000  -0.000000
    18  H   -0.000000   0.000000  -0.000000   0.000000   0.000000   0.000000
    19  C   -0.000000  -0.000000  -0.000000   0.000000   0.000000   0.000000
    20  H   -0.000000  -0.000000  -0.000000   0.000000  -0.000000  -0.000000
    21  C    0.000000   0.000000   0.000000   0.000000  -0.000000   0.000000
    22  H    0.000000   0.000000   0.000000  -0.000000  -0.000000  -0.000000
    23  C    0.000000  -0.000000   0.000000   0.000000  -0.000000  -0.000000
    24  H    0.000000   0.000000   0.000000  -0.000000  -0.000000   0.000000
    25  H   -0.000000   0.000000  -0.000000   0.000000   0.000000  -0.000000
    26  C    0.000000   0.000000  -0.000000  -0.000000   0.000000   0.000000
    27  H    0.000000   0.000000   0.000000  -0.000000  -0.000000   0.000000
    28  H   -0.000000   0.000000  -0.000000   0.000000   0.000000   0.000000
              13         14         15         16         17         18
     1  C   -0.000000   0.000000  -0.000000   0.000000  -0.000000   0.000000
     2  C   -0.000000   0.000000   0.000000  -0.000000   0.000000  -0.000000
     3  H   -0.000000   0.000000   0.000000  -0.000000   0.000000   0.000000
     4  H   -0.000000   0.000000  -0.000000  -0.000000  -0.000000  -0.000000
     5  C   -0.000000  -0.000000  -0.000000   0.000000  -0.000000   0.000000
     6  C    0.000000  -0.000000   0.000000   0.000000   0.000000   0.000000
     7  H   -0.000000  -0.000000   0.000000   0.000000   0.000000  -0.000000
     8  H   -0.000000   0.000000  -0.000000  -0.000000   0.000000   0.000000
     9  C   -0.000000  -0.000000   0.000000  -0.000000  -0.000000  -0.000000
    10  H    0.000000  -0.000000   0.000000   0.000000  -0.000000   0.000000
    11  H    0.000000  -0.000000  -0.000000   0.000000   0.000000   0.000000
    12  C    0.000000   0.000000   0.000000  -0.000000  -0.000000   0.000000
    13  H    0.000000  -0.000000  -0.000000   0.000000   0.000000  -0.000000
    14  C   -0.000000   0.000000  -0.000000   0.000000  -0.000000   0.000000
    15  H   -0.000000  -0.000000   0.000000  -0.000000  -0.000000  -0.000000
    16  C    0.000000   0.000000  -0.000000  -0.000000   0.000000   0.000000
    17  H    0.000000  -0.000000  -0.000000   0.000000   0.000000  -0.000000
    18  H   -0.000000   0.000000  -0.000000   0.000000  -0.000000   0.000000
    19  C   -0.000000   0.000000  -0.000000   0.000000  -0.000000   0.000000
    20  H   -0.000000  -0.000000   0.000000   0.000000   0.000000  -0.000000
    21  C    0.000000  -0.000000   0.000000  -0.000000  -0.000000  -0.000000
    22  H    0.000000   0.000000   0.000000  -0.000000   0.000000  -0.000000
    23  C   -0.000000  -0.000000  -0.000000   0.000000   0.000000  -0.000000
    24  H    0.000000   0.000000   0.000000   0.000000  -0.000000   0.000000
    25  H    0.000000   0.000000  -0.000000   0.000000   0.000000   0.000000
    26  C    0.000000  -0.000000   0.000000   0.000000  -0.000000  -0.000000
    27  H    0.000000  -0.000000   0.000000   0.000000  -0.000000  -0.000000
[...]
     1  C    0.000000  -0.000000   0.000000   0.000000
     2  C   -0.000000  -0.000000  -0.000000   0.000000
     3  H   -0.000000  -0.000000   0.000000   0.000000
     4  H   -0.000000   0.000000   0.000000  -0.000000
     5  C   -0.000000  -0.000000  -0.000000   0.000000
     6  C   -0.000000   0.000000   0.000000  -0.000000
     7  H   -0.000000  -0.000000   0.000000  -0.000000
     8  H    0.000000   0.000000   0.000000   0.000000
     9  C   -0.000000  -0.000000   0.000000  -0.000000
    10  H   -0.000000  -0.000000  -0.000000  -0.000000
    11  H    0.000000  -0.000000  -0.000000   0.000000
    12  C    0.000000   0.000000   0.000000  -0.000000
    13  H    0.000000   0.000000   0.000000  -0.000000
    14  C    0.000000  -0.000000  -0.000000   0.000000
    15  H   -0.000000   0.000000  -0.000000  -0.000000
    16  C    0.000000  -0.000000   0.000000   0.000000
    17  H   -0.000000  -0.000000  -0.000000  -0.000000
    18  H    0.000000  -0.000000   0.000000   0.000000
    19  C   -0.000000  -0.000000  -0.000000  -0.000000
    20  H   -0.000000  -0.000000   0.000000  -0.000000
    21  C    0.000000  -0.000000  -0.000000   0.000000
    22  H   -0.000000  -0.000000   0.000000  -0.000000
    23  C   -0.000000   0.000000   0.000000   0.000000
    24  H   -0.000000  -0.000000  -0.000000  -0.000000
    25  H    0.000000  -0.000000  -0.000000   0.000000
    26  C   -0.000000   0.000000  -0.000000  -0.000000
    27  H   -0.000000  -0.000000  -0.000000   0.000000
    28  H    0.000000  -0.000000   0.000000  -0.000000
 Mulliken charges and spin densities:
               1          2
     1  C   -0.203782  -0.000001
     2  C   -0.199585   0.000001
     3  H    0.148167   0.000000
     4  H    0.172927  -0.000000
     5  C   -0.188367  -0.000001
     6  C   -0.198454   0.000001
     7  H    0.167398  -0.000000
     8  H    0.171917  -0.000000
     9  C   -0.222753   0.000000
    10  H    0.131124  -0.000000
    11  H    0.146103  -0.000000
    12  C   -0.163497   0.000001
    13  H    0.151793   0.000000
    14  C   -0.201883  -0.000001
    15  H    0.148084   0.000000
    16  C   -0.193488  -0.000000
    17  H    0.119317  -0.000000
    18  H    0.132890   0.000000
    19  C   -0.188391  -0.000001
    20  H    0.166881   0.000000
    21  C   -0.160491   0.000001
    22  H    0.150985  -0.000000
    23  C   -0.223089  -0.000001
    24  H    0.145636   0.000000
    25  H    0.131541   0.000000
    26  C   -0.193787   0.000000
    27  H    0.133366  -0.000000
    28  H    0.119438  -0.000000
 Sum of Mulliken charges =  -0.00000   0.00000
 Mulliken charges and spin densities with hydrogens summed into heavy atoms:
               1          2
     1  C   -0.055615  -0.000001
     2  C   -0.026658   0.000001
     5  C   -0.020969  -0.000001
     6  C   -0.026536   0.000001
     9  C    0.054475   0.000000
    12  C   -0.011704   0.000001
    14  C   -0.053799  -0.000001
    16  C    0.058718  -0.000000
    19  C   -0.021510  -0.000000
    21  C   -0.009506   0.000000
    23  C    0.054088  -0.000000
    26  C    0.059016   0.000000
 Electronic spatial extent (au):  <R**2>=           2285.6109
 Charge=             -0.0000 electrons
 Dipole moment (field-independent basis, Debye):
    X=              0.0010    Y=             -0.0037    Z=             -0.0028  Tot=              0.0048
 Quadrupole moment (field-independent basis, Debye-Ang):
   XX=            -70.2275   YY=            -68.1437   ZZ=            -75.4060
   XY=             -3.3756   XZ=             -3.6925   YZ=             -1.7299
 Traceless Quadrupole moment (field-independent basis, Debye-Ang):
   XX=              1.0316   YY=              3.1154   ZZ=             -4.1470
   XY=             -3.3756   XZ=             -3.6925   YZ=             -1.7299
 Octapole moment (field-independent basis, Debye-Ang**2):
  XXX=              0.0102  YYY=             -0.0176  ZZZ=             -0.0163  XYY=             -0.0082
  XXY=             -0.0148  XXZ=             -0.0193  XZZ=              0.0078  YZZ=             -0.0082
  YYZ=              0.0013  XYZ=              0.0070
 Hexadecapole moment (field-independent basis, Debye-Ang**3):
 XXXX=          -2030.1856 YYYY=           -610.5972 ZZZZ=           -392.9013 XXXY=           -111.0947
 XXXZ=           -149.6392 YYYX=            -62.8478 YYYZ=             -5.5504 ZZZX=            -93.0621
 ZZZY=            -17.8332 XXYY=           -436.5955 XXZZ=           -427.5094 YYZZ=           -182.3379
 XXYZ=            -24.7814 YYXZ=            -33.9119 ZZXY=            -45.9244
 N-N= 6.771785137922D+02 E-N=-2.436986805988D+03  KE= 4.643287582752D+02
                          Isotropic Fermi Contact Couplings
        Atom                 a.u.       MegaHertz       Gauss      10(-4) cm-1
     1  C(13)             -0.00000      -0.00004      -0.00001      -0.00001
     2  C(13)              0.00000       0.00007       0.00003       0.00002
     3  H(1)               0.00000       0.00002       0.00001       0.00001
     4  H(1)              -0.00000      -0.00004      -0.00002      -0.00001
     5  C(13)             -0.00000      -0.00002      -0.00001      -0.00001
     6  C(13)              0.00000       0.00004       0.00001       0.00001
     7  H(1)              -0.00000      -0.00004      -0.00002      -0.00001
     8  H(1)              -0.00000      -0.00003      -0.00001      -0.00001
     9  C(13)              0.00000       0.00013       0.00005       0.00004
    10  H(1)              -0.00000      -0.00003      -0.00001      -0.00001
    11  H(1)              -0.00000      -0.00008      -0.00003      -0.00003
    12  C(13)              0.00000       0.00003       0.00001       0.00001
    13  H(1)               0.00000       0.00003       0.00001       0.00001
    14  C(13)             -0.00000      -0.00007      -0.00002      -0.00002
    15  H(1)               0.00000       0.00005       0.00002       0.00002
    16  C(13)             -0.00000      -0.00006      -0.00002      -0.00002
    17  H(1)              -0.00000      -0.00003      -0.00001      -0.00001
    18  H(1)              -0.00000      -0.00001      -0.00000      -0.00000
    19  C(13)             -0.00000      -0.00009      -0.00003      -0.00003
    20  H(1)               0.00000       0.00010       0.00004       0.00003
    21  C(13)              0.00000       0.00009       0.00003       0.00003
    22  H(1)              -0.00000      -0.00009      -0.00003      -0.00003
    23  C(13)             -0.00000      -0.00018      -0.00006      -0.00006
    24  H(1)               0.00000       0.00011       0.00004       0.00004
    25  H(1)               0.00000       0.00012       0.00004       0.00004
    26  C(13)              0.00000       0.00010       0.00004       0.00003
    27  H(1)              -0.00000      -0.00003      -0.00001      -0.00001
    28  H(1)              -0.00000      -0.00006      -0.00002      -0.00002
 --------------------------------------------------------
       Center         ----  Spin Dipole Couplings  ----
                      3XX-RR        3YY-RR        3ZZ-RR
 --------------------------------------------------------
     1   Atom        0.000000      0.000000     -0.000001
     2   Atom       -0.000000     -0.000000      0.000000
     3   Atom       -0.000000      0.000000      0.000000
     4   Atom        0.000000     -0.000000      0.000000
     5   Atom        0.000000      0.000000     -0.000001
     6   Atom       -0.000000     -0.000001      0.000001
     7   Atom       -0.000000      0.000000     -0.000000
     8   Atom        0.000000     -0.000000      0.000000
     9   Atom        0.000000     -0.000000      0.000000
    10   Atom       -0.000000     -0.000000      0.000000
    11   Atom       -0.000000      0.000000     -0.000000
    12   Atom       -0.000000     -0.000000      0.000001
    13   Atom       -0.000000      0.000000      0.000000
    14   Atom       -0.000000      0.000001     -0.000001
    15   Atom       -0.000000      0.000000     -0.000000
    16   Atom       -0.000000      0.000000     -0.000000
    17   Atom        0.000000      0.000000     -0.000000
    18   Atom        0.000000     -0.000000      0.000000
    19   Atom       -0.000000      0.000000     -0.000000
    20   Atom        0.000000     -0.000000      0.000000
    21   Atom        0.000000     -0.000000      0.000000
    22   Atom       -0.000000      0.000000     -0.000000
    23   Atom       -0.000000      0.000000     -0.000000
    24   Atom       -0.000000     -0.000000      0.000000
    25   Atom        0.000000      0.000000     -0.000000
    26   Atom        0.000000     -0.000000      0.000000
    27   Atom        0.000000     -0.000000     -0.000000
    28   Atom       -0.000000     -0.000000      0.000000
 --------------------------------------------------------
                        XY            XZ            YZ
 --------------------------------------------------------
     1   Atom       -0.000000     -0.000000     -0.000000
     2   Atom        0.000000      0.000000      0.000000
     3   Atom       -0.000000      0.000000     -0.000000
     4   Atom        0.000000     -0.000000     -0.000000
     5   Atom       -0.000000     -0.000000     -0.000000
     6   Atom        0.000000      0.000001      0.000000
     7   Atom        0.000000     -0.000000     -0.000000
     8   Atom        0.000000     -0.000000      0.000000
     9   Atom        0.000000      0.000000      0.000000
    10   Atom       -0.000000      0.000000     -0.000000
    11   Atom        0.000000      0.000000      0.000000
    12   Atom        0.000000      0.000000      0.000000
    13   Atom        0.000000      0.000000     -0.000000
    14   Atom        0.000000     -0.000001      0.000000
    15   Atom       -0.000000      0.000000      0.000000
    16   Atom        0.000000      0.000000      0.000000
    17   Atom       -0.000000     -0.000000     -0.000000
    18   Atom        0.000000     -0.000000      0.000000
    19   Atom       -0.000000     -0.000000     -0.000000
    20   Atom        0.000000      0.000000     -0.000000
    21   Atom        0.000000      0.000000     -0.000000
    22   Atom        0.000000      0.000000     -0.000000
    23   Atom       -0.000000      0.000000     -0.000000
    24   Atom       -0.000000     -0.000000     -0.000000
    25   Atom       -0.000000     -0.000000      0.000000
    26   Atom       -0.000000     -0.000000     -0.000000
    27   Atom       -0.000000      0.000000     -0.000000
    28   Atom       -0.000000      0.000000      0.000000
 --------------------------------------------------------


 ---------------------------------------------------------------------------------
              Anisotropic Spin Dipole Couplings in Principal Axis System
 ---------------------------------------------------------------------------------

       Atom             a.u.   MegaHertz   Gauss  10(-4) cm-1        Axes

              Baa    -0.0000    -0.000    -0.000    -0.000  0.2508  0.0698  0.9655
     1 C(13)  Bbb     0.0000     0.000     0.000     0.000  0.4077  0.8970 -0.1708
              Bcc     0.0000     0.000     0.000     0.000  0.8780 -0.4365 -0.1965
 
              Baa    -0.0000    -0.000    -0.000    -0.000  0.7464  0.5720 -0.3401
     2 C(13)  Bbb    -0.0000    -0.000    -0.000    -0.000 -0.6047  0.7964  0.0124
              Bcc     0.0000     0.000     0.000     0.000  0.2779  0.1964  0.9403
 
              Baa    -0.0000    -0.000    -0.000    -0.000  0.9904  0.1372 -0.0135
     3 H(1)   Bbb     0.0000     0.000     0.000     0.000  0.0048  0.0640  0.9979
              Bcc     0.0000     0.000     0.000     0.000 -0.1378  0.9885 -0.0628
 
              Baa    -0.0000    -0.000    -0.000    -0.000 -0.1357  0.9902 -0.0341
     4 H(1)   Bbb    -0.0000    -0.000    -0.000    -0.000  0.2642  0.0693  0.9620
              Bcc     0.0000     0.000     0.000     0.000  0.9549  0.1216 -0.2711
 
              Baa    -0.0000    -0.000    -0.000    -0.000  0.3264  0.1131  0.9384
     5 C(13)  Bbb     0.0000     0.000     0.000     0.000  0.9270  0.1557 -0.3412
              Bcc     0.0000     0.000     0.000     0.000 -0.1847  0.9813 -0.0540
 
              Baa    -0.0000    -0.000    -0.000    -0.000 -0.4690  0.8772  0.1024
     6 C(13)  Bbb    -0.0000    -0.000    -0.000    -0.000  0.7035  0.4411 -0.5572
              Bcc     0.0000     0.000     0.000     0.000  0.5340  0.1893  0.8240
 
              Baa    -0.0000    -0.000    -0.000    -0.000  0.6686 -0.2208  0.7101
     7 H(1)   Bbb    -0.0000    -0.000    -0.000    -0.000 -0.4304  0.6637  0.6117
              Bcc     0.0000     0.000     0.000     0.000  0.6064  0.7146 -0.3487
 
              Baa    -0.0000    -0.000    -0.000    -0.000 -0.1058  0.9824 -0.1537
     8 H(1)   Bbb    -0.0000    -0.000    -0.000    -0.000  0.6984  0.1835  0.6918
              Bcc     0.0000     0.000     0.000     0.000  0.7078 -0.0341 -0.7055
 
              Baa    -0.0000    -0.000    -0.000    -0.000 -0.3738  0.9255 -0.0613
     9 C(13)  Bbb     0.0000     0.000     0.000     0.000 -0.3206 -0.0669  0.9449
              Bcc     0.0000     0.000     0.000     0.000  0.8704  0.3728  0.3217
 
              Baa    -0.0000    -0.000    -0.000    -0.000  0.7613  0.5568 -0.3322
    10 H(1)   Bbb    -0.0000    -0.000    -0.000    -0.000 -0.3993  0.8063  0.4364
              Bcc     0.0000     0.000     0.000     0.000  0.5109 -0.1995  0.8362
 
              Baa    -0.0000    -0.000    -0.000    -0.000 -0.0020 -0.1601  0.9871
    11 H(1)   Bbb    -0.0000    -0.000    -0.000    -0.000  0.8868 -0.4564 -0.0722
              Bcc     0.0000     0.000     0.000     0.000  0.4621  0.8753  0.1429
 
              Baa    -0.0000    -0.000    -0.000    -0.000 -0.2389  0.9699  0.0482
    12 C(13)  Bbb    -0.0000    -0.000    -0.000    -0.000  0.9146  0.2414 -0.3243
              Bcc     0.0000     0.000     0.000     0.000  0.3261  0.0334  0.9447
 
              Baa    -0.0000    -0.000    -0.000    -0.000  0.7877 -0.5410 -0.2946
    13 H(1)   Bbb     0.0000     0.000     0.000     0.000 -0.0046 -0.4834  0.8754
              Bcc     0.0000     0.000     0.000     0.000  0.6160  0.6882  0.3833
 
              Baa    -0.0000    -0.000    -0.000    -0.000  0.5936 -0.0831  0.8004
    14 C(13)  Bbb     0.0000     0.000     0.000     0.000  0.7453  0.4320 -0.5079
              Bcc     0.0000     0.000     0.000     0.000 -0.3036  0.8980  0.3184
 
              Baa    -0.0000    -0.000    -0.000    -0.000 -0.6613 -0.1499  0.7350
    15 H(1)   Bbb     0.0000     0.000     0.000     0.000  0.7456 -0.0236  0.6660
              Bcc     0.0000     0.000     0.000     0.000 -0.0825  0.9884  0.1274
 
              Baa    -0.0000    -0.000    -0.000    -0.000  0.7371  0.0224 -0.6755
    16 C(13)  Bbb     0.0000     0.000     0.000     0.000  0.6732 -0.1117  0.7309
              Bcc     0.0000     0.000     0.000     0.000  0.0591  0.9935  0.0974
 
              Baa    -0.0000    -0.000    -0.000    -0.000  0.5275  0.5549  0.6433
    17 H(1)   Bbb     0.0000     0.000     0.000     0.000 -0.2366 -0.6313  0.7386
              Bcc     0.0000     0.000     0.000     0.000  0.8159 -0.5418 -0.2017
 
              Baa    -0.0000    -0.000    -0.000    -0.000 -0.4352  0.8374 -0.3306
    18 H(1)   Bbb     0.0000     0.000     0.000     0.000  0.8565  0.4983  0.1345
              Bcc     0.0000     0.000     0.000     0.000 -0.2774  0.2246  0.9341
 
              Baa    -0.0000    -0.000    -0.000    -0.000  0.6351  0.2291  0.7377
    19 C(13)  Bbb     0.0000     0.000     0.000     0.000 -0.4909  0.8570  0.1565
              Bcc     0.0000     0.000     0.000     0.000 -0.5964 -0.4615  0.6568
 
              Baa    -0.0000    -0.000    -0.000    -0.000 -0.5531  0.8052  0.2138
    20 H(1)   Bbb     0.0000     0.000     0.000     0.000  0.5274  0.1398  0.8380
              Bcc     0.0000     0.000     0.000     0.000  0.6449  0.5763 -0.5020
 
              Baa    -0.0000    -0.000    -0.000    -0.000  0.6530 -0.3917 -0.6482
    21 C(13)  Bbb    -0.0000    -0.000    -0.000    -0.000  0.3466  0.9155 -0.2040
              Bcc     0.0000     0.000     0.000     0.000  0.6734 -0.0915  0.7336
 
              Baa    -0.0000    -0.000    -0.000    -0.000  0.6938 -0.4543 -0.5588
    22 H(1)   Bbb    -0.0000    -0.000    -0.000    -0.000  0.6283  0.0026  0.7779
              Bcc     0.0000     0.000     0.000     0.000  0.3520  0.8908 -0.2873
 
              Baa    -0.0000    -0.000    -0.000    -0.000  0.8780  0.3959 -0.2690
    23 C(13)  Bbb    -0.0000    -0.000    -0.000    -0.000  0.1859  0.2357  0.9539
              Bcc     0.0000     0.000     0.000     0.000 -0.4410  0.8875 -0.1334
 
              Baa    -0.0000    -0.000    -0.000    -0.000  0.6440  0.7507  0.1472
    24 H(1)   Bbb     0.0000     0.000     0.000     0.000 -0.2898  0.0613  0.9551
              Bcc     0.0000     0.000     0.000     0.000  0.7080 -0.6578  0.2570
 
              Baa    -0.0000    -0.000    -0.000    -0.000  0.3844 -0.0975  0.9180
    25 H(1)   Bbb     0.0000     0.000     0.000     0.000  0.7906  0.5481 -0.2729
              Bcc     0.0000     0.000     0.000     0.000 -0.4765  0.8307  0.2878
 
              Baa    -0.0000    -0.000    -0.000    -0.000  0.1450  0.9805  0.1325
    26 C(13)  Bbb    -0.0000    -0.000    -0.000    -0.000  0.6629 -0.1957  0.7227
              Bcc     0.0000     0.000     0.000     0.000  0.7345 -0.0170 -0.6783
 
              Baa    -0.0000    -0.000    -0.000    -0.000  0.5656  0.8057  0.1759
    27 H(1)   Bbb    -0.0000    -0.000    -0.000    -0.000 -0.3177  0.0160  0.9481
              Bcc     0.0000     0.000     0.000     0.000  0.7610 -0.5921  0.2650
 
              Baa    -0.0000    -0.000    -0.000    -0.000  0.3498  0.8670 -0.3550
    28 H(1)   Bbb    -0.0000    -0.000    -0.000    -0.000  0.8706 -0.4408 -0.2186
              Bcc     0.0000     0.000     0.000     0.000  0.3460  0.2326  0.9090
 

 ---------------------------------------------------------------------------------

 No NMR shielding tensors so no spin-rotation constants.
 Leave Link  601 at Tue Aug  4 03:19:08 2020, MaxMem=  6442450944 cpu:               7.9 elap:               0.4
 (Enter /scratch/scicomp/CentOS/7.3.1611/Haswell/software/Gaussian/g16/l9999.exe)
 1\1\GINC-ATLAS-205\SP\UwB97XD\def2TZVP\C12H16\BOCHEN\04-Aug-2020\0\\#p
  uwb97xd guess=mix def2tzvp # scrf=(iefpcm,solvent=Cyclohexane,read) n
 osym 6d 10f\\endo-2 xp-pcm for eta=3\\0,1\C,0,-3.127753,-0.441522,0.26
 1122\C,0,-0.719921,-0.248221,-1.219838\H,0,-4.073595,-0.535125,0.78213
 2\H,0,0.234126,-0.164733,-1.725204\C,0,1.160074,1.424218,0.7826\C,0,0.
 719921,0.248221,1.219838\H,0,0.566933,2.320735,0.917353\H,0,-0.234126,
 0.164733,1.725204\C,0,1.554591,-0.994289,1.10423\H,0,2.077836,-1.12631
 4,2.059864\H,0,0.911886,-1.867512,0.990956\C,0,2.453641,1.529303,0.107
 811\H,0,2.853781,2.515042,-0.09747\C,0,3.127753,0.441522,-0.261122\H,0
 ,4.073595,0.535125,-0.782132\C,0,2.577324,-0.940508,-0.036133\H,0,2.12
 1249,-1.285571,-0.97224\H,0,3.390356,-1.639895,0.168128\C,0,-1.160074,
 -1.424218,-0.7826\H,0,-0.566933,-2.320735,-0.917353\C,0,-2.453641,-1.5
 29303,-0.107811\H,0,-2.853781,-2.515042,0.09747\C,0,-1.554591,0.994289
 ,-1.10423\H,0,-0.911886,1.867512,-0.990956\H,0,-2.077836,1.126314,-2.0
 59864\C,0,-2.577324,0.940508,0.036133\H,0,-3.390356,1.639895,-0.168129
 \H,0,-2.121249,1.285571,0.97224\\Version=ES64L-G16RevB.01\HF=-466.8086
 397\S2=0.\S2-1=0.\S2A=0.\RMSD=2.959e-09\Dipole=0.0003992,-0.0014716,-0
 .0011029\Quadrupole=0.7669555,2.316212,-3.0831675,-2.5096714,-2.745259
 7,-1.2861728\PG=CI [X(C12H16)]\\@


 The best way to pay for a lovely moment is to enjoy it.
 -- Richard Bach
 Job cpu time:       0 days  2 hours 13 minutes  9.8 seconds.
 Elapsed time:       0 days  0 hours  5 minutes 36.1 seconds.
 File lengths (MBytes):  RWF=    636 Int=      0 D2E=      0 Chk=     24 Scr=      1
 Normal termination of Gaussian 16 at Tue Aug  4 03:19:08 2020.
