 Entering Gaussian System, Link 0=g16
 Input=meso-TS_7_1_xp-Ger.com
 Output=meso-TS_7_1_xp-Ger.log
 Initial command:
 /scratch/scicomp/CentOS/7.3.1611/Haswell/software/Gaussian/g16/l1.exe "/scratch/bochen/cyclohexadiene-dimerization/wb97xd-def2tzvp/xp-pcm/meso/Gau-442109.inp" -scrdir="/scratch/bochen/cyclohexadiene-dimerization/wb97xd-def2tzvp/xp-pcm/meso/"
 Entering Link 1 = /scratch/scicomp/CentOS/7.3.1611/Haswell/software/Gaussian/g16/l1.exe PID=    442113.
  
 Copyright (c) 1988-2017, Gaussian, Inc.  All Rights Reserved.
  
 This is part of the Gaussian(R) 16 program.  It is based on
 the Gaussian(R) 09 system (copyright 2009, Gaussian, Inc.),
 the Gaussian(R) 03 system (copyright 2003, Gaussian, Inc.),
 the Gaussian(R) 98 system (copyright 1998, Gaussian, Inc.),
 the Gaussian(R) 94 system (copyright 1995, Gaussian, Inc.),
 the Gaussian 92(TM) system (copyright 1992, Gaussian, Inc.),
 the Gaussian 90(TM) system (copyright 1990, Gaussian, Inc.),
 the Gaussian 88(TM) system (copyright 1988, Gaussian, Inc.),
 the Gaussian 86(TM) system (copyright 1986, Carnegie Mellon
 University), and the Gaussian 82(TM) system (copyright 1983,
 Carnegie Mellon University). Gaussian is a federally registered
 trademark of Gaussian, Inc.
  
 This software contains proprietary and confidential information,
 including trade secrets, belonging to Gaussian, Inc.
  
 This software is provided under written license and may be
 used, copied, transmitted, or stored only in accord with that
 written license.
  
 The following legend is applicable only to US Government
 contracts under FAR:
  
                    RESTRICTED RIGHTS LEGEND
  
 Use, reproduction and disclosure by the US Government is
 subject to restrictions as set forth in subparagraphs (a)
 and (c) of the Commercial Computer Software - Restricted
 Rights clause in FAR 52.227-19.
  
 Gaussian, Inc.
 340 Quinnipiac St., Bldg. 40, Wallingford CT 06492
  
  
 ---------------------------------------------------------------
 Warning -- This program may not be used in any manner that
 competes with the business of Gaussian, Inc. or will provide
 assistance to any competitor of Gaussian, Inc.  The licensee
 of this program is prohibited from giving any competitor of
 Gaussian, Inc. access to this program.  By using this program,
 the user acknowledges that Gaussian, Inc. is engaged in the
 business of creating and licensing software in the field of
 computational chemistry and represents and warrants to the
 licensee that it is not a competitor of Gaussian, Inc. and that
 it will not use this program in any manner prohibited above.
 ---------------------------------------------------------------
  

 Cite this work as:
 Gaussian 16, Revision B.01,
 M. J. Frisch, G. W. Trucks, H. B. Schlegel, G. E. Scuseria, 
 M. A. Robb, J. R. Cheeseman, G. Scalmani, V. Barone, 
 G. A. Petersson, H. Nakatsuji, X. Li, M. Caricato, A. V. Marenich, 
 J. Bloino, B. G. Janesko, R. Gomperts, B. Mennucci, H. P. Hratchian, 
 J. V. Ortiz, A. F. Izmaylov, J. L. Sonnenberg, D. Williams-Young, 
 F. Ding, F. Lipparini, F. Egidi, J. Goings, B. Peng, A. Petrone, 
 T. Henderson, D. Ranasinghe, V. G. Zakrzewski, J. Gao, N. Rega, 
 G. Zheng, W. Liang, M. Hada, M. Ehara, K. Toyota, R. Fukuda, 
 J. Hasegawa, M. Ishida, T. Nakajima, Y. Honda, O. Kitao, H. Nakai, 
 T. Vreven, K. Throssell, J. A. Montgomery, Jr., J. E. Peralta, 
 F. Ogliaro, M. J. Bearpark, J. J. Heyd, E. N. Brothers, K. N. Kudin, 
 V. N. Staroverov, T. A. Keith, R. Kobayashi, J. Normand, 
 K. Raghavachari, A. P. Rendell, J. C. Burant, S. S. Iyengar, 
 J. Tomasi, M. Cossi, J. M. Millam, M. Klene, C. Adamo, R. Cammi, 
 J. W. Ochterski, R. L. Martin, K. Morokuma, O. Farkas, 
 J. B. Foresman, and D. J. Fox, Gaussian, Inc., Wallingford CT, 2016.
 
 ******************************************
 Gaussian 16:  ES64L-G16RevB.01 20-Dec-2017
                 4-Aug-2020 
 ******************************************
 %chk=meso-TS_7_1_xp-12.chk
 %nproc=24
 Will use up to   24 processors via shared memory.
 %mem=48GB
 ----------------------------------------------------------------------
 #p uwb97xd guess=mix def2tzvp # scrf=(iefpcm,solvent=Cyclohexane,read)
  nosym 6d 10f
 ----------------------------------------------------------------------
 1/38=1,40=2,172=1/1;
 2/12=2,15=1,17=6,18=5,40=1/2;
 3/5=44,7=101,8=22,11=2,25=1,30=1,70=2203,72=17,74=-58,116=2/1,2,3;
 4/13=-1/1;
 5/5=2,38=5,53=17/2;
 6/7=2,8=2,9=2,10=2,28=1/1;
 99/5=1,9=1/99;
 Leave Link    1 at Tue Aug  4 16:23:44 2020, MaxMem=  6442450944 cpu:               5.4 elap:               0.2
 (Enter /scratch/scicomp/CentOS/7.3.1611/Haswell/software/Gaussian/g16/l101.exe)
 -----------------------
 endo-2 xp-pcm for eta=3
 -----------------------
 Symbolic Z-matrix:
 Charge =  0 Multiplicity = 1
 6                    -3.11962  -0.42829   0.24798 
 6                    -0.46774  -0.14225  -0.79239 
 1                    -4.08535  -0.54785   0.7239 
 1                     0.33799  -0.11352  -1.52346 
 6                     1.11279   1.42775   0.67574 
 6                     0.46774   0.14225   0.79239 
 1                     0.55623   2.32918   0.89841 
 1                    -0.33799   0.11352   1.52346 
 6                     1.45961  -0.99928   0.98508 
 1                     1.88951  -0.91778   1.98842 
 1                     0.93924  -1.95715   0.9427 
 6                     2.40007   1.52664   0.12169 
 1                     2.82482   2.51148  -0.03722 
 6                     3.11962   0.42829  -0.24798 
 1                     4.08535   0.54785  -0.7239 
 6                     2.59264  -0.95896  -0.0428 
 1                     2.24642  -1.35795  -1.00521 
 1                     3.40158  -1.62393   0.27063 
 6                    -1.11279  -1.42775  -0.67574 
 1                    -0.55623  -2.32918  -0.89841 
 6                    -2.40007  -1.52664  -0.12169 
 1                    -2.82482  -2.51148   0.03722 
 6                    -1.45961   0.99928  -0.98508 
 1                    -0.93924   1.95715  -0.9427 
 1                    -1.88951   0.91778  -1.98842 
 6                    -2.59264   0.95896   0.0428 
 1                    -3.40158   1.62393  -0.27063 
 1                    -2.24642   1.35795   1.00521 
 
 ITRead=  0  0  0  0  0  0  0  0  0  0  0  0  0  0  0  0  0  0  0  0
 ITRead=  0  0  0  0  0  0  0  0
 MicOpt= -1 -1 -1 -1 -1 -1 -1 -1 -1 -1 -1 -1 -1 -1 -1 -1 -1 -1 -1 -1
 MicOpt= -1 -1 -1 -1 -1 -1 -1 -1
 NAtoms=     28 NQM=       28 NQMF=       0 NMMI=      0 NMMIF=      0
                NMic=       0 NMicF=      0.
                    Isotopes and Nuclear Properties:
 (Nuclear quadrupole moments (NQMom) in fm**2, nuclear magnetic moments (NMagM)
  in nuclear magnetons)

  Atom         1           2           3           4           5           6           7           8           9          10
 IAtWgt=          12          12           1           1          12          12           1           1          12           1
 AtmWgt=  12.0000000  12.0000000   1.0078250   1.0078250  12.0000000  12.0000000   1.0078250   1.0078250  12.0000000   1.0078250
 NucSpn=           0           0           1           1           0           0           1           1           0           1
 AtZEff=  -0.0000000  -0.0000000  -0.0000000  -0.0000000  -0.0000000  -0.0000000  -0.0000000  -0.0000000  -0.0000000  -0.0000000
 NQMom=    0.0000000   0.0000000   0.0000000   0.0000000   0.0000000   0.0000000   0.0000000   0.0000000   0.0000000   0.0000000
 NMagM=    0.0000000   0.0000000   2.7928460   2.7928460   0.0000000   0.0000000   2.7928460   2.7928460   0.0000000   2.7928460
 AtZNuc=   6.0000000   6.0000000   1.0000000   1.0000000   6.0000000   6.0000000   1.0000000   1.0000000   6.0000000   1.0000000

  Atom        11          12          13          14          15          16          17          18          19          20
 IAtWgt=           1          12           1          12           1          12           1           1          12           1
 AtmWgt=   1.0078250  12.0000000   1.0078250  12.0000000   1.0078250  12.0000000   1.0078250   1.0078250  12.0000000   1.0078250
 NucSpn=           1           0           1           0           1           0           1           1           0           1
 AtZEff=  -0.0000000  -0.0000000  -0.0000000  -0.0000000  -0.0000000  -0.0000000  -0.0000000  -0.0000000  -0.0000000  -0.0000000
 NQMom=    0.0000000   0.0000000   0.0000000   0.0000000   0.0000000   0.0000000   0.0000000   0.0000000   0.0000000   0.0000000
 NMagM=    2.7928460   0.0000000   2.7928460   0.0000000   2.7928460   0.0000000   2.7928460   2.7928460   0.0000000   2.7928460
 AtZNuc=   1.0000000   6.0000000   1.0000000   6.0000000   1.0000000   6.0000000   1.0000000   1.0000000   6.0000000   1.0000000

  Atom        21          22          23          24          25          26          27          28
 IAtWgt=          12           1          12           1           1          12           1           1
 AtmWgt=  12.0000000   1.0078250  12.0000000   1.0078250   1.0078250  12.0000000   1.0078250   1.0078250
 NucSpn=           0           1           0           1           1           0           1           1
 AtZEff=  -0.0000000  -0.0000000  -0.0000000  -0.0000000  -0.0000000  -0.0000000  -0.0000000  -0.0000000
 NQMom=    0.0000000   0.0000000   0.0000000   0.0000000   0.0000000   0.0000000   0.0000000   0.0000000
 NMagM=    0.0000000   2.7928460   0.0000000   2.7928460   2.7928460   0.0000000   2.7928460   2.7928460
 AtZNuc=   6.0000000   1.0000000   6.0000000   1.0000000   1.0000000   6.0000000   1.0000000   1.0000000
 Leave Link  101 at Tue Aug  4 16:23:45 2020, MaxMem=  6442450944 cpu:               3.1 elap:               0.4
 (Enter /scratch/scicomp/CentOS/7.3.1611/Haswell/software/Gaussian/g16/l202.exe)
                          Input orientation:                          
 ---------------------------------------------------------------------
 Center     Atomic      Atomic             Coordinates (Angstroms)
 Number     Number       Type             X           Y           Z
 ---------------------------------------------------------------------
      1          6           0       -3.119623   -0.428287    0.247977
      2          6           0       -0.467744   -0.142247   -0.792389
      3          1           0       -4.085353   -0.547852    0.723900
      4          1           0        0.337990   -0.113517   -1.523464
      5          6           0        1.112786    1.427748    0.675736
      6          6           0        0.467744    0.142247    0.792389
      7          1           0        0.556231    2.329182    0.898405
      8          1           0       -0.337990    0.113517    1.523464
      9          6           0        1.459612   -0.999280    0.985076
     10          1           0        1.889507   -0.917784    1.988422
     11          1           0        0.939242   -1.957153    0.942698
     12          6           0        2.400074    1.526641    0.121689
     13          1           0        2.824822    2.511480   -0.037221
     14          6           0        3.119623    0.428287   -0.247977
     15          1           0        4.085353    0.547852   -0.723900
     16          6           0        2.592636   -0.958956   -0.042799
     17          1           0        2.246423   -1.357949   -1.005214
     18          1           0        3.401580   -1.623929    0.270629
     19          6           0       -1.112786   -1.427748   -0.675736
     20          1           0       -0.556231   -2.329182   -0.898405
     21          6           0       -2.400074   -1.526641   -0.121689
     22          1           0       -2.824822   -2.511480    0.037221
     23          6           0       -1.459612    0.999279   -0.985076
     24          1           0       -0.939242    1.957153   -0.942698
     25          1           0       -1.889507    0.917784   -1.988422
     26          6           0       -2.592636    0.958956    0.042799
     27          1           0       -3.401580    1.623929   -0.270628
     28          1           0       -2.246422    1.357949    1.005214
 ---------------------------------------------------------------------
                    Distance matrix (angstroms):
                    1          2          3          4          5
     1  C    0.000000
     2  C    2.862978   0.000000
     3  H    1.083251   3.943443   0.000000
     4  H    3.897714   1.088349   4.980487   0.000000
     5  C    4.641242   2.668024   5.561112   2.795047   0.000000
     6  C    3.673023   1.862148   4.605607   2.333544   1.442983
     7  H    4.640969   3.164691   5.463706   3.446717   1.082552
     8  H    3.107716   2.333544   3.888373   3.129259   2.133213
     9  C    4.673194   2.758367   5.569438   2.887107   2.471122
    10  H    5.325424   3.727063   6.118400   3.922677   2.797849
    11  H    4.392545   2.878197   5.223079   3.137268   3.399844
    12  C    5.857025   3.441672   6.835711   3.106258   1.404941
    13  H    6.637770   4.295758   7.595350   3.909458   2.147987
    14  C    6.317268   3.673023   7.335467   3.107716   2.424781
    15  H    7.335467   4.605607   8.370014   3.888373   3.401375
    16  C    5.744220   3.254969   6.734417   2.826759   2.898725
    17  H    5.588310   2.981598   6.613432   2.336517   3.445408
    18  H    6.629944   4.277506   7.577438   3.858199   3.836069
    19  C    2.424781   1.442983   3.401375   2.133213   3.864389
    20  H    3.390954   2.191290   4.273138   2.469717   4.402052
    21  C    1.364106   2.469875   2.124433   3.385098   4.658807
    22  H    2.114478   3.443448   2.432345   4.264897   5.606244
    23  C    2.512768   1.524471   3.494099   2.181639   3.091782
    24  H    3.444139   2.156938   4.353230   2.501257   2.666537
    25  H    2.885580   2.139058   3.785039   2.498302   4.046179
    26  C    1.498084   2.534828   2.227683   3.491697   3.788209
    27  H    2.135425   3.463958   2.484605   4.309606   4.616665
    28  H    2.127564   2.940350   2.663247   3.903666   3.376049
                    6          7          8          9         10
     6  C    0.000000
     7  H    2.191290   0.000000
     8  H    1.088349   2.469717   0.000000
     9  C    1.524472   3.449966   2.181640   0.000000
    10  H    2.139058   3.675398   2.498302   1.094602   0.000000
    11  H    2.156938   4.303641   2.501257   1.090918   1.754090
    12  C    2.469875   2.155717   3.385098   2.830227   3.117785
    13  H    3.443448   2.460718   4.264897   3.903117   4.091197
    14  C    2.862978   3.390954   3.897714   2.512768   2.885580
    15  H    3.943443   4.273138   4.980487   3.494100   3.785039
    16  C    2.534828   3.980535   3.491697   1.530326   2.149871
    17  H    2.940351   4.480564   3.903667   2.170016   3.046800
    18  H    3.463958   4.910927   4.309605   2.161449   2.394957
    19  C    2.668024   4.402052   2.795047   3.091781   4.046179
    20  H    3.164691   5.115316   3.446717   3.062640   4.038248
    21  C    3.441672   4.964645   3.106258   4.049718   4.819106
    22  H    4.295758   5.967006   3.909458   4.641288   5.345274
    23  C    2.758367   3.062640   2.887106   4.049396   4.871696
    24  H    2.878197   2.400938   3.137268   4.267471   4.985835
    25  H    3.727063   4.038248   3.922677   4.871696   5.784941
    26  C    3.254969   3.539060   2.826759   4.598183   5.234234
    27  H    4.277506   4.186680   3.858198   5.664734   6.289612
    28  H    2.981597   2.968091   2.336516   4.392223   4.821988
                   11         12         13         14         15
    11  H    0.000000
    12  C    3.865864   0.000000
    13  H    4.948165   1.084238   0.000000
    14  C    3.444139   1.364106   2.114478   0.000000
    15  H    4.353230   2.124433   2.432345   1.083251   0.000000
    16  C    2.168251   2.498465   3.478199   1.498084   2.227683
    17  H    2.421183   3.100706   4.030389   2.127563   2.663246
    18  H    2.574067   3.309273   4.186768   2.135426   2.484606
    19  C    2.666537   4.658807   5.606244   4.641242   5.561112
    20  H    2.400938   4.964645   5.967006   4.640969   5.463706
    21  C    3.531188   5.694136   6.604021   5.857025   6.835711
    22  H    3.910926   6.604021   7.560036   6.637770   7.595350
    23  C    4.267470   4.049718   4.641288   4.673194   5.569438
    24  H    4.733414   3.531188   3.910926   4.392545   5.223079
    25  H    4.985835   4.819106   5.345274   5.325424   6.118400
    26  C    4.667727   5.025499   5.636097   5.744220   6.734417
    27  H    5.756652   5.815717   6.293672   6.629944   7.577438
    28  H    4.598072   4.732758   5.304227   5.588309   6.613431
                   16         17         18         19         20
    16  C    0.000000
    17  H    1.097862   0.000000
    18  H    1.093077   1.741525   0.000000
    19  C    3.788209   3.376050   4.616665   0.000000
    20  H    3.539060   2.968092   4.186680   1.082552   0.000000
    21  C    5.025499   4.732759   5.815717   1.404941   2.155717
    22  H    5.636097   5.304228   6.293672   2.147987   2.460718
    23  C    4.598183   4.392223   5.664733   2.471121   3.449965
    24  H    4.667727   4.598073   5.756652   3.399844   4.303641
    25  H    5.234234   4.821989   6.289612   2.797849   3.675398
    26  C    5.529264   5.466523   6.530990   2.898725   3.980535
    27  H    6.530990   6.428931   7.558077   3.836069   4.910927
    28  H    5.466522   5.621706   6.428930   3.445407   4.480563
                   21         22         23         24         25
    21  C    0.000000
    22  H    1.084238   0.000000
    23  C    2.830226   3.903116   0.000000
    24  H    3.865864   4.948165   1.090919   0.000000
    25  H    3.117785   4.091197   1.094602   1.754090   0.000000
    26  C    2.498465   3.478199   1.530326   2.168251   2.149871
    27  H    3.309273   4.186768   2.161449   2.574068   2.394958
    28  H    3.100706   4.030389   2.170016   2.421183   3.046800
                   26         27         28
    26  C    0.000000
    27  H    1.093076   0.000000
    28  H    1.097863   1.741525   0.000000
 Symmetry turned off by external request.
 Stoichiometry    C12H16
 Framework group  CI[X(C12H16)]
 Deg. of freedom    39
 Full point group                 CI      NOp   2
 Rotational constants (GHZ):           1.9575662           0.6396404           0.5527243
 Leave Link  202 at Tue Aug  4 16:23:45 2020, MaxMem=  6442450944 cpu:               0.4 elap:               0.1
 (Enter /scratch/scicomp/CentOS/7.3.1611/Haswell/software/Gaussian/g16/l301.exe)
 Standard basis: def2TZVP (6D, 10F)
 Ernie: Thresh=  0.10000D-02 Tol=  0.10000D-05 Strict=F.
   528 basis functions,   740 primitive gaussians,   528 cartesian basis functions
    44 alpha electrons       44 beta electrons
       nuclear repulsion energy       692.2640138581 Hartrees.
 IExCor= 4639 DFT=T Ex+Corr=wB97XD ExCW=0 ScaHFX=  1.000000
 ScaDFX=  1.000000  1.000000  1.000000  1.000000 ScalE2=  1.000000  1.000000
 IRadAn=      5 IRanWt=     -1 IRanGd=            0 ICorTp=0 IEmpDi=121
 HFx  wShort=  0.000000 wLong=  0.200000 cFull=  0.222036 cShort=  0.000000 cLong=  0.777964
 DFx  wShort=  0.000000 wLong=  0.200000 cFull=  0.000000 cShort=  0.000000 cLong=  1.000000
 NAtoms=   28 NActive=   28 NUniq=   28 SFac= 1.00D+00 NAtFMM=   60 NAOKFM=F Big=F
 Integral buffers will be    131072 words long.
 Raffenetti 2 integral format.
 Two-electron integral symmetry is turned off.
 R6Disp:  Grimme-D2 Dispersion energy=       -0.0228803717 Hartrees.
 Nuclear repulsion after empirical dispersion term =      692.2411334865 Hartrees.
 Using the following non-standard input for PCM:
 qrep pcmdoc geomview  nodis nocav g03defaults tsare=0.075
 Warning! Using old PCM defaults because the g03defaults keyword was found.
 These settings can be overridden by following keywords.
 nsfe=28
 NVESolv=36  SolvMW=84.1595   Rsolv=2.815
 eps=2.0165 RhoS=0.778099999999998
 --- end of non-standard input.
 Reading user-defined spheres from input:
 ISph  on   Nord    Re0     Alpha      Xe            Ye            Ze
 --- end of user-defined spheres data.
 ------------------------------------------------------------------------------
 Polarizable Continuum Model (PCM)
 =================================
 Model                : PCM.
 Atomic radii         : UA0 (Simple United Atom Topological Model).
 Polarization charges : Total charges.
 Charge compensation  : None.
 Solution method      : On-the-fly selection.
 Cavity type          : SES (Solvent Excluding Surface) (Alpha=1.000).
 Cavity algorithm     : GePol (RMin=0.200 OFac=0.890).
                        User-defined sphere list used, NSphG=   28.
                        Tesserae with average area of 0.075 Ang**2.
                        Smoothing algorithm: None.
                        Polarization charges: point-like.
                        Self-potential: constant (ISelfS= 1).
                        Self-field    : global E.n sum rule (ISelfD= 3).
 Solvent              : CycloHexane, Eps=   2.016500 Eps(inf)=   2.035188
                        RSolv=   2.815000 Ang.
 ------------------------------------------------------------------------------
 GePol: Number of generator spheres                  =      28
 GePol: Total number of spheres                      =     162
 GePol: Number of exposed spheres                    =     122 ( 75.31%)
 GePol: Number of tesserae                           =    4569
 GePol: Average area of tesserae                     =       0.05 Ang**2
 GePol: Minimum area of tessera                      =   0.10D-02 Ang**2
 GePol: Maximum area of tessera                      =    0.12591 Ang**2
 GePol: Number of small tesserae                     =       0
 GePol: Fraction of small tesserae (<1% of avg)      =       0.00%
 GePol: Total count of vertices                      =   16133
 GePol: Maximum number of vertices in a tessera      =       6
 GePol: Cavity surface area                          =    219.085 Ang**2
 GePol: Cavity volume                                =    245.788 Ang**3
 Leave Link  301 at Tue Aug  4 16:23:46 2020, MaxMem=  6442450944 cpu:               9.4 elap:               0.4
 (Enter /scratch/scicomp/CentOS/7.3.1611/Haswell/software/Gaussian/g16/l302.exe)
 NPDir=0 NMtPBC=     1 NCelOv=     1 NCel=       1 NClECP=     1 NCelD=      1
         NCelK=      1 NCelE2=     1 NClLst=     1 CellRange=     0.0.
 One-electron integrals computed using PRISM.
   1 Symmetry operations used in ECPInt.
 ECPInt:  NShTT=   19306 NPrTT=   56928 LenC2=   18526 LenP2D=   42282.
 LDataN:  DoStor=T MaxTD1= 6 Len=  172
 NBasis=   528 RedAO= T EigKep=  2.63D-05  NBF=   528
 NBsUse=   528 1.00D-06 EigRej= -1.00D+00 NBFU=   528
 Precomputing XC quadrature grid using
 IXCGrd= 4 IRadAn=           5 IRanWt=          -1 IRanGd=           0 AccXCQ= 0.00D+00.
 Generated NRdTot=       0 NPtTot=           0 NUsed=           0 NTot=          32
 NSgBfM=   526   526   526   526   526 MxSgAt=    28 MxSgA2=    28.
 Leave Link  302 at Tue Aug  4 16:23:47 2020, MaxMem=  6442450944 cpu:              15.2 elap:               0.7
 (Enter /scratch/scicomp/CentOS/7.3.1611/Haswell/software/Gaussian/g16/l303.exe)
 DipDrv:  MaxL=1.
 Leave Link  303 at Tue Aug  4 16:23:47 2020, MaxMem=  6442450944 cpu:               1.7 elap:               0.1
 (Enter /scratch/scicomp/CentOS/7.3.1611/Haswell/software/Gaussian/g16/l401.exe)
 ExpMin= 9.52D-02 ExpMax= 1.36D+04 ExpMxC= 4.63D+02 IAcc=3 IRadAn=         5 AccDes= 0.00D+00
 Harris functional with IExCor= 4639 and IRadAn=       5 diagonalized for initial guess.
 HarFok:  IExCor= 4639 AccDes= 0.00D+00 IRadAn=         5 IDoV= 1 UseB2=F ITyADJ=14
 ICtDFT=  3500011 ScaDFX=  1.000000  1.000000  1.000000  1.000000
 FoFCou: FMM=F IPFlag=           0 FMFlag=      100000 FMFlg1=           0
         NFxFlg=           0 DoJE=T BraDBF=F KetDBF=T FulRan=T
         wScrn=  0.000000 ICntrl=       500 IOpCl=  0 I1Cent=   200000004 NGrid=           0
         NMat0=    1 NMatS0=      1 NMatT0=    0 NMatD0=    1 NMtDS0=    0 NMtDT0=    0
 Symmetry not used in FoFCou.
 Harris En= -444.614388225524    
 JPrj=0 DoOrth=F DoCkMO=T.
 Mixing orbitals, IMix= 1 IMixAn=  0 NRI=1 NE=   44 Coef=  7.07106781D-01  7.07106781D-01
 Mixing orbitals, IMix= 1 IMixAn=  0 NRI=1 NE=   44 Coef= -7.07106781D-01  7.07106781D-01
 Initial guess <Sx>= 0.0000 <Sy>= 0.0000 <Sz>= 0.0000 <S**2>= 1.0000 S= 0.6180
 Leave Link  401 at Tue Aug  4 16:23:49 2020, MaxMem=  6442450944 cpu:              49.9 elap:               2.2
 (Enter /scratch/scicomp/CentOS/7.3.1611/Haswell/software/Gaussian/g16/l502.exe)
 Two-electron integral symmetry not used.
 UHF open shell SCF:
 Using DIIS extrapolation, IDIIS=  1040.
 NGot=  6442450944 LenX=  6441877030 LenY=  6441597718
 Requested convergence on RMS density matrix=1.00D-08 within 128 cycles.
 Requested convergence on MAX density matrix=1.00D-06.
 Requested convergence on             energy=1.00D-06.
 No special actions if energy rises.
 Fock matrices will be formed incrementally for  20 cycles.

 Cycle   1  Pass 1  IDiag  1:
 FoFJK:  IHMeth= 1 ICntrl=       0 DoSepK=T KAlg= 0 I1Cent=           0 FoldK=F
 IRaf=         1 NMat=       1 IRICut=       1 DoRegI=T DoRafI=F ISym2E= 0 IDoP0=0 IntGTp=1.
 FoFCou: FMM=F IPFlag=           0 FMFlag=      100000 FMFlg1=           0
         NFxFlg=           0 DoJE=T BraDBF=F KetDBF=F FulRan=T
         wScrn=  0.000000 ICntrl=       500 IOpCl=  0 I1Cent=           0 NGrid=           0
         NMat0=    1 NMatS0=      1 NMatT0=    0 NMatD0=    1 NMtDS0=    0 NMtDT0=    0
 Symmetry not used in FoFCou.
 Inv3:  Mode=1 IEnd=    62627283.
 Iteration    1 A*A^-1 deviation from unit magnitude is 3.33D-15 for    741.
 Iteration    1 A*A^-1 deviation from orthogonality  is 2.60D-15 for   3763   2605.
 Iteration    1 A^-1*A deviation from unit magnitude is 3.77D-15 for    370.
 Iteration    1 A^-1*A deviation from orthogonality  is 2.41D-15 for   1926   1736.
 E= -466.660585517587    
 DIIS: error= 4.85D-02 at cycle   1 NSaved=   1.
 NSaved= 1 IEnMin= 1 EnMin= -466.660585517587     IErMin= 1 ErrMin= 4.85D-02
 ErrMax= 4.85D-02  0.00D+00 EMaxC= 1.00D-01 BMatC= 4.11D+00 BMatP= 4.11D+00
 IDIUse=3 WtCom= 5.15D-01 WtEn= 4.85D-01
 Coeff-Com:  0.100D+01
 Coeff-En:   0.100D+01
 Coeff:      0.100D+01
 Gap=     0.222 Goal=   None    Shift=    0.000
 Gap=     0.222 Goal=   None    Shift=    0.000
 GapD=    0.222 DampG=1.000 DampE=0.500 DampFc=0.5000 IDamp=-1.
 Damping current iteration by 5.00D-01
 RMSDP=1.45D-03 MaxDP=9.25D-02              OVMax= 1.02D-01

 Cycle   2  Pass 1  IDiag  1:
 RMSU=  7.07D-04    CP:  9.76D-01
 E= -466.733390977804     Delta-E=       -0.072805460218 Rises=F Damp=T
 DIIS: error= 2.29D-02 at cycle   2 NSaved=   2.
 NSaved= 2 IEnMin= 2 EnMin= -466.733390977804     IErMin= 2 ErrMin= 2.29D-02
 ErrMax= 2.29D-02  0.00D+00 EMaxC= 1.00D-01 BMatC= 9.21D-01 BMatP= 4.11D+00
 IDIUse=3 WtCom= 7.71D-01 WtEn= 2.29D-01
 Coeff-Com: -0.863D+00 0.186D+01
 Coeff-En:   0.000D+00 0.100D+01
 Coeff:     -0.666D+00 0.167D+01
 Gap=     0.235 Goal=   None    Shift=    0.000
 Gap=     0.235 Goal=   None    Shift=    0.000
 RMSDP=9.00D-04 MaxDP=4.87D-02 DE=-7.28D-02 OVMax= 4.34D-02

 Cycle   3  Pass 1  IDiag  1:
 RMSU=  4.32D-04    CP:  9.46D-01  2.09D+00
 E= -466.805857597053     Delta-E=       -0.072466619249 Rises=F Damp=F
 DIIS: error= 2.60D-03 at cycle   3 NSaved=   3.
 NSaved= 3 IEnMin= 3 EnMin= -466.805857597053     IErMin= 3 ErrMin= 2.60D-03
 ErrMax= 2.60D-03  0.00D+00 EMaxC= 1.00D-01 BMatC= 1.93D-02 BMatP= 9.21D-01
 IDIUse=3 WtCom= 9.74D-01 WtEn= 2.60D-02
 Coeff-Com: -0.323D+00 0.696D+00 0.627D+00
 Coeff-En:   0.000D+00 0.000D+00 0.100D+01
 Coeff:     -0.315D+00 0.678D+00 0.637D+00
 Gap=     0.239 Goal=   None    Shift=    0.000
 Gap=     0.239 Goal=   None    Shift=    0.000
 RMSDP=1.18D-04 MaxDP=5.05D-03 DE=-7.25D-02 OVMax= 1.68D-02

 Cycle   4  Pass 1  IDiag  1:
 RMSU=  9.83D-05    CP:  9.44D-01  2.16D+00  9.10D-01
 E= -466.810963837729     Delta-E=       -0.005106240676 Rises=F Damp=F
 DIIS: error= 1.24D-03 at cycle   4 NSaved=   4.
 NSaved= 4 IEnMin= 4 EnMin= -466.810963837729     IErMin= 4 ErrMin= 1.24D-03
 ErrMax= 1.24D-03  0.00D+00 EMaxC= 1.00D-01 BMatC= 5.53D-04 BMatP= 1.93D-02
 IDIUse=3 WtCom= 9.88D-01 WtEn= 1.24D-02
 Coeff-Com:  0.120D+00-0.257D+00-0.133D+00 0.127D+01
 Coeff-En:   0.000D+00 0.000D+00 0.000D+00 0.100D+01
 Coeff:      0.118D+00-0.254D+00-0.132D+00 0.127D+01
 Gap=     0.243 Goal=   None    Shift=    0.000
 Gap=     0.243 Goal=   None    Shift=    0.000
 RMSDP=9.24D-05 MaxDP=4.72D-03 DE=-5.11D-03 OVMax= 1.99D-02

 Cycle   5  Pass 1  IDiag  1:
 RMSU=  3.85D-05    CP:  9.42D-01  2.20D+00  1.04D+00  1.52D+00
 E= -466.811713149228     Delta-E=       -0.000749311499 Rises=F Damp=F
 DIIS: error= 4.15D-04 at cycle   5 NSaved=   5.
 NSaved= 5 IEnMin= 5 EnMin= -466.811713149228     IErMin= 5 ErrMin= 4.15D-04
 ErrMax= 4.15D-04  0.00D+00 EMaxC= 1.00D-01 BMatC= 1.11D-04 BMatP= 5.53D-04
 IDIUse=3 WtCom= 9.96D-01 WtEn= 4.15D-03
 Coeff-Com:  0.321D-01-0.695D-01-0.624D-01-0.861D-02 0.111D+01
 Coeff-En:   0.000D+00 0.000D+00 0.000D+00 0.000D+00 0.100D+01
 Coeff:      0.319D-01-0.692D-01-0.622D-01-0.857D-02 0.111D+01
 Gap=     0.245 Goal=   None    Shift=    0.000
 Gap=     0.245 Goal=   None    Shift=    0.000
 RMSDP=3.64D-05 MaxDP=2.46D-03 DE=-7.49D-04 OVMax= 8.20D-03

 Cycle   6  Pass 1  IDiag  1:
 RMSU=  1.36D-05    CP:  9.41D-01  2.20D+00  1.08D+00  1.73D+00  1.59D+00
 E= -466.811861885262     Delta-E=       -0.000148736034 Rises=F Damp=F
 DIIS: error= 1.73D-04 at cycle   6 NSaved=   6.
 NSaved= 6 IEnMin= 6 EnMin= -466.811861885262     IErMin= 6 ErrMin= 1.73D-04
 ErrMax= 1.73D-04  0.00D+00 EMaxC= 1.00D-01 BMatC= 3.96D-05 BMatP= 1.11D-04
 IDIUse=3 WtCom= 9.98D-01 WtEn= 1.73D-03
 Coeff-Com: -0.240D-01 0.515D-01 0.172D-01-0.379D+00 0.404D+00 0.931D+00
 Coeff-En:   0.000D+00 0.000D+00 0.000D+00 0.000D+00 0.000D+00 0.100D+01
 Coeff:     -0.239D-01 0.514D-01 0.171D-01-0.379D+00 0.403D+00 0.931D+00
 Gap=     0.245 Goal=   None    Shift=    0.000
 Gap=     0.245 Goal=   None    Shift=    0.000
 RMSDP=1.94D-05 MaxDP=1.22D-03 DE=-1.49D-04 OVMax= 4.68D-03

 Cycle   7  Pass 1  IDiag  1:
 RMSU=  7.36D-06    CP:  9.41D-01  2.20D+00  1.08D+00  1.82D+00  1.96D+00
                    CP:  1.43D+00
 E= -466.811901746508     Delta-E=       -0.000039861246 Rises=F Damp=F
 DIIS: error= 6.62D-05 at cycle   7 NSaved=   7.
 NSaved= 7 IEnMin= 7 EnMin= -466.811901746508     IErMin= 7 ErrMin= 6.62D-05
 ErrMax= 6.62D-05  0.00D+00 EMaxC= 1.00D-01 BMatC= 4.01D-06 BMatP= 3.96D-05
 IDIUse=1 WtCom= 1.00D+00 WtEn= 0.00D+00
 Coeff-Com: -0.862D-02 0.186D-01 0.117D-01-0.556D-01-0.958D-01 0.128D+00
 Coeff-Com:  0.100D+01
 Coeff:     -0.862D-02 0.186D-01 0.117D-01-0.556D-01-0.958D-01 0.128D+00
 Coeff:      0.100D+01
 Gap=     0.245 Goal=   None    Shift=    0.000
 Gap=     0.245 Goal=   None    Shift=    0.000
 RMSDP=7.35D-06 MaxDP=4.67D-04 DE=-3.99D-05 OVMax= 1.76D-03

 Cycle   8  Pass 1  IDiag  1:
 RMSU=  2.92D-06    CP:  9.41D-01  2.20D+00  1.08D+00  1.83D+00  2.07D+00
                    CP:  1.71D+00  1.36D+00
 E= -466.811906753326     Delta-E=       -0.000005006818 Rises=F Damp=F
 DIIS: error= 3.52D-05 at cycle   8 NSaved=   8.
 NSaved= 8 IEnMin= 8 EnMin= -466.811906753326     IErMin= 8 ErrMin= 3.52D-05
 ErrMax= 3.52D-05  0.00D+00 EMaxC= 1.00D-01 BMatC= 9.54D-07 BMatP= 4.01D-06
 IDIUse=1 WtCom= 1.00D+00 WtEn= 0.00D+00
 Coeff-Com:  0.211D-02-0.455D-02-0.916D-04 0.543D-01-0.940D-01-0.142D+00
 Coeff-Com:  0.250D+00 0.935D+00
 Coeff:      0.211D-02-0.455D-02-0.916D-04 0.543D-01-0.940D-01-0.142D+00
 Coeff:      0.250D+00 0.935D+00
 Gap=     0.246 Goal=   None    Shift=    0.000
 Gap=     0.245 Goal=   None    Shift=    0.000
 RMSDP=3.13D-06 MaxDP=1.92D-04 DE=-5.01D-06 OVMax= 7.26D-04

 Cycle   9  Pass 1  IDiag  1:
 RMSU=  1.30D-06    CP:  9.41D-01  2.20D+00  1.07D+00  1.83D+00  2.09D+00
                    CP:  1.81D+00  1.62D+00  1.39D+00
 E= -466.811907797192     Delta-E=       -0.000001043866 Rises=F Damp=F
 DIIS: error= 1.46D-05 at cycle   9 NSaved=   9.
 NSaved= 9 IEnMin= 9 EnMin= -466.811907797192     IErMin= 9 ErrMin= 1.46D-05
 ErrMax= 1.46D-05  0.00D+00 EMaxC= 1.00D-01 BMatC= 2.22D-07 BMatP= 9.54D-07
 IDIUse=1 WtCom= 1.00D+00 WtEn= 0.00D+00
 Coeff-Com:  0.239D-02-0.516D-02-0.250D-02 0.262D-01-0.443D-02-0.664D-01
 Coeff-Com: -0.132D+00 0.256D+00 0.926D+00
 Coeff:      0.239D-02-0.516D-02-0.250D-02 0.262D-01-0.443D-02-0.664D-01
 Coeff:     -0.132D+00 0.256D+00 0.926D+00
 Gap=     0.246 Goal=   None    Shift=    0.000
 Gap=     0.246 Goal=   None    Shift=    0.000
 RMSDP=1.38D-06 MaxDP=7.78D-05 DE=-1.04D-06 OVMax= 3.60D-04

 Cycle  10  Pass 1  IDiag  1:
 RMSU=  4.94D-07    CP:  9.41D-01  2.20D+00  1.07D+00  1.83D+00  2.09D+00
                    CP:  1.84D+00  1.72D+00  1.68D+00  1.33D+00
 E= -466.811908046192     Delta-E=       -0.000000249000 Rises=F Damp=F
 DIIS: error= 7.77D-06 at cycle  10 NSaved=  10.
 NSaved=10 IEnMin=10 EnMin= -466.811908046192     IErMin=10 ErrMin= 7.77D-06
 ErrMax= 7.77D-06  0.00D+00 EMaxC= 1.00D-01 BMatC= 4.57D-08 BMatP= 2.22D-07
 IDIUse=1 WtCom= 1.00D+00 WtEn= 0.00D+00
 Coeff-Com: -0.851D-03 0.184D-02 0.372D-03-0.170D-01 0.256D-01 0.432D-01
 Coeff-Com: -0.459D-01-0.274D+00-0.111D+00 0.138D+01
 Coeff:     -0.851D-03 0.184D-02 0.372D-03-0.170D-01 0.256D-01 0.432D-01
 Coeff:     -0.459D-01-0.274D+00-0.111D+00 0.138D+01
 Gap=     0.246 Goal=   None    Shift=    0.000
 Gap=     0.246 Goal=   None    Shift=    0.000
 RMSDP=9.30D-07 MaxDP=5.02D-05 DE=-2.49D-07 OVMax= 2.32D-04

 Cycle  11  Pass 1  IDiag  1:
 RMSU=  3.35D-07    CP:  9.41D-01  2.20D+00  1.07D+00  1.83D+00  2.10D+00
                    CP:  1.84D+00  1.77D+00  1.83D+00  1.71D+00  1.76D+00
 E= -466.811908132478     Delta-E=       -0.000000086286 Rises=F Damp=F
 DIIS: error= 5.09D-06 at cycle  11 NSaved=  11.
 NSaved=11 IEnMin=11 EnMin= -466.811908132478     IErMin=11 ErrMin= 5.09D-06
 ErrMax= 5.09D-06  0.00D+00 EMaxC= 1.00D-01 BMatC= 1.11D-08 BMatP= 4.57D-08
 IDIUse=1 WtCom= 1.00D+00 WtEn= 0.00D+00
 Coeff-Com: -0.627D-03 0.136D-02 0.497D-03-0.920D-02 0.898D-02 0.236D-01
 Coeff-Com:  0.579D-02-0.127D+00-0.178D+00 0.433D+00 0.842D+00
 Coeff:     -0.627D-03 0.136D-02 0.497D-03-0.920D-02 0.898D-02 0.236D-01
 Coeff:      0.579D-02-0.127D+00-0.178D+00 0.433D+00 0.842D+00
 Gap=     0.246 Goal=   None    Shift=    0.000
 Gap=     0.246 Goal=   None    Shift=    0.000
 RMSDP=2.88D-07 MaxDP=1.17D-05 DE=-8.63D-08 OVMax= 8.58D-05

 Cycle  12  Pass 1  IDiag  1:
 RMSU=  1.19D-07    CP:  9.41D-01  2.20D+00  1.07D+00  1.83D+00  2.10D+00
                    CP:  1.84D+00  1.77D+00  1.85D+00  1.77D+00  2.07D+00
                    CP:  1.41D+00
 E= -466.811908147177     Delta-E=       -0.000000014699 Rises=F Damp=F
 DIIS: error= 3.80D-06 at cycle  12 NSaved=  12.
 NSaved=12 IEnMin=12 EnMin= -466.811908147177     IErMin=12 ErrMin= 3.80D-06
 ErrMax= 3.80D-06  0.00D+00 EMaxC= 1.00D-01 BMatC= 2.84D-09 BMatP= 1.11D-08
 IDIUse=1 WtCom= 1.00D+00 WtEn= 0.00D+00
 Coeff-Com:  0.218D-03-0.472D-03-0.687D-04 0.469D-02-0.676D-02-0.116D-01
 Coeff-Com:  0.123D-01 0.718D-01 0.231D-01-0.390D+00 0.983D-01 0.120D+01
 Coeff:      0.218D-03-0.472D-03-0.687D-04 0.469D-02-0.676D-02-0.116D-01
 Coeff:      0.123D-01 0.718D-01 0.231D-01-0.390D+00 0.983D-01 0.120D+01
 Gap=     0.246 Goal=   None    Shift=    0.000
 Gap=     0.246 Goal=   None    Shift=    0.000
 RMSDP=2.64D-07 MaxDP=1.12D-05 DE=-1.47D-08 OVMax= 8.59D-05

 Cycle  13  Pass 1  IDiag  1:
 RMSU=  8.34D-08    CP:  9.41D-01  2.20D+00  1.07D+00  1.83D+00  2.10D+00
                    CP:  1.84D+00  1.78D+00  1.84D+00  1.79D+00  2.26D+00
                    CP:  1.90D+00  1.61D+00
 E= -466.811908153648     Delta-E=       -0.000000006471 Rises=F Damp=F
 DIIS: error= 1.81D-06 at cycle  13 NSaved=  13.
 NSaved=13 IEnMin=13 EnMin= -466.811908153648     IErMin=13 ErrMin= 1.81D-06
 ErrMax= 1.81D-06  0.00D+00 EMaxC= 1.00D-01 BMatC= 6.21D-10 BMatP= 2.84D-09
 IDIUse=1 WtCom= 1.00D+00 WtEn= 0.00D+00
 Coeff-Com:  0.159D-03-0.343D-03-0.103D-03 0.262D-02-0.272D-02-0.658D-02
 Coeff-Com:  0.539D-03 0.353D-01 0.387D-01-0.150D+00-0.138D+00 0.198D+00
 Coeff-Com:  0.102D+01
 Coeff:      0.159D-03-0.343D-03-0.103D-03 0.262D-02-0.272D-02-0.658D-02
 Coeff:      0.539D-03 0.353D-01 0.387D-01-0.150D+00-0.138D+00 0.198D+00
 Coeff:      0.102D+01
 Gap=     0.246 Goal=   None    Shift=    0.000
 Gap=     0.246 Goal=   None    Shift=    0.000
 RMSDP=1.19D-07 MaxDP=6.09D-06 DE=-6.47D-09 OVMax= 4.10D-05

 Cycle  14  Pass 1  IDiag  1:
 RMSU=  3.63D-08    CP:  9.41D-01  2.20D+00  1.07D+00  1.83D+00  2.10D+00
                    CP:  1.84D+00  1.78D+00  1.84D+00  1.79D+00  2.33D+00
                    CP:  2.07D+00  2.01D+00  1.48D+00
 E= -466.811908155106     Delta-E=       -0.000000001458 Rises=F Damp=F
 DIIS: error= 8.44D-07 at cycle  14 NSaved=  14.
 NSaved=14 IEnMin=14 EnMin= -466.811908155106     IErMin=14 ErrMin= 8.44D-07
 ErrMax= 8.44D-07  0.00D+00 EMaxC= 1.00D-01 BMatC= 2.05D-10 BMatP= 6.21D-10
 IDIUse=1 WtCom= 1.00D+00 WtEn= 0.00D+00
 Coeff-Com: -0.468D-04 0.102D-03 0.101D-04-0.109D-02 0.193D-02 0.261D-02
 Coeff-Com: -0.499D-02-0.187D-01 0.397D-03 0.104D+00-0.570D-01-0.373D+00
 Coeff-Com:  0.212D+00 0.113D+01
 Coeff:     -0.468D-04 0.102D-03 0.101D-04-0.109D-02 0.193D-02 0.261D-02
 Coeff:     -0.499D-02-0.187D-01 0.397D-03 0.104D+00-0.570D-01-0.373D+00
 Coeff:      0.212D+00 0.113D+01
 Gap=     0.246 Goal=   None    Shift=    0.000
 Gap=     0.245 Goal=   None    Shift=    0.000
 RMSDP=7.77D-08 MaxDP=3.42D-06 DE=-1.46D-09 OVMax= 2.86D-05

 Cycle  15  Pass 1  IDiag  1:
 RMSU=  1.82D-08    CP:  9.41D-01  2.20D+00  1.07D+00  1.83D+00  2.10D+00
                    CP:  1.84D+00  1.78D+00  1.84D+00  1.80D+00  2.36D+00
                    CP:  2.15D+00  2.23D+00  1.98D+00  1.55D+00
 E= -466.811908155595     Delta-E=       -0.000000000489 Rises=F Damp=F
 DIIS: error= 2.65D-07 at cycle  15 NSaved=  15.
 NSaved=15 IEnMin=15 EnMin= -466.811908155595     IErMin=15 ErrMin= 2.65D-07
 ErrMax= 2.65D-07  0.00D+00 EMaxC= 1.00D-01 BMatC= 3.47D-11 BMatP= 2.05D-10
 IDIUse=1 WtCom= 1.00D+00 WtEn= 0.00D+00
 Coeff-Com: -0.445D-04 0.962D-04 0.206D-04-0.838D-03 0.113D-02 0.208D-02
 Coeff-Com: -0.161D-02-0.128D-01-0.886D-02 0.609D-01 0.188D-01-0.140D+00
 Coeff-Com: -0.201D+00 0.262D+00 0.102D+01
 Coeff:     -0.445D-04 0.962D-04 0.206D-04-0.838D-03 0.113D-02 0.208D-02
 Coeff:     -0.161D-02-0.128D-01-0.886D-02 0.609D-01 0.188D-01-0.140D+00
 Coeff:     -0.201D+00 0.262D+00 0.102D+01
 Gap=     0.246 Goal=   None    Shift=    0.000
 Gap=     0.245 Goal=   None    Shift=    0.000
 RMSDP=3.32D-08 MaxDP=1.54D-06 DE=-4.89D-10 OVMax= 1.22D-05

 Cycle  16  Pass 1  IDiag  1:
 RMSU=  7.24D-09    CP:  9.41D-01  2.20D+00  1.07D+00  1.83D+00  2.10D+00
                    CP:  1.84D+00  1.78D+00  1.84D+00  1.80D+00  2.38D+00
                    CP:  2.18D+00  2.32D+00  2.16D+00  1.90D+00  1.44D+00
 E= -466.811908155654     Delta-E=       -0.000000000059 Rises=F Damp=F
 DIIS: error= 4.60D-08 at cycle  16 NSaved=  16.
 NSaved=16 IEnMin=16 EnMin= -466.811908155654     IErMin=16 ErrMin= 4.60D-08
 ErrMax= 4.60D-08  0.00D+00 EMaxC= 1.00D-01 BMatC= 3.11D-12 BMatP= 3.47D-11
 IDIUse=1 WtCom= 1.00D+00 WtEn= 0.00D+00
 Coeff-Com:  0.224D-05-0.501D-05-0.386D-06 0.676D-04-0.124D-03-0.170D-03
 Coeff-Com:  0.460D-03 0.130D-02-0.979D-03-0.807D-02 0.105D-01 0.382D-01
 Coeff-Com: -0.495D-01-0.133D+00 0.121D+00 0.102D+01
 Coeff:      0.224D-05-0.501D-05-0.386D-06 0.676D-04-0.124D-03-0.170D-03
 Coeff:      0.460D-03 0.130D-02-0.979D-03-0.807D-02 0.105D-01 0.382D-01
 Coeff:     -0.495D-01-0.133D+00 0.121D+00 0.102D+01
 Gap=     0.246 Goal=   None    Shift=    0.000
 Gap=     0.245 Goal=   None    Shift=    0.000
 RMSDP=7.28D-09 MaxDP=2.76D-07 DE=-5.92D-11 OVMax= 2.23D-06

 Error on total polarization charges =  0.01110
 SCF Done:  E(UwB97XD) =  -466.811908156     A.U. after   16 cycles
            NFock= 16  Conv=0.73D-08     -V/T= 2.0061
 <Sx>= 0.0000 <Sy>= 0.0000 <Sz>= 0.0000 <S**2>= 0.9505 S= 0.5957
 <L.S>=  0.00000000000    
 KE= 4.639953453243D+02 PE=-2.466159505490D+03 EE= 8.431111185235D+02
 --------------------------------------------------------------------
 Variational PCM results
 =======================
 <psi(f)|   H    |psi(f)>                     (a.u.) =    -466.819741
 <psi(f)|H+V(f)/2|psi(f)>                     (a.u.) =    -466.821012
 Total free energy in solution:
 - with all non electrostatic terms           (a.u.) =    -466.811908
 --------------------------------------------------------------------
 (Polarized solute)-Solvent               (kcal/mol) =      -0.80
 --------------------------------------------------------------------
 Quantum repulsion energy                 (kcal/mol) =       5.71
 Total non electrostatic                  (kcal/mol) =       5.71
 --------------------------------------------------------------------
 Partition over spheres:
 Sphere  on Atom  Surface  Charge   GEl     GCav    GDR
    1               7.39   0.011   -0.04    0.00    0.00
    2               0.59   0.000   -0.00    0.00    0.00
    3               7.51  -0.010   -0.04    0.00    0.00
    4               3.54  -0.004   -0.01    0.00    0.00
    5               4.76   0.008   -0.04    0.00    0.00
    6               0.41   0.000   -0.00    0.00    0.00
    7               4.94  -0.007   -0.03    0.00    0.00
    8               3.32  -0.004   -0.01    0.00    0.00
    9               3.06   0.002   -0.00    0.00    0.00
   10               7.16  -0.006   -0.01    0.00    0.00
   11               3.74  -0.003   -0.01    0.00    0.00
   12               6.85   0.011   -0.06    0.00    0.00
   13               7.51  -0.010   -0.03    0.00    0.00
   14               7.30   0.011   -0.04    0.00    0.00
   15               7.51  -0.010   -0.04    0.00    0.00
   16               3.70   0.002    0.00    0.00    0.00
   17               4.74  -0.005   -0.02    0.00    0.00
   18               7.42  -0.008   -0.03    0.00    0.00
   19               4.98   0.009   -0.04    0.00    0.00
   20               5.39  -0.007   -0.03    0.00    0.00
   21               6.65   0.011   -0.06    0.00    0.00
   22               7.50  -0.010   -0.03    0.00    0.00
   23               3.01   0.002   -0.00    0.00    0.00
   24               3.29  -0.002   -0.01    0.00    0.00
   25               7.16  -0.006   -0.01    0.00    0.00
   26               3.22   0.001    0.00    0.00    0.00
   27               7.42  -0.008   -0.03    0.00    0.00
   28               4.16  -0.004   -0.02    0.00    0.00
 Added spheres:    74.86   0.025   -0.18    0.00    0.00
 --------------------------------------------------------------------
 After PCM corrections, the energy is  -466.811908156     a.u.
 --------------------------------------------------------------------
 Annihilation of the first spin contaminant:
 S**2 before annihilation     0.9505,   after     0.4406
 Leave Link  502 at Tue Aug  4 16:29:04 2020, MaxMem=  6442450944 cpu:            7479.1 elap:             314.7
 (Enter /scratch/scicomp/CentOS/7.3.1611/Haswell/software/Gaussian/g16/l601.exe)
 Copying SCF densities to generalized density rwf, IOpCl= 1 IROHF=0.

 **********************************************************************

            Population analysis using the SCF Density.

 **********************************************************************

 Alpha  occ. eigenvalues --  -10.29784 -10.29517 -10.28517 -10.28278 -10.28247
 Alpha  occ. eigenvalues --  -10.28234 -10.27976 -10.27897 -10.27823 -10.27798
 Alpha  occ. eigenvalues --  -10.27669 -10.27545  -0.94766  -0.92787  -0.84962
 Alpha  occ. eigenvalues --   -0.84330  -0.83454  -0.81718  -0.70960  -0.69990
 Alpha  occ. eigenvalues --   -0.69419  -0.67624  -0.59803  -0.59119  -0.58225
 Alpha  occ. eigenvalues --   -0.56186  -0.53270  -0.52766  -0.50581  -0.49470
 Alpha  occ. eigenvalues --   -0.48875  -0.47981  -0.47664  -0.47246  -0.46371
 Alpha  occ. eigenvalues --   -0.44562  -0.41338  -0.40746  -0.39714  -0.39483
 Alpha  occ. eigenvalues --   -0.38541  -0.37025  -0.32921  -0.24491
 Alpha virt. eigenvalues --    0.00059   0.09844   0.11394   0.13500   0.14124
 Alpha virt. eigenvalues --    0.14624   0.15545   0.16458   0.17010   0.17320
 Alpha virt. eigenvalues --    0.17661   0.18109   0.19327   0.20770   0.21395
 Alpha virt. eigenvalues --    0.21693   0.22324   0.23374   0.24079   0.24310
 Alpha virt. eigenvalues --    0.25520   0.25932   0.27067   0.27206   0.27792
 Alpha virt. eigenvalues --    0.29209   0.29427   0.30303   0.31190   0.31355
 Alpha virt. eigenvalues --    0.31975   0.32412   0.32635   0.33156   0.34554
 Alpha virt. eigenvalues --    0.34685   0.36129   0.36711   0.37247   0.37830
 Alpha virt. eigenvalues --    0.38307   0.39222   0.41582   0.41913   0.42651
 Alpha virt. eigenvalues --    0.43934   0.44549   0.45617   0.46198   0.46251
 Alpha virt. eigenvalues --    0.47100   0.47329   0.49047   0.49232   0.49294
 Alpha virt. eigenvalues --    0.49344   0.49806   0.49958   0.50815   0.51009
 Alpha virt. eigenvalues --    0.51172   0.51801   0.51998   0.52911   0.53541
 Alpha virt. eigenvalues --    0.53702   0.54785   0.54899   0.55602   0.56646
 Alpha virt. eigenvalues --    0.56962   0.57091   0.58382   0.58900   0.59056
 Alpha virt. eigenvalues --    0.59336   0.61158   0.61552   0.63896   0.65833
 Alpha virt. eigenvalues --    0.66749   0.68061   0.68341   0.69327   0.69384
 Alpha virt. eigenvalues --    0.71088   0.71878   0.74244   0.75894   0.76033
 Alpha virt. eigenvalues --    0.79025   0.79327   0.79530   0.81889   0.82510
 Alpha virt. eigenvalues --    0.83275   0.84635   0.86489   0.87931   0.88255
 Alpha virt. eigenvalues --    0.89359   0.89750   0.93234   0.94374   0.95072
 Alpha virt. eigenvalues --    0.96929   0.97037   0.98279   0.99145   1.00068
 Alpha virt. eigenvalues --    1.01989   1.02121   1.04392   1.04938   1.06005
 Alpha virt. eigenvalues --    1.07477   1.08513   1.09148   1.09923   1.10492
 Alpha virt. eigenvalues --    1.12394   1.14360   1.15917   1.17027   1.17725
 Alpha virt. eigenvalues --    1.18697   1.19442   1.19873   1.19960   1.20406
 Alpha virt. eigenvalues --    1.21532   1.23117   1.24850   1.25970   1.26352
 Alpha virt. eigenvalues --    1.27305   1.28206   1.28764   1.29016   1.29612
 Alpha virt. eigenvalues --    1.30501   1.30919   1.33391   1.34408   1.34705
 Alpha virt. eigenvalues --    1.35468   1.36104   1.36332   1.38430   1.39212
 Alpha virt. eigenvalues --    1.39387   1.39609   1.40373   1.41569   1.42452
 Alpha virt. eigenvalues --    1.43263   1.43388   1.44509   1.45025   1.46144
 Alpha virt. eigenvalues --    1.46481   1.47407   1.47667   1.49487   1.50180
 Alpha virt. eigenvalues --    1.50919   1.53902   1.54737   1.57219   1.57866
 Alpha virt. eigenvalues --    1.59878   1.60144   1.60319   1.62990   1.63738
 Alpha virt. eigenvalues --    1.64100   1.66497   1.67485   1.69027   1.69165
 Alpha virt. eigenvalues --    1.73221   1.74172   1.77074   1.77483   1.78436
 Alpha virt. eigenvalues --    1.80032   1.81155   1.81856   1.85462   1.86371
 Alpha virt. eigenvalues --    1.87840   1.89449   1.91534   1.92434   1.94314
 Alpha virt. eigenvalues --    1.97707   1.97982   2.01381   2.04706   2.04816
 Alpha virt. eigenvalues --    2.07129   2.07388   2.08725   2.10628   2.11280
 Alpha virt. eigenvalues --    2.12901   2.14468   2.16604   2.17644   2.18315
 Alpha virt. eigenvalues --    2.18463   2.19050   2.20232   2.21676   2.24146
 Alpha virt. eigenvalues --    2.25278   2.25984   2.28780   2.30458   2.32118
 Alpha virt. eigenvalues --    2.34662   2.37116   2.37345   2.39769   2.43819
 Alpha virt. eigenvalues --    2.45841   2.47102   2.47198   2.48241   2.49962
 Alpha virt. eigenvalues --    2.51005   2.55106   2.55187   2.56984   2.57743
 Alpha virt. eigenvalues --    2.58103   2.59582   2.60909   2.62491   2.63717
 Alpha virt. eigenvalues --    2.64033   2.64256   2.68146   2.68381   2.68796
 Alpha virt. eigenvalues --    2.68922   2.70949   2.72217   2.73103   2.74032
 Alpha virt. eigenvalues --    2.74102   2.75393   2.76374   2.77958   2.78673
 Alpha virt. eigenvalues --    2.79795   2.81184   2.81911   2.82468   2.82789
 Alpha virt. eigenvalues --    2.83103   2.84857   2.85679   2.86052   2.86711
 Alpha virt. eigenvalues --    2.87737   2.89002   2.89205   2.89689   2.90839
 Alpha virt. eigenvalues --    2.93090   2.94332   2.94594   2.95408   2.96085
 Alpha virt. eigenvalues --    2.96554   2.99446   3.00589   3.02081   3.02873
 Alpha virt. eigenvalues --    3.04705   3.05691   3.06675   3.06960   3.07187
 Alpha virt. eigenvalues --    3.09431   3.09846   3.10444   3.10967   3.11407
 Alpha virt. eigenvalues --    3.13098   3.13185   3.14473   3.14671   3.15454
 Alpha virt. eigenvalues --    3.15612   3.16235   3.17567   3.19824   3.20406
 Alpha virt. eigenvalues --    3.21120   3.21397   3.21631   3.22574   3.23175
 Alpha virt. eigenvalues --    3.24021   3.24572   3.25927   3.26103   3.26322
 Alpha virt. eigenvalues --    3.26790   3.27165   3.28157   3.29941   3.30761
 Alpha virt. eigenvalues --    3.31569   3.31943   3.32754   3.33216   3.35056
 Alpha virt. eigenvalues --    3.35937   3.36179   3.37273   3.37586   3.37901
 Alpha virt. eigenvalues --    3.39265   3.40110   3.41004   3.41242   3.42095
 Alpha virt. eigenvalues --    3.42967   3.44914   3.45680   3.47014   3.48354
 Alpha virt. eigenvalues --    3.48824   3.49394   3.50182   3.50986   3.51685
 Alpha virt. eigenvalues --    3.52227   3.53275   3.54337   3.56576   3.57448
 Alpha virt. eigenvalues --    3.57498   3.58116   3.58969   3.60521   3.61171
 Alpha virt. eigenvalues --    3.61851   3.62507   3.63137   3.64397   3.66171
 Alpha virt. eigenvalues --    3.67074   3.67994   3.70425   3.70689   3.72883
 Alpha virt. eigenvalues --    3.73308   3.77859   3.78934   3.79154   3.80380
 Alpha virt. eigenvalues --    3.81437   3.82513   3.83093   3.83347   3.85051
 Alpha virt. eigenvalues --    3.85604   3.88177   3.90598   3.91063   3.93629
 Alpha virt. eigenvalues --    3.94112   3.95437   3.96129   3.98691   4.02391
 Alpha virt. eigenvalues --    4.03533   4.05489   4.05810   4.09289   4.10278
 Alpha virt. eigenvalues --    4.11926   4.12446   4.12601   4.14686   4.16568
 Alpha virt. eigenvalues --    4.18322   4.18898   4.21267   4.22319   4.22730
 Alpha virt. eigenvalues --    4.23171   4.25222   4.26466   4.27845   4.28997
 Alpha virt. eigenvalues --    4.31748   4.33117   4.35588   4.36636   4.37200
 Alpha virt. eigenvalues --    4.39471   4.43942   4.45833   4.46645   4.49632
 Alpha virt. eigenvalues --    4.50267   4.52602   4.53214   4.54360   4.55761
 Alpha virt. eigenvalues --    4.56947   4.60177   4.63282   4.63747   4.66851
 Alpha virt. eigenvalues --    4.68045   4.69961   4.73384   4.75398   4.76698
 Alpha virt. eigenvalues --    4.76854   4.80241   4.80963   4.88323   4.91283
 Alpha virt. eigenvalues --    4.91512   4.91949   4.93264   4.95625   4.96324
 Alpha virt. eigenvalues --    4.97074   5.04182   5.05481   5.10205   5.11154
 Alpha virt. eigenvalues --    5.18563   5.21162   5.23255   5.25903   5.26374
 Alpha virt. eigenvalues --    5.31212   5.36350   5.37530   5.38348   5.39028
 Alpha virt. eigenvalues --    5.41154   5.42164   5.52371   5.52437   5.55799
 Alpha virt. eigenvalues --    5.62460   5.72248   5.73178   5.80913   5.85449
 Alpha virt. eigenvalues --    7.94300   7.95113   8.02610   8.04624   8.07402
 Alpha virt. eigenvalues --    8.09992   8.11396   8.15335   8.17359   8.21771
 Alpha virt. eigenvalues --    8.34346   8.38115  34.75701  34.76210  34.81293
 Alpha virt. eigenvalues --   34.82156  34.85265  34.88040  34.98364  34.99675
 Alpha virt. eigenvalues --   35.01569  35.03996  35.18557  35.22840
  Beta  occ. eigenvalues --  -10.29785 -10.29516 -10.28517 -10.28276 -10.28245
  Beta  occ. eigenvalues --  -10.28236 -10.27977 -10.27897 -10.27824 -10.27798
  Beta  occ. eigenvalues --  -10.27669 -10.27547  -0.94766  -0.92787  -0.84962
  Beta  occ. eigenvalues --   -0.84330  -0.83454  -0.81718  -0.70960  -0.69990
  Beta  occ. eigenvalues --   -0.69419  -0.67624  -0.59802  -0.59119  -0.58225
  Beta  occ. eigenvalues --   -0.56186  -0.53270  -0.52765  -0.50581  -0.49470
  Beta  occ. eigenvalues --   -0.48875  -0.47981  -0.47665  -0.47246  -0.46371
  Beta  occ. eigenvalues --   -0.44561  -0.41337  -0.40747  -0.39714  -0.39483
  Beta  occ. eigenvalues --   -0.38541  -0.37025  -0.32921  -0.24491
  Beta virt. eigenvalues --    0.00059   0.09844   0.11395   0.13501   0.14124
  Beta virt. eigenvalues --    0.14624   0.15545   0.16458   0.17010   0.17320
  Beta virt. eigenvalues --    0.17661   0.18109   0.19327   0.20770   0.21394
  Beta virt. eigenvalues --    0.21694   0.22326   0.23374   0.24081   0.24307
  Beta virt. eigenvalues --    0.25520   0.25932   0.27067   0.27206   0.27792
  Beta virt. eigenvalues --    0.29210   0.29426   0.30303   0.31190   0.31353
  Beta virt. eigenvalues --    0.31977   0.32412   0.32635   0.33156   0.34553
  Beta virt. eigenvalues --    0.34685   0.36130   0.36711   0.37246   0.37830
  Beta virt. eigenvalues --    0.38306   0.39222   0.41580   0.41916   0.42651
  Beta virt. eigenvalues --    0.43934   0.44549   0.45617   0.46200   0.46249
  Beta virt. eigenvalues --    0.47099   0.47329   0.49047   0.49233   0.49294
  Beta virt. eigenvalues --    0.49345   0.49805   0.49958   0.50814   0.51008
  Beta virt. eigenvalues --    0.51172   0.51802   0.51997   0.52911   0.53541
  Beta virt. eigenvalues --    0.53702   0.54785   0.54899   0.55602   0.56646
  Beta virt. eigenvalues --    0.56962   0.57091   0.58382   0.58900   0.59055
  Beta virt. eigenvalues --    0.59338   0.61159   0.61551   0.63895   0.65834
  Beta virt. eigenvalues --    0.66749   0.68061   0.68341   0.69327   0.69384
  Beta virt. eigenvalues --    0.71087   0.71878   0.74244   0.75894   0.76034
  Beta virt. eigenvalues --    0.79025   0.79327   0.79530   0.81889   0.82510
  Beta virt. eigenvalues --    0.83275   0.84635   0.86489   0.87931   0.88255
  Beta virt. eigenvalues --    0.89359   0.89751   0.93234   0.94374   0.95072
  Beta virt. eigenvalues --    0.96929   0.97037   0.98279   0.99145   1.00067
  Beta virt. eigenvalues --    1.01988   1.02121   1.04392   1.04938   1.06005
  Beta virt. eigenvalues --    1.07477   1.08513   1.09148   1.09922   1.10493
  Beta virt. eigenvalues --    1.12394   1.14360   1.15918   1.17027   1.17725
  Beta virt. eigenvalues --    1.18697   1.19443   1.19873   1.19960   1.20406
  Beta virt. eigenvalues --    1.21532   1.23117   1.24850   1.25970   1.26352
  Beta virt. eigenvalues --    1.27305   1.28206   1.28765   1.29017   1.29612
  Beta virt. eigenvalues --    1.30501   1.30919   1.33391   1.34408   1.34706
  Beta virt. eigenvalues --    1.35468   1.36105   1.36332   1.38430   1.39213
  Beta virt. eigenvalues --    1.39387   1.39608   1.40373   1.41569   1.42452
  Beta virt. eigenvalues --    1.43263   1.43388   1.44509   1.45025   1.46144
  Beta virt. eigenvalues --    1.46481   1.47407   1.47667   1.49487   1.50180
  Beta virt. eigenvalues --    1.50919   1.53902   1.54737   1.57219   1.57866
  Beta virt. eigenvalues --    1.59878   1.60144   1.60319   1.62990   1.63738
  Beta virt. eigenvalues --    1.64100   1.66497   1.67485   1.69028   1.69164
  Beta virt. eigenvalues --    1.73221   1.74172   1.77074   1.77483   1.78436
  Beta virt. eigenvalues --    1.80032   1.81155   1.81856   1.85462   1.86372
  Beta virt. eigenvalues --    1.87840   1.89449   1.91534   1.92434   1.94314
  Beta virt. eigenvalues --    1.97707   1.97982   2.01381   2.04706   2.04817
  Beta virt. eigenvalues --    2.07129   2.07388   2.08725   2.10628   2.11280
  Beta virt. eigenvalues --    2.12901   2.14468   2.16604   2.17644   2.18315
  Beta virt. eigenvalues --    2.18463   2.19050   2.20232   2.21676   2.24146
  Beta virt. eigenvalues --    2.25279   2.25984   2.28780   2.30458   2.32118
  Beta virt. eigenvalues --    2.34662   2.37116   2.37345   2.39769   2.43819
  Beta virt. eigenvalues --    2.45841   2.47102   2.47198   2.48241   2.49962
  Beta virt. eigenvalues --    2.51005   2.55106   2.55186   2.56984   2.57743
  Beta virt. eigenvalues --    2.58103   2.59582   2.60909   2.62491   2.63717
  Beta virt. eigenvalues --    2.64033   2.64256   2.68145   2.68381   2.68796
  Beta virt. eigenvalues --    2.68923   2.70949   2.72217   2.73103   2.74031
  Beta virt. eigenvalues --    2.74103   2.75393   2.76374   2.77958   2.78673
  Beta virt. eigenvalues --    2.79795   2.81184   2.81911   2.82468   2.82789
  Beta virt. eigenvalues --    2.83103   2.84857   2.85679   2.86052   2.86711
  Beta virt. eigenvalues --    2.87737   2.89002   2.89205   2.89689   2.90839
  Beta virt. eigenvalues --    2.93090   2.94332   2.94594   2.95408   2.96085
  Beta virt. eigenvalues --    2.96554   2.99446   3.00589   3.02081   3.02872
  Beta virt. eigenvalues --    3.04705   3.05692   3.06675   3.06960   3.07187
  Beta virt. eigenvalues --    3.09431   3.09846   3.10444   3.10967   3.11407
  Beta virt. eigenvalues --    3.13098   3.13185   3.14473   3.14671   3.15454
  Beta virt. eigenvalues --    3.15612   3.16235   3.17567   3.19824   3.20406
  Beta virt. eigenvalues --    3.21120   3.21398   3.21631   3.22574   3.23175
  Beta virt. eigenvalues --    3.24021   3.24571   3.25927   3.26102   3.26322
  Beta virt. eigenvalues --    3.26790   3.27166   3.28156   3.29941   3.30761
  Beta virt. eigenvalues --    3.31569   3.31944   3.32754   3.33216   3.35056
  Beta virt. eigenvalues --    3.35937   3.36179   3.37273   3.37585   3.37901
  Beta virt. eigenvalues --    3.39265   3.40110   3.41004   3.41242   3.42095
  Beta virt. eigenvalues --    3.42967   3.44914   3.45680   3.47014   3.48354
  Beta virt. eigenvalues --    3.48824   3.49394   3.50182   3.50986   3.51685
  Beta virt. eigenvalues --    3.52227   3.53275   3.54337   3.56576   3.57448
  Beta virt. eigenvalues --    3.57498   3.58116   3.58969   3.60521   3.61171
  Beta virt. eigenvalues --    3.61851   3.62507   3.63137   3.64397   3.66171
  Beta virt. eigenvalues --    3.67074   3.67994   3.70425   3.70688   3.72883
  Beta virt. eigenvalues --    3.73308   3.77859   3.78934   3.79154   3.80380
  Beta virt. eigenvalues --    3.81437   3.82513   3.83093   3.83347   3.85051
  Beta virt. eigenvalues --    3.85604   3.88177   3.90598   3.91063   3.93629
  Beta virt. eigenvalues --    3.94112   3.95437   3.96129   3.98691   4.02391
  Beta virt. eigenvalues --    4.03533   4.05489   4.05810   4.09289   4.10278
  Beta virt. eigenvalues --    4.11926   4.12446   4.12601   4.14686   4.16568
  Beta virt. eigenvalues --    4.18322   4.18898   4.21267   4.22320   4.22729
  Beta virt. eigenvalues --    4.23171   4.25222   4.26466   4.27845   4.28997
  Beta virt. eigenvalues --    4.31748   4.33117   4.35588   4.36636   4.37200
  Beta virt. eigenvalues --    4.39471   4.43942   4.45833   4.46645   4.49632
  Beta virt. eigenvalues --    4.50267   4.52602   4.53213   4.54360   4.55761
  Beta virt. eigenvalues --    4.56947   4.60177   4.63282   4.63747   4.66851
  Beta virt. eigenvalues --    4.68045   4.69961   4.73384   4.75398   4.76698
  Beta virt. eigenvalues --    4.76854   4.80241   4.80963   4.88323   4.91283
  Beta virt. eigenvalues --    4.91512   4.91949   4.93264   4.95625   4.96325
  Beta virt. eigenvalues --    4.97074   5.04182   5.05481   5.10205   5.11154
  Beta virt. eigenvalues --    5.18563   5.21162   5.23255   5.25903   5.26374
  Beta virt. eigenvalues --    5.31212   5.36350   5.37530   5.38347   5.39028
  Beta virt. eigenvalues --    5.41154   5.42164   5.52371   5.52437   5.55800
  Beta virt. eigenvalues --    5.62459   5.72248   5.73178   5.80913   5.85449
  Beta virt. eigenvalues --    7.94301   7.95113   8.02610   8.04624   8.07402
  Beta virt. eigenvalues --    8.09992   8.11396   8.15335   8.17359   8.21772
  Beta virt. eigenvalues --    8.34346   8.38115  34.75701  34.76210  34.81293
  Beta virt. eigenvalues --   34.82156  34.85264  34.88040  34.98364  34.99675
  Beta virt. eigenvalues --   35.01569  35.03996  35.18557  35.22840
          Condensed to atoms (all electrons):
               1          2          3          4          5          6
     1  C    5.248518   0.014770   0.427139  -0.003051   0.001939  -0.008748
     2  C    0.014770   5.367117  -0.001625   0.433002  -0.110164   0.274225
     3  H    0.427139  -0.001625   0.485942   0.000038  -0.000006   0.000123
     4  H   -0.003051   0.433002   0.000038   0.505564  -0.002813  -0.015794
     5  C    0.001939  -0.110164  -0.000006  -0.002813   5.322654   0.278647
     6  C   -0.008748   0.274225   0.000123  -0.015794   0.278647   5.368399
     7  H    0.000037  -0.001454   0.000003   0.000229   0.436221  -0.033754
     8  H   -0.000547  -0.015902  -0.000092   0.000561  -0.045825   0.433026
     9  C    0.002260  -0.062615  -0.000005  -0.005605  -0.043369   0.226842
    10  H   -0.000018   0.007048  -0.000001  -0.000363  -0.003541  -0.045143
    11  H   -0.000255  -0.008405   0.000004   0.000992   0.011899  -0.056848
    12  C   -0.000239   0.010872  -0.000001   0.003734   0.387587  -0.059038
    13  H   -0.000001  -0.000048   0.000000   0.000005  -0.027180   0.003087
    14  C    0.000086  -0.008733  -0.000000  -0.000549  -0.051002   0.014546
    15  H   -0.000000   0.000123  -0.000000  -0.000092   0.004119  -0.001628
    16  C   -0.000345   0.018696   0.000000  -0.000400   0.000963  -0.074369
    17  H    0.000039   0.002472  -0.000000  -0.003795   0.007422  -0.011619
    18  H    0.000001  -0.000153   0.000000   0.000415  -0.002797   0.012956
    19  C   -0.051110   0.279108   0.004091  -0.046129  -0.001458  -0.110033
    20  H    0.004327  -0.033268  -0.000122  -0.005485  -0.000413  -0.001489
    21  C    0.471045  -0.059302  -0.031534   0.006438   0.000772   0.010974
    22  H   -0.025742   0.003052  -0.004821  -0.000086   0.000046  -0.000047
    23  C   -0.088718   0.227283   0.004781  -0.018896   0.017381  -0.062719
    24  H    0.013509  -0.056890  -0.000039  -0.003400   0.006588  -0.008374
    25  H   -0.000596  -0.045053  -0.000121  -0.004577  -0.000384   0.007039
    26  C    0.268382  -0.074450  -0.026861   0.007929  -0.011669   0.018642
    27  H   -0.033935   0.012939  -0.004252  -0.000121   0.000194  -0.000151
    28  H   -0.038904  -0.011518   0.000376  -0.000139  -0.002140   0.002391
               7          8          9         10         11         12
     1  C    0.000037  -0.000547   0.002260  -0.000018  -0.000255  -0.000239
     2  C   -0.001454  -0.015902  -0.062615   0.007048  -0.008405   0.010872
     3  H    0.000003  -0.000092  -0.000005  -0.000001   0.000004  -0.000001
     4  H    0.000229   0.000561  -0.005605  -0.000363   0.000992   0.003734
     5  C    0.436221  -0.045825  -0.043369  -0.003541   0.011899   0.387587
     6  C   -0.033754   0.433026   0.226842  -0.045143  -0.056848  -0.059038
     7  H    0.475273  -0.005488   0.003284   0.000105  -0.000017  -0.034387
     8  H   -0.005488   0.505373  -0.019031  -0.004572  -0.003397   0.006389
     9  C    0.003284  -0.019031   5.031626   0.411761   0.459304   0.029188
    10  H    0.000105  -0.004572   0.411761   0.552459  -0.016266   0.001662
    11  H   -0.000017  -0.003397   0.459304  -0.016266   0.522874  -0.005607
    12  C   -0.034387   0.006389   0.029188   0.001662  -0.005607   5.024152
    13  H   -0.003903  -0.000086   0.000579  -0.000122   0.000027   0.418546
    14  C    0.004323  -0.003039  -0.088780  -0.000582   0.013515   0.471276
    15  H   -0.000123   0.000038   0.004784  -0.000121  -0.000039  -0.031579
    16  C   -0.001258   0.007926   0.324478  -0.025009  -0.056594  -0.048040
    17  H   -0.000001  -0.000140  -0.027383   0.004834  -0.004751  -0.007995
    18  H    0.000043  -0.000121  -0.042818  -0.006574  -0.002114   0.005390
    19  C   -0.000414  -0.002948   0.017316  -0.000378   0.006573   0.000776
    20  H    0.000002   0.000226   0.002957   0.000304  -0.003180  -0.000051
    21  C   -0.000050   0.003814  -0.003755  -0.000140   0.000007  -0.000001
    22  H   -0.000001   0.000006  -0.000065  -0.000003  -0.000021  -0.000000
    23  C    0.002910  -0.005541   0.007667  -0.000263   0.000209  -0.003741
    24  H   -0.003196   0.000990   0.000209  -0.000025  -0.000006  -0.000004
    25  H    0.000305  -0.000365  -0.000262   0.000015  -0.000025  -0.000136
    26  C   -0.001074  -0.000439  -0.001692   0.000048  -0.000010   0.001430
    27  H   -0.000027   0.000416   0.000020  -0.000001  -0.000003  -0.000015
    28  H    0.002036  -0.003822   0.000744   0.000007   0.000016   0.000099
              13         14         15         16         17         18
     1  C   -0.000001   0.000086  -0.000000  -0.000345   0.000039   0.000001
     2  C   -0.000048  -0.008733   0.000123   0.018696   0.002472  -0.000153
     3  H    0.000000  -0.000000  -0.000000   0.000000  -0.000000   0.000000
     4  H    0.000005  -0.000549  -0.000092  -0.000400  -0.003795   0.000415
     5  C   -0.027180  -0.051002   0.004119   0.000963   0.007422  -0.002797
     6  C    0.003087   0.014546  -0.001628  -0.074369  -0.011619   0.012956
     7  H   -0.003903   0.004323  -0.000123  -0.001258  -0.000001   0.000043
     8  H   -0.000086  -0.003039   0.000038   0.007926  -0.000140  -0.000121
     9  C    0.000579  -0.088780   0.004784   0.324478  -0.027383  -0.042818
    10  H   -0.000122  -0.000582  -0.000121  -0.025009   0.004834  -0.006574
    11  H    0.000027   0.013515  -0.000039  -0.056594  -0.004751  -0.002114
    12  C    0.418546   0.471276  -0.031579  -0.048040  -0.007995   0.005390
    13  H    0.490677  -0.025799  -0.004823   0.003483  -0.000356  -0.000102
    14  C   -0.025799   5.248607   0.427123   0.268307  -0.038708  -0.033973
    15  H   -0.004823   0.427123   0.485926  -0.026863   0.000383  -0.004258
    16  C    0.003483   0.268307  -0.026863   4.983660   0.405488   0.425890
    17  H   -0.000356  -0.038708   0.000383   0.405488   0.573523  -0.022085
    18  H   -0.000102  -0.033973  -0.004258   0.425890  -0.022085   0.539422
    19  C    0.000046   0.001938  -0.000006  -0.011703  -0.002182   0.000193
    20  H   -0.000001   0.000041   0.000003  -0.001101   0.001996  -0.000026
    21  C   -0.000000  -0.000237  -0.000001   0.001422   0.000089  -0.000015
    22  H    0.000000  -0.000000   0.000000   0.000005  -0.000003  -0.000001
    23  C   -0.000066   0.002255  -0.000005  -0.001680   0.000744   0.000020
    24  H   -0.000020  -0.000255   0.000004  -0.000011   0.000016  -0.000003
    25  H   -0.000003  -0.000019  -0.000001   0.000048   0.000007  -0.000001
    26  C    0.000005  -0.000344   0.000000   0.000384  -0.000052  -0.000000
    27  H   -0.000001   0.000001   0.000000  -0.000000   0.000001  -0.000000
    28  H   -0.000003   0.000038  -0.000000  -0.000051  -0.000005   0.000001
              19         20         21         22         23         24
     1  C   -0.051110   0.004327   0.471045  -0.025742  -0.088718   0.013509
     2  C    0.279108  -0.033268  -0.059302   0.003052   0.227283  -0.056890
     3  H    0.004091  -0.000122  -0.031534  -0.004821   0.004781  -0.000039
     4  H   -0.046129  -0.005485   0.006438  -0.000086  -0.018896  -0.003400
     5  C   -0.001458  -0.000413   0.000772   0.000046   0.017381   0.006588
     6  C   -0.110033  -0.001489   0.010974  -0.000047  -0.062719  -0.008374
     7  H   -0.000414   0.000002  -0.000050  -0.000001   0.002910  -0.003196
     8  H   -0.002948   0.000226   0.003814   0.000006  -0.005541   0.000990
     9  C    0.017316   0.002957  -0.003755  -0.000065   0.007667   0.000209
    10  H   -0.000378   0.000304  -0.000140  -0.000003  -0.000263  -0.000025
    11  H    0.006573  -0.003180   0.000007  -0.000021   0.000209  -0.000006
    12  C    0.000776  -0.000051  -0.000001  -0.000000  -0.003741  -0.000004
    13  H    0.000046  -0.000001  -0.000000   0.000000  -0.000066  -0.000020
    14  C    0.001938   0.000041  -0.000237  -0.000000   0.002255  -0.000255
    15  H   -0.000006   0.000003  -0.000001   0.000000  -0.000005   0.000004
    16  C   -0.011703  -0.001101   0.001422   0.000005  -0.001680  -0.000011
    17  H   -0.002182   0.001996   0.000089  -0.000003   0.000744   0.000016
    18  H    0.000193  -0.000026  -0.000015  -0.000001   0.000020  -0.000003
    19  C    5.323156   0.436318   0.387109  -0.027210  -0.043517   0.011900
    20  H    0.436318   0.474656  -0.034818  -0.003890   0.003276  -0.000017
    21  C    0.387109  -0.034818   5.025186   0.418560   0.029107  -0.005606
    22  H   -0.027210  -0.003890   0.418560   0.490623   0.000583   0.000027
    23  C   -0.043517   0.003276   0.029107   0.000583   5.031391   0.459324
    24  H    0.011900  -0.000017  -0.005606   0.000027   0.459324   0.522997
    25  H   -0.003559   0.000106   0.001690  -0.000122   0.411586  -0.016282
    26  C    0.001064  -0.001272  -0.048067   0.003488   0.324463  -0.056597
    27  H   -0.002785   0.000043   0.005344  -0.000102  -0.042799  -0.002115
    28  H    0.007377  -0.000001  -0.007850  -0.000356  -0.027689  -0.004761
              25         26         27         28
     1  C   -0.000596   0.268382  -0.033935  -0.038904
     2  C   -0.045053  -0.074450   0.012939  -0.011518
     3  H   -0.000121  -0.026861  -0.004252   0.000376
     4  H   -0.004577   0.007929  -0.000121  -0.000139
     5  C   -0.000384  -0.011669   0.000194  -0.002140
     6  C    0.007039   0.018642  -0.000151   0.002391
     7  H    0.000305  -0.001074  -0.000027   0.002036
     8  H   -0.000365  -0.000439   0.000416  -0.003822
     9  C   -0.000262  -0.001692   0.000020   0.000744
    10  H    0.000015   0.000048  -0.000001   0.000007
    11  H   -0.000025  -0.000010  -0.000003   0.000016
    12  C   -0.000136   0.001430  -0.000015   0.000099
    13  H   -0.000003   0.000005  -0.000001  -0.000003
    14  C   -0.000019  -0.000344   0.000001   0.000038
    15  H   -0.000001   0.000000   0.000000  -0.000000
    16  C    0.000048   0.000384  -0.000000  -0.000051
    17  H    0.000007  -0.000052   0.000001  -0.000005
    18  H   -0.000001  -0.000000  -0.000000   0.000001
    19  C   -0.003559   0.001064  -0.002785   0.007377
    20  H    0.000106  -0.001272   0.000043  -0.000001
    21  C    0.001690  -0.048067   0.005344  -0.007850
    22  H   -0.000122   0.003488  -0.000102  -0.000356
    23  C    0.411586   0.324463  -0.042799  -0.027689
    24  H   -0.016282  -0.056597  -0.002115  -0.004761
    25  H    0.552521  -0.024953  -0.006571   0.004846
    26  C   -0.024953   4.983538   0.425907   0.405546
    27  H   -0.006571   0.425907   0.539290  -0.022103
    28  H    0.004846   0.405546  -0.022103   0.574288
          Atomic-Atomic Spin Densities.
               1          2          3          4          5          6
     1  C   -0.597132  -0.003605   0.000680  -0.000162   0.000094  -0.005432
     2  C   -0.003605   0.228976  -0.000093  -0.003722  -0.075246   0.000052
     3  H    0.000680  -0.000093   0.021327   0.000000   0.000004   0.000041
     4  H   -0.000162  -0.003722   0.000000  -0.014474   0.004409   0.010844
     5  C    0.000094  -0.075246   0.000004   0.004409   0.759966  -0.043952
     6  C   -0.005432   0.000052   0.000041   0.010844  -0.043952  -0.228881
     7  H    0.000005   0.000582   0.000000  -0.000003  -0.002613   0.000398
     8  H    0.001884  -0.010858   0.000003   0.000001   0.001632   0.003687
     9  C    0.000115  -0.014169  -0.000000  -0.001467   0.001234   0.014884
    10  H   -0.000054   0.000633  -0.000000   0.000044  -0.001265   0.001527
    11  H    0.000258   0.001035  -0.000001  -0.000136   0.000049   0.002619
    12  C    0.000074   0.011578  -0.000000  -0.002282  -0.019235   0.017887
    13  H    0.000000   0.000181  -0.000000  -0.000034  -0.001438   0.000467
    14  C   -0.000000   0.005422  -0.000000  -0.001895  -0.050508   0.003599
    15  H    0.000000  -0.000041  -0.000000  -0.000003  -0.000134   0.000093
    16  C    0.000018  -0.001138   0.000000   0.001112   0.004311  -0.002603
    17  H   -0.000012  -0.003552   0.000000   0.000916   0.005285  -0.004462
    18  H    0.000000   0.000308   0.000000  -0.000058  -0.000580   0.001133
    19  C    0.050538   0.043903   0.000134  -0.001612  -0.000060   0.075149
    20  H    0.000266  -0.000365  -0.000004  -0.000291  -0.000083  -0.000579
    21  C   -0.006473  -0.017838  -0.000125   0.001523   0.001211  -0.011549
    22  H    0.000672  -0.000466  -0.000190   0.000025   0.000012  -0.000181
    23  C   -0.002811  -0.015003   0.000245  -0.004273   0.004359   0.014125
    24  H   -0.000107  -0.002620  -0.000002   0.000326   0.003425  -0.001039
    25  H    0.000699  -0.001523  -0.000002   0.000065  -0.000905  -0.000632
    26  C    0.028114   0.002641  -0.000784  -0.000042   0.000076   0.001158
    27  H    0.006959  -0.001130  -0.000113   0.000050  -0.000003  -0.000309
    28  H    0.017372   0.004463  -0.000035  -0.000217  -0.000084   0.003575
               7          8          9         10         11         12
     1  C    0.000005   0.001884   0.000115  -0.000054   0.000258   0.000074
     2  C    0.000582  -0.010858  -0.014169   0.000633   0.001035   0.011578
     3  H    0.000000   0.000003  -0.000000  -0.000000  -0.000001  -0.000000
     4  H   -0.000003   0.000001  -0.001467   0.000044  -0.000136  -0.002282
     5  C   -0.002613   0.001632   0.001234  -0.001265   0.000049  -0.019235
     6  C    0.000398   0.003687   0.014884   0.001527   0.002619   0.017887
     7  H   -0.024519   0.000289  -0.000334  -0.000014   0.000006   0.001939
     8  H    0.000289   0.014485   0.004285  -0.000066  -0.000324  -0.001525
     9  C   -0.000334   0.004285   0.008955  -0.002446  -0.001172  -0.004837
    10  H   -0.000014  -0.000066  -0.002446  -0.004113   0.001238   0.000804
    11  H    0.000006  -0.000324  -0.001172   0.001238  -0.002042  -0.000091
    12  C    0.001939  -0.001525  -0.004837   0.000804  -0.000091  -0.232396
    13  H    0.000241  -0.000025  -0.000144   0.000020  -0.000002   0.001622
    14  C   -0.000265   0.000164   0.002833  -0.000701   0.000107   0.006468
    15  H    0.000005  -0.000000  -0.000245   0.000002   0.000002   0.000126
    16  C    0.000065   0.000038   0.006057   0.000650  -0.000033   0.004516
    17  H   -0.000018   0.000217  -0.000776   0.000026  -0.000148  -0.001586
    18  H    0.000001  -0.000050   0.001874  -0.000278   0.000127   0.001013
    19  C    0.000079  -0.004399  -0.004277   0.000903  -0.003427  -0.001198
    20  H    0.000000   0.000002   0.000231   0.000009  -0.000170   0.000030
    21  C   -0.000029   0.002286   0.000396  -0.000104   0.000328  -0.000001
    22  H   -0.000000   0.000034   0.000004  -0.000001   0.000015  -0.000000
    23  C   -0.000230   0.001480   0.000007   0.000006  -0.000196  -0.000408
    24  H    0.000170   0.000136   0.000197  -0.000004   0.000000  -0.000326
    25  H   -0.000009  -0.000044  -0.000007   0.000000   0.000004   0.000104
    26  C    0.000119  -0.001116  -0.000093   0.000017  -0.000032  -0.000175
    27  H    0.000004   0.000058   0.000010  -0.000000   0.000002   0.000009
    28  H   -0.000068  -0.000912  -0.000181   0.000017  -0.000038  -0.000131
              13         14         15         16         17         18
     1  C    0.000000  -0.000000   0.000000   0.000018  -0.000012   0.000000
     2  C    0.000181   0.005422  -0.000041  -0.001138  -0.003552   0.000308
     3  H   -0.000000  -0.000000  -0.000000   0.000000   0.000000   0.000000
     4  H   -0.000034  -0.001895  -0.000003   0.001112   0.000916  -0.000058
     5  C   -0.001438  -0.050508  -0.000134   0.004311   0.005285  -0.000580
     6  C    0.000467   0.003599   0.000093  -0.002603  -0.004462   0.001133
     7  H    0.000241  -0.000265   0.000005   0.000065  -0.000018   0.000001
     8  H   -0.000025   0.000164  -0.000000   0.000038   0.000217  -0.000050
     9  C   -0.000144   0.002833  -0.000245   0.006057  -0.000776   0.001874
    10  H    0.000020  -0.000701   0.000002   0.000650   0.000026  -0.000278
    11  H   -0.000002   0.000107   0.000002  -0.000033  -0.000148   0.000127
    12  C    0.001622   0.006468   0.000126   0.004516  -0.001586   0.001013
    13  H    0.008102  -0.000673   0.000190   0.000102  -0.000044   0.000018
    14  C   -0.000673   0.597147  -0.000682  -0.028176  -0.017336  -0.006957
    15  H    0.000190  -0.000682  -0.021326   0.000783   0.000036   0.000112
    16  C    0.000102  -0.028176   0.000783  -0.032222   0.009474   0.004518
    17  H   -0.000044  -0.017336   0.000036   0.009474   0.047187  -0.007464
    18  H    0.000018  -0.006957   0.000112   0.004518  -0.007464   0.018575
    19  C   -0.000012  -0.000087  -0.000004  -0.000099   0.000074   0.000003
    20  H    0.000000  -0.000004  -0.000000  -0.000121   0.000062  -0.000004
    21  C    0.000000  -0.000073   0.000000   0.000175   0.000129  -0.000009
    22  H   -0.000000  -0.000000   0.000000   0.000002   0.000002  -0.000000
    23  C   -0.000004  -0.000120   0.000000   0.000092   0.000183  -0.000010
    24  H   -0.000015  -0.000258   0.000001   0.000032   0.000038  -0.000002
    25  H    0.000001   0.000054   0.000000  -0.000017  -0.000017   0.000000
    26  C   -0.000002  -0.000018  -0.000000  -0.000000   0.000009  -0.000000
    27  H    0.000000  -0.000000  -0.000000   0.000000  -0.000000  -0.000000
    28  H   -0.000002   0.000012  -0.000000  -0.000009   0.000000   0.000000
              19         20         21         22         23         24
     1  C    0.050538   0.000266  -0.006473   0.000672  -0.002811  -0.000107
     2  C    0.043903  -0.000365  -0.017838  -0.000466  -0.015003  -0.002620
     3  H    0.000134  -0.000004  -0.000125  -0.000190   0.000245  -0.000002
     4  H   -0.001612  -0.000291   0.001523   0.000025  -0.004273   0.000326
     5  C   -0.000060  -0.000083   0.001211   0.000012   0.004359   0.003425
     6  C    0.075149  -0.000579  -0.011549  -0.000181   0.014125  -0.001039
     7  H    0.000079   0.000000  -0.000029  -0.000000  -0.000230   0.000170
     8  H   -0.004399   0.000002   0.002286   0.000034   0.001480   0.000136
     9  C   -0.004277   0.000231   0.000396   0.000004   0.000007   0.000197
    10  H    0.000903   0.000009  -0.000104  -0.000001   0.000006  -0.000004
    11  H   -0.003427  -0.000170   0.000328   0.000015  -0.000196   0.000000
    12  C   -0.001198   0.000030  -0.000001  -0.000000  -0.000408  -0.000326
    13  H   -0.000012   0.000000   0.000000  -0.000000  -0.000004  -0.000015
    14  C   -0.000087  -0.000004  -0.000073  -0.000000  -0.000120  -0.000258
    15  H   -0.000004  -0.000000   0.000000   0.000000   0.000000   0.000001
    16  C   -0.000099  -0.000121   0.000175   0.000002   0.000092   0.000032
    17  H    0.000074   0.000062   0.000129   0.000002   0.000183   0.000038
    18  H    0.000003  -0.000004  -0.000009  -0.000000  -0.000010  -0.000002
    19  C   -0.759709   0.002631   0.019087   0.001434  -0.001193  -0.000050
    20  H    0.002631   0.024488  -0.001968  -0.000241   0.000331  -0.000006
    21  C    0.019087  -0.001968   0.232487  -0.001619   0.004809   0.000091
    22  H    0.001434  -0.000241  -0.001619  -0.008102   0.000144   0.000002
    23  C   -0.001193   0.000331   0.004809   0.000144  -0.008915   0.001179
    24  H   -0.000050  -0.000006   0.000091   0.000002   0.001179   0.002041
    25  H    0.001270   0.000014  -0.000804  -0.000020   0.002433  -0.001238
    26  C   -0.004320  -0.000066  -0.004505  -0.000102  -0.006071   0.000030
    27  H    0.000578  -0.000001  -0.001010  -0.000018  -0.001895  -0.000128
    28  H   -0.005296   0.000018   0.001585   0.000044   0.000814   0.000150
              25         26         27         28
     1  C    0.000699   0.028114   0.006959   0.017372
     2  C   -0.001523   0.002641  -0.001130   0.004463
     3  H   -0.000002  -0.000784  -0.000113  -0.000035
     4  H    0.000065  -0.000042   0.000050  -0.000217
     5  C   -0.000905   0.000076  -0.000003  -0.000084
     6  C   -0.000632   0.001158  -0.000309   0.003575
     7  H   -0.000009   0.000119   0.000004  -0.000068
[...]
     2  C   -0.001287   0.003027  -0.001524   0.005793
     3  H   -0.000004  -0.000654  -0.000094  -0.000052
     4  H    0.000117   0.000010   0.000045  -0.000201
     5  C   -0.000815  -0.000639  -0.000013   0.000237
     6  C   -0.000458   0.000419  -0.000195   0.002312
     7  H   -0.000005   0.000170   0.000004  -0.000085
     8  H   -0.000037  -0.000986   0.000039  -0.000577
     9  C   -0.000017  -0.000113   0.000012  -0.000206
    10  H   -0.000000   0.000011  -0.000000   0.000015
    11  H    0.000003  -0.000012   0.000001  -0.000027
    12  C    0.000097  -0.000100   0.000006  -0.000098
    13  H    0.000001  -0.000002   0.000000  -0.000001
    14  C    0.000043  -0.000004  -0.000000   0.000007
    15  H    0.000000  -0.000000   0.000000  -0.000000
    16  C   -0.000011  -0.000001  -0.000000  -0.000001
    17  H   -0.000015   0.000000  -0.000000   0.000000
    18  H    0.000000   0.000000  -0.000000   0.000000
    19  C    0.001162  -0.002576   0.000736  -0.005704
    20  H    0.000004  -0.000106  -0.000003   0.000027
    21  C   -0.000725  -0.004798  -0.001037   0.001821
    22  H   -0.000015  -0.000132  -0.000018   0.000044
    23  C    0.001525  -0.007446  -0.001096  -0.000757
    24  H   -0.001006  -0.000213  -0.000133   0.000205
    25  H    0.003993  -0.000119   0.000242  -0.000045
    26  C   -0.000119   0.034010  -0.005035  -0.007577
    27  H    0.000242  -0.005035  -0.018176   0.007148
    28  H   -0.000045  -0.007577   0.007148  -0.046581
 Mulliken charges and spin densities:
               1          2
     1  C   -0.197175  -0.505752
     2  C   -0.184640   0.147507
     3  H    0.150174   0.020721
     4  H    0.165370  -0.011475
     5  C   -0.183230   0.587953
     6  C   -0.183095  -0.147496
     7  H    0.166416  -0.023752
     8  H    0.164724   0.011469
     9  C   -0.247801   0.010433
    10  H    0.134388  -0.003122
    11  H    0.148823  -0.001634
    12  C   -0.167699  -0.216410
    13  H    0.148845   0.008418
    14  C   -0.196975   0.505659
    15  H    0.150209  -0.020713
    16  C   -0.196286  -0.031572
    17  H    0.126497   0.028343
    18  H    0.135291   0.012272
    19  C   -0.184226  -0.587897
    20  H    0.166952   0.023741
    21  C   -0.166869   0.216406
    22  H    0.148925  -0.008422
    23  C   -0.247305  -0.010371
    24  H    0.149310   0.001614
    25  H    0.134156   0.003119
    26  C   -0.197901   0.031559
    27  H    0.135390  -0.012273
    28  H    0.127732  -0.028325
 Sum of Mulliken charges =  -0.00000  -0.00000
 Mulliken charges and spin densities with hydrogens summed into heavy atoms:
               1          2
     1  C   -0.047001  -0.485031
     2  C   -0.019270   0.136032
     5  C   -0.016813   0.564201
     6  C   -0.018371  -0.136027
     9  C    0.035410   0.005678
    12  C   -0.018854  -0.207992
    14  C   -0.046766   0.484946
    16  C    0.065502   0.009043
    19  C   -0.017275  -0.564156
    21  C   -0.017944   0.207984
    23  C    0.036161  -0.005638
    26  C    0.065221  -0.009039
 Electronic spatial extent (au):  <R**2>=           2184.1936
 Charge=             -0.0000 electrons
 Dipole moment (field-independent basis, Debye):
    X=             -0.0006    Y=             -0.0008    Z=             -0.0019  Tot=              0.0021
 Quadrupole moment (field-independent basis, Debye-Ang):
   XX=            -70.1457   YY=            -69.3579   ZZ=            -74.9330
   XY=             -2.8122   XZ=             -3.1047   YZ=             -0.4737
 Traceless Quadrupole moment (field-independent basis, Debye-Ang):
   XX=              1.3332   YY=              2.1210   ZZ=             -3.4541
   XY=             -2.8122   XZ=             -3.1047   YZ=             -0.4737
 Octapole moment (field-independent basis, Debye-Ang**2):
  XXX=             -0.0044  YYY=             -0.0063  ZZZ=             -0.0163  XYY=              0.0152
  XXY=             -0.0035  XXZ=             -0.0094  XZZ=             -0.0160  YZZ=             -0.0020
  YYZ=              0.0006  XYZ=             -0.0116
 Hexadecapole moment (field-independent basis, Debye-Ang**3):
 XXXX=          -1962.3969 YYYY=           -618.6366 ZZZZ=           -297.4757 XXXY=            -90.3237
 XXXZ=           -115.5662 YYYX=            -57.7402 YYYZ=              0.7422 ZZZX=            -62.7567
 ZZZY=             -7.1543 XXYY=           -428.9544 XXZZ=           -406.1455 YYZZ=           -167.5776
 XXYZ=            -20.5462 YYXZ=            -24.7787 ZZXY=            -40.6334
 N-N= 6.922411334865D+02 E-N=-2.466839421502D+03  KE= 4.641072071691D+02
                          Isotropic Fermi Contact Couplings
        Atom                 a.u.       MegaHertz       Gauss      10(-4) cm-1
     1  C(13)             -0.03896     -21.89799      -7.81375      -7.30438
     2  C(13)              0.07684      43.19372      15.41259      14.40787
     3  H(1)               0.00777      17.36603       6.19663       5.79268
     4  H(1)              -0.00608     -13.59108      -4.84964      -4.53350
     5  C(13)              0.04584      25.76529       9.19370       8.59438
     6  C(13)             -0.07684     -43.19289     -15.41230     -14.40760
     7  H(1)              -0.00905     -20.23469      -7.22024      -6.74957
     8  H(1)               0.00608      13.59043       4.84940       4.53328
     9  C(13)              0.00708       3.97683       1.41903       1.32653
    10  H(1)              -0.00190      -4.25356      -1.51778      -1.41884
    11  H(1)              -0.00056      -1.25806      -0.44891      -0.41964
    12  C(13)             -0.04047     -22.74591      -8.11631      -7.58722
    13  H(1)               0.00286       6.39883       2.28326       2.13442
    14  C(13)              0.03895      21.89440       7.81247       7.30319
    15  H(1)              -0.00777     -17.36379      -6.19583      -5.79194
    16  C(13)             -0.01679      -9.43562      -3.36686      -3.14738
    17  H(1)               0.01373      30.68745      10.95005      10.23623
    18  H(1)               0.00584      13.06050       4.66031       4.35651
    19  C(13)             -0.04584     -25.76705      -9.19432      -8.59496
    20  H(1)               0.00905      20.23645       7.22087       6.75015
    21  C(13)              0.04047      22.74800       8.11705       7.58791
    22  H(1)              -0.00286      -6.40027      -2.28378      -2.13490
    23  C(13)             -0.00708      -3.97759      -1.41930      -1.32678
    24  H(1)               0.00056       1.25906       0.44927       0.41998
    25  H(1)               0.00190       4.25362       1.51780       1.41886
    26  C(13)              0.01678       9.43476       3.36656       3.14710
    27  H(1)              -0.00584     -13.06240      -4.66099      -4.35715
    28  H(1)              -0.01374     -30.69821     -10.95389     -10.23982
 --------------------------------------------------------
       Center         ----  Spin Dipole Couplings  ----
                      3XX-RR        3YY-RR        3ZZ-RR
 --------------------------------------------------------
     1   Atom        0.110833      0.302499     -0.413332
     2   Atom       -0.025732     -0.081913      0.107645
     3   Atom       -0.029577      0.038315     -0.008738
     4   Atom        0.001624     -0.010396      0.008771
     5   Atom       -0.216749     -0.352613      0.569362
     6   Atom        0.025746      0.081889     -0.107636
     7   Atom       -0.015325      0.014661      0.000664
     8   Atom       -0.001626      0.010393     -0.008767
     9   Atom       -0.000236      0.006589     -0.006354
    10   Atom       -0.003908      0.003147      0.000761
    11   Atom       -0.005093      0.005776     -0.000683
    12   Atom        0.066939      0.099840     -0.166779
    13   Atom        0.007411     -0.003036     -0.004375
    14   Atom       -0.110833     -0.302457      0.413290
    15   Atom        0.029573     -0.038309      0.008737
    16   Atom       -0.004465      0.002634      0.001831
    17   Atom       -0.007097      0.007910     -0.000813
    18   Atom       -0.005638      0.009220     -0.003582
    19   Atom        0.216798      0.352618     -0.569415
    20   Atom        0.015322     -0.014662     -0.000660
    21   Atom       -0.066951     -0.099867      0.166817
    22   Atom       -0.007411      0.003036      0.004376
    23   Atom        0.000234     -0.006580      0.006346
    24   Atom        0.005092     -0.005776      0.000684
    25   Atom        0.003907     -0.003146     -0.000761
    26   Atom        0.004472     -0.002626     -0.001846
    27   Atom        0.005640     -0.009220      0.003581
    28   Atom        0.007101     -0.007907      0.000806
 --------------------------------------------------------
                        XY            XZ            YZ
 --------------------------------------------------------
     1   Atom        0.003554     -0.357078      0.010903
     2   Atom        0.018884      0.105773      0.047076
     3   Atom       -0.007171      0.015520      0.004383
     4   Atom       -0.003856     -0.000373      0.008328
     5   Atom       -0.021434      0.350073     -0.021188
     6   Atom       -0.018874     -0.105732     -0.047072
     7   Atom       -0.041775      0.006101      0.013543
     8   Atom        0.003855      0.000372     -0.008326
     9   Atom       -0.011217     -0.010515      0.003433
    10   Atom       -0.000370     -0.003635     -0.004582
    11   Atom        0.004362     -0.007505     -0.000227
    12   Atom       -0.009737     -0.126817      0.018631
    13   Atom       -0.007305     -0.007419      0.003090
    14   Atom       -0.003564      0.357017     -0.010919
    15   Atom        0.007169     -0.015519     -0.004383
    16   Atom        0.001886      0.007097     -0.000522
    17   Atom        0.003765      0.001804      0.004373
    18   Atom       -0.002055     -0.000582     -0.002318
    19   Atom        0.021406     -0.350010      0.021118
    20   Atom        0.041779     -0.006107     -0.013527
    21   Atom        0.009738      0.126849     -0.018632
    22   Atom        0.007309      0.007419     -0.003093
    23   Atom        0.011202      0.010515     -0.003430
    24   Atom       -0.004363      0.007505      0.000227
    25   Atom        0.000370      0.003636      0.004582
    26   Atom       -0.001895     -0.007109      0.000511
    27   Atom        0.002055      0.000582      0.002319
    28   Atom       -0.003766     -0.001806     -0.004375
 --------------------------------------------------------


 ---------------------------------------------------------------------------------
              Anisotropic Spin Dipole Couplings in Principal Axis System
 ---------------------------------------------------------------------------------

       Atom             a.u.   MegaHertz   Gauss  10(-4) cm-1        Axes

              Baa    -0.5943   -79.753   -28.458   -26.603  0.4518 -0.0126  0.8920
     1 C(13)  Bbb     0.2914    39.105    13.954    13.044  0.8823  0.1544 -0.4446
              Bcc     0.3029    40.649    14.504    13.559 -0.1321  0.9879  0.0809
 
              Baa    -0.0951   -12.763    -4.554    -4.257  0.3435  0.8594 -0.3787
     2 C(13)  Bbb    -0.0807   -10.832    -3.865    -3.613  0.8131 -0.4739 -0.3381
              Bcc     0.1758    23.595     8.419     7.871  0.4701  0.1918  0.8615
 
              Baa    -0.0388   -20.682    -7.380    -6.899  0.8766  0.1082 -0.4689
     3 H(1)   Bbb    -0.0005    -0.251    -0.090    -0.084  0.4728 -0.0122  0.8811
              Bcc     0.0392    20.934     7.470     6.983 -0.0896  0.9941  0.0618
 
              Baa    -0.0143    -7.617    -2.718    -2.541  0.2153  0.9195 -0.3288
     4 H(1)   Bbb     0.0021     1.123     0.401     0.375  0.9623 -0.1424  0.2318
              Bcc     0.0122     6.494     2.317     2.166 -0.1663  0.3663  0.9155
 
              Baa    -0.3643   -48.883   -17.443   -16.306  0.6231  0.7515 -0.2166
     5 C(13)  Bbb    -0.3391   -45.503   -16.236   -15.178  0.6964 -0.6592 -0.2837
              Bcc     0.7034    94.385    33.679    31.484  0.3560 -0.0260  0.9341
 
              Baa    -0.1758   -23.589    -8.417    -7.869  0.4700  0.1918  0.8616
     6 C(13)  Bbb     0.0807    10.829     3.864     3.612  0.8131 -0.4740 -0.3380
              Bcc     0.0951    12.760     4.553     4.256  0.3436  0.8594 -0.3787
 
              Baa    -0.0481   -25.669    -9.159    -8.562  0.7782  0.5732 -0.2565
     7 H(1)   Bbb     0.0027     1.453     0.518     0.485  0.3097  0.0051  0.9508
              Bcc     0.0454    24.216     8.641     8.078 -0.5464  0.8194  0.1736
 
              Baa    -0.0122    -6.491    -2.316    -2.165 -0.1663  0.3663  0.9155
     8 H(1)   Bbb    -0.0021    -1.124    -0.401    -0.375  0.9623 -0.1424  0.2317
              Bcc     0.0143     7.615     2.717     2.540  0.2152  0.9195 -0.3288
 
              Baa    -0.0152    -2.041    -0.728    -0.681  0.6699  0.2337  0.7047
     9 C(13)  Bbb    -0.0032    -0.428    -0.153    -0.143  0.4057  0.6797 -0.6111
              Bcc     0.0184     2.469     0.881     0.824 -0.6218  0.6952  0.3605
 
              Baa    -0.0067    -3.556    -1.269    -1.186  0.7764  0.2905  0.5593
    10 H(1)   Bbb    -0.0004    -0.212    -0.076    -0.071 -0.6011  0.6080  0.5187
              Bcc     0.0071     3.767     1.344     1.257  0.1893  0.7389 -0.6466
 
              Baa    -0.0114    -6.075    -2.168    -2.026  0.8047 -0.1971  0.5601
    11 H(1)   Bbb     0.0029     1.522     0.543     0.508 -0.3584  0.5908  0.7228
              Bcc     0.0085     4.553     1.625     1.519  0.4734  0.7824 -0.4048
 
              Baa    -0.2229   -29.912   -10.673    -9.978  0.3994 -0.0408  0.9159
    12 C(13)  Bbb     0.0917    12.302     4.390     4.104  0.4444  0.8824 -0.1544
              Bcc     0.1312    17.610     6.284     5.874  0.8019 -0.4687 -0.3705
 
              Baa    -0.0080    -4.294    -1.532    -1.432  0.5052  0.2223  0.8339
    13 H(1)   Bbb    -0.0065    -3.475    -1.240    -1.159  0.2557  0.8843 -0.3907
              Bcc     0.0146     7.769     2.772     2.591  0.8242 -0.4106 -0.3899
 
              Baa    -0.3029   -40.643   -14.502   -13.557 -0.1320  0.9879  0.0809
    14 C(13)  Bbb    -0.2914   -39.099   -13.952   -13.042  0.8823  0.1543 -0.4446
              Bcc     0.5942    79.742    28.454    26.599  0.4518 -0.0127  0.8921
 
              Baa    -0.0392   -20.930    -7.469    -6.982 -0.0896  0.9941  0.0618
    15 H(1)   Bbb     0.0005     0.250     0.089     0.084  0.4728 -0.0122  0.8811
              Bcc     0.0388    20.680     7.379     6.898  0.8766  0.1082 -0.4689
 
              Baa    -0.0094    -1.258    -0.449    -0.419  0.8314 -0.1538 -0.5339
    16 C(13)  Bbb     0.0028     0.380     0.135     0.127  0.0412  0.9753 -0.2169
              Bcc     0.0065     0.878     0.313     0.293  0.5541  0.1584  0.8173
 
              Baa    -0.0081    -4.312    -1.539    -1.438  0.9729 -0.1951 -0.1241
    17 H(1)   Bbb    -0.0026    -1.397    -0.499    -0.466  0.0379 -0.3948  0.9180
              Bcc     0.0107     5.710     2.037     1.905  0.2281  0.8978  0.3767
 
              Baa    -0.0063    -3.336    -1.190    -1.113  0.9194  0.1749  0.3522
    18 H(1)   Bbb    -0.0036    -1.928    -0.688    -0.643 -0.3733  0.1067  0.9216
              Bcc     0.0099     5.264     1.878     1.756 -0.1236  0.9788 -0.1634
 
              Baa    -0.7034   -94.385   -33.679   -31.483  0.3559 -0.0259  0.9342
    19 C(13)  Bbb     0.3391    45.502    16.236    15.178  0.6965 -0.6591 -0.2837
              Bcc     0.3643    48.883    17.443    16.305  0.6231  0.7516 -0.2166
 
              Baa    -0.0454   -24.215    -8.641    -8.077 -0.5465  0.8194  0.1732
    20 H(1)   Bbb    -0.0027    -1.453    -0.518    -0.485  0.3094  0.0054  0.9509
              Bcc     0.0481    25.668     9.159     8.562  0.7782  0.5732 -0.2565
 
              Baa    -0.1313   -17.614    -6.285    -5.875  0.8019 -0.4687 -0.3705
    21 C(13)  Bbb    -0.0917   -12.305    -4.391    -4.105  0.4444  0.8824 -0.1545
              Bcc     0.2230    29.919    10.676     9.980  0.3994 -0.0408  0.9159
 
              Baa    -0.0146    -7.771    -2.773    -2.592  0.8242 -0.4108 -0.3899
    22 H(1)   Bbb     0.0065     3.477     1.241     1.160  0.2557  0.8842 -0.3909
              Bcc     0.0080     4.294     1.532     1.432  0.5053  0.2224  0.8338
 
              Baa    -0.0184    -2.467    -0.880    -0.823 -0.6219  0.6950  0.3608
    23 C(13)  Bbb     0.0032     0.427     0.152     0.142  0.4056  0.6801 -0.6107
              Bcc     0.0152     2.040     0.728     0.680  0.6698  0.2335  0.7048
 
              Baa    -0.0085    -4.553    -1.625    -1.519  0.4734  0.7823 -0.4048
    24 H(1)   Bbb    -0.0029    -1.522    -0.543    -0.508 -0.3584  0.5908  0.7228
              Bcc     0.0114     6.075     2.168     2.026  0.8046 -0.1972  0.5601
 
              Baa    -0.0071    -3.767    -1.344    -1.257  0.1894  0.7389 -0.6466
    25 H(1)   Bbb     0.0004     0.211     0.075     0.071 -0.6011  0.6080  0.5186
              Bcc     0.0067     3.556     1.269     1.186  0.7764  0.2905  0.5594
 
              Baa    -0.0066    -0.881    -0.314    -0.294  0.5538  0.1605  0.8170
    26 C(13)  Bbb    -0.0028    -0.378    -0.135    -0.126  0.0401  0.9750 -0.2187
              Bcc     0.0094     1.259     0.449     0.420  0.8317 -0.1539 -0.5335
 
              Baa    -0.0099    -5.265    -1.879    -1.756 -0.1236  0.9788 -0.1634
    27 H(1)   Bbb     0.0036     1.928     0.688     0.643 -0.3732  0.1068  0.9216
              Bcc     0.0063     3.336     1.191     1.113  0.9195  0.1749  0.3521
 
              Baa    -0.0107    -5.710    -2.037    -1.905  0.2282  0.8976  0.3771
    28 H(1)   Bbb     0.0026     1.395     0.498     0.465  0.0378 -0.3952  0.9178
              Bcc     0.0081     4.315     1.540     1.439  0.9729 -0.1952 -0.1241
 

 ---------------------------------------------------------------------------------

 No NMR shielding tensors so no spin-rotation constants.
 Leave Link  601 at Tue Aug  4 17:01:02 2020, MaxMem=  6442450944 cpu:              11.6 elap:               1.2
 (Enter /scratch/scicomp/CentOS/7.3.1611/Haswell/software/Gaussian/g16/l9999.exe)
 1\1\GINC-ATLAS-205\SP\UwB97XD\def2TZVP\C12H16\BOCHEN\04-Aug-2020\0\\#p
  uwb97xd guess=mix def2tzvp # scrf=(iefpcm,solvent=Cyclohexane,read) n
 osym 6d 10f\\endo-2 xp-pcm for eta=3\\0,1\C,0,-3.119623,-0.428287,0.24
 7977\C,0,-0.467744,-0.142247,-0.792389\H,0,-4.085353,-0.547852,0.7239\
 H,0,0.33799,-0.113517,-1.523464\C,0,1.112786,1.427748,0.675736\C,0,0.4
 67744,0.142247,0.792389\H,0,0.556231,2.329182,0.898405\H,0,-0.33799,0.
 113517,1.523464\C,0,1.459612,-0.99928,0.985076\H,0,1.889507,-0.917784,
 1.988422\H,0,0.939242,-1.957153,0.942698\C,0,2.400074,1.526641,0.12168
 9\H,0,2.824822,2.51148,-0.037221\C,0,3.119623,0.428287,-0.247977\H,0,4
 .085353,0.547852,-0.7239\C,0,2.592636,-0.958956,-0.042799\H,0,2.246423
 ,-1.357949,-1.005214\H,0,3.40158,-1.623929,0.270629\C,0,-1.112786,-1.4
 27748,-0.675736\H,0,-0.556231,-2.329182,-0.898405\C,0,-2.400074,-1.526
 641,-0.121689\H,0,-2.824822,-2.51148,0.037221\C,0,-1.459612,0.999279,-
 0.985076\H,0,-0.939242,1.957153,-0.942698\H,0,-1.889507,0.917784,-1.98
 8422\C,0,-2.592636,0.958956,0.042799\H,0,-3.40158,1.623929,-0.270628\H
 ,0,-2.246422,1.357949,1.005214\\Version=ES64L-G16RevB.01\HF=-466.77199
 46\S2=0.951448\S2-1=0.\S2A=0.444744\RMSD=5.159e-09\Dipole=-0.0002469,-
 0.0003079,-0.0007356\Quadrupole=0.9911678,1.5768768,-2.5680446,-2.0907
 655,-2.3082903,-0.3521569\PG=CI [X(C12H16)]\\@


 THERE'S A SUCKER BORN EVERY MINUTE

              -- PHINEAS TAYLOR (P.T.) BARNUM
 Job cpu time:       0 days  2 hours  7 minutes 59.7 seconds.
 Elapsed time:       0 days  0 hours  5 minutes 24.7 seconds.
 File lengths (MBytes):  RWF=    619 Int=      0 D2E=      0 Chk=     24 Scr=      1
 Normal termination of Gaussian 16 at Tue Aug  4 17:01:05 2020.
