 Entering Gaussian System, Link 0=g16
 Input=meso-TS_16_1_xp-Vc.com
 Output=meso-TS_16_1_xp-Vc.log
 Initial command:
 /scratch/scicomp/CentOS/7.3.1611/Haswell/software/Gaussian/g16/l1.exe "/scratch/bochen/cyclohexadiene-dimerization/wb97xd-def2tzvp/xp-pcm/meso/Gau-113865.inp" -scrdir="/scratch/bochen/cyclohexadiene-dimerization/wb97xd-def2tzvp/xp-pcm/meso/"
 Entering Link 1 = /scratch/scicomp/CentOS/7.3.1611/Haswell/software/Gaussian/g16/l1.exe PID=    113866.
  
 Copyright (c) 1988-2017, Gaussian, Inc.  All Rights Reserved.
  
 This is part of the Gaussian(R) 16 program.  It is based on
 the Gaussian(R) 09 system (copyright 2009, Gaussian, Inc.),
 the Gaussian(R) 03 system (copyright 2003, Gaussian, Inc.),
 the Gaussian(R) 98 system (copyright 1998, Gaussian, Inc.),
 the Gaussian(R) 94 system (copyright 1995, Gaussian, Inc.),
 the Gaussian 92(TM) system (copyright 1992, Gaussian, Inc.),
 the Gaussian 90(TM) system (copyright 1990, Gaussian, Inc.),
 the Gaussian 88(TM) system (copyright 1988, Gaussian, Inc.),
 the Gaussian 86(TM) system (copyright 1986, Carnegie Mellon
 University), and the Gaussian 82(TM) system (copyright 1983,
 Carnegie Mellon University). Gaussian is a federally registered
 trademark of Gaussian, Inc.
  
 This software contains proprietary and confidential information,
 including trade secrets, belonging to Gaussian, Inc.
  
 This software is provided under written license and may be
 used, copied, transmitted, or stored only in accord with that
 written license.
  
 The following legend is applicable only to US Government
 contracts under FAR:
  
                    RESTRICTED RIGHTS LEGEND
  
 Use, reproduction and disclosure by the US Government is
 subject to restrictions as set forth in subparagraphs (a)
 and (c) of the Commercial Computer Software - Restricted
 Rights clause in FAR 52.227-19.
  
 Gaussian, Inc.
 340 Quinnipiac St., Bldg. 40, Wallingford CT 06492
  
  
 ---------------------------------------------------------------
 Warning -- This program may not be used in any manner that
 competes with the business of Gaussian, Inc. or will provide
 assistance to any competitor of Gaussian, Inc.  The licensee
 of this program is prohibited from giving any competitor of
 Gaussian, Inc. access to this program.  By using this program,
 the user acknowledges that Gaussian, Inc. is engaged in the
 business of creating and licensing software in the field of
 computational chemistry and represents and warrants to the
 licensee that it is not a competitor of Gaussian, Inc. and that
 it will not use this program in any manner prohibited above.
 ---------------------------------------------------------------
  

 Cite this work as:
 Gaussian 16, Revision B.01,
 M. J. Frisch, G. W. Trucks, H. B. Schlegel, G. E. Scuseria, 
 M. A. Robb, J. R. Cheeseman, G. Scalmani, V. Barone, 
 G. A. Petersson, H. Nakatsuji, X. Li, M. Caricato, A. V. Marenich, 
 J. Bloino, B. G. Janesko, R. Gomperts, B. Mennucci, H. P. Hratchian, 
 J. V. Ortiz, A. F. Izmaylov, J. L. Sonnenberg, D. Williams-Young, 
 F. Ding, F. Lipparini, F. Egidi, J. Goings, B. Peng, A. Petrone, 
 T. Henderson, D. Ranasinghe, V. G. Zakrzewski, J. Gao, N. Rega, 
 G. Zheng, W. Liang, M. Hada, M. Ehara, K. Toyota, R. Fukuda, 
 J. Hasegawa, M. Ishida, T. Nakajima, Y. Honda, O. Kitao, H. Nakai, 
 T. Vreven, K. Throssell, J. A. Montgomery, Jr., J. E. Peralta, 
 F. Ogliaro, M. J. Bearpark, J. J. Heyd, E. N. Brothers, K. N. Kudin, 
 V. N. Staroverov, T. A. Keith, R. Kobayashi, J. Normand, 
 K. Raghavachari, A. P. Rendell, J. C. Burant, S. S. Iyengar, 
 J. Tomasi, M. Cossi, J. M. Millam, M. Klene, C. Adamo, R. Cammi, 
 J. W. Ochterski, R. L. Martin, K. Morokuma, O. Farkas, 
 J. B. Foresman, and D. J. Fox, Gaussian, Inc., Wallingford CT, 2016.
 
 ******************************************
 Gaussian 16:  ES64L-G16RevB.01 20-Dec-2017
                 3-Aug-2020 
 ******************************************
 %chk=meso-TS_16_1_xp-12.chk
 %nproc=24
 Will use up to   24 processors via shared memory.
 %mem=48GB
 ----------------------------------------------------------------------
 #p uwb97xd guess=mix def2tzvp # scrf=(iefpcm,solvent=Cyclohexane,read)
  nosym guess=only pop=none
 ----------------------------------------------------------------------
 1/38=1,40=2,172=1/1;
 2/12=2,15=1,17=6,18=5,40=1/2;
 3/5=44,7=101,11=2,25=1,30=1,70=2203,72=17,74=-58,89=1,116=2/1,2;
 4/13=-1/1;
 99/5=2/99;
 Leave Link    1 at Mon Aug  3 17:34:09 2020, MaxMem=  6442450944 cpu:               1.7 elap:               0.1
 (Enter /scratch/scicomp/CentOS/7.3.1611/Haswell/software/Gaussian/g16/l101.exe)
 -----------------------
 endo-2 xp-pcm for eta=3
 -----------------------
 Symbolic Z-matrix:
 Charge =  0 Multiplicity = 1
 6                    -3.1195   -0.42494   0.24862 
 6                    -0.42425  -0.12187  -0.71477 
 1                    -4.08782  -0.54642   0.71845 
 1                     0.3294   -0.10766  -1.5049 
 6                     1.11572   1.43358   0.66368 
 6                     0.42425   0.12187   0.71477 
 1                     0.57207   2.33357   0.92248 
 1                    -0.3294    0.10766   1.5049 
 6                     1.44947  -0.99636   0.97346 
 1                     1.86081  -0.86876   1.97862 
 1                     0.95495  -1.96903   0.95371 
 6                     2.39442   1.53076   0.12703 
 1                     2.83084   2.51382  -0.01222 
 6                     3.1195    0.42494  -0.24862 
 1                     4.08782   0.54642  -0.71845 
 6                     2.59287  -0.96028  -0.04245 
 1                     2.24915  -1.36226  -1.00503 
 1                     3.40075  -1.62512   0.27493 
 6                    -1.11572  -1.43358  -0.66368 
 1                    -0.57207  -2.33357  -0.92248 
 6                    -2.39442  -1.53076  -0.12703 
 1                    -2.83084  -2.51382   0.01222 
 6                    -1.44947   0.99636  -0.97346 
 1                    -0.95495   1.96903  -0.95371 
 1                    -1.86081   0.86876  -1.97862 
 6                    -2.59287   0.96028   0.04245 
 1                    -3.40075   1.62512  -0.27493 
 1                    -2.24915   1.36226   1.00503 
 
 ITRead=  0  0  0  0  0  0  0  0  0  0  0  0  0  0  0  0  0  0  0  0
 ITRead=  0  0  0  0  0  0  0  0
 MicOpt= -1 -1 -1 -1 -1 -1 -1 -1 -1 -1 -1 -1 -1 -1 -1 -1 -1 -1 -1 -1
 MicOpt= -1 -1 -1 -1 -1 -1 -1 -1
 NAtoms=     28 NQM=       28 NQMF=       0 NMMI=      0 NMMIF=      0
                NMic=       0 NMicF=      0.
                    Isotopes and Nuclear Properties:
 (Nuclear quadrupole moments (NQMom) in fm**2, nuclear magnetic moments (NMagM)
  in nuclear magnetons)

  Atom         1           2           3           4           5           6           7           8           9          10
 IAtWgt=          12          12           1           1          12          12           1           1          12           1
 AtmWgt=  12.0000000  12.0000000   1.0078250   1.0078250  12.0000000  12.0000000   1.0078250   1.0078250  12.0000000   1.0078250
 NucSpn=           0           0           1           1           0           0           1           1           0           1
 AtZEff=  -0.0000000  -0.0000000  -0.0000000  -0.0000000  -0.0000000  -0.0000000  -0.0000000  -0.0000000  -0.0000000  -0.0000000
 NQMom=    0.0000000   0.0000000   0.0000000   0.0000000   0.0000000   0.0000000   0.0000000   0.0000000   0.0000000   0.0000000
 NMagM=    0.0000000   0.0000000   2.7928460   2.7928460   0.0000000   0.0000000   2.7928460   2.7928460   0.0000000   2.7928460
 AtZNuc=   6.0000000   6.0000000   1.0000000   1.0000000   6.0000000   6.0000000   1.0000000   1.0000000   6.0000000   1.0000000

  Atom        11          12          13          14          15          16          17          18          19          20
 IAtWgt=           1          12           1          12           1          12           1           1          12           1
 AtmWgt=   1.0078250  12.0000000   1.0078250  12.0000000   1.0078250  12.0000000   1.0078250   1.0078250  12.0000000   1.0078250
 NucSpn=           1           0           1           0           1           0           1           1           0           1
 AtZEff=  -0.0000000  -0.0000000  -0.0000000  -0.0000000  -0.0000000  -0.0000000  -0.0000000  -0.0000000  -0.0000000  -0.0000000
 NQMom=    0.0000000   0.0000000   0.0000000   0.0000000   0.0000000   0.0000000   0.0000000   0.0000000   0.0000000   0.0000000
 NMagM=    2.7928460   0.0000000   2.7928460   0.0000000   2.7928460   0.0000000   2.7928460   2.7928460   0.0000000   2.7928460
 AtZNuc=   1.0000000   6.0000000   1.0000000   6.0000000   1.0000000   6.0000000   1.0000000   1.0000000   6.0000000   1.0000000

  Atom        21          22          23          24          25          26          27          28
 IAtWgt=          12           1          12           1           1          12           1           1
 AtmWgt=  12.0000000   1.0078250  12.0000000   1.0078250   1.0078250  12.0000000   1.0078250   1.0078250
 NucSpn=           0           1           0           1           1           0           1           1
 AtZEff=  -0.0000000  -0.0000000  -0.0000000  -0.0000000  -0.0000000  -0.0000000  -0.0000000  -0.0000000
 NQMom=    0.0000000   0.0000000   0.0000000   0.0000000   0.0000000   0.0000000   0.0000000   0.0000000
 NMagM=    0.0000000   2.7928460   0.0000000   2.7928460   2.7928460   0.0000000   2.7928460   2.7928460
 AtZNuc=   6.0000000   1.0000000   6.0000000   1.0000000   1.0000000   6.0000000   1.0000000   1.0000000
 Leave Link  101 at Mon Aug  3 17:34:09 2020, MaxMem=  6442450944 cpu:               2.4 elap:               0.1
 (Enter /scratch/scicomp/CentOS/7.3.1611/Haswell/software/Gaussian/g16/l202.exe)
                          Input orientation:                          
 ---------------------------------------------------------------------
 Center     Atomic      Atomic             Coordinates (Angstroms)
 Number     Number       Type             X           Y           Z
 ---------------------------------------------------------------------
      1          6           0       -3.119495   -0.424944    0.248623
      2          6           0       -0.424245   -0.121866   -0.714774
      3          1           0       -4.087821   -0.546420    0.718451
      4          1           0        0.329403   -0.107658   -1.504901
      5          6           0        1.115717    1.433579    0.663678
      6          6           0        0.424245    0.121866    0.714774
      7          1           0        0.572069    2.333570    0.922475
      8          1           0       -0.329403    0.107658    1.504901
      9          6           0        1.449468   -0.996358    0.973459
     10          1           0        1.860814   -0.868763    1.978620
     11          1           0        0.954950   -1.969025    0.953713
     12          6           0        2.394417    1.530763    0.127030
     13          1           0        2.830840    2.513824   -0.012217
     14          6           0        3.119495    0.424944   -0.248623
     15          1           0        4.087821    0.546420   -0.718451
     16          6           0        2.592866   -0.960276   -0.042448
     17          1           0        2.249153   -1.362262   -1.005025
     18          1           0        3.400748   -1.625122    0.274929
     19          6           0       -1.115717   -1.433580   -0.663678
     20          1           0       -0.572069   -2.333570   -0.922475
     21          6           0       -2.394417   -1.530763   -0.127030
     22          1           0       -2.830840   -2.513824    0.012217
     23          6           0       -1.449468    0.996358   -0.973459
     24          1           0       -0.954950    1.969025   -0.953713
     25          1           0       -1.860814    0.868763   -1.978620
     26          6           0       -2.592866    0.960276    0.042448
     27          1           0       -3.400748    1.625122   -0.274929
     28          1           0       -2.249153    1.362262    1.005025
 ---------------------------------------------------------------------
                    Distance matrix (angstroms):
                    1          2          3          4          5
     1  C    0.000000
     2  C    2.878257   0.000000
     3  H    1.083120   3.956788   0.000000
     4  H    3.882063   1.092011   4.964642   0.000000
     5  C    4.643641   2.586701   5.567783   2.774245   0.000000
     6  C    3.615853   1.680163   4.561289   2.233525   1.483690
     7  H    4.657373   3.114866   5.481838   3.451179   1.082826
     8  H    3.105884   2.233525   3.895129   3.088575   2.134032
     9  C    4.661258   2.669395   5.561389   2.861224   2.472235
    10  H    5.290874   3.610225   6.089186   3.880647   2.754092
    11  H    4.413892   2.845703   5.244873   3.146550   3.418725
    12  C    5.851735   3.374118   6.832560   3.100307   1.390147
    13  H    6.641602   4.246884   7.600450   3.918860   2.136682
    14  C    6.316214   3.615853   7.336497   3.105884   2.421727
    15  H    7.336497   4.561289   8.372581   3.895129   3.395693
    16  C    5.744769   3.202798   6.736603   2.826480   2.900194
    17  H    5.592189   2.961399   6.617644   2.347200   3.447604
    18  H    6.629833   4.227276   7.578851   3.860525   3.837726
    19  C    2.421728   1.483691   3.395694   2.134033   3.868045
    20  H    3.391711   2.226348   4.271657   2.471145   4.422207
    21  C    1.374660   2.492391   2.133398   3.367930   4.661929
    22  H    2.121940   3.470112   2.439149   4.251872   5.619760
    23  C    2.510493   1.538969   3.493369   2.160015   3.074338
    24  H    3.444119   2.170384   4.351836   2.503195   2.681477
    25  H    2.866804   2.154619   3.773128   2.444352   4.020012
    26  C    1.496222   2.539160   2.227555   3.474828   3.789925
    27  H    2.134474   3.479224   2.484848   4.292946   4.616939
    28  H    2.126910   2.913869   2.665688   3.887074   3.382891
                    6          7          8          9         10
     6  C    0.000000
     7  H    2.226348   0.000000
     8  H    1.092011   2.471145   0.000000
     9  C    1.538969   3.443958   2.160015   0.000000
    10  H    2.154619   3.609881   2.444352   1.093542   0.000000
    11  H    2.170384   4.319710   2.503195   1.091338   1.755449
    12  C    2.492391   2.144338   3.367930   2.827669   3.077473
    13  H    3.470112   2.451160   4.251872   3.898862   4.043053
    14  C    2.878257   3.391711   3.882063   2.510493   2.866804
    15  H    3.956788   4.271657   4.964642   3.493369   3.773128
    16  C    2.539160   3.982979   3.474828   1.529944   2.151509
    17  H    2.913869   4.492999   3.887074   2.165128   3.049014
    18  H    3.479224   4.908358   4.292946   2.165821   2.417858
    19  C    2.586702   4.422208   2.774246   3.074338   4.020012
    20  H    3.114866   5.147338   3.451179   3.077225   4.059671
    21  C    3.374118   4.983429   3.100307   4.033871   4.793641
    22  H    4.246884   5.992127   3.918860   4.641953   5.346455
    23  C    2.669395   3.077225   2.861224   4.020602   4.811592
    24  H    2.845703   2.446377   3.146550   4.276531   4.957837
    25  H    3.610225   4.059671   3.880647   4.811592   5.703443
    26  C    3.202798   3.560505   2.826480   4.586465   5.189356
    27  H    4.227276   4.209388   3.860525   5.652895   6.243555
    28  H    2.961399   2.984886   2.347200   4.386785   4.776734
                   11         12         13         14         15
    11  H    0.000000
    12  C    3.873498   0.000000
    13  H    4.954586   1.084557   0.000000
    14  C    3.444119   1.374660   2.121940   0.000000
    15  H    4.351836   2.133398   2.439149   1.083120   0.000000
    16  C    2.166259   2.504672   3.482372   1.496222   2.227555
    17  H    2.424825   3.110023   4.043275   2.126910   2.665688
    18  H    2.561434   3.315748   4.187854   2.134474   2.484848
    19  C    2.681477   4.661930   5.619761   4.643641   5.567783
    20  H    2.446377   4.983429   5.992127   4.657373   5.481838
    21  C    3.546595   5.689501   6.608720   5.851735   6.832560
    22  H    3.938963   6.608720   7.571820   6.641602   7.600450
    23  C    4.276531   4.033871   4.641953   4.661258   5.561389
    24  H    4.774330   3.546595   3.938963   4.413892   5.244873
    25  H    4.957837   4.793641   5.346455   5.290874   6.089186
    26  C    4.690225   5.020518   5.642082   5.744769   6.736603
    27  H    5.779235   5.809855   6.300119   6.629833   7.578851
    28  H    4.622378   4.728849   5.307279   5.592189   6.617644
                   16         17         18         19         20
    16  C    0.000000
    17  H    1.098310   0.000000
    18  H    1.093353   1.741709   0.000000
    19  C    3.789925   3.382891   4.616939   0.000000
    20  H    3.560505   2.984886   4.209388   1.082825   0.000000
    21  C    5.020518   4.728849   5.809855   1.390147   2.144338
    22  H    5.642082   5.307279   6.300119   2.136682   2.451160
    23  C    4.586465   4.386785   5.652895   2.472236   3.443958
    24  H    4.690225   4.622378   5.779235   3.418726   4.319710
    25  H    5.189356   4.776734   6.243555   2.754092   3.609881
    26  C    5.530601   5.471429   6.531595   2.900195   3.982979
    27  H    6.531595   6.432642   7.558226   3.837727   4.908358
    28  H    5.471429   5.630106   6.432642   3.447605   4.492999
                   21         22         23         24         25
    21  C    0.000000
    22  H    1.084557   0.000000
    23  C    2.827669   3.898862   0.000000
    24  H    3.873498   4.954586   1.091338   0.000000
    25  H    3.077473   4.043053   1.093542   1.755449   0.000000
    26  C    2.504672   3.482372   1.529944   2.166259   2.151509
    27  H    3.315748   4.187854   2.165821   2.561434   2.417858
    28  H    3.110023   4.043275   2.165128   2.424825   3.049014
                   26         27         28
    26  C    0.000000
    27  H    1.093353   0.000000
    28  H    1.098310   1.741709   0.000000
 Symmetry turned off by external request.
 Stoichiometry    C12H16
 Framework group  CI[X(C12H16)]
 Deg. of freedom    39
 Full point group                 CI      NOp   2
 Rotational constants (GHZ):           1.9815100           0.6443917           0.5539421
 Leave Link  202 at Mon Aug  3 17:34:09 2020, MaxMem=  6442450944 cpu:               0.3 elap:               0.0
 (Enter /scratch/scicomp/CentOS/7.3.1611/Haswell/software/Gaussian/g16/l301.exe)
 Standard basis: def2TZVP (5D, 7F)
 Ernie: Thresh=  0.10000D-02 Tol=  0.10000D-05 Strict=F.
   468 basis functions,   740 primitive gaussians,   528 cartesian basis functions
    44 alpha electrons       44 beta electrons
       nuclear repulsion energy       694.2658438604 Hartrees.
 IExCor= 4639 DFT=T Ex+Corr=wB97XD ExCW=0 ScaHFX=  1.000000
 ScaDFX=  1.000000  1.000000  1.000000  1.000000 ScalE2=  1.000000  1.000000
 IRadAn=      5 IRanWt=     -1 IRanGd=            0 ICorTp=0 IEmpDi=121
 HFx  wShort=  0.000000 wLong=  0.200000 cFull=  0.222036 cShort=  0.000000 cLong=  0.777964
 DFx  wShort=  0.000000 wLong=  0.200000 cFull=  0.000000 cShort=  0.000000 cLong=  1.000000
 NAtoms=   28 NActive=   28 NUniq=   28 SFac= 1.00D+00 NAtFMM=   60 NAOKFM=F Big=F
 Integral buffers will be    131072 words long.
 Raffenetti 2 integral format.
 Two-electron integral symmetry is turned off.
 R6Disp:  Grimme-D2 Dispersion energy=       -0.0228620695 Hartrees.
 Nuclear repulsion after empirical dispersion term =      694.2429817908 Hartrees.
 Using the following non-standard input for PCM:
 qrep pcmdoc geomview  nodis nocav g03defaults tsare=0.075
 Warning! Using old PCM defaults because the g03defaults keyword was found.
 These settings can be overridden by following keywords.
 nsfe=28
 NVESolv=36  SolvMW=84.1595   Rsolv=2.815
 eps=2.0165 RhoS=0.7781
 --- end of non-standard input.
 Reading user-defined spheres from input:
 ISph  on   Nord    Re0     Alpha      Xe            Ye            Ze
 --- end of user-defined spheres data.
 ------------------------------------------------------------------------------
 Polarizable Continuum Model (PCM)
 =================================
 Model                : PCM.
 Atomic radii         : UA0 (Simple United Atom Topological Model).
 Polarization charges : Total charges.
 Charge compensation  : None.
 Solution method      : On-the-fly selection.
 Cavity type          : SES (Solvent Excluding Surface) (Alpha=1.000).
 Cavity algorithm     : GePol (RMin=0.200 OFac=0.890).
                        User-defined sphere list used, NSphG=   28.
                        Tesserae with average area of 0.075 Ang**2.
                        Smoothing algorithm: None.
                        Polarization charges: point-like.
                        Self-potential: constant (ISelfS= 1).
                        Self-field    : global E.n sum rule (ISelfD= 3).
 Solvent              : CycloHexane, Eps=   2.016500 Eps(inf)=   2.035188
                        RSolv=   2.815000 Ang.
 ------------------------------------------------------------------------------
 GePol: Number of generator spheres                  =      28
 GePol: Total number of spheres                      =     161
 GePol: Number of exposed spheres                    =     121 ( 75.16%)
 GePol: Number of tesserae                           =    4581
 GePol: Average area of tesserae                     =       0.05 Ang**2
 GePol: Minimum area of tessera                      =   0.10D-02 Ang**2
 GePol: Maximum area of tessera                      =    0.12524 Ang**2
 GePol: Number of small tesserae                     =       0
 GePol: Fraction of small tesserae (<1% of avg)      =       0.00%
 GePol: Total count of vertices                      =   16137
 GePol: Maximum number of vertices in a tessera      =       7
 GePol: Cavity surface area                          =    218.816 Ang**2
 GePol: Cavity volume                                =    245.283 Ang**3
 Leave Link  301 at Mon Aug  3 17:34:10 2020, MaxMem=  6442450944 cpu:               7.3 elap:               0.3
 (Enter /scratch/scicomp/CentOS/7.3.1611/Haswell/software/Gaussian/g16/l302.exe)
 NPDir=0 NMtPBC=     1 NCelOv=     1 NCel=       1 NClECP=     1 NCelD=      1
         NCelK=      1 NCelE2=     1 NClLst=     1 CellRange=     0.0.
 One-electron integrals computed using PRISM.
   1 Symmetry operations used in ECPInt.
 ECPInt:  NShTT=   19306 NPrTT=   56928 LenC2=   18534 LenP2D=   42298.
 LDataN:  DoStor=T MaxTD1= 6 Len=  172
 NBasis=   468 RedAO= T EigKep=  3.55D-05  NBF=   468
 NBsUse=   468 1.00D-06 EigRej= -1.00D+00 NBFU=   468
 Precomputing XC quadrature grid using
 IXCGrd= 4 IRadAn=           5 IRanWt=          -1 IRanGd=           0 AccXCQ= 0.00D+00.
 Generated NRdTot=       0 NPtTot=           0 NUsed=           0 NTot=          32
 NSgBfM=   526   526   526   526   526 MxSgAt=    28 MxSgA2=    28.
 Leave Link  302 at Mon Aug  3 17:34:10 2020, MaxMem=  6442450944 cpu:              11.9 elap:               0.5
 (Enter /scratch/scicomp/CentOS/7.3.1611/Haswell/software/Gaussian/g16/l401.exe)
 ExpMin= 9.52D-02 ExpMax= 1.36D+04 ExpMxC= 4.63D+02 IAcc=3 IRadAn=         5 AccDes= 0.00D+00
 Harris functional with IExCor= 4639 and IRadAn=       5 diagonalized for initial guess.
 HarFok:  IExCor= 4639 AccDes= 0.00D+00 IRadAn=         5 IDoV= 1 UseB2=F ITyADJ=14
 ICtDFT=  3500011 ScaDFX=  1.000000  1.000000  1.000000  1.000000
 FoFCou: FMM=F IPFlag=           0 FMFlag=      100000 FMFlg1=           0
         NFxFlg=           0 DoJE=T BraDBF=F KetDBF=T FulRan=T
         wScrn=  0.000000 ICntrl=       500 IOpCl=  0 I1Cent=   200000004 NGrid=           0
         NMat0=    1 NMatS0=      1 NMatT0=    0 NMatD0=    1 NMtDS0=    0 NMtDT0=    0
 Symmetry not used in FoFCou.
 Harris En= -444.586620071213    
 JPrj=0 DoOrth=F DoCkMO=T.
 Mixing orbitals, IMix= 1 IMixAn=  0 NRI=1 NE=   44 Coef=  7.07106781D-01  7.07106781D-01
 Mixing orbitals, IMix= 1 IMixAn=  0 NRI=1 NE=   44 Coef= -7.07106781D-01  7.07106781D-01
 Initial guess <Sx>= 0.0000 <Sy>= 0.0000 <Sz>= 0.0000 <S**2>= 1.0000 S= 0.6180
 Leave Link  401 at Mon Aug  3 17:34:12 2020, MaxMem=  6442450944 cpu:              48.0 elap:               2.1
 (Enter /scratch/scicomp/CentOS/7.3.1611/Haswell/software/Gaussian/g16/l9999.exe)

 This type of calculation cannot be archived.


 A MAN SHOULD NEVER BE ASHAMED TO OWN HE HAS BEEN IN THE WRONG
 WHICH IS BUT SAYING IN OTHER WORDS,
 THAT HE IS WISER TODAY THAN HE WAS YESTERDAY.

                          -- JONATHAN SWIFT
 Job cpu time:       0 days  0 hours  1 minutes 12.5 seconds.
 Elapsed time:       0 days  0 hours  0 minutes  3.3 seconds.
 File lengths (MBytes):  RWF=    384 Int=      0 D2E=      0 Chk=      1 Scr=      1
 Normal termination of Gaussian 16 at Mon Aug  3 17:34:13 2020.
 Initial command:
 /scratch/scicomp/CentOS/7.3.1611/Haswell/software/Gaussian/g16/l1.exe "/scratch/bochen/cyclohexadiene-dimerization/wb97xd-def2tzvp/xp-pcm/meso/Gau-113865.inp" -scrdir="/scratch/bochen/cyclohexadiene-dimerization/wb97xd-def2tzvp/xp-pcm/meso/"
 Entering Link 1 = /scratch/scicomp/CentOS/7.3.1611/Haswell/software/Gaussian/g16/l1.exe PID=    114028.
  
 Copyright (c) 1988-2017, Gaussian, Inc.  All Rights Reserved.
  
 This is part of the Gaussian(R) 16 program.  It is based on
 the Gaussian(R) 09 system (copyright 2009, Gaussian, Inc.),
 the Gaussian(R) 03 system (copyright 2003, Gaussian, Inc.),
 the Gaussian(R) 98 system (copyright 1998, Gaussian, Inc.),
 the Gaussian(R) 94 system (copyright 1995, Gaussian, Inc.),
 the Gaussian 92(TM) system (copyright 1992, Gaussian, Inc.),
 the Gaussian 90(TM) system (copyright 1990, Gaussian, Inc.),
 the Gaussian 88(TM) system (copyright 1988, Gaussian, Inc.),
 the Gaussian 86(TM) system (copyright 1986, Carnegie Mellon
 University), and the Gaussian 82(TM) system (copyright 1983,
 Carnegie Mellon University). Gaussian is a federally registered
 trademark of Gaussian, Inc.
  
 This software contains proprietary and confidential information,
 including trade secrets, belonging to Gaussian, Inc.
  
 This software is provided under written license and may be
 used, copied, transmitted, or stored only in accord with that
 written license.
  
 The following legend is applicable only to US Government
 contracts under FAR:
  
                    RESTRICTED RIGHTS LEGEND
  
 Use, reproduction and disclosure by the US Government is
 subject to restrictions as set forth in subparagraphs (a)
 and (c) of the Commercial Computer Software - Restricted
 Rights clause in FAR 52.227-19.
  
 Gaussian, Inc.
 340 Quinnipiac St., Bldg. 40, Wallingford CT 06492
  
  
 ---------------------------------------------------------------
 Warning -- This program may not be used in any manner that
 competes with the business of Gaussian, Inc. or will provide
 assistance to any competitor of Gaussian, Inc.  The licensee
 of this program is prohibited from giving any competitor of
 Gaussian, Inc. access to this program.  By using this program,
 the user acknowledges that Gaussian, Inc. is engaged in the
 business of creating and licensing software in the field of
 computational chemistry and represents and warrants to the
 licensee that it is not a competitor of Gaussian, Inc. and that
 it will not use this program in any manner prohibited above.
 ---------------------------------------------------------------
  

 Cite this work as:
 Gaussian 16, Revision B.01,
 M. J. Frisch, G. W. Trucks, H. B. Schlegel, G. E. Scuseria, 
 M. A. Robb, J. R. Cheeseman, G. Scalmani, V. Barone, 
 G. A. Petersson, H. Nakatsuji, X. Li, M. Caricato, A. V. Marenich, 
 J. Bloino, B. G. Janesko, R. Gomperts, B. Mennucci, H. P. Hratchian, 
 J. V. Ortiz, A. F. Izmaylov, J. L. Sonnenberg, D. Williams-Young, 
 F. Ding, F. Lipparini, F. Egidi, J. Goings, B. Peng, A. Petrone, 
 T. Henderson, D. Ranasinghe, V. G. Zakrzewski, J. Gao, N. Rega, 
 G. Zheng, W. Liang, M. Hada, M. Ehara, K. Toyota, R. Fukuda, 
 J. Hasegawa, M. Ishida, T. Nakajima, Y. Honda, O. Kitao, H. Nakai, 
 T. Vreven, K. Throssell, J. A. Montgomery, Jr., J. E. Peralta, 
 F. Ogliaro, M. J. Bearpark, J. J. Heyd, E. N. Brothers, K. N. Kudin, 
 V. N. Staroverov, T. A. Keith, R. Kobayashi, J. Normand, 
 K. Raghavachari, A. P. Rendell, J. C. Burant, S. S. Iyengar, 
 J. Tomasi, M. Cossi, J. M. Millam, M. Klene, C. Adamo, R. Cammi, 
 J. W. Ochterski, R. L. Martin, K. Morokuma, O. Farkas, 
 J. B. Foresman, and D. J. Fox, Gaussian, Inc., Wallingford CT, 2016.
 
 ******************************************
 Gaussian 16:  ES64L-G16RevB.01 20-Dec-2017
                 3-Aug-2020 
 ******************************************
 %chk=meso-TS_16_1_xp-115.chk
 %nproc=24
 Will use up to   24 processors via shared memory.
 %mem=48GB
 ----------------------------------------------------------------------
 #p uwb97xd guess=mix def2tzvp # scrf=(iefpcm,solvent=Cyclohexane,read)
  nosym guess=only pop=none
 ----------------------------------------------------------------------
 1/38=1,40=2,172=1/1;
 2/12=2,15=1,17=6,18=5,40=1/2;
 3/5=44,7=101,11=2,25=1,30=1,70=2203,72=17,74=-58,89=1,116=2/1,2;
 4/13=-1/1;
 99/5=2/99;
 Leave Link    1 at Mon Aug  3 17:34:13 2020, MaxMem=  6442450944 cpu:               1.5 elap:               0.1
 (Enter /scratch/scicomp/CentOS/7.3.1611/Haswell/software/Gaussian/g16/l101.exe)
 -----------------------
 endo-2 xp-pcm for eta=3
 -----------------------
 Symbolic Z-matrix:
 Charge =  0 Multiplicity = 1
 6                    -3.1195   -0.42494   0.24862 
 6                    -0.42425  -0.12187  -0.71477 
 1                    -4.08782  -0.54642   0.71845 
 1                     0.3294   -0.10766  -1.5049 
 6                     1.11572   1.43358   0.66368 
 6                     0.42425   0.12187   0.71477 
 1                     0.57207   2.33357   0.92248 
 1                    -0.3294    0.10766   1.5049 
 6                     1.44947  -0.99636   0.97346 
 1                     1.86081  -0.86876   1.97862 
 1                     0.95495  -1.96903   0.95371 
 6                     2.39442   1.53076   0.12703 
 1                     2.83084   2.51382  -0.01222 
 6                     3.1195    0.42494  -0.24862 
 1                     4.08782   0.54642  -0.71845 
 6                     2.59287  -0.96028  -0.04245 
 1                     2.24915  -1.36226  -1.00503 
 1                     3.40075  -1.62512   0.27493 
 6                    -1.11572  -1.43358  -0.66368 
 1                    -0.57207  -2.33357  -0.92248 
 6                    -2.39442  -1.53076  -0.12703 
 1                    -2.83084  -2.51382   0.01222 
 6                    -1.44947   0.99636  -0.97346 
 1                    -0.95495   1.96903  -0.95371 
 1                    -1.86081   0.86876  -1.97862 
 6                    -2.59287   0.96028   0.04245 
 1                    -3.40075   1.62512  -0.27493 
 1                    -2.24915   1.36226   1.00503 
 
 ITRead=  0  0  0  0  0  0  0  0  0  0  0  0  0  0  0  0  0  0  0  0
 ITRead=  0  0  0  0  0  0  0  0
 MicOpt= -1 -1 -1 -1 -1 -1 -1 -1 -1 -1 -1 -1 -1 -1 -1 -1 -1 -1 -1 -1
 MicOpt= -1 -1 -1 -1 -1 -1 -1 -1
 NAtoms=     28 NQM=       28 NQMF=       0 NMMI=      0 NMMIF=      0
                NMic=       0 NMicF=      0.
                    Isotopes and Nuclear Properties:
 (Nuclear quadrupole moments (NQMom) in fm**2, nuclear magnetic moments (NMagM)
  in nuclear magnetons)

  Atom         1           2           3           4           5           6           7           8           9          10
 IAtWgt=          12          12           1           1          12          12           1           1          12           1
 AtmWgt=  12.0000000  12.0000000   1.0078250   1.0078250  12.0000000  12.0000000   1.0078250   1.0078250  12.0000000   1.0078250
 NucSpn=           0           0           1           1           0           0           1           1           0           1
 AtZEff=  -0.0000000  -0.0000000  -0.0000000  -0.0000000  -0.0000000  -0.0000000  -0.0000000  -0.0000000  -0.0000000  -0.0000000
 NQMom=    0.0000000   0.0000000   0.0000000   0.0000000   0.0000000   0.0000000   0.0000000   0.0000000   0.0000000   0.0000000
 NMagM=    0.0000000   0.0000000   2.7928460   2.7928460   0.0000000   0.0000000   2.7928460   2.7928460   0.0000000   2.7928460
 AtZNuc=   6.0000000   6.0000000   1.0000000   1.0000000   6.0000000   6.0000000   1.0000000   1.0000000   6.0000000   1.0000000

  Atom        11          12          13          14          15          16          17          18          19          20
 IAtWgt=           1          12           1          12           1          12           1           1          12           1
 AtmWgt=   1.0078250  12.0000000   1.0078250  12.0000000   1.0078250  12.0000000   1.0078250   1.0078250  12.0000000   1.0078250
 NucSpn=           1           0           1           0           1           0           1           1           0           1
 AtZEff=  -0.0000000  -0.0000000  -0.0000000  -0.0000000  -0.0000000  -0.0000000  -0.0000000  -0.0000000  -0.0000000  -0.0000000
 NQMom=    0.0000000   0.0000000   0.0000000   0.0000000   0.0000000   0.0000000   0.0000000   0.0000000   0.0000000   0.0000000
 NMagM=    2.7928460   0.0000000   2.7928460   0.0000000   2.7928460   0.0000000   2.7928460   2.7928460   0.0000000   2.7928460
 AtZNuc=   1.0000000   6.0000000   1.0000000   6.0000000   1.0000000   6.0000000   1.0000000   1.0000000   6.0000000   1.0000000

  Atom        21          22          23          24          25          26          27          28
 IAtWgt=          12           1          12           1           1          12           1           1
 AtmWgt=  12.0000000   1.0078250  12.0000000   1.0078250   1.0078250  12.0000000   1.0078250   1.0078250
 NucSpn=           0           1           0           1           1           0           1           1
 AtZEff=  -0.0000000  -0.0000000  -0.0000000  -0.0000000  -0.0000000  -0.0000000  -0.0000000  -0.0000000
 NQMom=    0.0000000   0.0000000   0.0000000   0.0000000   0.0000000   0.0000000   0.0000000   0.0000000
 NMagM=    0.0000000   2.7928460   0.0000000   2.7928460   2.7928460   0.0000000   2.7928460   2.7928460
 AtZNuc=   6.0000000   1.0000000   6.0000000   1.0000000   1.0000000   6.0000000   1.0000000   1.0000000
 Leave Link  101 at Mon Aug  3 17:34:13 2020, MaxMem=  6442450944 cpu:               2.4 elap:               0.1
 (Enter /scratch/scicomp/CentOS/7.3.1611/Haswell/software/Gaussian/g16/l202.exe)
                          Input orientation:                          
 ---------------------------------------------------------------------
 Center     Atomic      Atomic             Coordinates (Angstroms)
 Number     Number       Type             X           Y           Z
 ---------------------------------------------------------------------
      1          6           0       -3.119495   -0.424944    0.248623
      2          6           0       -0.424245   -0.121866   -0.714774
      3          1           0       -4.087821   -0.546420    0.718451
      4          1           0        0.329403   -0.107658   -1.504901
      5          6           0        1.115717    1.433579    0.663678
      6          6           0        0.424245    0.121866    0.714774
      7          1           0        0.572069    2.333570    0.922475
      8          1           0       -0.329403    0.107658    1.504901
      9          6           0        1.449468   -0.996358    0.973459
     10          1           0        1.860814   -0.868763    1.978620
     11          1           0        0.954950   -1.969025    0.953713
     12          6           0        2.394417    1.530763    0.127030
     13          1           0        2.830840    2.513824   -0.012217
     14          6           0        3.119495    0.424944   -0.248623
     15          1           0        4.087821    0.546420   -0.718451
     16          6           0        2.592866   -0.960276   -0.042448
     17          1           0        2.249153   -1.362262   -1.005025
     18          1           0        3.400748   -1.625122    0.274929
     19          6           0       -1.115717   -1.433580   -0.663678
     20          1           0       -0.572069   -2.333570   -0.922475
     21          6           0       -2.394417   -1.530763   -0.127030
     22          1           0       -2.830840   -2.513824    0.012217
     23          6           0       -1.449468    0.996358   -0.973459
     24          1           0       -0.954950    1.969025   -0.953713
     25          1           0       -1.860814    0.868763   -1.978620
     26          6           0       -2.592866    0.960276    0.042448
     27          1           0       -3.400748    1.625122   -0.274929
     28          1           0       -2.249153    1.362262    1.005025
 ---------------------------------------------------------------------
                    Distance matrix (angstroms):
                    1          2          3          4          5
     1  C    0.000000
     2  C    2.878257   0.000000
     3  H    1.083120   3.956788   0.000000
     4  H    3.882063   1.092011   4.964642   0.000000
     5  C    4.643641   2.586701   5.567783   2.774245   0.000000
     6  C    3.615853   1.680163   4.561289   2.233525   1.483690
     7  H    4.657373   3.114866   5.481838   3.451179   1.082826
     8  H    3.105884   2.233525   3.895129   3.088575   2.134032
     9  C    4.661258   2.669395   5.561389   2.861224   2.472235
    10  H    5.290874   3.610225   6.089186   3.880647   2.754092
    11  H    4.413892   2.845703   5.244873   3.146550   3.418725
    12  C    5.851735   3.374118   6.832560   3.100307   1.390147
    13  H    6.641602   4.246884   7.600450   3.918860   2.136682
    14  C    6.316214   3.615853   7.336497   3.105884   2.421727
    15  H    7.336497   4.561289   8.372581   3.895129   3.395693
    16  C    5.744769   3.202798   6.736603   2.826480   2.900194
    17  H    5.592189   2.961399   6.617644   2.347200   3.447604
    18  H    6.629833   4.227276   7.578851   3.860525   3.837726
    19  C    2.421728   1.483691   3.395694   2.134033   3.868045
    20  H    3.391711   2.226348   4.271657   2.471145   4.422207
    21  C    1.374660   2.492391   2.133398   3.367930   4.661929
    22  H    2.121940   3.470112   2.439149   4.251872   5.619760
    23  C    2.510493   1.538969   3.493369   2.160015   3.074338
    24  H    3.444119   2.170384   4.351836   2.503195   2.681477
    25  H    2.866804   2.154619   3.773128   2.444352   4.020012
    26  C    1.496222   2.539160   2.227555   3.474828   3.789925
    27  H    2.134474   3.479224   2.484848   4.292946   4.616939
    28  H    2.126910   2.913869   2.665688   3.887074   3.382891
                    6          7          8          9         10
     6  C    0.000000
     7  H    2.226348   0.000000
     8  H    1.092011   2.471145   0.000000
     9  C    1.538969   3.443958   2.160015   0.000000
    10  H    2.154619   3.609881   2.444352   1.093542   0.000000
    11  H    2.170384   4.319710   2.503195   1.091338   1.755449
    12  C    2.492391   2.144338   3.367930   2.827669   3.077473
    13  H    3.470112   2.451160   4.251872   3.898862   4.043053
    14  C    2.878257   3.391711   3.882063   2.510493   2.866804
    15  H    3.956788   4.271657   4.964642   3.493369   3.773128
    16  C    2.539160   3.982979   3.474828   1.529944   2.151509
    17  H    2.913869   4.492999   3.887074   2.165128   3.049014
    18  H    3.479224   4.908358   4.292946   2.165821   2.417858
    19  C    2.586702   4.422208   2.774246   3.074338   4.020012
    20  H    3.114866   5.147338   3.451179   3.077225   4.059671
    21  C    3.374118   4.983429   3.100307   4.033871   4.793641
    22  H    4.246884   5.992127   3.918860   4.641953   5.346455
    23  C    2.669395   3.077225   2.861224   4.020602   4.811592
    24  H    2.845703   2.446377   3.146550   4.276531   4.957837
    25  H    3.610225   4.059671   3.880647   4.811592   5.703443
    26  C    3.202798   3.560505   2.826480   4.586465   5.189356
    27  H    4.227276   4.209388   3.860525   5.652895   6.243555
    28  H    2.961399   2.984886   2.347200   4.386785   4.776734
                   11         12         13         14         15
    11  H    0.000000
    12  C    3.873498   0.000000
    13  H    4.954586   1.084557   0.000000
    14  C    3.444119   1.374660   2.121940   0.000000
    15  H    4.351836   2.133398   2.439149   1.083120   0.000000
    16  C    2.166259   2.504672   3.482372   1.496222   2.227555
    17  H    2.424825   3.110023   4.043275   2.126910   2.665688
    18  H    2.561434   3.315748   4.187854   2.134474   2.484848
    19  C    2.681477   4.661930   5.619761   4.643641   5.567783
    20  H    2.446377   4.983429   5.992127   4.657373   5.481838
    21  C    3.546595   5.689501   6.608720   5.851735   6.832560
    22  H    3.938963   6.608720   7.571820   6.641602   7.600450
    23  C    4.276531   4.033871   4.641953   4.661258   5.561389
    24  H    4.774330   3.546595   3.938963   4.413892   5.244873
    25  H    4.957837   4.793641   5.346455   5.290874   6.089186
    26  C    4.690225   5.020518   5.642082   5.744769   6.736603
    27  H    5.779235   5.809855   6.300119   6.629833   7.578851
    28  H    4.622378   4.728849   5.307279   5.592189   6.617644
                   16         17         18         19         20
    16  C    0.000000
    17  H    1.098310   0.000000
    18  H    1.093353   1.741709   0.000000
    19  C    3.789925   3.382891   4.616939   0.000000
    20  H    3.560505   2.984886   4.209388   1.082825   0.000000
    21  C    5.020518   4.728849   5.809855   1.390147   2.144338
    22  H    5.642082   5.307279   6.300119   2.136682   2.451160
    23  C    4.586465   4.386785   5.652895   2.472236   3.443958
    24  H    4.690225   4.622378   5.779235   3.418726   4.319710
    25  H    5.189356   4.776734   6.243555   2.754092   3.609881
    26  C    5.530601   5.471429   6.531595   2.900195   3.982979
    27  H    6.531595   6.432642   7.558226   3.837727   4.908358
    28  H    5.471429   5.630106   6.432642   3.447605   4.492999
                   21         22         23         24         25
    21  C    0.000000
    22  H    1.084557   0.000000
    23  C    2.827669   3.898862   0.000000
    24  H    3.873498   4.954586   1.091338   0.000000
    25  H    3.077473   4.043053   1.093542   1.755449   0.000000
    26  C    2.504672   3.482372   1.529944   2.166259   2.151509
    27  H    3.315748   4.187854   2.165821   2.561434   2.417858
    28  H    3.110023   4.043275   2.165128   2.424825   3.049014
                   26         27         28
    26  C    0.000000
    27  H    1.093353   0.000000
    28  H    1.098310   1.741709   0.000000
 Symmetry turned off by external request.
 Stoichiometry    C12H16
 Framework group  CI[X(C12H16)]
 Deg. of freedom    39
 Full point group                 CI      NOp   2
 Rotational constants (GHZ):           1.9815100           0.6443917           0.5539421
 Leave Link  202 at Mon Aug  3 17:34:13 2020, MaxMem=  6442450944 cpu:               0.3 elap:               0.0
 (Enter /scratch/scicomp/CentOS/7.3.1611/Haswell/software/Gaussian/g16/l301.exe)
 Standard basis: def2TZVP (5D, 7F)
 Ernie: Thresh=  0.10000D-02 Tol=  0.10000D-05 Strict=F.
   468 basis functions,   740 primitive gaussians,   528 cartesian basis functions
    44 alpha electrons       44 beta electrons
       nuclear repulsion energy       694.2658438604 Hartrees.
 IExCor= 4639 DFT=T Ex+Corr=wB97XD ExCW=0 ScaHFX=  1.000000
 ScaDFX=  1.000000  1.000000  1.000000  1.000000 ScalE2=  1.000000  1.000000
 IRadAn=      5 IRanWt=     -1 IRanGd=            0 ICorTp=0 IEmpDi=121
 HFx  wShort=  0.000000 wLong=  0.200000 cFull=  0.222036 cShort=  0.000000 cLong=  0.777964
 DFx  wShort=  0.000000 wLong=  0.200000 cFull=  0.000000 cShort=  0.000000 cLong=  1.000000
 NAtoms=   28 NActive=   28 NUniq=   28 SFac= 1.00D+00 NAtFMM=   60 NAOKFM=F Big=F
 Integral buffers will be    131072 words long.
 Raffenetti 2 integral format.
 Two-electron integral symmetry is turned off.
 R6Disp:  Grimme-D2 Dispersion energy=       -0.0228620695 Hartrees.
 Nuclear repulsion after empirical dispersion term =      694.2429817908 Hartrees.
 Using the following non-standard input for PCM:
 qrep pcmdoc geomview  nodis nocav g03defaults tsare=0.075
 Warning! Using old PCM defaults because the g03defaults keyword was found.
 These settings can be overridden by following keywords.
 nsfe=28
 NVESolv=36  SolvMW=84.1595   Rsolv=2.815
 eps=2.0165 RhoS=0.7781
 --- end of non-standard input.
 Reading user-defined spheres from input:
 ISph  on   Nord    Re0     Alpha      Xe            Ye            Ze
 --- end of user-defined spheres data.
 ------------------------------------------------------------------------------
 Polarizable Continuum Model (PCM)
 =================================
 Model                : PCM.
 Atomic radii         : UA0 (Simple United Atom Topological Model).
 Polarization charges : Total charges.
 Charge compensation  : None.
 Solution method      : On-the-fly selection.
 Cavity type          : SES (Solvent Excluding Surface) (Alpha=1.000).
 Cavity algorithm     : GePol (RMin=0.200 OFac=0.890).
                        User-defined sphere list used, NSphG=   28.
                        Tesserae with average area of 0.075 Ang**2.
                        Smoothing algorithm: None.
                        Polarization charges: point-like.
                        Self-potential: constant (ISelfS= 1).
                        Self-field    : global E.n sum rule (ISelfD= 3).
 Solvent              : CycloHexane, Eps=   2.016500 Eps(inf)=   2.035188
                        RSolv=   2.815000 Ang.
 ------------------------------------------------------------------------------
 GePol: Number of generator spheres                  =      28
 GePol: Total number of spheres                      =     201
 GePol: Number of exposed spheres                    =     150 ( 74.63%)
 GePol: Number of tesserae                           =    4749
 GePol: Average area of tesserae                     =       0.04 Ang**2
 GePol: Minimum area of tessera                      =   0.10D-02 Ang**2
 GePol: Maximum area of tessera                      =    0.11477 Ang**2
 GePol: Number of small tesserae                     =       0
 GePol: Fraction of small tesserae (<1% of avg)      =       0.00%
 GePol: Total count of vertices                      =   16916
 GePol: Maximum number of vertices in a tessera      =       7
 GePol: Cavity surface area                          =    211.415 Ang**2
 GePol: Cavity volume                                =    230.651 Ang**3
 Leave Link  301 at Mon Aug  3 17:34:13 2020, MaxMem=  6442450944 cpu:               7.9 elap:               0.4
 (Enter /scratch/scicomp/CentOS/7.3.1611/Haswell/software/Gaussian/g16/l302.exe)
 NPDir=0 NMtPBC=     1 NCelOv=     1 NCel=       1 NClECP=     1 NCelD=      1
         NCelK=      1 NCelE2=     1 NClLst=     1 CellRange=     0.0.
 One-electron integrals computed using PRISM.
   1 Symmetry operations used in ECPInt.
 ECPInt:  NShTT=   19306 NPrTT=   56928 LenC2=   18534 LenP2D=   42298.
 LDataN:  DoStor=T MaxTD1= 6 Len=  172
 NBasis=   468 RedAO= T EigKep=  3.55D-05  NBF=   468
 NBsUse=   468 1.00D-06 EigRej= -1.00D+00 NBFU=   468
 Precomputing XC quadrature grid using
 IXCGrd= 4 IRadAn=           5 IRanWt=          -1 IRanGd=           0 AccXCQ= 0.00D+00.
 Generated NRdTot=       0 NPtTot=           0 NUsed=           0 NTot=          32
 NSgBfM=   526   526   526   526   526 MxSgAt=    28 MxSgA2=    28.
 Leave Link  302 at Mon Aug  3 17:34:14 2020, MaxMem=  6442450944 cpu:              11.6 elap:               0.5
 (Enter /scratch/scicomp/CentOS/7.3.1611/Haswell/software/Gaussian/g16/l401.exe)
 ExpMin= 9.52D-02 ExpMax= 1.36D+04 ExpMxC= 4.63D+02 IAcc=3 IRadAn=         5 AccDes= 0.00D+00
 Harris functional with IExCor= 4639 and IRadAn=       5 diagonalized for initial guess.
 HarFok:  IExCor= 4639 AccDes= 0.00D+00 IRadAn=         5 IDoV= 1 UseB2=F ITyADJ=14
 ICtDFT=  3500011 ScaDFX=  1.000000  1.000000  1.000000  1.000000
 FoFCou: FMM=F IPFlag=           0 FMFlag=      100000 FMFlg1=           0
         NFxFlg=           0 DoJE=T BraDBF=F KetDBF=T FulRan=T
         wScrn=  0.000000 ICntrl=       500 IOpCl=  0 I1Cent=   200000004 NGrid=           0
         NMat0=    1 NMatS0=      1 NMatT0=    0 NMatD0=    1 NMtDS0=    0 NMtDT0=    0
 Symmetry not used in FoFCou.
 Harris En= -444.586620071213    
 JPrj=0 DoOrth=F DoCkMO=T.
 Mixing orbitals, IMix= 1 IMixAn=  0 NRI=1 NE=   44 Coef=  7.07106781D-01  7.07106781D-01
 Mixing orbitals, IMix= 1 IMixAn=  0 NRI=1 NE=   44 Coef= -7.07106781D-01  7.07106781D-01
 Initial guess <Sx>= 0.0000 <Sy>= 0.0000 <Sz>= 0.0000 <S**2>= 1.0000 S= 0.6180
 Leave Link  401 at Mon Aug  3 17:34:16 2020, MaxMem=  6442450944 cpu:              48.1 elap:               2.1
 (Enter /scratch/scicomp/CentOS/7.3.1611/Haswell/software/Gaussian/g16/l9999.exe)

 This type of calculation cannot be archived.


 EXPERIENCE IS A WONDERFUL THING.  IT ENABLES
 YOU TO RECOGNIZE A MISTAKE WHEN YOU MAKE IT AGAIN.
           - BACK OF A SUGAR PACKET
 Job cpu time:       0 days  0 hours  1 minutes 12.8 seconds.
 Elapsed time:       0 days  0 hours  0 minutes  3.3 seconds.
 File lengths (MBytes):  RWF=    410 Int=      0 D2E=      0 Chk=      1 Scr=      1
 Normal termination of Gaussian 16 at Mon Aug  3 17:34:16 2020.
 Initial command:
 /scratch/scicomp/CentOS/7.3.1611/Haswell/software/Gaussian/g16/l1.exe "/scratch/bochen/cyclohexadiene-dimerization/wb97xd-def2tzvp/xp-pcm/meso/Gau-113865.inp" -scrdir="/scratch/bochen/cyclohexadiene-dimerization/wb97xd-def2tzvp/xp-pcm/meso/"
 Entering Link 1 = /scratch/scicomp/CentOS/7.3.1611/Haswell/software/Gaussian/g16/l1.exe PID=    114191.
  
 Copyright (c) 1988-2017, Gaussian, Inc.  All Rights Reserved.
  
 This is part of the Gaussian(R) 16 program.  It is based on
 the Gaussian(R) 09 system (copyright 2009, Gaussian, Inc.),
 the Gaussian(R) 03 system (copyright 2003, Gaussian, Inc.),
 the Gaussian(R) 98 system (copyright 1998, Gaussian, Inc.),
 the Gaussian(R) 94 system (copyright 1995, Gaussian, Inc.),
 the Gaussian 92(TM) system (copyright 1992, Gaussian, Inc.),
 the Gaussian 90(TM) system (copyright 1990, Gaussian, Inc.),
 the Gaussian 88(TM) system (copyright 1988, Gaussian, Inc.),
 the Gaussian 86(TM) system (copyright 1986, Carnegie Mellon
 University), and the Gaussian 82(TM) system (copyright 1983,
 Carnegie Mellon University). Gaussian is a federally registered
 trademark of Gaussian, Inc.
  
 This software contains proprietary and confidential information,
 including trade secrets, belonging to Gaussian, Inc.
  
 This software is provided under written license and may be
 used, copied, transmitted, or stored only in accord with that
 written license.
  
 The following legend is applicable only to US Government
 contracts under FAR:
  
                    RESTRICTED RIGHTS LEGEND
  
 Use, reproduction and disclosure by the US Government is
 subject to restrictions as set forth in subparagraphs (a)
 and (c) of the Commercial Computer Software - Restricted
 Rights clause in FAR 52.227-19.
  
 Gaussian, Inc.
 340 Quinnipiac St., Bldg. 40, Wallingford CT 06492
  
  
 ---------------------------------------------------------------
 Warning -- This program may not be used in any manner that
 competes with the business of Gaussian, Inc. or will provide
 assistance to any competitor of Gaussian, Inc.  The licensee
 of this program is prohibited from giving any competitor of
 Gaussian, Inc. access to this program.  By using this program,
 the user acknowledges that Gaussian, Inc. is engaged in the
 business of creating and licensing software in the field of
 computational chemistry and represents and warrants to the
 licensee that it is not a competitor of Gaussian, Inc. and that
 it will not use this program in any manner prohibited above.
 ---------------------------------------------------------------
  

 Cite this work as:
 Gaussian 16, Revision B.01,
 M. J. Frisch, G. W. Trucks, H. B. Schlegel, G. E. Scuseria, 
 M. A. Robb, J. R. Cheeseman, G. Scalmani, V. Barone, 
 G. A. Petersson, H. Nakatsuji, X. Li, M. Caricato, A. V. Marenich, 
 J. Bloino, B. G. Janesko, R. Gomperts, B. Mennucci, H. P. Hratchian, 
 J. V. Ortiz, A. F. Izmaylov, J. L. Sonnenberg, D. Williams-Young, 
 F. Ding, F. Lipparini, F. Egidi, J. Goings, B. Peng, A. Petrone, 
 T. Henderson, D. Ranasinghe, V. G. Zakrzewski, J. Gao, N. Rega, 
 G. Zheng, W. Liang, M. Hada, M. Ehara, K. Toyota, R. Fukuda, 
 J. Hasegawa, M. Ishida, T. Nakajima, Y. Honda, O. Kitao, H. Nakai, 
 T. Vreven, K. Throssell, J. A. Montgomery, Jr., J. E. Peralta, 
 F. Ogliaro, M. J. Bearpark, J. J. Heyd, E. N. Brothers, K. N. Kudin, 
 V. N. Staroverov, T. A. Keith, R. Kobayashi, J. Normand, 
 K. Raghavachari, A. P. Rendell, J. C. Burant, S. S. Iyengar, 
 J. Tomasi, M. Cossi, J. M. Millam, M. Klene, C. Adamo, R. Cammi, 
 J. W. Ochterski, R. L. Martin, K. Morokuma, O. Farkas, 
 J. B. Foresman, and D. J. Fox, Gaussian, Inc., Wallingford CT, 2016.
 
 ******************************************
 Gaussian 16:  ES64L-G16RevB.01 20-Dec-2017
                 3-Aug-2020 
 ******************************************
 %chk=meso-TS_16_1_xp-110.chk
 %nproc=24
 Will use up to   24 processors via shared memory.
 %mem=48GB
 ----------------------------------------------------------------------
 #p uwb97xd guess=mix def2tzvp # scrf=(iefpcm,solvent=Cyclohexane,read)
  nosym guess=only pop=none
 ----------------------------------------------------------------------
 1/38=1,40=2,172=1/1;
 2/12=2,15=1,17=6,18=5,40=1/2;
 3/5=44,7=101,11=2,25=1,30=1,70=2203,72=17,74=-58,89=1,116=2/1,2;
 4/13=-1/1;
 99/5=2/99;
 Leave Link    1 at Mon Aug  3 17:34:16 2020, MaxMem=  6442450944 cpu:               1.5 elap:               0.1
 (Enter /scratch/scicomp/CentOS/7.3.1611/Haswell/software/Gaussian/g16/l101.exe)
 -----------------------
 endo-2 xp-pcm for eta=3
 -----------------------
 Symbolic Z-matrix:
 Charge =  0 Multiplicity = 1
 6                    -3.1195   -0.42494   0.24862 
 6                    -0.42425  -0.12187  -0.71477 
 1                    -4.08782  -0.54642   0.71845 
 1                     0.3294   -0.10766  -1.5049 
 6                     1.11572   1.43358   0.66368 
 6                     0.42425   0.12187   0.71477 
 1                     0.57207   2.33357   0.92248 
 1                    -0.3294    0.10766   1.5049 
 6                     1.44947  -0.99636   0.97346 
 1                     1.86081  -0.86876   1.97862 
 1                     0.95495  -1.96903   0.95371 
 6                     2.39442   1.53076   0.12703 
 1                     2.83084   2.51382  -0.01222 
 6                     3.1195    0.42494  -0.24862 
 1                     4.08782   0.54642  -0.71845 
 6                     2.59287  -0.96028  -0.04245 
 1                     2.24915  -1.36226  -1.00503 
 1                     3.40075  -1.62512   0.27493 
 6                    -1.11572  -1.43358  -0.66368 
 1                    -0.57207  -2.33357  -0.92248 
 6                    -2.39442  -1.53076  -0.12703 
 1                    -2.83084  -2.51382   0.01222 
 6                    -1.44947   0.99636  -0.97346 
 1                    -0.95495   1.96903  -0.95371 
 1                    -1.86081   0.86876  -1.97862 
 6                    -2.59287   0.96028   0.04245 
 1                    -3.40075   1.62512  -0.27493 
 1                    -2.24915   1.36226   1.00503 
 
 ITRead=  0  0  0  0  0  0  0  0  0  0  0  0  0  0  0  0  0  0  0  0
 ITRead=  0  0  0  0  0  0  0  0
 MicOpt= -1 -1 -1 -1 -1 -1 -1 -1 -1 -1 -1 -1 -1 -1 -1 -1 -1 -1 -1 -1
 MicOpt= -1 -1 -1 -1 -1 -1 -1 -1
 NAtoms=     28 NQM=       28 NQMF=       0 NMMI=      0 NMMIF=      0
                NMic=       0 NMicF=      0.
                    Isotopes and Nuclear Properties:
 (Nuclear quadrupole moments (NQMom) in fm**2, nuclear magnetic moments (NMagM)
  in nuclear magnetons)

  Atom         1           2           3           4           5           6           7           8           9          10
 IAtWgt=          12          12           1           1          12          12           1           1          12           1
 AtmWgt=  12.0000000  12.0000000   1.0078250   1.0078250  12.0000000  12.0000000   1.0078250   1.0078250  12.0000000   1.0078250
 NucSpn=           0           0           1           1           0           0           1           1           0           1
 AtZEff=  -0.0000000  -0.0000000  -0.0000000  -0.0000000  -0.0000000  -0.0000000  -0.0000000  -0.0000000  -0.0000000  -0.0000000
 NQMom=    0.0000000   0.0000000   0.0000000   0.0000000   0.0000000   0.0000000   0.0000000   0.0000000   0.0000000   0.0000000
 NMagM=    0.0000000   0.0000000   2.7928460   2.7928460   0.0000000   0.0000000   2.7928460   2.7928460   0.0000000   2.7928460
 AtZNuc=   6.0000000   6.0000000   1.0000000   1.0000000   6.0000000   6.0000000   1.0000000   1.0000000   6.0000000   1.0000000

  Atom        11          12          13          14          15          16          17          18          19          20
 IAtWgt=           1          12           1          12           1          12           1           1          12           1
 AtmWgt=   1.0078250  12.0000000   1.0078250  12.0000000   1.0078250  12.0000000   1.0078250   1.0078250  12.0000000   1.0078250
 NucSpn=           1           0           1           0           1           0           1           1           0           1
 AtZEff=  -0.0000000  -0.0000000  -0.0000000  -0.0000000  -0.0000000  -0.0000000  -0.0000000  -0.0000000  -0.0000000  -0.0000000
 NQMom=    0.0000000   0.0000000   0.0000000   0.0000000   0.0000000   0.0000000   0.0000000   0.0000000   0.0000000   0.0000000
 NMagM=    2.7928460   0.0000000   2.7928460   0.0000000   2.7928460   0.0000000   2.7928460   2.7928460   0.0000000   2.7928460
 AtZNuc=   1.0000000   6.0000000   1.0000000   6.0000000   1.0000000   6.0000000   1.0000000   1.0000000   6.0000000   1.0000000

  Atom        21          22          23          24          25          26          27          28
 IAtWgt=          12           1          12           1           1          12           1           1
 AtmWgt=  12.0000000   1.0078250  12.0000000   1.0078250   1.0078250  12.0000000   1.0078250   1.0078250
 NucSpn=           0           1           0           1           1           0           1           1
 AtZEff=  -0.0000000  -0.0000000  -0.0000000  -0.0000000  -0.0000000  -0.0000000  -0.0000000  -0.0000000
 NQMom=    0.0000000   0.0000000   0.0000000   0.0000000   0.0000000   0.0000000   0.0000000   0.0000000
 NMagM=    0.0000000   2.7928460   0.0000000   2.7928460   2.7928460   0.0000000   2.7928460   2.7928460
 AtZNuc=   6.0000000   1.0000000   6.0000000   1.0000000   1.0000000   6.0000000   1.0000000   1.0000000
 Leave Link  101 at Mon Aug  3 17:34:17 2020, MaxMem=  6442450944 cpu:               2.4 elap:               0.1
 (Enter /scratch/scicomp/CentOS/7.3.1611/Haswell/software/Gaussian/g16/l202.exe)
                          Input orientation:                          
 ---------------------------------------------------------------------
 Center     Atomic      Atomic             Coordinates (Angstroms)
 Number     Number       Type             X           Y           Z
 ---------------------------------------------------------------------
      1          6           0       -3.119495   -0.424944    0.248623
      2          6           0       -0.424245   -0.121866   -0.714774
      3          1           0       -4.087821   -0.546420    0.718451
      4          1           0        0.329403   -0.107658   -1.504901
      5          6           0        1.115717    1.433579    0.663678
      6          6           0        0.424245    0.121866    0.714774
      7          1           0        0.572069    2.333570    0.922475
      8          1           0       -0.329403    0.107658    1.504901
      9          6           0        1.449468   -0.996358    0.973459
     10          1           0        1.860814   -0.868763    1.978620
     11          1           0        0.954950   -1.969025    0.953713
     12          6           0        2.394417    1.530763    0.127030
     13          1           0        2.830840    2.513824   -0.012217
     14          6           0        3.119495    0.424944   -0.248623
     15          1           0        4.087821    0.546420   -0.718451
     16          6           0        2.592866   -0.960276   -0.042448
     17          1           0        2.249153   -1.362262   -1.005025
     18          1           0        3.400748   -1.625122    0.274929
     19          6           0       -1.115717   -1.433580   -0.663678
     20          1           0       -0.572069   -2.333570   -0.922475
     21          6           0       -2.394417   -1.530763   -0.127030
     22          1           0       -2.830840   -2.513824    0.012217
     23          6           0       -1.449468    0.996358   -0.973459
     24          1           0       -0.954950    1.969025   -0.953713
     25          1           0       -1.860814    0.868763   -1.978620
     26          6           0       -2.592866    0.960276    0.042448
     27          1           0       -3.400748    1.625122   -0.274929
     28          1           0       -2.249153    1.362262    1.005025
 ---------------------------------------------------------------------
                    Distance matrix (angstroms):
                    1          2          3          4          5
     1  C    0.000000
     2  C    2.878257   0.000000
     3  H    1.083120   3.956788   0.000000
     4  H    3.882063   1.092011   4.964642   0.000000
     5  C    4.643641   2.586701   5.567783   2.774245   0.000000
     6  C    3.615853   1.680163   4.561289   2.233525   1.483690
     7  H    4.657373   3.114866   5.481838   3.451179   1.082826
     8  H    3.105884   2.233525   3.895129   3.088575   2.134032
     9  C    4.661258   2.669395   5.561389   2.861224   2.472235
    10  H    5.290874   3.610225   6.089186   3.880647   2.754092
    11  H    4.413892   2.845703   5.244873   3.146550   3.418725
    12  C    5.851735   3.374118   6.832560   3.100307   1.390147
    13  H    6.641602   4.246884   7.600450   3.918860   2.136682
    14  C    6.316214   3.615853   7.336497   3.105884   2.421727
    15  H    7.336497   4.561289   8.372581   3.895129   3.395693
    16  C    5.744769   3.202798   6.736603   2.826480   2.900194
    17  H    5.592189   2.961399   6.617644   2.347200   3.447604
    18  H    6.629833   4.227276   7.578851   3.860525   3.837726
    19  C    2.421728   1.483691   3.395694   2.134033   3.868045
    20  H    3.391711   2.226348   4.271657   2.471145   4.422207
    21  C    1.374660   2.492391   2.133398   3.367930   4.661929
    22  H    2.121940   3.470112   2.439149   4.251872   5.619760
    23  C    2.510493   1.538969   3.493369   2.160015   3.074338
    24  H    3.444119   2.170384   4.351836   2.503195   2.681477
    25  H    2.866804   2.154619   3.773128   2.444352   4.020012
    26  C    1.496222   2.539160   2.227555   3.474828   3.789925
    27  H    2.134474   3.479224   2.484848   4.292946   4.616939
    28  H    2.126910   2.913869   2.665688   3.887074   3.382891
                    6          7          8          9         10
     6  C    0.000000
     7  H    2.226348   0.000000
     8  H    1.092011   2.471145   0.000000
     9  C    1.538969   3.443958   2.160015   0.000000
    10  H    2.154619   3.609881   2.444352   1.093542   0.000000
    11  H    2.170384   4.319710   2.503195   1.091338   1.755449
    12  C    2.492391   2.144338   3.367930   2.827669   3.077473
    13  H    3.470112   2.451160   4.251872   3.898862   4.043053
    14  C    2.878257   3.391711   3.882063   2.510493   2.866804
    15  H    3.956788   4.271657   4.964642   3.493369   3.773128
    16  C    2.539160   3.982979   3.474828   1.529944   2.151509
    17  H    2.913869   4.492999   3.887074   2.165128   3.049014
    18  H    3.479224   4.908358   4.292946   2.165821   2.417858
    19  C    2.586702   4.422208   2.774246   3.074338   4.020012
    20  H    3.114866   5.147338   3.451179   3.077225   4.059671
    21  C    3.374118   4.983429   3.100307   4.033871   4.793641
    22  H    4.246884   5.992127   3.918860   4.641953   5.346455
    23  C    2.669395   3.077225   2.861224   4.020602   4.811592
    24  H    2.845703   2.446377   3.146550   4.276531   4.957837
    25  H    3.610225   4.059671   3.880647   4.811592   5.703443
    26  C    3.202798   3.560505   2.826480   4.586465   5.189356
    27  H    4.227276   4.209388   3.860525   5.652895   6.243555
    28  H    2.961399   2.984886   2.347200   4.386785   4.776734
                   11         12         13         14         15
    11  H    0.000000
    12  C    3.873498   0.000000
    13  H    4.954586   1.084557   0.000000
    14  C    3.444119   1.374660   2.121940   0.000000
    15  H    4.351836   2.133398   2.439149   1.083120   0.000000
    16  C    2.166259   2.504672   3.482372   1.496222   2.227555
    17  H    2.424825   3.110023   4.043275   2.126910   2.665688
    18  H    2.561434   3.315748   4.187854   2.134474   2.484848
    19  C    2.681477   4.661930   5.619761   4.643641   5.567783
    20  H    2.446377   4.983429   5.992127   4.657373   5.481838
    21  C    3.546595   5.689501   6.608720   5.851735   6.832560
    22  H    3.938963   6.608720   7.571820   6.641602   7.600450
    23  C    4.276531   4.033871   4.641953   4.661258   5.561389
    24  H    4.774330   3.546595   3.938963   4.413892   5.244873
    25  H    4.957837   4.793641   5.346455   5.290874   6.089186
    26  C    4.690225   5.020518   5.642082   5.744769   6.736603
    27  H    5.779235   5.809855   6.300119   6.629833   7.578851
    28  H    4.622378   4.728849   5.307279   5.592189   6.617644
                   16         17         18         19         20
    16  C    0.000000
    17  H    1.098310   0.000000
    18  H    1.093353   1.741709   0.000000
    19  C    3.789925   3.382891   4.616939   0.000000
    20  H    3.560505   2.984886   4.209388   1.082825   0.000000
    21  C    5.020518   4.728849   5.809855   1.390147   2.144338
    22  H    5.642082   5.307279   6.300119   2.136682   2.451160
    23  C    4.586465   4.386785   5.652895   2.472236   3.443958
    24  H    4.690225   4.622378   5.779235   3.418726   4.319710
    25  H    5.189356   4.776734   6.243555   2.754092   3.609881
    26  C    5.530601   5.471429   6.531595   2.900195   3.982979
    27  H    6.531595   6.432642   7.558226   3.837727   4.908358
    28  H    5.471429   5.630106   6.432642   3.447605   4.492999
                   21         22         23         24         25
    21  C    0.000000
    22  H    1.084557   0.000000
    23  C    2.827669   3.898862   0.000000
    24  H    3.873498   4.954586   1.091338   0.000000
    25  H    3.077473   4.043053   1.093542   1.755449   0.000000
    26  C    2.504672   3.482372   1.529944   2.166259   2.151509
    27  H    3.315748   4.187854   2.165821   2.561434   2.417858
    28  H    3.110023   4.043275   2.165128   2.424825   3.049014
                   26         27         28
    26  C    0.000000
    27  H    1.093353   0.000000
    28  H    1.098310   1.741709   0.000000
 Symmetry turned off by external request.
 Stoichiometry    C12H16
 Framework group  CI[X(C12H16)]
 Deg. of freedom    39
 Full point group                 CI      NOp   2
 Rotational constants (GHZ):           1.9815100           0.6443917           0.5539421
 Leave Link  202 at Mon Aug  3 17:34:18 2020, MaxMem=  6442450944 cpu:               0.3 elap:               0.0
 (Enter /scratch/scicomp/CentOS/7.3.1611/Haswell/software/Gaussian/g16/l301.exe)
 Standard basis: def2TZVP (5D, 7F)
 Ernie: Thresh=  0.10000D-02 Tol=  0.10000D-05 Strict=F.
   468 basis functions,   740 primitive gaussians,   528 cartesian basis functions
    44 alpha electrons       44 beta electrons
       nuclear repulsion energy       694.2658438604 Hartrees.
 IExCor= 4639 DFT=T Ex+Corr=wB97XD ExCW=0 ScaHFX=  1.000000
 ScaDFX=  1.000000  1.000000  1.000000  1.000000 ScalE2=  1.000000  1.000000
 IRadAn=      5 IRanWt=     -1 IRanGd=            0 ICorTp=0 IEmpDi=121
 HFx  wShort=  0.000000 wLong=  0.200000 cFull=  0.222036 cShort=  0.000000 cLong=  0.777964
 DFx  wShort=  0.000000 wLong=  0.200000 cFull=  0.000000 cShort=  0.000000 cLong=  1.000000
 NAtoms=   28 NActive=   28 NUniq=   28 SFac= 1.00D+00 NAtFMM=   60 NAOKFM=F Big=F
 Integral buffers will be    131072 words long.
 Raffenetti 2 integral format.
 Two-electron integral symmetry is turned off.
 R6Disp:  Grimme-D2 Dispersion energy=       -0.0228620695 Hartrees.
 Nuclear repulsion after empirical dispersion term =      694.2429817908 Hartrees.
 Using the following non-standard input for PCM:
 qrep pcmdoc geomview  nodis nocav g03defaults tsare=0.075
 Warning! Using old PCM defaults because the g03defaults keyword was found.
 These settings can be overridden by following keywords.
 nsfe=28
 NVESolv=36  SolvMW=84.1595   Rsolv=2.815
 eps=2.0165 RhoS=0.7781
 --- end of non-standard input.
 Reading user-defined spheres from input:
 ISph  on   Nord    Re0     Alpha      Xe            Ye            Ze
 --- end of user-defined spheres data.
 ------------------------------------------------------------------------------
 Polarizable Continuum Model (PCM)
 =================================
 Model                : PCM.
 Atomic radii         : UA0 (Simple United Atom Topological Model).
 Polarization charges : Total charges.
 Charge compensation  : None.
 Solution method      : On-the-fly selection.
 Cavity type          : SES (Solvent Excluding Surface) (Alpha=1.000).
 Cavity algorithm     : GePol (RMin=0.200 OFac=0.890).
                        User-defined sphere list used, NSphG=   28.
                        Tesserae with average area of 0.075 Ang**2.
                        Smoothing algorithm: None.
                        Polarization charges: point-like.
                        Self-potential: constant (ISelfS= 1).
                        Self-field    : global E.n sum rule (ISelfD= 3).
 Solvent              : CycloHexane, Eps=   2.016500 Eps(inf)=   2.035188
                        RSolv=   2.815000 Ang.
 ------------------------------------------------------------------------------
 GePol: Number of generator spheres                  =      28
 GePol: Total number of spheres                      =     249
 GePol: Number of exposed spheres                    =     180 ( 72.29%)
 GePol: Number of tesserae                           =    4630
 GePol: Average area of tesserae                     =       0.04 Ang**2
 GePol: Minimum area of tessera                      =   0.10D-02 Ang**2
 GePol: Maximum area of tessera                      =    0.11909 Ang**2
 GePol: Number of small tesserae                     =       0
 GePol: Fraction of small tesserae (<1% of avg)      =       0.00%
 GePol: Total count of vertices                      =   16758
 GePol: Maximum number of vertices in a tessera      =       8
 GePol: Cavity surface area                          =    204.346 Ang**2
 GePol: Cavity volume                                =    217.769 Ang**3
 Leave Link  301 at Mon Aug  3 17:34:18 2020, MaxMem=  6442450944 cpu:               8.3 elap:               0.4
 (Enter /scratch/scicomp/CentOS/7.3.1611/Haswell/software/Gaussian/g16/l302.exe)
 NPDir=0 NMtPBC=     1 NCelOv=     1 NCel=       1 NClECP=     1 NCelD=      1
         NCelK=      1 NCelE2=     1 NClLst=     1 CellRange=     0.0.
 One-electron integrals computed using PRISM.
   1 Symmetry operations used in ECPInt.
 ECPInt:  NShTT=   19306 NPrTT=   56928 LenC2=   18534 LenP2D=   42298.
 LDataN:  DoStor=T MaxTD1= 6 Len=  172
 NBasis=   468 RedAO= T EigKep=  3.55D-05  NBF=   468
 NBsUse=   468 1.00D-06 EigRej= -1.00D+00 NBFU=   468
 Precomputing XC quadrature grid using
 IXCGrd= 4 IRadAn=           5 IRanWt=          -1 IRanGd=           0 AccXCQ= 0.00D+00.
 Generated NRdTot=       0 NPtTot=           0 NUsed=           0 NTot=          32
 NSgBfM=   526   526   526   526   526 MxSgAt=    28 MxSgA2=    28.
 Leave Link  302 at Mon Aug  3 17:34:19 2020, MaxMem=  6442450944 cpu:              11.7 elap:               0.5
 (Enter /scratch/scicomp/CentOS/7.3.1611/Haswell/software/Gaussian/g16/l401.exe)
 ExpMin= 9.52D-02 ExpMax= 1.36D+04 ExpMxC= 4.63D+02 IAcc=3 IRadAn=         5 AccDes= 0.00D+00
 Harris functional with IExCor= 4639 and IRadAn=       5 diagonalized for initial guess.
 HarFok:  IExCor= 4639 AccDes= 0.00D+00 IRadAn=         5 IDoV= 1 UseB2=F ITyADJ=14
 ICtDFT=  3500011 ScaDFX=  1.000000  1.000000  1.000000  1.000000
 FoFCou: FMM=F IPFlag=           0 FMFlag=      100000 FMFlg1=           0
         NFxFlg=           0 DoJE=T BraDBF=F KetDBF=T FulRan=T
         wScrn=  0.000000 ICntrl=       500 IOpCl=  0 I1Cent=   200000004 NGrid=           0
         NMat0=    1 NMatS0=      1 NMatT0=    0 NMatD0=    1 NMtDS0=    0 NMtDT0=    0
 Symmetry not used in FoFCou.
 Harris En= -444.586620071213    
 JPrj=0 DoOrth=F DoCkMO=T.
 Mixing orbitals, IMix= 1 IMixAn=  0 NRI=1 NE=   44 Coef=  7.07106781D-01  7.07106781D-01
 Mixing orbitals, IMix= 1 IMixAn=  0 NRI=1 NE=   44 Coef= -7.07106781D-01  7.07106781D-01
 Initial guess <Sx>= 0.0000 <Sy>= 0.0000 <Sz>= 0.0000 <S**2>= 1.0000 S= 0.6180
 Leave Link  401 at Mon Aug  3 17:34:21 2020, MaxMem=  6442450944 cpu:              48.1 elap:               2.1
 (Enter /scratch/scicomp/CentOS/7.3.1611/Haswell/software/Gaussian/g16/l9999.exe)

 This type of calculation cannot be archived.


 GOD GAVE US TWO ENDS... ONE TO SIT ON...    
 AND THE OTHER TO THINK WITH...              
 YOUR SUCCESS DEPENDS UPON WHICH END YOU     
 USE THE MOST...                             
                                             
 IT'S A CASE OF HEADS YOU WIN TAILS YOU LOSE.
          SOURCE UNKNOWN(IT'S JUST AS WELL.) 
 Job cpu time:       0 days  0 hours  1 minutes 13.3 seconds.
 Elapsed time:       0 days  0 hours  0 minutes  3.3 seconds.
 File lengths (MBytes):  RWF=    394 Int=      0 D2E=      0 Chk=      1 Scr=      1
 Normal termination of Gaussian 16 at Mon Aug  3 17:34:21 2020.
 Initial command:
 /scratch/scicomp/CentOS/7.3.1611/Haswell/software/Gaussian/g16/l1.exe "/scratch/bochen/cyclohexadiene-dimerization/wb97xd-def2tzvp/xp-pcm/meso/Gau-113865.inp" -scrdir="/scratch/bochen/cyclohexadiene-dimerization/wb97xd-def2tzvp/xp-pcm/meso/"
 Entering Link 1 = /scratch/scicomp/CentOS/7.3.1611/Haswell/software/Gaussian/g16/l1.exe PID=    114353.
  
 Copyright (c) 1988-2017, Gaussian, Inc.  All Rights Reserved.
  
 This is part of the Gaussian(R) 16 program.  It is based on
 the Gaussian(R) 09 system (copyright 2009, Gaussian, Inc.),
 the Gaussian(R) 03 system (copyright 2003, Gaussian, Inc.),
 the Gaussian(R) 98 system (copyright 1998, Gaussian, Inc.),
 the Gaussian(R) 94 system (copyright 1995, Gaussian, Inc.),
 the Gaussian 92(TM) system (copyright 1992, Gaussian, Inc.),
 the Gaussian 90(TM) system (copyright 1990, Gaussian, Inc.),
 the Gaussian 88(TM) system (copyright 1988, Gaussian, Inc.),
 the Gaussian 86(TM) system (copyright 1986, Carnegie Mellon
 University), and the Gaussian 82(TM) system (copyright 1983,
 Carnegie Mellon University). Gaussian is a federally registered
 trademark of Gaussian, Inc.
  
 This software contains proprietary and confidential information,
 including trade secrets, belonging to Gaussian, Inc.
  
 This software is provided under written license and may be
 used, copied, transmitted, or stored only in accord with that
 written license.
  
 The following legend is applicable only to US Government
 contracts under FAR:
  
                    RESTRICTED RIGHTS LEGEND
  
 Use, reproduction and disclosure by the US Government is
 subject to restrictions as set forth in subparagraphs (a)
 and (c) of the Commercial Computer Software - Restricted
 Rights clause in FAR 52.227-19.
  
 Gaussian, Inc.
 340 Quinnipiac St., Bldg. 40, Wallingford CT 06492
  
  
 ---------------------------------------------------------------
 Warning -- This program may not be used in any manner that
 competes with the business of Gaussian, Inc. or will provide
 assistance to any competitor of Gaussian, Inc.  The licensee
 of this program is prohibited from giving any competitor of
 Gaussian, Inc. access to this program.  By using this program,
 the user acknowledges that Gaussian, Inc. is engaged in the
 business of creating and licensing software in the field of
 computational chemistry and represents and warrants to the
 licensee that it is not a competitor of Gaussian, Inc. and that
 it will not use this program in any manner prohibited above.
 ---------------------------------------------------------------
  

 Cite this work as:
 Gaussian 16, Revision B.01,
 M. J. Frisch, G. W. Trucks, H. B. Schlegel, G. E. Scuseria, 
 M. A. Robb, J. R. Cheeseman, G. Scalmani, V. Barone, 
 G. A. Petersson, H. Nakatsuji, X. Li, M. Caricato, A. V. Marenich, 
 J. Bloino, B. G. Janesko, R. Gomperts, B. Mennucci, H. P. Hratchian, 
 J. V. Ortiz, A. F. Izmaylov, J. L. Sonnenberg, D. Williams-Young, 
 F. Ding, F. Lipparini, F. Egidi, J. Goings, B. Peng, A. Petrone, 
 T. Henderson, D. Ranasinghe, V. G. Zakrzewski, J. Gao, N. Rega, 
 G. Zheng, W. Liang, M. Hada, M. Ehara, K. Toyota, R. Fukuda, 
 J. Hasegawa, M. Ishida, T. Nakajima, Y. Honda, O. Kitao, H. Nakai, 
 T. Vreven, K. Throssell, J. A. Montgomery, Jr., J. E. Peralta, 
 F. Ogliaro, M. J. Bearpark, J. J. Heyd, E. N. Brothers, K. N. Kudin, 
 V. N. Staroverov, T. A. Keith, R. Kobayashi, J. Normand, 
 K. Raghavachari, A. P. Rendell, J. C. Burant, S. S. Iyengar, 
 J. Tomasi, M. Cossi, J. M. Millam, M. Klene, C. Adamo, R. Cammi, 
 J. W. Ochterski, R. L. Martin, K. Morokuma, O. Farkas, 
 J. B. Foresman, and D. J. Fox, Gaussian, Inc., Wallingford CT, 2016.
 
 ******************************************
 Gaussian 16:  ES64L-G16RevB.01 20-Dec-2017
                 3-Aug-2020 
 ******************************************
 %chk=meso-TS_16_1_xp-105.chk
 %nproc=24
 Will use up to   24 processors via shared memory.
 %mem=48GB
 ----------------------------------------------------------------------
 #p uwb97xd guess=mix def2tzvp # scrf=(iefpcm,solvent=Cyclohexane,read)
  nosym guess=only pop=none
 ----------------------------------------------------------------------
 1/38=1,40=2,172=1/1;
 2/12=2,15=1,17=6,18=5,40=1/2;
 3/5=44,7=101,11=2,25=1,30=1,70=2203,72=17,74=-58,89=1,116=2/1,2;
 4/13=-1/1;
 99/5=2/99;
 Leave Link    1 at Mon Aug  3 17:34:21 2020, MaxMem=  6442450944 cpu:               1.5 elap:               0.1
 (Enter /scratch/scicomp/CentOS/7.3.1611/Haswell/software/Gaussian/g16/l101.exe)
 -----------------------
 endo-2 xp-pcm for eta=3
 -----------------------
 Symbolic Z-matrix:
 Charge =  0 Multiplicity = 1
 6                    -3.1195   -0.42494   0.24862 
 6                    -0.42425  -0.12187  -0.71477 
 1                    -4.08782  -0.54642   0.71845 
 1                     0.3294   -0.10766  -1.5049 
 6                     1.11572   1.43358   0.66368 
 6                     0.42425   0.12187   0.71477 
 1                     0.57207   2.33357   0.92248 
 1                    -0.3294    0.10766   1.5049 
 6                     1.44947  -0.99636   0.97346 
 1                     1.86081  -0.86876   1.97862 
 1                     0.95495  -1.96903   0.95371 
 6                     2.39442   1.53076   0.12703 
 1                     2.83084   2.51382  -0.01222 
 6                     3.1195    0.42494  -0.24862 
 1                     4.08782   0.54642  -0.71845 
 6                     2.59287  -0.96028  -0.04245 
 1                     2.24915  -1.36226  -1.00503 
[...]
 1                     0.3294   -0.10766  -1.5049 
 6                     1.11572   1.43358   0.66368 
 6                     0.42425   0.12187   0.71477 
 1                     0.57207   2.33357   0.92248 
 1                    -0.3294    0.10766   1.5049 
 6                     1.44947  -0.99636   0.97346 
 1                     1.86081  -0.86876   1.97862 
 1                     0.95495  -1.96903   0.95371 
 6                     2.39442   1.53076   0.12703 
 1                     2.83084   2.51382  -0.01222 
 6                     3.1195    0.42494  -0.24862 
 1                     4.08782   0.54642  -0.71845 
 6                     2.59287  -0.96028  -0.04245 
 1                     2.24915  -1.36226  -1.00503 
 1                     3.40075  -1.62512   0.27493 
 6                    -1.11572  -1.43358  -0.66368 
 1                    -0.57207  -2.33357  -0.92248 
 6                    -2.39442  -1.53076  -0.12703 
 1                    -2.83084  -2.51382   0.01222 
 6                    -1.44947   0.99636  -0.97346 
 1                    -0.95495   1.96903  -0.95371 
 1                    -1.86081   0.86876  -1.97862 
 6                    -2.59287   0.96028   0.04245 
 1                    -3.40075   1.62512  -0.27493 
 1                    -2.24915   1.36226   1.00503 
 
 ITRead=  0  0  0  0  0  0  0  0  0  0  0  0  0  0  0  0  0  0  0  0
 ITRead=  0  0  0  0  0  0  0  0
 MicOpt= -1 -1 -1 -1 -1 -1 -1 -1 -1 -1 -1 -1 -1 -1 -1 -1 -1 -1 -1 -1
 MicOpt= -1 -1 -1 -1 -1 -1 -1 -1
 NAtoms=     28 NQM=       28 NQMF=       0 NMMI=      0 NMMIF=      0
                NMic=       0 NMicF=      0.
                    Isotopes and Nuclear Properties:
 (Nuclear quadrupole moments (NQMom) in fm**2, nuclear magnetic moments (NMagM)
  in nuclear magnetons)

  Atom         1           2           3           4           5           6           7           8           9          10
 IAtWgt=          12          12           1           1          12          12           1           1          12           1
 AtmWgt=  12.0000000  12.0000000   1.0078250   1.0078250  12.0000000  12.0000000   1.0078250   1.0078250  12.0000000   1.0078250
 NucSpn=           0           0           1           1           0           0           1           1           0           1
 AtZEff=  -0.0000000  -0.0000000  -0.0000000  -0.0000000  -0.0000000  -0.0000000  -0.0000000  -0.0000000  -0.0000000  -0.0000000
 NQMom=    0.0000000   0.0000000   0.0000000   0.0000000   0.0000000   0.0000000   0.0000000   0.0000000   0.0000000   0.0000000
 NMagM=    0.0000000   0.0000000   2.7928460   2.7928460   0.0000000   0.0000000   2.7928460   2.7928460   0.0000000   2.7928460
 AtZNuc=   6.0000000   6.0000000   1.0000000   1.0000000   6.0000000   6.0000000   1.0000000   1.0000000   6.0000000   1.0000000

  Atom        11          12          13          14          15          16          17          18          19          20
 IAtWgt=           1          12           1          12           1          12           1           1          12           1
 AtmWgt=   1.0078250  12.0000000   1.0078250  12.0000000   1.0078250  12.0000000   1.0078250   1.0078250  12.0000000   1.0078250
 NucSpn=           1           0           1           0           1           0           1           1           0           1
 AtZEff=  -0.0000000  -0.0000000  -0.0000000  -0.0000000  -0.0000000  -0.0000000  -0.0000000  -0.0000000  -0.0000000  -0.0000000
 NQMom=    0.0000000   0.0000000   0.0000000   0.0000000   0.0000000   0.0000000   0.0000000   0.0000000   0.0000000   0.0000000
 NMagM=    2.7928460   0.0000000   2.7928460   0.0000000   2.7928460   0.0000000   2.7928460   2.7928460   0.0000000   2.7928460
 AtZNuc=   1.0000000   6.0000000   1.0000000   6.0000000   1.0000000   6.0000000   1.0000000   1.0000000   6.0000000   1.0000000

  Atom        21          22          23          24          25          26          27          28
 IAtWgt=          12           1          12           1           1          12           1           1
 AtmWgt=  12.0000000   1.0078250  12.0000000   1.0078250   1.0078250  12.0000000   1.0078250   1.0078250
 NucSpn=           0           1           0           1           1           0           1           1
 AtZEff=  -0.0000000  -0.0000000  -0.0000000  -0.0000000  -0.0000000  -0.0000000  -0.0000000  -0.0000000
 NQMom=    0.0000000   0.0000000   0.0000000   0.0000000   0.0000000   0.0000000   0.0000000   0.0000000
 NMagM=    0.0000000   2.7928460   0.0000000   2.7928460   2.7928460   0.0000000   2.7928460   2.7928460
 AtZNuc=   6.0000000   1.0000000   6.0000000   1.0000000   1.0000000   6.0000000   1.0000000   1.0000000
 Leave Link  101 at Mon Aug  3 17:34:33 2020, MaxMem=  6442450944 cpu:               2.4 elap:               0.1
 (Enter /scratch/scicomp/CentOS/7.3.1611/Haswell/software/Gaussian/g16/l202.exe)
                          Input orientation:                          
 ---------------------------------------------------------------------
 Center     Atomic      Atomic             Coordinates (Angstroms)
 Number     Number       Type             X           Y           Z
 ---------------------------------------------------------------------
      1          6           0       -3.119495   -0.424944    0.248623
      2          6           0       -0.424245   -0.121866   -0.714774
      3          1           0       -4.087821   -0.546420    0.718451
      4          1           0        0.329403   -0.107658   -1.504901
      5          6           0        1.115717    1.433579    0.663678
      6          6           0        0.424245    0.121866    0.714774
      7          1           0        0.572069    2.333570    0.922475
      8          1           0       -0.329403    0.107658    1.504901
      9          6           0        1.449468   -0.996358    0.973459
     10          1           0        1.860814   -0.868763    1.978620
     11          1           0        0.954950   -1.969025    0.953713
     12          6           0        2.394417    1.530763    0.127030
     13          1           0        2.830840    2.513824   -0.012217
     14          6           0        3.119495    0.424944   -0.248623
     15          1           0        4.087821    0.546420   -0.718451
     16          6           0        2.592866   -0.960276   -0.042448
     17          1           0        2.249153   -1.362262   -1.005025
     18          1           0        3.400748   -1.625122    0.274929
     19          6           0       -1.115717   -1.433580   -0.663678
     20          1           0       -0.572069   -2.333570   -0.922475
     21          6           0       -2.394417   -1.530763   -0.127030
     22          1           0       -2.830840   -2.513824    0.012217
     23          6           0       -1.449468    0.996358   -0.973459
     24          1           0       -0.954950    1.969025   -0.953713
     25          1           0       -1.860814    0.868763   -1.978620
     26          6           0       -2.592866    0.960276    0.042448
     27          1           0       -3.400748    1.625122   -0.274929
     28          1           0       -2.249153    1.362262    1.005025
 ---------------------------------------------------------------------
                    Distance matrix (angstroms):
                    1          2          3          4          5
     1  C    0.000000
     2  C    2.878257   0.000000
     3  H    1.083120   3.956788   0.000000
     4  H    3.882063   1.092011   4.964642   0.000000
     5  C    4.643641   2.586701   5.567783   2.774245   0.000000
     6  C    3.615853   1.680163   4.561289   2.233525   1.483690
     7  H    4.657373   3.114866   5.481838   3.451179   1.082826
     8  H    3.105884   2.233525   3.895129   3.088575   2.134032
     9  C    4.661258   2.669395   5.561389   2.861224   2.472235
    10  H    5.290874   3.610225   6.089186   3.880647   2.754092
    11  H    4.413892   2.845703   5.244873   3.146550   3.418725
    12  C    5.851735   3.374118   6.832560   3.100307   1.390147
    13  H    6.641602   4.246884   7.600450   3.918860   2.136682
    14  C    6.316214   3.615853   7.336497   3.105884   2.421727
    15  H    7.336497   4.561289   8.372581   3.895129   3.395693
    16  C    5.744769   3.202798   6.736603   2.826480   2.900194
    17  H    5.592189   2.961399   6.617644   2.347200   3.447604
    18  H    6.629833   4.227276   7.578851   3.860525   3.837726
    19  C    2.421728   1.483691   3.395694   2.134033   3.868045
    20  H    3.391711   2.226348   4.271657   2.471145   4.422207
    21  C    1.374660   2.492391   2.133398   3.367930   4.661929
    22  H    2.121940   3.470112   2.439149   4.251872   5.619760
    23  C    2.510493   1.538969   3.493369   2.160015   3.074338
    24  H    3.444119   2.170384   4.351836   2.503195   2.681477
    25  H    2.866804   2.154619   3.773128   2.444352   4.020012
    26  C    1.496222   2.539160   2.227555   3.474828   3.789925
    27  H    2.134474   3.479224   2.484848   4.292946   4.616939
    28  H    2.126910   2.913869   2.665688   3.887074   3.382891
                    6          7          8          9         10
     6  C    0.000000
     7  H    2.226348   0.000000
     8  H    1.092011   2.471145   0.000000
     9  C    1.538969   3.443958   2.160015   0.000000
    10  H    2.154619   3.609881   2.444352   1.093542   0.000000
    11  H    2.170384   4.319710   2.503195   1.091338   1.755449
    12  C    2.492391   2.144338   3.367930   2.827669   3.077473
    13  H    3.470112   2.451160   4.251872   3.898862   4.043053
    14  C    2.878257   3.391711   3.882063   2.510493   2.866804
    15  H    3.956788   4.271657   4.964642   3.493369   3.773128
    16  C    2.539160   3.982979   3.474828   1.529944   2.151509
    17  H    2.913869   4.492999   3.887074   2.165128   3.049014
    18  H    3.479224   4.908358   4.292946   2.165821   2.417858
    19  C    2.586702   4.422208   2.774246   3.074338   4.020012
    20  H    3.114866   5.147338   3.451179   3.077225   4.059671
    21  C    3.374118   4.983429   3.100307   4.033871   4.793641
    22  H    4.246884   5.992127   3.918860   4.641953   5.346455
    23  C    2.669395   3.077225   2.861224   4.020602   4.811592
    24  H    2.845703   2.446377   3.146550   4.276531   4.957837
    25  H    3.610225   4.059671   3.880647   4.811592   5.703443
    26  C    3.202798   3.560505   2.826480   4.586465   5.189356
    27  H    4.227276   4.209388   3.860525   5.652895   6.243555
    28  H    2.961399   2.984886   2.347200   4.386785   4.776734
                   11         12         13         14         15
    11  H    0.000000
    12  C    3.873498   0.000000
    13  H    4.954586   1.084557   0.000000
    14  C    3.444119   1.374660   2.121940   0.000000
    15  H    4.351836   2.133398   2.439149   1.083120   0.000000
    16  C    2.166259   2.504672   3.482372   1.496222   2.227555
    17  H    2.424825   3.110023   4.043275   2.126910   2.665688
    18  H    2.561434   3.315748   4.187854   2.134474   2.484848
    19  C    2.681477   4.661930   5.619761   4.643641   5.567783
    20  H    2.446377   4.983429   5.992127   4.657373   5.481838
    21  C    3.546595   5.689501   6.608720   5.851735   6.832560
    22  H    3.938963   6.608720   7.571820   6.641602   7.600450
    23  C    4.276531   4.033871   4.641953   4.661258   5.561389
    24  H    4.774330   3.546595   3.938963   4.413892   5.244873
    25  H    4.957837   4.793641   5.346455   5.290874   6.089186
    26  C    4.690225   5.020518   5.642082   5.744769   6.736603
    27  H    5.779235   5.809855   6.300119   6.629833   7.578851
    28  H    4.622378   4.728849   5.307279   5.592189   6.617644
                   16         17         18         19         20
    16  C    0.000000
    17  H    1.098310   0.000000
    18  H    1.093353   1.741709   0.000000
    19  C    3.789925   3.382891   4.616939   0.000000
    20  H    3.560505   2.984886   4.209388   1.082825   0.000000
    21  C    5.020518   4.728849   5.809855   1.390147   2.144338
    22  H    5.642082   5.307279   6.300119   2.136682   2.451160
    23  C    4.586465   4.386785   5.652895   2.472236   3.443958
    24  H    4.690225   4.622378   5.779235   3.418726   4.319710
    25  H    5.189356   4.776734   6.243555   2.754092   3.609881
    26  C    5.530601   5.471429   6.531595   2.900195   3.982979
    27  H    6.531595   6.432642   7.558226   3.837727   4.908358
    28  H    5.471429   5.630106   6.432642   3.447605   4.492999
                   21         22         23         24         25
    21  C    0.000000
    22  H    1.084557   0.000000
    23  C    2.827669   3.898862   0.000000
    24  H    3.873498   4.954586   1.091338   0.000000
    25  H    3.077473   4.043053   1.093542   1.755449   0.000000
    26  C    2.504672   3.482372   1.529944   2.166259   2.151509
    27  H    3.315748   4.187854   2.165821   2.561434   2.417858
    28  H    3.110023   4.043275   2.165128   2.424825   3.049014
                   26         27         28
    26  C    0.000000
    27  H    1.093353   0.000000
    28  H    1.098310   1.741709   0.000000
 Symmetry turned off by external request.
 Stoichiometry    C12H16
 Framework group  CI[X(C12H16)]
 Deg. of freedom    39
 Full point group                 CI      NOp   2
 Rotational constants (GHZ):           1.9815100           0.6443917           0.5539421
 Leave Link  202 at Mon Aug  3 17:34:33 2020, MaxMem=  6442450944 cpu:               0.3 elap:               0.0
 (Enter /scratch/scicomp/CentOS/7.3.1611/Haswell/software/Gaussian/g16/l301.exe)
 Standard basis: def2TZVP (5D, 7F)
 Ernie: Thresh=  0.10000D-02 Tol=  0.10000D-05 Strict=F.
   468 basis functions,   740 primitive gaussians,   528 cartesian basis functions
    44 alpha electrons       44 beta electrons
       nuclear repulsion energy       694.2658438604 Hartrees.
 IExCor= 4639 DFT=T Ex+Corr=wB97XD ExCW=0 ScaHFX=  1.000000
 ScaDFX=  1.000000  1.000000  1.000000  1.000000 ScalE2=  1.000000  1.000000
 IRadAn=      5 IRanWt=     -1 IRanGd=            0 ICorTp=0 IEmpDi=121
 HFx  wShort=  0.000000 wLong=  0.200000 cFull=  0.222036 cShort=  0.000000 cLong=  0.777964
 DFx  wShort=  0.000000 wLong=  0.200000 cFull=  0.000000 cShort=  0.000000 cLong=  1.000000
 NAtoms=   28 NActive=   28 NUniq=   28 SFac= 1.00D+00 NAtFMM=   60 NAOKFM=F Big=F
 Integral buffers will be    131072 words long.
 Raffenetti 2 integral format.
 Two-electron integral symmetry is turned off.
 R6Disp:  Grimme-D2 Dispersion energy=       -0.0228620695 Hartrees.
 Nuclear repulsion after empirical dispersion term =      694.2429817908 Hartrees.
 Using the following non-standard input for PCM:
 qrep pcmdoc geomview  nodis nocav g03defaults tsare=0.075
 Warning! Using old PCM defaults because the g03defaults keyword was found.
 These settings can be overridden by following keywords.
 nsfe=28
 NVESolv=36  SolvMW=84.1595   Rsolv=2.815
 eps=2.0165 RhoS=0.7781
 --- end of non-standard input.
 Reading user-defined spheres from input:
 ISph  on   Nord    Re0     Alpha      Xe            Ye            Ze
 --- end of user-defined spheres data.
 ------------------------------------------------------------------------------
 Polarizable Continuum Model (PCM)
 =================================
 Model                : PCM.
 Atomic radii         : UA0 (Simple United Atom Topological Model).
 Polarization charges : Total charges.
 Charge compensation  : None.
 Solution method      : On-the-fly selection.
 Cavity type          : SES (Solvent Excluding Surface) (Alpha=1.000).
 Cavity algorithm     : GePol (RMin=0.200 OFac=0.890).
                        User-defined sphere list used, NSphG=   28.
                        Tesserae with average area of 0.075 Ang**2.
                        Smoothing algorithm: None.
                        Polarization charges: point-like.
                        Self-potential: constant (ISelfS= 1).
                        Self-field    : global E.n sum rule (ISelfD= 3).
 Solvent              : CycloHexane, Eps=   2.016500 Eps(inf)=   2.035188
                        RSolv=   2.815000 Ang.
 ------------------------------------------------------------------------------
 GePol: Number of generator spheres                  =      28
 GePol: Total number of spheres                      =     470
 GePol: Number of exposed spheres                    =     304 ( 64.68%)
 GePol: Number of tesserae                           =    4635
 GePol: Average area of tesserae                     =       0.04 Ang**2
 GePol: Minimum area of tessera                      =   0.10D-02 Ang**2
 GePol: Maximum area of tessera                      =    0.12546 Ang**2
 GePol: Number of small tesserae                     =       0
 GePol: Fraction of small tesserae (<1% of avg)      =       0.00%
 GePol: Total count of vertices                      =   17489
 GePol: Maximum number of vertices in a tessera      =       8
 GePol: Cavity surface area                          =    183.867 Ang**2
 GePol: Cavity volume                                =    179.514 Ang**3
 Leave Link  301 at Mon Aug  3 17:34:33 2020, MaxMem=  6442450944 cpu:              12.0 elap:               0.5
 (Enter /scratch/scicomp/CentOS/7.3.1611/Haswell/software/Gaussian/g16/l302.exe)
 NPDir=0 NMtPBC=     1 NCelOv=     1 NCel=       1 NClECP=     1 NCelD=      1
         NCelK=      1 NCelE2=     1 NClLst=     1 CellRange=     0.0.
 One-electron integrals computed using PRISM.
   1 Symmetry operations used in ECPInt.
 ECPInt:  NShTT=   19306 NPrTT=   56928 LenC2=   18534 LenP2D=   42298.
 LDataN:  DoStor=T MaxTD1= 6 Len=  172
 NBasis=   468 RedAO= T EigKep=  3.55D-05  NBF=   468
 NBsUse=   468 1.00D-06 EigRej= -1.00D+00 NBFU=   468
 Precomputing XC quadrature grid using
 IXCGrd= 4 IRadAn=           5 IRanWt=          -1 IRanGd=           0 AccXCQ= 0.00D+00.
 Generated NRdTot=       0 NPtTot=           0 NUsed=           0 NTot=          32
 NSgBfM=   526   526   526   526   526 MxSgAt=    28 MxSgA2=    28.
 Leave Link  302 at Mon Aug  3 17:34:34 2020, MaxMem=  6442450944 cpu:              11.8 elap:               0.5
 (Enter /scratch/scicomp/CentOS/7.3.1611/Haswell/software/Gaussian/g16/l401.exe)
 ExpMin= 9.52D-02 ExpMax= 1.36D+04 ExpMxC= 4.63D+02 IAcc=3 IRadAn=         5 AccDes= 0.00D+00
 Harris functional with IExCor= 4639 and IRadAn=       5 diagonalized for initial guess.
 HarFok:  IExCor= 4639 AccDes= 0.00D+00 IRadAn=         5 IDoV= 1 UseB2=F ITyADJ=14
 ICtDFT=  3500011 ScaDFX=  1.000000  1.000000  1.000000  1.000000
 FoFCou: FMM=F IPFlag=           0 FMFlag=      100000 FMFlg1=           0
         NFxFlg=           0 DoJE=T BraDBF=F KetDBF=T FulRan=T
         wScrn=  0.000000 ICntrl=       500 IOpCl=  0 I1Cent=   200000004 NGrid=           0
         NMat0=    1 NMatS0=      1 NMatT0=    0 NMatD0=    1 NMtDS0=    0 NMtDT0=    0
 Symmetry not used in FoFCou.
 Harris En= -444.586620071213    
 JPrj=0 DoOrth=F DoCkMO=T.
 Mixing orbitals, IMix= 1 IMixAn=  0 NRI=1 NE=   44 Coef=  7.07106781D-01  7.07106781D-01
 Mixing orbitals, IMix= 1 IMixAn=  0 NRI=1 NE=   44 Coef= -7.07106781D-01  7.07106781D-01
 Initial guess <Sx>= 0.0000 <Sy>= 0.0000 <Sz>= 0.0000 <S**2>= 1.0000 S= 0.6180
 Leave Link  401 at Mon Aug  3 17:34:36 2020, MaxMem=  6442450944 cpu:              47.7 elap:               2.0
 (Enter /scratch/scicomp/CentOS/7.3.1611/Haswell/software/Gaussian/g16/l9999.exe)

 This type of calculation cannot be archived.


 CONTRAIWISE...CONTINUED TWEEDLEDEE, IF IT WAS SO, IT MIGHT BE,
 AND IF IT WERE SO, IT WOULD BE.....
 BUT AS IT ISN'T, IT AIN'T....
 THAT'S LOGIC.....
 ALICE THROUGH THE LOOKING GLASS
 Job cpu time:       0 days  0 hours  1 minutes 16.5 seconds.
 Elapsed time:       0 days  0 hours  0 minutes  3.5 seconds.
 File lengths (MBytes):  RWF=    395 Int=      0 D2E=      0 Chk=      1 Scr=      1
 Normal termination of Gaussian 16 at Mon Aug  3 17:34:36 2020.
