 Entering Gaussian System, Link 0=g16
 Input=meso-TS_4_2_xp-Ger.com
 Output=meso-TS_4_2_xp-Ger.log
 Initial command:
 /scratch/scicomp/CentOS/7.3.1611/Haswell/software/Gaussian/g16/l1.exe "/scratch/bochen/cyclohexadiene-dimerization/wb97xd-def2tzvp/xp-pcm/meso/Gau-396458.inp" -scrdir="/scratch/bochen/cyclohexadiene-dimerization/wb97xd-def2tzvp/xp-pcm/meso/"
 Entering Link 1 = /scratch/scicomp/CentOS/7.3.1611/Haswell/software/Gaussian/g16/l1.exe PID=    396459.
  
 Copyright (c) 1988-2017, Gaussian, Inc.  All Rights Reserved.
  
 This is part of the Gaussian(R) 16 program.  It is based on
 the Gaussian(R) 09 system (copyright 2009, Gaussian, Inc.),
 the Gaussian(R) 03 system (copyright 2003, Gaussian, Inc.),
 the Gaussian(R) 98 system (copyright 1998, Gaussian, Inc.),
 the Gaussian(R) 94 system (copyright 1995, Gaussian, Inc.),
 the Gaussian 92(TM) system (copyright 1992, Gaussian, Inc.),
 the Gaussian 90(TM) system (copyright 1990, Gaussian, Inc.),
 the Gaussian 88(TM) system (copyright 1988, Gaussian, Inc.),
 the Gaussian 86(TM) system (copyright 1986, Carnegie Mellon
 University), and the Gaussian 82(TM) system (copyright 1983,
 Carnegie Mellon University). Gaussian is a federally registered
 trademark of Gaussian, Inc.
  
 This software contains proprietary and confidential information,
 including trade secrets, belonging to Gaussian, Inc.
  
 This software is provided under written license and may be
 used, copied, transmitted, or stored only in accord with that
 written license.
  
 The following legend is applicable only to US Government
 contracts under FAR:
  
                    RESTRICTED RIGHTS LEGEND
  
 Use, reproduction and disclosure by the US Government is
 subject to restrictions as set forth in subparagraphs (a)
 and (c) of the Commercial Computer Software - Restricted
 Rights clause in FAR 52.227-19.
  
 Gaussian, Inc.
 340 Quinnipiac St., Bldg. 40, Wallingford CT 06492
  
  
 ---------------------------------------------------------------
 Warning -- This program may not be used in any manner that
 competes with the business of Gaussian, Inc. or will provide
 assistance to any competitor of Gaussian, Inc.  The licensee
 of this program is prohibited from giving any competitor of
 Gaussian, Inc. access to this program.  By using this program,
 the user acknowledges that Gaussian, Inc. is engaged in the
 business of creating and licensing software in the field of
 computational chemistry and represents and warrants to the
 licensee that it is not a competitor of Gaussian, Inc. and that
 it will not use this program in any manner prohibited above.
 ---------------------------------------------------------------
  

 Cite this work as:
 Gaussian 16, Revision B.01,
 M. J. Frisch, G. W. Trucks, H. B. Schlegel, G. E. Scuseria, 
 M. A. Robb, J. R. Cheeseman, G. Scalmani, V. Barone, 
 G. A. Petersson, H. Nakatsuji, X. Li, M. Caricato, A. V. Marenich, 
 J. Bloino, B. G. Janesko, R. Gomperts, B. Mennucci, H. P. Hratchian, 
 J. V. Ortiz, A. F. Izmaylov, J. L. Sonnenberg, D. Williams-Young, 
 F. Ding, F. Lipparini, F. Egidi, J. Goings, B. Peng, A. Petrone, 
 T. Henderson, D. Ranasinghe, V. G. Zakrzewski, J. Gao, N. Rega, 
 G. Zheng, W. Liang, M. Hada, M. Ehara, K. Toyota, R. Fukuda, 
 J. Hasegawa, M. Ishida, T. Nakajima, Y. Honda, O. Kitao, H. Nakai, 
 T. Vreven, K. Throssell, J. A. Montgomery, Jr., J. E. Peralta, 
 F. Ogliaro, M. J. Bearpark, J. J. Heyd, E. N. Brothers, K. N. Kudin, 
 V. N. Staroverov, T. A. Keith, R. Kobayashi, J. Normand, 
 K. Raghavachari, A. P. Rendell, J. C. Burant, S. S. Iyengar, 
 J. Tomasi, M. Cossi, J. M. Millam, M. Klene, C. Adamo, R. Cammi, 
 J. W. Ochterski, R. L. Martin, K. Morokuma, O. Farkas, 
 J. B. Foresman, and D. J. Fox, Gaussian, Inc., Wallingford CT, 2016.
 
 ******************************************
 Gaussian 16:  ES64L-G16RevB.01 20-Dec-2017
                 4-Aug-2020 
 ******************************************
 %chk=meso-TS_4_2_xp-12.chk
 %nproc=24
 Will use up to   24 processors via shared memory.
 %mem=48GB
 ----------------------------------------------------------------------
 #p uwb97xd guess=mix def2tzvp # scrf=(iefpcm,solvent=Cyclohexane,read)
  nosym 6d 10f
 ----------------------------------------------------------------------
 1/38=1,40=2,172=1/1;
 2/12=2,15=1,17=6,18=5,40=1/2;
 3/5=44,7=101,8=22,11=2,25=1,30=1,70=2203,72=17,74=-58,116=2/1,2,3;
 4/13=-1/1;
 5/5=2,38=5,53=17/2;
 6/7=2,8=2,9=2,10=2,28=1/1;
 99/5=1,9=1/99;
 Leave Link    1 at Tue Aug  4 12:54:45 2020, MaxMem=  6442450944 cpu:               2.5 elap:               0.1
 (Enter /scratch/scicomp/CentOS/7.3.1611/Haswell/software/Gaussian/g16/l101.exe)
 -----------------------
 endo-2 xp-pcm for eta=3
 -----------------------
 Symbolic Z-matrix:
 Charge =  0 Multiplicity = 1
 6                    -3.11815  -0.43497   0.24691 
 6                    -0.52524  -0.17909  -0.88111 
 1                    -4.08288  -0.54955   0.72728 
 1                     0.36942  -0.11647  -1.48831 
 6                     1.09575   1.4095    0.68495 
 6                     0.52524   0.17909   0.88111 
 1                     0.53438   2.31527   0.87754 
 1                    -0.36942   0.11647   1.48831 
 6                     1.46405  -0.99991   0.98781 
 1                     1.9024   -0.94814   1.99091 
 1                     0.92291  -1.94429   0.93136 
 6                     2.41275   1.51877   0.11499 
 1                     2.82551   2.50732  -0.04986 
 6                     3.11815   0.43497  -0.24691 
 1                     4.08288   0.54955  -0.72728 
 6                     2.59196  -0.95848  -0.0439 
 1                     2.25122  -1.35663  -1.00783 
 1                     3.4008   -1.62138   0.27176 
 6                    -1.09575  -1.4095   -0.68495 
 1                    -0.53438  -2.31527  -0.87754 
 6                    -2.41275  -1.51877  -0.11499 
 1                    -2.82551  -2.50732   0.04986 
 6                    -1.46405   0.99991  -0.98781 
 1                    -0.92291   1.94429  -0.93136 
 1                    -1.9024    0.94814  -1.99091 
 6                    -2.59196   0.95848   0.0439 
 1                    -3.4008    1.62138  -0.27176 
 1                    -2.25122   1.35663   1.00783 
 
 ITRead=  0  0  0  0  0  0  0  0  0  0  0  0  0  0  0  0  0  0  0  0
 ITRead=  0  0  0  0  0  0  0  0
 MicOpt= -1 -1 -1 -1 -1 -1 -1 -1 -1 -1 -1 -1 -1 -1 -1 -1 -1 -1 -1 -1
 MicOpt= -1 -1 -1 -1 -1 -1 -1 -1
 NAtoms=     28 NQM=       28 NQMF=       0 NMMI=      0 NMMIF=      0
                NMic=       0 NMicF=      0.
                    Isotopes and Nuclear Properties:
 (Nuclear quadrupole moments (NQMom) in fm**2, nuclear magnetic moments (NMagM)
  in nuclear magnetons)

  Atom         1           2           3           4           5           6           7           8           9          10
 IAtWgt=          12          12           1           1          12          12           1           1          12           1
 AtmWgt=  12.0000000  12.0000000   1.0078250   1.0078250  12.0000000  12.0000000   1.0078250   1.0078250  12.0000000   1.0078250
 NucSpn=           0           0           1           1           0           0           1           1           0           1
 AtZEff=  -0.0000000  -0.0000000  -0.0000000  -0.0000000  -0.0000000  -0.0000000  -0.0000000  -0.0000000  -0.0000000  -0.0000000
 NQMom=    0.0000000   0.0000000   0.0000000   0.0000000   0.0000000   0.0000000   0.0000000   0.0000000   0.0000000   0.0000000
 NMagM=    0.0000000   0.0000000   2.7928460   2.7928460   0.0000000   0.0000000   2.7928460   2.7928460   0.0000000   2.7928460
 AtZNuc=   6.0000000   6.0000000   1.0000000   1.0000000   6.0000000   6.0000000   1.0000000   1.0000000   6.0000000   1.0000000

  Atom        11          12          13          14          15          16          17          18          19          20
 IAtWgt=           1          12           1          12           1          12           1           1          12           1
 AtmWgt=   1.0078250  12.0000000   1.0078250  12.0000000   1.0078250  12.0000000   1.0078250   1.0078250  12.0000000   1.0078250
 NucSpn=           1           0           1           0           1           0           1           1           0           1
 AtZEff=  -0.0000000  -0.0000000  -0.0000000  -0.0000000  -0.0000000  -0.0000000  -0.0000000  -0.0000000  -0.0000000  -0.0000000
 NQMom=    0.0000000   0.0000000   0.0000000   0.0000000   0.0000000   0.0000000   0.0000000   0.0000000   0.0000000   0.0000000
 NMagM=    2.7928460   0.0000000   2.7928460   0.0000000   2.7928460   0.0000000   2.7928460   2.7928460   0.0000000   2.7928460
 AtZNuc=   1.0000000   6.0000000   1.0000000   6.0000000   1.0000000   6.0000000   1.0000000   1.0000000   6.0000000   1.0000000

  Atom        21          22          23          24          25          26          27          28
 IAtWgt=          12           1          12           1           1          12           1           1
 AtmWgt=  12.0000000   1.0078250  12.0000000   1.0078250   1.0078250  12.0000000   1.0078250   1.0078250
 NucSpn=           0           1           0           1           1           0           1           1
 AtZEff=  -0.0000000  -0.0000000  -0.0000000  -0.0000000  -0.0000000  -0.0000000  -0.0000000  -0.0000000
 NQMom=    0.0000000   0.0000000   0.0000000   0.0000000   0.0000000   0.0000000   0.0000000   0.0000000
 NMagM=    0.0000000   2.7928460   0.0000000   2.7928460   2.7928460   0.0000000   2.7928460   2.7928460
 AtZNuc=   6.0000000   1.0000000   6.0000000   1.0000000   1.0000000   6.0000000   1.0000000   1.0000000
 Leave Link  101 at Tue Aug  4 12:54:45 2020, MaxMem=  6442450944 cpu:               2.4 elap:               0.1
 (Enter /scratch/scicomp/CentOS/7.3.1611/Haswell/software/Gaussian/g16/l202.exe)
                          Input orientation:                          
 ---------------------------------------------------------------------
 Center     Atomic      Atomic             Coordinates (Angstroms)
 Number     Number       Type             X           Y           Z
 ---------------------------------------------------------------------
      1          6           0       -3.118154   -0.434970    0.246911
      2          6           0       -0.525244   -0.179089   -0.881108
      3          1           0       -4.082876   -0.549545    0.727275
      4          1           0        0.369421   -0.116466   -1.488305
      5          6           0        1.095749    1.409502    0.684953
      6          6           0        0.525244    0.179089    0.881108
      7          1           0        0.534376    2.315268    0.877539
      8          1           0       -0.369421    0.116466    1.488305
      9          6           0        1.464053   -0.999907    0.987811
     10          1           0        1.902396   -0.948136    1.990906
     11          1           0        0.922907   -1.944294    0.931362
     12          6           0        2.412752    1.518768    0.114990
     13          1           0        2.825512    2.507319   -0.049863
     14          6           0        3.118154    0.434970   -0.246911
     15          1           0        4.082876    0.549545   -0.727275
     16          6           0        2.591960   -0.958481   -0.043904
     17          1           0        2.251216   -1.356631   -1.007828
     18          1           0        3.400803   -1.621376    0.271761
     19          6           0       -1.095749   -1.409502   -0.684954
     20          1           0       -0.534376   -2.315268   -0.877539
     21          6           0       -2.412752   -1.518768   -0.114990
     22          1           0       -2.825512   -2.507319    0.049863
     23          6           0       -1.464053    0.999907   -0.987811
     24          1           0       -0.922907    1.944294   -0.931362
     25          1           0       -1.902396    0.948136   -1.990906
     26          6           0       -2.591960    0.958481    0.043904
     27          1           0       -3.400803    1.621376   -0.271761
     28          1           0       -2.251216    1.356631    1.007828
 ---------------------------------------------------------------------
                    Distance matrix (angstroms):
                    1          2          3          4          5
     1  C    0.000000
     2  C    2.839205   0.000000
     3  H    1.083774   3.921846   0.000000
     4  H    3.908401   1.083068   4.991924   0.000000
     5  C    4.620707   2.757496   5.536950   2.753031   0.000000
     6  C    3.748816   2.082600   4.667906   2.392854   1.370354
     7  H    4.615461   3.230704   5.435876   3.396728   1.082886
     8  H    3.066052   2.392854   3.848699   3.075769   2.112827
     9  C    4.675971   2.850246   5.571277   2.847778   2.456140
    10  H    5.339549   3.838402   6.130181   3.891863   2.813299
    11  H    4.367689   2.915157   5.200465   3.082546   3.367275
    12  C    5.867318   3.536488   6.844413   3.069161   1.439199
    13  H    6.638698   4.374394   7.594352   3.871143   2.176519
    14  C    6.316027   3.748816   7.333017   3.066052   2.430680
    15  H    7.333017   4.667906   8.366793   3.848699   3.414212
    16  C    5.741432   3.320440   6.731670   2.781180   2.894343
    17  H    5.590524   3.018508   6.616849   2.304348   3.442688
    18  H    6.626083   4.338565   7.573755   3.814690   3.830173
    19  C    2.430680   1.370353   3.414212   2.112827   3.824407
    20  H    3.387598   2.136202   4.276103   2.454509   4.355755
    21  C    1.342826   2.438106   2.106684   3.404839   4.639424
    22  H    2.102165   3.402733   2.423372   4.276650   5.578630
    23  C    2.513854   1.510887   3.492929   2.204180   3.085206
    24  H    3.445045   2.160883   4.353816   2.495402   2.640729
    25  H    2.898081   2.097340   3.792895   2.558738   4.044991
    26  C    1.503262   2.533975   2.227997   3.503277   3.770088
    27  H    2.139502   3.447001   2.485195   4.326045   4.602083
    28  H    2.130824   2.984208   2.658420   3.907484   3.362918
                    6          7          8          9         10
     6  C    0.000000
     7  H    2.136202   0.000000
     8  H    1.083068   2.454509   0.000000
     9  C    1.510887   3.444829   2.204180   0.000000
    10  H    2.097340   3.709565   2.558738   1.095913   0.000000
    11  H    2.160883   4.277584   2.495402   1.089905   1.753386
    12  C    2.438106   2.178116   3.404839   2.829412   3.140882
    13  H    3.402733   2.479166   4.276650   3.902688   4.117894
    14  C    2.839205   3.387598   3.908401   2.513854   2.898081
    15  H    3.921846   4.276103   4.991924   3.492929   3.792895
    16  C    2.533975   3.974939   3.503277   1.529159   2.148501
    17  H    2.984208   4.470458   3.907484   2.174730   3.046465
    18  H    3.447001   4.907192   4.326045   2.156375   2.377800
    19  C    2.757497   4.355755   2.753032   3.085206   4.044992
    20  H    3.230704   5.066004   3.396728   3.033714   4.004358
    21  C    3.536488   4.936650   3.069161   4.063866   4.835382
    22  H    4.374394   5.935591   3.871143   4.642457   5.343390
    23  C    2.850246   3.033714   2.847778   4.059082   4.899041
    24  H    2.915157   2.352322   3.082546   4.248426   4.988801
    25  H    3.838402   4.004358   3.891863   4.899041   5.824699
    26  C    3.320440   3.508532   2.781180   4.601900   5.255972
    27  H    4.338565   4.157885   3.814690   5.667845   6.312367
    28  H    3.018508   2.948810   2.304348   4.399647   4.850864
                   11         12         13         14         15
    11  H    0.000000
    12  C    3.857318   0.000000
    13  H    4.939592   1.083873   0.000000
    14  C    3.445045   1.342826   2.102165   0.000000
    15  H    4.353816   2.106684   2.423372   1.083774   0.000000
    16  C    2.169956   2.488800   3.473665   1.503262   2.227997
    17  H    2.422852   3.091073   4.022142   2.130824   2.658420
    18  H    2.584438   3.295653   4.180972   2.139502   2.485195
    19  C    2.640729   4.639424   5.578630   4.620707   5.536950
    20  H    2.352322   4.936650   5.935591   4.615461   5.435876
    21  C    3.521725   5.706576   6.607044   5.867318   6.844413
    22  H    3.891617   6.607044   7.555833   6.638698   7.594352
    23  C    4.248426   4.063866   4.642457   4.675971   5.571277
    24  H    4.690190   3.521725   3.891617   4.367689   5.200465
    25  H    4.988801   4.835382   5.343390   5.339549   6.130181
    26  C    4.644133   5.036479   5.635308   5.741432   6.731670
    27  H    5.732013   5.827309   6.292943   6.626083   7.573755
    28  H    4.580067   4.751426   5.311870   5.590524   6.616849
                   16         17         18         19         20
    16  C    0.000000
    17  H    1.097169   0.000000
    18  H    1.092383   1.740399   0.000000
    19  C    3.770088   3.362918   4.602084   0.000000
    20  H    3.508532   2.948810   4.157885   1.082885   0.000000
    21  C    5.036479   4.751426   5.827309   1.439199   2.178116
    22  H    5.635308   5.311870   6.292943   2.176520   2.479166
    23  C    4.601900   4.399647   5.667845   2.456140   3.444829
    24  H    4.644133   4.580067   5.732013   3.367275   4.277584
    25  H    5.255972   4.850864   6.312367   2.813298   3.709565
    26  C    5.527701   5.470122   6.528460   2.894344   3.974939
    27  H    6.528460   6.430835   7.554648   3.830173   4.907192
    28  H    5.470122   5.629969   6.430835   3.442689   4.470458
                   21         22         23         24         25
    21  C    0.000000
    22  H    1.083873   0.000000
    23  C    2.829412   3.902688   0.000000
    24  H    3.857318   4.939592   1.089905   0.000000
    25  H    3.140882   4.117894   1.095913   1.753386   0.000000
    26  C    2.488800   3.473665   1.529159   2.169956   2.148501
    27  H    3.295653   4.180972   2.156375   2.584438   2.377800
    28  H    3.091073   4.022142   2.174730   2.422852   3.046465
                   26         27         28
    26  C    0.000000
    27  H    1.092383   0.000000
    28  H    1.097169   1.740399   0.000000
 Symmetry turned off by external request.
 Stoichiometry    C12H16
 Framework group  CI[X(C12H16)]
 Deg. of freedom    39
 Full point group                 CI      NOp   2
 Rotational constants (GHZ):           1.9433052           0.6351751           0.5523114
 Leave Link  202 at Tue Aug  4 12:54:45 2020, MaxMem=  6442450944 cpu:               0.3 elap:               0.0
 (Enter /scratch/scicomp/CentOS/7.3.1611/Haswell/software/Gaussian/g16/l301.exe)
 Standard basis: def2TZVP (6D, 10F)
 Ernie: Thresh=  0.10000D-02 Tol=  0.10000D-05 Strict=F.
   528 basis functions,   740 primitive gaussians,   528 cartesian basis functions
    44 alpha electrons       44 beta electrons
       nuclear repulsion energy       691.5867081711 Hartrees.
 IExCor= 4639 DFT=T Ex+Corr=wB97XD ExCW=0 ScaHFX=  1.000000
 ScaDFX=  1.000000  1.000000  1.000000  1.000000 ScalE2=  1.000000  1.000000
 IRadAn=      5 IRanWt=     -1 IRanGd=            0 ICorTp=0 IEmpDi=121
 HFx  wShort=  0.000000 wLong=  0.200000 cFull=  0.222036 cShort=  0.000000 cLong=  0.777964
 DFx  wShort=  0.000000 wLong=  0.200000 cFull=  0.000000 cShort=  0.000000 cLong=  1.000000
 NAtoms=   28 NActive=   28 NUniq=   28 SFac= 1.00D+00 NAtFMM=   60 NAOKFM=F Big=F
 Integral buffers will be    131072 words long.
 Raffenetti 2 integral format.
 Two-electron integral symmetry is turned off.
 R6Disp:  Grimme-D2 Dispersion energy=       -0.0229383116 Hartrees.
 Nuclear repulsion after empirical dispersion term =      691.5637698595 Hartrees.
 Using the following non-standard input for PCM:
 qrep pcmdoc geomview  nodis nocav g03defaults tsare=0.075
 Warning! Using old PCM defaults because the g03defaults keyword was found.
 These settings can be overridden by following keywords.
 nsfe=28
 NVESolv=36  SolvMW=84.1595   Rsolv=2.815
 eps=2.0165 RhoS=0.778099999999998
 --- end of non-standard input.
 Reading user-defined spheres from input:
 ISph  on   Nord    Re0     Alpha      Xe            Ye            Ze
 --- end of user-defined spheres data.
 ------------------------------------------------------------------------------
 Polarizable Continuum Model (PCM)
 =================================
 Model                : PCM.
 Atomic radii         : UA0 (Simple United Atom Topological Model).
 Polarization charges : Total charges.
 Charge compensation  : None.
 Solution method      : On-the-fly selection.
 Cavity type          : SES (Solvent Excluding Surface) (Alpha=1.000).
 Cavity algorithm     : GePol (RMin=0.200 OFac=0.890).
                        User-defined sphere list used, NSphG=   28.
                        Tesserae with average area of 0.075 Ang**2.
                        Smoothing algorithm: None.
                        Polarization charges: point-like.
                        Self-potential: constant (ISelfS= 1).
                        Self-field    : global E.n sum rule (ISelfD= 3).
 Solvent              : CycloHexane, Eps=   2.016500 Eps(inf)=   2.035188
                        RSolv=   2.815000 Ang.
 ------------------------------------------------------------------------------
 GePol: Number of generator spheres                  =      28
 GePol: Total number of spheres                      =     173
 GePol: Number of exposed spheres                    =     126 ( 72.83%)
 GePol: Number of tesserae                           =    4666
 GePol: Average area of tesserae                     =       0.05 Ang**2
 GePol: Minimum area of tessera                      =   0.10D-02 Ang**2
 GePol: Maximum area of tessera                      =    0.12641 Ang**2
 GePol: Number of small tesserae                     =       0
 GePol: Fraction of small tesserae (<1% of avg)      =       0.00%
 GePol: Total count of vertices                      =   16495
 GePol: Maximum number of vertices in a tessera      =       7
 GePol: Cavity surface area                          =    218.466 Ang**2
 GePol: Cavity volume                                =    245.935 Ang**3
 Leave Link  301 at Tue Aug  4 12:54:46 2020, MaxMem=  6442450944 cpu:               7.5 elap:               0.4
 (Enter /scratch/scicomp/CentOS/7.3.1611/Haswell/software/Gaussian/g16/l302.exe)
 NPDir=0 NMtPBC=     1 NCelOv=     1 NCel=       1 NClECP=     1 NCelD=      1
         NCelK=      1 NCelE2=     1 NClLst=     1 CellRange=     0.0.
 One-electron integrals computed using PRISM.
   1 Symmetry operations used in ECPInt.
 ECPInt:  NShTT=   19306 NPrTT=   56928 LenC2=   18522 LenP2D=   42279.
 LDataN:  DoStor=T MaxTD1= 6 Len=  172
 NBasis=   528 RedAO= T EigKep=  2.44D-05  NBF=   528
 NBsUse=   528 1.00D-06 EigRej= -1.00D+00 NBFU=   528
 Precomputing XC quadrature grid using
 IXCGrd= 4 IRadAn=           5 IRanWt=          -1 IRanGd=           0 AccXCQ= 0.00D+00.
 Generated NRdTot=       0 NPtTot=           0 NUsed=           0 NTot=          32
 NSgBfM=   526   526   526   526   526 MxSgAt=    28 MxSgA2=    28.
 Leave Link  302 at Tue Aug  4 12:54:46 2020, MaxMem=  6442450944 cpu:              12.8 elap:               0.6
 (Enter /scratch/scicomp/CentOS/7.3.1611/Haswell/software/Gaussian/g16/l303.exe)
 DipDrv:  MaxL=1.
 Leave Link  303 at Tue Aug  4 12:54:46 2020, MaxMem=  6442450944 cpu:               1.6 elap:               0.1
 (Enter /scratch/scicomp/CentOS/7.3.1611/Haswell/software/Gaussian/g16/l401.exe)
 ExpMin= 9.52D-02 ExpMax= 1.36D+04 ExpMxC= 4.63D+02 IAcc=3 IRadAn=         5 AccDes= 0.00D+00
 Harris functional with IExCor= 4639 and IRadAn=       5 diagonalized for initial guess.
 HarFok:  IExCor= 4639 AccDes= 0.00D+00 IRadAn=         5 IDoV= 1 UseB2=F ITyADJ=14
 ICtDFT=  3500011 ScaDFX=  1.000000  1.000000  1.000000  1.000000
 FoFCou: FMM=F IPFlag=           0 FMFlag=      100000 FMFlg1=           0
         NFxFlg=           0 DoJE=T BraDBF=F KetDBF=T FulRan=T
         wScrn=  0.000000 ICntrl=       500 IOpCl=  0 I1Cent=   200000004 NGrid=           0
         NMat0=    1 NMatS0=      1 NMatT0=    0 NMatD0=    1 NMtDS0=    0 NMtDT0=    0
 Symmetry not used in FoFCou.
 Harris En= -444.620400575312    
 JPrj=0 DoOrth=F DoCkMO=T.
 Mixing orbitals, IMix= 1 IMixAn=  0 NRI=1 NE=   44 Coef=  7.07106781D-01  7.07106781D-01
 Mixing orbitals, IMix= 1 IMixAn=  0 NRI=1 NE=   44 Coef= -7.07106781D-01  7.07106781D-01
 Initial guess <Sx>= 0.0000 <Sy>= 0.0000 <Sz>= 0.0000 <S**2>= 1.0000 S= 0.6180
 Leave Link  401 at Tue Aug  4 12:54:49 2020, MaxMem=  6442450944 cpu:              49.0 elap:               2.1
 (Enter /scratch/scicomp/CentOS/7.3.1611/Haswell/software/Gaussian/g16/l502.exe)
 Two-electron integral symmetry not used.
 UHF open shell SCF:
 Using DIIS extrapolation, IDIIS=  1040.
 NGot=  6442450944 LenX=  6441877030 LenY=  6441597718
 Requested convergence on RMS density matrix=1.00D-08 within 128 cycles.
 Requested convergence on MAX density matrix=1.00D-06.
 Requested convergence on             energy=1.00D-06.
 No special actions if energy rises.
 Fock matrices will be formed incrementally for  20 cycles.

 Cycle   1  Pass 1  IDiag  1:
 FoFJK:  IHMeth= 1 ICntrl=       0 DoSepK=T KAlg= 0 I1Cent=           0 FoldK=F
 IRaf=         1 NMat=       1 IRICut=       1 DoRegI=T DoRafI=F ISym2E= 0 IDoP0=0 IntGTp=1.
 FoFCou: FMM=F IPFlag=           0 FMFlag=      100000 FMFlg1=           0
         NFxFlg=           0 DoJE=T BraDBF=F KetDBF=F FulRan=T
         wScrn=  0.000000 ICntrl=       500 IOpCl=  0 I1Cent=           0 NGrid=           0
         NMat0=    1 NMatS0=      1 NMatT0=    0 NMatD0=    1 NMtDS0=    0 NMtDT0=    0
 Symmetry not used in FoFCou.
 Inv3:  Mode=1 IEnd=    65314668.
 Iteration    1 A*A^-1 deviation from unit magnitude is 3.33D-15 for   2165.
 Iteration    1 A*A^-1 deviation from orthogonality  is 1.52D-15 for   4595   3197.
 Iteration    1 A^-1*A deviation from unit magnitude is 3.55D-15 for   1532.
 Iteration    1 A^-1*A deviation from orthogonality  is 1.83D-15 for   3967   3946.
 E= -466.622433442122    
 DIIS: error= 5.76D-02 at cycle   1 NSaved=   1.
 NSaved= 1 IEnMin= 1 EnMin= -466.622433442122     IErMin= 1 ErrMin= 5.76D-02
 ErrMax= 5.76D-02  0.00D+00 EMaxC= 1.00D-01 BMatC= 4.10D+00 BMatP= 4.10D+00
 IDIUse=3 WtCom= 4.24D-01 WtEn= 5.76D-01
 Coeff-Com:  0.100D+01
 Coeff-En:   0.100D+01
 Coeff:      0.100D+01
 Gap=     0.206 Goal=   None    Shift=    0.000
 Gap=     0.206 Goal=   None    Shift=    0.000
 GapD=    0.206 DampG=1.000 DampE=0.500 DampFc=0.5000 IDamp=-1.
 Damping current iteration by 5.00D-01
 RMSDP=1.53D-03 MaxDP=9.20D-02              OVMax= 1.94D-01

 Cycle   2  Pass 1  IDiag  1:
 RMSU=  7.49D-04    CP:  9.74D-01
 E= -466.704489470337     Delta-E=       -0.082056028216 Rises=F Damp=T
 DIIS: error= 2.73D-02 at cycle   2 NSaved=   2.
 NSaved= 2 IEnMin= 2 EnMin= -466.704489470337     IErMin= 2 ErrMin= 2.73D-02
 ErrMax= 2.73D-02  0.00D+00 EMaxC= 1.00D-01 BMatC= 9.25D-01 BMatP= 4.10D+00
 IDIUse=3 WtCom= 7.27D-01 WtEn= 2.73D-01
 Coeff-Com: -0.867D+00 0.187D+01
 Coeff-En:   0.000D+00 0.100D+01
 Coeff:     -0.630D+00 0.163D+01
 Gap=     0.236 Goal=   None    Shift=    0.000
 Gap=     0.236 Goal=   None    Shift=    0.000
 RMSDP=1.01D-03 MaxDP=4.87D-02 DE=-8.21D-02 OVMax= 8.77D-02

 Cycle   3  Pass 1  IDiag  1:
 RMSU=  5.21D-04    CP:  9.40D-01  2.11D+00
 E= -466.795810849164     Delta-E=       -0.091321378827 Rises=F Damp=F
 DIIS: error= 5.05D-03 at cycle   3 NSaved=   3.
 NSaved= 3 IEnMin= 3 EnMin= -466.795810849164     IErMin= 3 ErrMin= 5.05D-03
 ErrMax= 5.05D-03  0.00D+00 EMaxC= 1.00D-01 BMatC= 1.85D-02 BMatP= 9.25D-01
 IDIUse=3 WtCom= 9.49D-01 WtEn= 5.05D-02
 Coeff-Com: -0.309D+00 0.666D+00 0.643D+00
 Coeff-En:   0.000D+00 0.000D+00 0.100D+01
 Coeff:     -0.293D+00 0.633D+00 0.661D+00
 Gap=     0.243 Goal=   None    Shift=    0.000
 Gap=     0.243 Goal=   None    Shift=    0.000
 RMSDP=1.75D-04 MaxDP=1.09D-02 DE=-9.13D-02 OVMax= 4.74D-02

 Cycle   4  Pass 1  IDiag  1:
 RMSU=  1.59D-04    CP:  9.34D-01  2.20D+00  9.78D-01
 E= -466.802820437596     Delta-E=       -0.007009588432 Rises=F Damp=F
 DIIS: error= 3.61D-03 at cycle   4 NSaved=   4.
 NSaved= 4 IEnMin= 4 EnMin= -466.802820437596     IErMin= 4 ErrMin= 3.61D-03
 ErrMax= 3.61D-03  0.00D+00 EMaxC= 1.00D-01 BMatC= 1.14D-03 BMatP= 1.85D-02
 IDIUse=3 WtCom= 9.64D-01 WtEn= 3.61D-02
 Coeff-Com:  0.103D+00-0.222D+00-0.788D-01 0.120D+01
 Coeff-En:   0.000D+00 0.000D+00 0.000D+00 0.100D+01
 Coeff:      0.995D-01-0.214D+00-0.760D-01 0.119D+01
 Gap=     0.248 Goal=   None    Shift=    0.000
 Gap=     0.248 Goal=   None    Shift=    0.000
 RMSDP=1.78D-04 MaxDP=9.00D-03 DE=-7.01D-03 OVMax= 6.13D-02

 Cycle   5  Pass 1  IDiag  1:
 RMSU=  6.96D-05    CP:  9.29D-01  2.25D+00  1.19D+00  1.70D+00
 E= -466.805635324410     Delta-E=       -0.002814886814 Rises=F Damp=F
 DIIS: error= 2.12D-03 at cycle   5 NSaved=   5.
 NSaved= 5 IEnMin= 5 EnMin= -466.805635324410     IErMin= 5 ErrMin= 2.12D-03
 ErrMax= 2.12D-03  0.00D+00 EMaxC= 1.00D-01 BMatC= 4.79D-04 BMatP= 1.14D-03
 IDIUse=3 WtCom= 9.79D-01 WtEn= 2.12D-02
 Coeff-Com:  0.669D-01-0.144D+00-0.103D+00 0.351D+00 0.830D+00
 Coeff-En:   0.000D+00 0.000D+00 0.000D+00 0.000D+00 0.100D+01
 Coeff:      0.655D-01-0.141D+00-0.101D+00 0.343D+00 0.834D+00
 Gap=     0.249 Goal=   None    Shift=    0.000
 Gap=     0.249 Goal=   None    Shift=    0.000
 RMSDP=8.86D-05 MaxDP=5.54D-03 DE=-2.81D-03 OVMax= 3.23D-02

 Cycle   6  Pass 1  IDiag  1:
 RMSU=  3.01D-05    CP:  9.27D-01  2.26D+00  1.25D+00  2.12D+00  1.55D+00
 E= -466.806640685113     Delta-E=       -0.001005360703 Rises=F Damp=F
 DIIS: error= 1.50D-03 at cycle   6 NSaved=   6.
 NSaved= 6 IEnMin= 6 EnMin= -466.806640685113     IErMin= 6 ErrMin= 1.50D-03
 ErrMax= 1.50D-03  0.00D+00 EMaxC= 1.00D-01 BMatC= 2.52D-04 BMatP= 4.79D-04
 IDIUse=3 WtCom= 9.85D-01 WtEn= 1.50D-02
 Coeff-Com: -0.464D-01 0.996D-01 0.390D-01-0.486D+00 0.239D+00 0.115D+01
 Coeff-En:   0.000D+00 0.000D+00 0.000D+00 0.000D+00 0.000D+00 0.100D+01
 Coeff:     -0.457D-01 0.981D-01 0.384D-01-0.479D+00 0.236D+00 0.115D+01
 Gap=     0.248 Goal=   None    Shift=    0.000
 Gap=     0.248 Goal=   None    Shift=    0.000
 RMSDP=9.45D-05 MaxDP=5.24D-03 DE=-1.01D-03 OVMax= 3.69D-02

 Cycle   7  Pass 1  IDiag  1:
 RMSU=  2.13D-05    CP:  9.25D-01  2.26D+00  1.30D+00  2.51D+00  2.36D+00
                    CP:  1.71D+00
 E= -466.807462146672     Delta-E=       -0.000821461559 Rises=F Damp=F
 DIIS: error= 9.81D-04 at cycle   7 NSaved=   7.
 NSaved= 7 IEnMin= 7 EnMin= -466.807462146672     IErMin= 7 ErrMin= 9.81D-04
 ErrMax= 9.81D-04  0.00D+00 EMaxC= 1.00D-01 BMatC= 1.12D-04 BMatP= 2.52D-04
 IDIUse=3 WtCom= 9.90D-01 WtEn= 9.81D-03
 Coeff-Com: -0.122D-01 0.267D-01 0.320D-01 0.805D-01-0.325D+00-0.446D+00
 Coeff-Com:  0.164D+01
 Coeff-En:   0.000D+00 0.000D+00 0.000D+00 0.000D+00 0.000D+00 0.000D+00
 Coeff-En:   0.100D+01
 Coeff:     -0.121D-01 0.264D-01 0.317D-01 0.797D-01-0.322D+00-0.442D+00
 Coeff:      0.164D+01
 Gap=     0.245 Goal=   None    Shift=    0.000
 Gap=     0.245 Goal=   None    Shift=    0.000
 RMSDP=7.58D-05 MaxDP=3.55D-03 DE=-8.21D-04 OVMax= 3.09D-02

 Cycle   8  Pass 1  IDiag  1:
 RMSU=  1.37D-05    CP:  9.24D-01  2.26D+00  1.33D+00  2.79D+00  2.99D+00
                    CP:  2.62D+00  2.24D+00
 E= -466.807982419786     Delta-E=       -0.000520273114 Rises=F Damp=F
 DIIS: error= 7.24D-04 at cycle   8 NSaved=   8.
 NSaved= 8 IEnMin= 8 EnMin= -466.807982419786     IErMin= 8 ErrMin= 7.24D-04
 ErrMax= 7.24D-04  0.00D+00 EMaxC= 1.00D-01 BMatC= 6.30D-05 BMatP= 1.12D-04
 IDIUse=3 WtCom= 9.93D-01 WtEn= 7.24D-03
 Coeff-Com:  0.312D-01-0.674D-01-0.231D-01 0.365D+00-0.895D-01-0.835D+00
 Coeff-Com: -0.129D+00 0.175D+01
 Coeff-En:   0.000D+00 0.000D+00 0.000D+00 0.000D+00 0.000D+00 0.000D+00
 Coeff-En:   0.000D+00 0.100D+01
 Coeff:      0.310D-01-0.669D-01-0.229D-01 0.362D+00-0.889D-01-0.829D+00
 Coeff:     -0.128D+00 0.174D+01
 Gap=     0.243 Goal=   None    Shift=    0.000
 Gap=     0.243 Goal=   None    Shift=    0.000
 RMSDP=8.06D-05 MaxDP=3.19D-03 DE=-5.20D-04 OVMax= 3.45D-02

 Cycle   9  Pass 1  IDiag  1:
 RMSU=  4.97D-05    CP:  9.22D-01  2.27D+00  1.36D+00  3.00D+00  3.00D+00
                    CP:  3.00D+00  3.00D+00  2.59D+00
 E= -466.808396983897     Delta-E=       -0.000414564111 Rises=F Damp=F
 DIIS: error= 5.11D-04 at cycle   9 NSaved=   9.
 NSaved= 9 IEnMin= 9 EnMin= -466.808396983897     IErMin= 9 ErrMin= 5.11D-04
 ErrMax= 5.11D-04  0.00D+00 EMaxC= 1.00D-01 BMatC= 2.98D-05 BMatP= 6.30D-05
 IDIUse=3 WtCom= 9.95D-01 WtEn= 5.11D-03
 Coeff-Com:  0.194D-01-0.419D-01-0.264D-01 0.104D+00 0.151D+00-0.867D-01
 Coeff-Com: -0.945D+00 0.524D+00 0.130D+01
 Coeff-En:   0.000D+00 0.000D+00 0.000D+00 0.000D+00 0.000D+00 0.000D+00
 Coeff-En:   0.000D+00 0.000D+00 0.100D+01
 Coeff:      0.193D-01-0.417D-01-0.263D-01 0.104D+00 0.150D+00-0.863D-01
 Coeff:     -0.941D+00 0.522D+00 0.130D+01
 Gap=     0.242 Goal=   None    Shift=    0.000
 Gap=     0.242 Goal=   None    Shift=    0.000
 RMSDP=7.06D-05 MaxDP=2.85D-03 DE=-4.15D-04 OVMax= 3.07D-02

 Cycle  10  Pass 1  IDiag  1:
 RMSU=  3.61D-05    CP:  9.20D-01  2.27D+00  1.39D+00  3.00D+00  3.00D+00
                    CP:  3.00D+00  3.00D+00  3.00D+00  2.12D+00
 E= -466.808633227831     Delta-E=       -0.000236243934 Rises=F Damp=F
 DIIS: error= 3.36D-04 at cycle  10 NSaved=  10.
 NSaved=10 IEnMin=10 EnMin= -466.808633227831     IErMin=10 ErrMin= 3.36D-04
 ErrMax= 3.36D-04  0.00D+00 EMaxC= 1.00D-01 BMatC= 1.20D-05 BMatP= 2.98D-05
 IDIUse=3 WtCom= 9.97D-01 WtEn= 3.36D-03
 Coeff-Com: -0.111D-01 0.240D-01 0.498D-02-0.161D+00 0.858D-01 0.439D+00
 Coeff-Com: -0.233D+00-0.921D+00 0.225D+00 0.155D+01
 Coeff-En:   0.000D+00 0.000D+00 0.000D+00 0.000D+00 0.000D+00 0.000D+00
 Coeff-En:   0.000D+00 0.000D+00 0.000D+00 0.100D+01
 Coeff:     -0.111D-01 0.240D-01 0.496D-02-0.161D+00 0.855D-01 0.438D+00
 Coeff:     -0.232D+00-0.917D+00 0.224D+00 0.154D+01
 Gap=     0.239 Goal=   None    Shift=    0.000
 Gap=     0.239 Goal=   None    Shift=    0.000
 RMSDP=8.12D-05 MaxDP=3.34D-03 DE=-2.36D-04 OVMax= 3.55D-02

 Cycle  11  Pass 1  IDiag  1:
 RMSU=  2.24D-05    CP:  9.18D-01  2.27D+00  1.43D+00  3.00D+00  3.00D+00
                    CP:  3.00D+00  3.00D+00  3.00D+00  3.00D+00  2.23D+00
 E= -466.808787166159     Delta-E=       -0.000153938328 Rises=F Damp=F
 DIIS: error= 1.67D-04 at cycle  11 NSaved=  11.
 NSaved=11 IEnMin=11 EnMin= -466.808787166159     IErMin=11 ErrMin= 1.67D-04
 ErrMax= 1.67D-04  0.00D+00 EMaxC= 1.00D-01 BMatC= 4.33D-06 BMatP= 1.20D-05
 IDIUse=3 WtCom= 9.98D-01 WtEn= 1.67D-03
 Coeff-Com: -0.786D-02 0.170D-01 0.621D-02-0.865D-01 0.710D-02 0.227D+00
 Coeff-Com:  0.525D-01-0.552D+00-0.187D+00 0.669D+00 0.854D+00
 Coeff-En:   0.000D+00 0.000D+00 0.000D+00 0.000D+00 0.000D+00 0.000D+00
 Coeff-En:   0.000D+00 0.000D+00 0.000D+00 0.000D+00 0.100D+01
 Coeff:     -0.785D-02 0.170D-01 0.620D-02-0.864D-01 0.708D-02 0.227D+00
 Coeff:      0.524D-01-0.551D+00-0.187D+00 0.667D+00 0.855D+00
 Gap=     0.238 Goal=   None    Shift=    0.000
 Gap=     0.238 Goal=   None    Shift=    0.000
 RMSDP=3.68D-05 MaxDP=1.54D-03 DE=-1.54D-04 OVMax= 1.61D-02

 Cycle  12  Pass 1  IDiag  1:
 RMSU=  9.09D-06    CP:  9.18D-01  2.27D+00  1.44D+00  3.00D+00  3.00D+00
                    CP:  3.00D+00  3.00D+00  3.00D+00  3.00D+00  2.78D+00
                    CP:  2.25D+00
 E= -466.808825586646     Delta-E=       -0.000038420486 Rises=F Damp=F
 DIIS: error= 1.05D-04 at cycle  12 NSaved=  12.
 NSaved=12 IEnMin=12 EnMin= -466.808825586646     IErMin=12 ErrMin= 1.05D-04
 ErrMax= 1.05D-04  0.00D+00 EMaxC= 1.00D-01 BMatC= 1.80D-06 BMatP= 4.33D-06
 IDIUse=3 WtCom= 9.99D-01 WtEn= 1.05D-03
 Coeff-Com:  0.484D-02-0.105D-01-0.282D-02 0.657D-01-0.416D-01-0.150D+00
 Coeff-Com:  0.868D-01 0.293D+00-0.167D+00-0.659D+00 0.113D+00 0.147D+01
 Coeff-En:   0.000D+00 0.000D+00 0.000D+00 0.000D+00 0.000D+00 0.000D+00
 Coeff-En:   0.000D+00 0.000D+00 0.000D+00 0.000D+00 0.000D+00 0.100D+01
 Coeff:      0.483D-02-0.105D-01-0.282D-02 0.656D-01-0.416D-01-0.150D+00
 Coeff:      0.868D-01 0.292D+00-0.167D+00-0.659D+00 0.113D+00 0.147D+01
 Gap=     0.236 Goal=   None    Shift=    0.000
 Gap=     0.236 Goal=   None    Shift=    0.000
 RMSDP=4.84D-05 MaxDP=2.10D-03 DE=-3.84D-05 OVMax= 2.13D-02

 Cycle  13  Pass 1  IDiag  1:
 RMSU=  2.75D-05    CP:  9.16D-01  2.27D+00  1.46D+00  3.00D+00  3.00D+00
                    CP:  3.00D+00  3.00D+00  3.00D+00  3.00D+00  3.00D+00
                    CP:  3.00D+00  2.25D+00
 E= -466.808853193809     Delta-E=       -0.000027607164 Rises=F Damp=F
 DIIS: error= 5.37D-05 at cycle  13 NSaved=  13.
 NSaved=13 IEnMin=13 EnMin= -466.808853193809     IErMin=13 ErrMin= 5.37D-05
 ErrMax= 5.37D-05  0.00D+00 EMaxC= 1.00D-01 BMatC= 5.66D-07 BMatP= 1.80D-06
 IDIUse=1 WtCom= 1.00D+00 WtEn= 0.00D+00
 Coeff-Com: -0.205D-02 0.447D-02 0.117D-03-0.393D-01 0.328D-01 0.101D+00
 Coeff-Com: -0.116D+00-0.173D+00 0.189D+00 0.410D+00-0.376D+00-0.996D+00
 Coeff-Com:  0.196D+01
 Coeff:     -0.205D-02 0.447D-02 0.117D-03-0.393D-01 0.328D-01 0.101D+00
 Coeff:     -0.116D+00-0.173D+00 0.189D+00 0.410D+00-0.376D+00-0.996D+00
 Coeff:      0.196D+01
 Gap=     0.236 Goal=   None    Shift=    0.000
 Gap=     0.236 Goal=   None    Shift=    0.000
 RMSDP=2.61D-05 MaxDP=1.21D-03 DE=-2.76D-05 OVMax= 1.15D-02

 Cycle  14  Pass 1  IDiag  1:
 RMSU=  3.77D-06    CP:  9.16D-01  2.27D+00  1.47D+00  3.00D+00  3.00D+00
                    CP:  3.00D+00  3.00D+00  3.00D+00  3.00D+00  3.00D+00
                    CP:  3.00D+00  2.92D+00  1.88D+00
 E= -466.808860138187     Delta-E=       -0.000006944378 Rises=F Damp=F
 DIIS: error= 2.51D-05 at cycle  14 NSaved=  14.
 NSaved=14 IEnMin=14 EnMin= -466.808860138187     IErMin=14 ErrMin= 2.51D-05
 ErrMax= 2.51D-05  0.00D+00 EMaxC= 1.00D-01 BMatC= 1.80D-07 BMatP= 5.66D-07
 IDIUse=1 WtCom= 1.00D+00 WtEn= 0.00D+00
 Coeff-Com: -0.213D-02 0.460D-02 0.981D-03-0.307D-01 0.175D-01 0.758D-01
 Coeff-Com: -0.340D-01-0.159D+00 0.486D-01 0.292D+00 0.305D-02-0.516D+00
 Coeff-Com: -0.218D+00 0.152D+01
 Coeff:     -0.213D-02 0.460D-02 0.981D-03-0.307D-01 0.175D-01 0.758D-01
 Coeff:     -0.340D-01-0.159D+00 0.486D-01 0.292D+00 0.305D-02-0.516D+00
 Coeff:     -0.218D+00 0.152D+01
 Gap=     0.235 Goal=   None    Shift=    0.000
 Gap=     0.235 Goal=   None    Shift=    0.000
 RMSDP=1.43D-05 MaxDP=6.87D-04 DE=-6.94D-06 OVMax= 6.22D-03

 Cycle  15  Pass 1  IDiag  1:
 RMSU=  2.65D-06    CP:  9.15D-01  2.27D+00  1.47D+00  3.00D+00  3.00D+00
                    CP:  3.00D+00  3.00D+00  3.00D+00  3.00D+00  3.00D+00
                    CP:  3.00D+00  3.00D+00  2.37D+00  1.64D+00
 E= -466.808861898612     Delta-E=       -0.000001760425 Rises=F Damp=F
 DIIS: error= 1.03D-05 at cycle  15 NSaved=  15.
 NSaved=15 IEnMin=15 EnMin= -466.808861898612     IErMin=15 ErrMin= 1.03D-05
 ErrMax= 1.03D-05  0.00D+00 EMaxC= 1.00D-01 BMatC= 4.74D-08 BMatP= 1.80D-07
 IDIUse=1 WtCom= 1.00D+00 WtEn= 0.00D+00
 Coeff-Com: -0.157D-04 0.191D-04 0.186D-03 0.246D-02-0.410D-02-0.725D-02
 Coeff-Com:  0.263D-01 0.153D-02-0.476D-01-0.367D-01 0.120D+00 0.144D+00
 Coeff-Com: -0.696D+00 0.410D+00 0.109D+01
 Coeff:     -0.157D-04 0.191D-04 0.186D-03 0.246D-02-0.410D-02-0.725D-02
 Coeff:      0.263D-01 0.153D-02-0.476D-01-0.367D-01 0.120D+00 0.144D+00
 Coeff:     -0.696D+00 0.410D+00 0.109D+01
 Gap=     0.235 Goal=   None    Shift=    0.000
 Gap=     0.235 Goal=   None    Shift=    0.000
 RMSDP=7.90D-06 MaxDP=3.75D-04 DE=-1.76D-06 OVMax= 3.40D-03

 Cycle  16  Pass 1  IDiag  1:
 RMSU=  3.63D-07    CP:  9.15D-01  2.27D+00  1.48D+00  3.00D+00  3.00D+00
                    CP:  3.00D+00  3.00D+00  3.00D+00  3.00D+00  3.00D+00
                    CP:  3.00D+00  3.00D+00  2.63D+00  2.00D+00  1.66D+00
 E= -466.808862237328     Delta-E=       -0.000000338715 Rises=F Damp=F
 DIIS: error= 2.87D-06 at cycle  16 NSaved=  16.
 NSaved=16 IEnMin=16 EnMin= -466.808862237328     IErMin=16 ErrMin= 2.87D-06
 ErrMax= 2.87D-06  0.00D+00 EMaxC= 1.00D-01 BMatC= 5.94D-09 BMatP= 4.74D-08
 IDIUse=1 WtCom= 1.00D+00 WtEn= 0.00D+00
 Coeff-Com:  0.389D-03-0.840D-03-0.144D-03 0.606D-02-0.361D-02-0.163D-01
 Coeff-Com:  0.105D-01 0.319D-01-0.171D-01-0.627D-01 0.153D-01 0.118D+00
 Coeff-Com: -0.463D-01-0.274D+00 0.173D+00 0.107D+01
 Coeff:      0.389D-03-0.840D-03-0.144D-03 0.606D-02-0.361D-02-0.163D-01
 Coeff:      0.105D-01 0.319D-01-0.171D-01-0.627D-01 0.153D-01 0.118D+00
 Coeff:     -0.463D-01-0.274D+00 0.173D+00 0.107D+01
 Gap=     0.235 Goal=   None    Shift=    0.000
 Gap=     0.235 Goal=   None    Shift=    0.000
 RMSDP=2.49D-06 MaxDP=1.18D-04 DE=-3.39D-07 OVMax= 1.05D-03

 Cycle  17  Pass 1  IDiag  1:
 RMSU=  1.44D-07    CP:  9.15D-01  2.27D+00  1.48D+00  3.00D+00  3.00D+00
                    CP:  3.00D+00  3.00D+00  3.00D+00  3.00D+00  3.00D+00
                    CP:  3.00D+00  3.00D+00  2.72D+00  2.11D+00  1.88D+00
                    CP:  1.64D+00
 E= -466.808862256085     Delta-E=       -0.000000018757 Rises=F Damp=F
 DIIS: error= 6.90D-07 at cycle  17 NSaved=  17.
 NSaved=17 IEnMin=17 EnMin= -466.808862256085     IErMin=17 ErrMin= 6.90D-07
 ErrMax= 6.90D-07  0.00D+00 EMaxC= 1.00D-01 BMatC= 4.28D-10 BMatP= 5.94D-09
 IDIUse=1 WtCom= 1.00D+00 WtEn= 0.00D+00
 Coeff-Com: -0.280D-04 0.620D-04 0.261D-04-0.560D-03 0.508D-03 0.102D-02
 Coeff-Com: -0.265D-02-0.114D-02 0.505D-02 0.586D-02-0.126D-01-0.144D-01
 Coeff-Com:  0.742D-01-0.365D-01-0.120D+00-0.790D-02 0.111D+01
 Coeff:     -0.280D-04 0.620D-04 0.261D-04-0.560D-03 0.508D-03 0.102D-02
 Coeff:     -0.265D-02-0.114D-02 0.505D-02 0.586D-02-0.126D-01-0.144D-01
 Coeff:      0.742D-01-0.365D-01-0.120D+00-0.790D-02 0.111D+01
 Gap=     0.235 Goal=   None    Shift=    0.000
 Gap=     0.235 Goal=   None    Shift=    0.000
 RMSDP=1.46D-07 MaxDP=6.34D-06 DE=-1.88D-08 OVMax= 6.09D-05

 Cycle  18  Pass 1  IDiag  1:
 RMSU=  4.93D-08    CP:  9.15D-01  2.27D+00  1.48D+00  3.00D+00  3.00D+00
                    CP:  3.00D+00  3.00D+00  3.00D+00  3.00D+00  3.00D+00
                    CP:  3.00D+00  3.00D+00  2.71D+00  2.11D+00  1.88D+00
                    CP:  1.78D+00  1.33D+00
 E= -466.808862256710     Delta-E=       -0.000000000626 Rises=F Damp=F
 DIIS: error= 3.25D-07 at cycle  18 NSaved=  18.
 NSaved=18 IEnMin=18 EnMin= -466.808862256710     IErMin=18 ErrMin= 3.25D-07
 ErrMax= 3.25D-07  0.00D+00 EMaxC= 1.00D-01 BMatC= 8.96D-11 BMatP= 4.28D-10
 IDIUse=1 WtCom= 1.00D+00 WtEn= 0.00D+00
 Coeff-Com: -0.443D-04 0.962D-04 0.214D-04-0.744D-03 0.541D-03 0.176D-02
 Coeff-Com: -0.188D-02-0.320D-02 0.332D-02 0.758D-02-0.583D-02-0.146D-01
 Coeff-Com:  0.317D-01 0.841D-02-0.594D-01-0.903D-01 0.386D+00 0.736D+00
 Coeff:     -0.443D-04 0.962D-04 0.214D-04-0.744D-03 0.541D-03 0.176D-02
 Coeff:     -0.188D-02-0.320D-02 0.332D-02 0.758D-02-0.583D-02-0.146D-01
 Coeff:      0.317D-01 0.841D-02-0.594D-01-0.903D-01 0.386D+00 0.736D+00
 Gap=     0.235 Goal=   None    Shift=    0.000
 Gap=     0.235 Goal=   None    Shift=    0.000
 RMSDP=9.24D-08 MaxDP=4.28D-06 DE=-6.26D-10 OVMax= 4.16D-05

 Cycle  19  Pass 1  IDiag  1:
 RMSU=  1.35D-08    CP:  9.15D-01  2.27D+00  1.48D+00  3.00D+00  3.00D+00
                    CP:  3.00D+00  3.00D+00  3.00D+00  3.00D+00  3.00D+00
                    CP:  3.00D+00  3.00D+00  2.71D+00  2.10D+00  1.88D+00
                    CP:  1.77D+00  1.38D+00  1.22D+00
 E= -466.808862256826     Delta-E=       -0.000000000115 Rises=F Damp=F
 DIIS: error= 1.64D-07 at cycle  19 NSaved=  19.
 NSaved=19 IEnMin=19 EnMin= -466.808862256826     IErMin=19 ErrMin= 1.64D-07
 ErrMax= 1.64D-07  0.00D+00 EMaxC= 1.00D-01 BMatC= 1.35D-11 BMatP= 8.96D-11
 IDIUse=1 WtCom= 1.00D+00 WtEn= 0.00D+00
 Coeff-Com: -0.535D-05 0.115D-04-0.142D-05-0.966D-04 0.965D-04 0.260D-03
 Coeff-Com: -0.149D-03-0.525D-03 0.247D-03 0.104D-02-0.262D-04-0.179D-02
 Coeff-Com: -0.892D-03 0.597D-02 0.253D-03-0.208D-01-0.609D-01 0.221D+00
 Coeff-Com:  0.856D+00
 Coeff:     -0.535D-05 0.115D-04-0.142D-05-0.966D-04 0.965D-04 0.260D-03
 Coeff:     -0.149D-03-0.525D-03 0.247D-03 0.104D-02-0.262D-04-0.179D-02
 Coeff:     -0.892D-03 0.597D-02 0.253D-03-0.208D-01-0.609D-01 0.221D+00
 Coeff:      0.856D+00
 Gap=     0.235 Goal=   None    Shift=    0.000
 Gap=     0.235 Goal=   None    Shift=    0.000
 RMSDP=4.10D-08 MaxDP=1.80D-06 DE=-1.15D-10 OVMax= 1.77D-05

 Cycle  20  Pass 1  IDiag  1:
 RMSU=  6.82D-09    CP:  9.15D-01  2.27D+00  1.48D+00  3.00D+00  3.00D+00
                    CP:  3.00D+00  3.00D+00  3.00D+00  3.00D+00  3.00D+00
                    CP:  3.00D+00  3.00D+00  2.71D+00  2.10D+00  1.88D+00
                    CP:  1.76D+00  1.38D+00  1.35D+00  1.23D+00
 E= -466.808862256857     Delta-E=       -0.000000000031 Rises=F Damp=F
 DIIS: error= 9.76D-08 at cycle  20 NSaved=  20.
 NSaved=20 IEnMin=20 EnMin= -466.808862256857     IErMin=20 ErrMin= 9.76D-08
 ErrMax= 9.76D-08  0.00D+00 EMaxC= 1.00D-01 BMatC= 3.23D-12 BMatP= 1.35D-11
 IDIUse=1 WtCom= 1.00D+00 WtEn= 0.00D+00
 Coeff-Com:  0.490D-05-0.107D-04-0.412D-05 0.756D-04-0.351D-04-0.174D-03
 Coeff-Com:  0.179D-03 0.349D-03-0.310D-03-0.720D-03 0.667D-03 0.138D-02
 Coeff-Com: -0.397D-02 0.405D-03 0.776D-02 0.575D-02-0.756D-01-0.227D-01
 Coeff-Com:  0.342D+00 0.745D+00
 Coeff:      0.490D-05-0.107D-04-0.412D-05 0.756D-04-0.351D-04-0.174D-03
 Coeff:      0.179D-03 0.349D-03-0.310D-03-0.720D-03 0.667D-03 0.138D-02
 Coeff:     -0.397D-02 0.405D-03 0.776D-02 0.575D-02-0.756D-01-0.227D-01
 Coeff:      0.342D+00 0.745D+00
 Gap=     0.235 Goal=   None    Shift=    0.000
 Gap=     0.235 Goal=   None    Shift=    0.000
 RMSDP=3.15D-08 MaxDP=1.46D-06 DE=-3.09D-11 OVMax= 1.38D-05

 Cycle  21  Pass 1  IDiag  1:
 Restarting incremental Fock formation.
 E= -466.808862256870     Delta-E=       -0.000000000013 Rises=F Damp=F
 DIIS: error= 5.38D-08 at cycle  21 NSaved=  20.
 NSaved=20 IEnMin=20 EnMin= -466.808862256870     IErMin=20 ErrMin= 5.38D-08
 ErrMax= 5.38D-08  0.00D+00 EMaxC= 1.00D-01 BMatC= 6.27D-13 BMatP= 3.23D-12
 IDIUse=1 WtCom= 1.00D+00 WtEn= 0.00D+00
 Coeff-Com:  0.100D-07 0.123D-05 0.919D-05-0.134D-04-0.386D-04 0.640D-05
 Coeff-Com:  0.116D-03 0.251D-06-0.151D-03-0.652D-05 0.300D-03 0.542D-03
 Coeff-Com: -0.136D-02 0.951D-04 0.464D-02 0.470D-02-0.527D-01-0.119D+00
 Coeff-Com:  0.177D+00 0.985D+00
 Coeff:      0.100D-07 0.123D-05 0.919D-05-0.134D-04-0.386D-04 0.640D-05
 Coeff:      0.116D-03 0.251D-06-0.151D-03-0.652D-05 0.300D-03 0.542D-03
 Coeff:     -0.136D-02 0.951D-04 0.464D-02 0.470D-02-0.527D-01-0.119D+00
 Coeff:      0.177D+00 0.985D+00
 Gap=     0.235 Goal=   None    Shift=    0.000
 Gap=     0.235 Goal=   None    Shift=    0.000
 RMSDP=3.70D-08 MaxDP=1.67D-06 DE=-1.33D-11 OVMax= 1.63D-05

 Cycle  22  Pass 1  IDiag  1:
 RMSU=  3.70D-08    CP:  1.00D+00
 E= -466.808862256882     Delta-E=       -0.000000000012 Rises=F Damp=F
 DIIS: error= 2.10D-08 at cycle  22 NSaved=  20.
 NSaved=20 IEnMin=20 EnMin= -466.808862256882     IErMin=20 ErrMin= 2.10D-08
 ErrMax= 2.10D-08  0.00D+00 EMaxC= 1.00D-01 BMatC= 8.26D-14 BMatP= 6.27D-13
 IDIUse=1 WtCom= 1.00D+00 WtEn= 0.00D+00
 Coeff-Com:  0.296D-06-0.137D-05 0.196D-05-0.303D-05-0.268D-04 0.163D-04
 Coeff-Com:  0.596D-04 0.160D-04-0.116D-03-0.830D-04 0.942D-03-0.651D-03
 Coeff-Com: -0.138D-02 0.460D-03 0.134D-01-0.505D-02-0.654D-01-0.931D-01
 Coeff-Com:  0.471D-01 0.110D+01
 Coeff:      0.296D-06-0.137D-05 0.196D-05-0.303D-05-0.268D-04 0.163D-04
 Coeff:      0.596D-04 0.160D-04-0.116D-03-0.830D-04 0.942D-03-0.651D-03
 Coeff:     -0.138D-02 0.460D-03 0.134D-01-0.505D-02-0.654D-01-0.931D-01
 Coeff:      0.471D-01 0.110D+01
 Gap=     0.235 Goal=   None    Shift=    0.000
 Gap=     0.235 Goal=   None    Shift=    0.000
 RMSDP=1.73D-08 MaxDP=7.84D-07 DE=-1.18D-11 OVMax= 7.62D-06

 Cycle  23  Pass 1  IDiag  1:
 RMSU=  5.77D-10    CP:  1.00D+00  1.47D+00
 E= -466.808862256886     Delta-E=       -0.000000000005 Rises=F Damp=F
 DIIS: error= 6.88D-09 at cycle  23 NSaved=  20.
 NSaved=20 IEnMin=20 EnMin= -466.808862256886     IErMin=20 ErrMin= 6.88D-09
 ErrMax= 6.88D-09  0.00D+00 EMaxC= 1.00D-01 BMatC= 1.07D-14 BMatP= 8.26D-14
 IDIUse=1 WtCom= 1.00D+00 WtEn= 0.00D+00
 Coeff-Com: -0.431D-06 0.168D-05 0.124D-05-0.180D-05-0.661D-05 0.929D-05
 Coeff-Com:  0.102D-04-0.144D-04-0.462D-04 0.121D-03-0.539D-05-0.252D-03
 Coeff-Com: -0.440D-03 0.138D-02 0.654D-02 0.105D-01-0.334D-01-0.155D+00
 Coeff-Com:  0.499D-01 0.112D+01
 Coeff:     -0.431D-06 0.168D-05 0.124D-05-0.180D-05-0.661D-05 0.929D-05
 Coeff:      0.102D-04-0.144D-04-0.462D-04 0.121D-03-0.539D-05-0.252D-03
 Coeff:     -0.440D-03 0.138D-02 0.654D-02 0.105D-01-0.334D-01-0.155D+00
 Coeff:      0.499D-01 0.112D+01
 Gap=     0.235 Goal=   None    Shift=    0.000
 Gap=     0.235 Goal=   None    Shift=    0.000
 RMSDP=6.13D-09 MaxDP=2.78D-07 DE=-4.77D-12 OVMax= 2.74D-06

 Error on total polarization charges =  0.01116
 SCF Done:  E(UwB97XD) =  -466.808862257     A.U. after   23 cycles
            NFock= 23  Conv=0.61D-08     -V/T= 2.0057
 <Sx>= 0.0000 <Sy>= 0.0000 <Sz>= 0.0000 <S**2>= 0.1056 S= 0.0963
 <L.S>=  0.00000000000    
 KE= 4.641848675580D+02 PE=-2.464948873596D+03 EE= 8.423913739213D+02
 --------------------------------------------------------------------
 Variational PCM results
 =======================
 <psi(f)|   H    |psi(f)>                     (a.u.) =    -466.816761
 <psi(f)|H+V(f)/2|psi(f)>                     (a.u.) =    -466.818203
 Total free energy in solution:
 - with all non electrostatic terms           (a.u.) =    -466.808862
 --------------------------------------------------------------------
 (Polarized solute)-Solvent               (kcal/mol) =      -0.91
 --------------------------------------------------------------------
 Quantum repulsion energy                 (kcal/mol) =       5.86
 Total non electrostatic                  (kcal/mol) =       5.86
 --------------------------------------------------------------------
 Partition over spheres:
 Sphere  on Atom  Surface  Charge   GEl     GCav    GDR
    1               7.37   0.011   -0.05    0.00    0.00
    2               1.42   0.002   -0.01    0.00    0.00
    3               7.52  -0.010   -0.03    0.00    0.00
    4               2.99  -0.004   -0.01    0.00    0.00
    5               4.59   0.009   -0.05    0.00    0.00
    6               1.52   0.002   -0.01    0.00    0.00
    7               4.82  -0.007   -0.03    0.00    0.00
    8               3.18  -0.004   -0.01    0.00    0.00
    9               3.06   0.002    0.00    0.00    0.00
   10               6.68  -0.007   -0.01    0.00    0.00
   11               3.61  -0.003   -0.01    0.00    0.00
   12               6.70   0.011   -0.06    0.00    0.00
   13               7.50  -0.010   -0.03    0.00    0.00
   14               7.28   0.012   -0.05    0.00    0.00
   15               7.52  -0.010   -0.03    0.00    0.00
   16               3.42   0.001    0.00    0.00    0.00
   17               3.88  -0.004   -0.02    0.00    0.00
   18               7.46  -0.008   -0.03    0.00    0.00
   19               4.66   0.008   -0.05    0.00    0.00
   20               4.83  -0.007   -0.03    0.00    0.00
   21               6.99   0.011   -0.06    0.00    0.00
   22               7.52  -0.010   -0.03    0.00    0.00
   23               2.99   0.002    0.00    0.00    0.00
   24               3.56  -0.003   -0.01    0.00    0.00
   25               6.87  -0.007   -0.01    0.00    0.00
   26               3.26   0.001    0.00    0.00    0.00
   27               7.39  -0.008   -0.03    0.00    0.00
   28               4.10  -0.004   -0.02    0.00    0.00
 Added spheres:    75.77   0.022   -0.23    0.00    0.00
 --------------------------------------------------------------------
 After PCM corrections, the energy is  -466.808862257     a.u.
 --------------------------------------------------------------------
 Annihilation of the first spin contaminant:
 S**2 before annihilation     0.1056,   after     0.0046
 Leave Link  502 at Tue Aug  4 13:02:09 2020, MaxMem=  6442450944 cpu:           10479.7 elap:             440.0
 (Enter /scratch/scicomp/CentOS/7.3.1611/Haswell/software/Gaussian/g16/l601.exe)
 Copying SCF densities to generalized density rwf, IOpCl= 1 IROHF=0.

 **********************************************************************

            Population analysis using the SCF Density.

 **********************************************************************

 Alpha  occ. eigenvalues --  -10.29225 -10.29047 -10.28382 -10.28371 -10.28196
 Alpha  occ. eigenvalues --  -10.28044 -10.28022 -10.28009 -10.27851 -10.27764
 Alpha  occ. eigenvalues --  -10.27425 -10.27198  -0.94842  -0.93172  -0.84963
 Alpha  occ. eigenvalues --   -0.84276  -0.83494  -0.82715  -0.71326  -0.70394
 Alpha  occ. eigenvalues --   -0.69003  -0.67712  -0.59951  -0.59550  -0.57968
 Alpha  occ. eigenvalues --   -0.56223  -0.53174  -0.53094  -0.50860  -0.50206
 Alpha  occ. eigenvalues --   -0.49465  -0.48390  -0.47698  -0.47109  -0.46280
 Alpha  occ. eigenvalues --   -0.44588  -0.41351  -0.40908  -0.39735  -0.39378
 Alpha  occ. eigenvalues --   -0.38947  -0.37718  -0.31487  -0.23814
 Alpha virt. eigenvalues --   -0.00298   0.08425   0.11333   0.13390   0.14282
 Alpha virt. eigenvalues --    0.14805   0.15526   0.16484   0.16919   0.17323
 Alpha virt. eigenvalues --    0.17342   0.18239   0.18892   0.19828   0.20934
 Alpha virt. eigenvalues --    0.21701   0.22215   0.23550   0.24068   0.24494
 Alpha virt. eigenvalues --    0.25353   0.25995   0.27101   0.27219   0.28054
 Alpha virt. eigenvalues --    0.29326   0.29394   0.30488   0.30953   0.31162
 Alpha virt. eigenvalues --    0.31668   0.32512   0.32702   0.33423   0.34632
 Alpha virt. eigenvalues --    0.35177   0.36018   0.36703   0.36937   0.38166
 Alpha virt. eigenvalues --    0.38193   0.39473   0.41862   0.42218   0.42956
 Alpha virt. eigenvalues --    0.44267   0.44597   0.45211   0.45665   0.46266
 Alpha virt. eigenvalues --    0.47214   0.47922   0.49179   0.49297   0.49404
 Alpha virt. eigenvalues --    0.49545   0.49741   0.49950   0.50755   0.50954
 Alpha virt. eigenvalues --    0.51110   0.51602   0.52492   0.52808   0.53652
 Alpha virt. eigenvalues --    0.53713   0.54914   0.55305   0.55759   0.56428
 Alpha virt. eigenvalues --    0.57337   0.57730   0.58814   0.59785   0.60046
 Alpha virt. eigenvalues --    0.60419   0.61083   0.61680   0.63902   0.65151
 Alpha virt. eigenvalues --    0.67089   0.67610   0.68409   0.69008   0.69099
 Alpha virt. eigenvalues --    0.71400   0.72890   0.73398   0.76651   0.76833
 Alpha virt. eigenvalues --    0.77786   0.79173   0.79368   0.82064   0.82112
 Alpha virt. eigenvalues --    0.83738   0.84724   0.86101   0.87260   0.88302
 Alpha virt. eigenvalues --    0.88802   0.90036   0.93452   0.94297   0.95459
 Alpha virt. eigenvalues --    0.96045   0.98282   0.98571   0.98869   0.99743
 Alpha virt. eigenvalues --    1.02530   1.02846   1.04356   1.04840   1.06059
 Alpha virt. eigenvalues --    1.07578   1.08211   1.08271   1.10098   1.10448
 Alpha virt. eigenvalues --    1.12925   1.14371   1.15894   1.17078   1.17565
 Alpha virt. eigenvalues --    1.18705   1.18802   1.19558   1.19995   1.20108
 Alpha virt. eigenvalues --    1.21129   1.22549   1.24394   1.26177   1.26386
 Alpha virt. eigenvalues --    1.27173   1.27242   1.28407   1.29399   1.29468
 Alpha virt. eigenvalues --    1.30619   1.30902   1.33552   1.34160   1.34720
 Alpha virt. eigenvalues --    1.35331   1.35927   1.36110   1.38541   1.39645
 Alpha virt. eigenvalues --    1.39763   1.40208   1.40324   1.42281   1.42884
 Alpha virt. eigenvalues --    1.43239   1.44271   1.44365   1.44560   1.45433
 Alpha virt. eigenvalues --    1.46043   1.46196   1.48045   1.48196   1.49299
 Alpha virt. eigenvalues --    1.50873   1.53798   1.55115   1.56881   1.57836
 Alpha virt. eigenvalues --    1.58991   1.60081   1.60202   1.60935   1.63200
 Alpha virt. eigenvalues --    1.64260   1.65608   1.65676   1.66967   1.68543
 Alpha virt. eigenvalues --    1.71886   1.73343   1.75651   1.77467   1.78495
 Alpha virt. eigenvalues --    1.79653   1.81209   1.82321   1.85099   1.85827
 Alpha virt. eigenvalues --    1.88382   1.90192   1.90958   1.93656   1.94329
 Alpha virt. eigenvalues --    1.96994   1.97681   2.00443   2.01823   2.03482
 Alpha virt. eigenvalues --    2.06136   2.06739   2.08709   2.11111   2.11315
 Alpha virt. eigenvalues --    2.12864   2.16423   2.16508   2.16642   2.18366
 Alpha virt. eigenvalues --    2.19032   2.20376   2.20948   2.21592   2.24315
 Alpha virt. eigenvalues --    2.25350   2.25427   2.28282   2.30543   2.32052
 Alpha virt. eigenvalues --    2.35463   2.36746   2.39023   2.39204   2.44633
 Alpha virt. eigenvalues --    2.45181   2.47741   2.47891   2.48885   2.50121
 Alpha virt. eigenvalues --    2.50922   2.54265   2.54625   2.57349   2.57539
 Alpha virt. eigenvalues --    2.60012   2.60402   2.61846   2.62682   2.62811
 Alpha virt. eigenvalues --    2.64495   2.65470   2.66569   2.68036   2.69024
 Alpha virt. eigenvalues --    2.69836   2.72226   2.73276   2.73784   2.74464
 Alpha virt. eigenvalues --    2.74567   2.76449   2.76856   2.77634   2.78563
 Alpha virt. eigenvalues --    2.78723   2.80141   2.80539   2.82217   2.83636
 Alpha virt. eigenvalues --    2.83814   2.83860   2.84594   2.86036   2.86746
 Alpha virt. eigenvalues --    2.87248   2.87859   2.89554   2.90733   2.92100
 Alpha virt. eigenvalues --    2.92179   2.93582   2.94255   2.95598   2.96932
 Alpha virt. eigenvalues --    2.97509   2.98569   2.98856   2.99917   3.02009
 Alpha virt. eigenvalues --    3.02138   3.03524   3.05069   3.05187   3.06363
 Alpha virt. eigenvalues --    3.07959   3.08677   3.10151   3.10273   3.11372
 Alpha virt. eigenvalues --    3.12211   3.12953   3.13303   3.14296   3.14860
 Alpha virt. eigenvalues --    3.16262   3.16458   3.18345   3.18587   3.20030
 Alpha virt. eigenvalues --    3.20584   3.20696   3.21242   3.21651   3.23077
 Alpha virt. eigenvalues --    3.23766   3.24324   3.24830   3.25059   3.26870
 Alpha virt. eigenvalues --    3.26934   3.26994   3.28100   3.28959   3.30085
 Alpha virt. eigenvalues --    3.30412   3.31206   3.32291   3.32385   3.34688
 Alpha virt. eigenvalues --    3.35474   3.35815   3.35925   3.36552   3.37366
 Alpha virt. eigenvalues --    3.38332   3.39730   3.40147   3.41017   3.42354
 Alpha virt. eigenvalues --    3.42618   3.45426   3.45565   3.46726   3.47120
 Alpha virt. eigenvalues --    3.48280   3.48702   3.49027   3.50531   3.51430
 Alpha virt. eigenvalues --    3.52296   3.53299   3.53346   3.56212   3.56697
 Alpha virt. eigenvalues --    3.57461   3.57756   3.58863   3.59118   3.59980
 Alpha virt. eigenvalues --    3.61758   3.62842   3.63628   3.65530   3.65668
 Alpha virt. eigenvalues --    3.66366   3.67269   3.68270   3.70138   3.72116
 Alpha virt. eigenvalues --    3.72202   3.74427   3.77277   3.79788   3.80506
 Alpha virt. eigenvalues --    3.80886   3.82253   3.82692   3.83251   3.83645
 Alpha virt. eigenvalues --    3.85657   3.87612   3.91144   3.91585   3.92910
 Alpha virt. eigenvalues --    3.93490   3.95529   3.96627   4.01369   4.01719
 Alpha virt. eigenvalues --    4.02507   4.04299   4.07100   4.09404   4.10756
 Alpha virt. eigenvalues --    4.11163   4.12419   4.13217   4.14916   4.15677
 Alpha virt. eigenvalues --    4.16911   4.18675   4.19523   4.20761   4.21002
 Alpha virt. eigenvalues --    4.22614   4.24615   4.25836   4.28318   4.30123
 Alpha virt. eigenvalues --    4.32530   4.32714   4.34206   4.35835   4.38864
 Alpha virt. eigenvalues --    4.39284   4.43901   4.44591   4.45953   4.47771
 Alpha virt. eigenvalues --    4.49412   4.50819   4.52138   4.54953   4.56378
 Alpha virt. eigenvalues --    4.57918   4.59104   4.61202   4.66427   4.67623
 Alpha virt. eigenvalues --    4.69891   4.72733   4.75933   4.76671   4.77144
 Alpha virt. eigenvalues --    4.79031   4.79202   4.85280   4.87422   4.88323
 Alpha virt. eigenvalues --    4.92511   4.92929   4.93797   4.95063   4.97860
 Alpha virt. eigenvalues --    4.99507   5.02991   5.08161   5.09573   5.11507
 Alpha virt. eigenvalues --    5.16678   5.20452   5.22742   5.25619   5.25997
 Alpha virt. eigenvalues --    5.29530   5.37306   5.38051   5.39986   5.40309
 Alpha virt. eigenvalues --    5.43639   5.44103   5.51941   5.54529   5.67118
 Alpha virt. eigenvalues --    5.69013   5.71282   5.74781   5.88546   5.96568
 Alpha virt. eigenvalues --    7.94885   7.95533   8.03350   8.04099   8.05664
 Alpha virt. eigenvalues --    8.10172   8.11108   8.14554   8.18953   8.20015
 Alpha virt. eigenvalues --    8.34145   8.40304  34.77056  34.77365  34.81306
 Alpha virt. eigenvalues --   34.81682  34.84228  34.90702  34.98452  35.00045
 Alpha virt. eigenvalues --   35.01866  35.02876  35.16975  35.23279
  Beta  occ. eigenvalues --  -10.29225 -10.29047 -10.28383 -10.28370 -10.28196
  Beta  occ. eigenvalues --  -10.28045 -10.28022 -10.28009 -10.27850 -10.27765
  Beta  occ. eigenvalues --  -10.27425 -10.27198  -0.94842  -0.93172  -0.84963
  Beta  occ. eigenvalues --   -0.84276  -0.83494  -0.82715  -0.71326  -0.70394
  Beta  occ. eigenvalues --   -0.69003  -0.67712  -0.59951  -0.59550  -0.57968
  Beta  occ. eigenvalues --   -0.56223  -0.53174  -0.53095  -0.50860  -0.50206
  Beta  occ. eigenvalues --   -0.49465  -0.48390  -0.47698  -0.47109  -0.46280
  Beta  occ. eigenvalues --   -0.44588  -0.41351  -0.40908  -0.39735  -0.39378
  Beta  occ. eigenvalues --   -0.38947  -0.37718  -0.31487  -0.23814
  Beta virt. eigenvalues --   -0.00298   0.08425   0.11333   0.13390   0.14282
  Beta virt. eigenvalues --    0.14805   0.15526   0.16484   0.16919   0.17323
  Beta virt. eigenvalues --    0.17342   0.18239   0.18892   0.19828   0.20934
  Beta virt. eigenvalues --    0.21701   0.22215   0.23550   0.24068   0.24494
  Beta virt. eigenvalues --    0.25353   0.25995   0.27102   0.27219   0.28054
  Beta virt. eigenvalues --    0.29325   0.29394   0.30488   0.30953   0.31162
  Beta virt. eigenvalues --    0.31668   0.32512   0.32702   0.33423   0.34632
  Beta virt. eigenvalues --    0.35177   0.36018   0.36703   0.36937   0.38164
  Beta virt. eigenvalues --    0.38195   0.39474   0.41862   0.42219   0.42956
  Beta virt. eigenvalues --    0.44267   0.44597   0.45211   0.45665   0.46266
  Beta virt. eigenvalues --    0.47214   0.47922   0.49179   0.49297   0.49404
  Beta virt. eigenvalues --    0.49544   0.49741   0.49950   0.50754   0.50954
  Beta virt. eigenvalues --    0.51110   0.51602   0.52492   0.52808   0.53652
  Beta virt. eigenvalues --    0.53713   0.54914   0.55304   0.55760   0.56428
  Beta virt. eigenvalues --    0.57337   0.57730   0.58814   0.59785   0.60046
  Beta virt. eigenvalues --    0.60419   0.61083   0.61680   0.63902   0.65151
  Beta virt. eigenvalues --    0.67089   0.67610   0.68409   0.69007   0.69100
  Beta virt. eigenvalues --    0.71400   0.72890   0.73398   0.76652   0.76832
  Beta virt. eigenvalues --    0.77786   0.79173   0.79368   0.82064   0.82113
  Beta virt. eigenvalues --    0.83738   0.84724   0.86101   0.87260   0.88302
  Beta virt. eigenvalues --    0.88802   0.90037   0.93452   0.94297   0.95459
  Beta virt. eigenvalues --    0.96045   0.98282   0.98571   0.98869   0.99743
  Beta virt. eigenvalues --    1.02530   1.02846   1.04356   1.04840   1.06059
  Beta virt. eigenvalues --    1.07578   1.08210   1.08272   1.10098   1.10447
  Beta virt. eigenvalues --    1.12925   1.14371   1.15894   1.17078   1.17565
  Beta virt. eigenvalues --    1.18705   1.18803   1.19558   1.19995   1.20108
  Beta virt. eigenvalues --    1.21129   1.22549   1.24394   1.26177   1.26387
  Beta virt. eigenvalues --    1.27173   1.27241   1.28407   1.29400   1.29468
  Beta virt. eigenvalues --    1.30619   1.30902   1.33551   1.34160   1.34720
  Beta virt. eigenvalues --    1.35331   1.35927   1.36111   1.38541   1.39645
  Beta virt. eigenvalues --    1.39763   1.40207   1.40324   1.42281   1.42884
  Beta virt. eigenvalues --    1.43239   1.44271   1.44365   1.44560   1.45433
  Beta virt. eigenvalues --    1.46043   1.46196   1.48045   1.48196   1.49299
  Beta virt. eigenvalues --    1.50873   1.53798   1.55115   1.56881   1.57836
  Beta virt. eigenvalues --    1.58991   1.60081   1.60202   1.60935   1.63200
  Beta virt. eigenvalues --    1.64260   1.65608   1.65676   1.66967   1.68543
  Beta virt. eigenvalues --    1.71886   1.73343   1.75651   1.77467   1.78495
  Beta virt. eigenvalues --    1.79653   1.81209   1.82321   1.85099   1.85827
  Beta virt. eigenvalues --    1.88382   1.90192   1.90958   1.93656   1.94329
  Beta virt. eigenvalues --    1.96994   1.97681   2.00443   2.01823   2.03482
  Beta virt. eigenvalues --    2.06136   2.06739   2.08709   2.11111   2.11315
  Beta virt. eigenvalues --    2.12864   2.16423   2.16508   2.16642   2.18366
  Beta virt. eigenvalues --    2.19032   2.20376   2.20948   2.21592   2.24315
  Beta virt. eigenvalues --    2.25350   2.25428   2.28282   2.30543   2.32052
  Beta virt. eigenvalues --    2.35463   2.36746   2.39023   2.39204   2.44633
  Beta virt. eigenvalues --    2.45181   2.47741   2.47890   2.48885   2.50121
  Beta virt. eigenvalues --    2.50922   2.54265   2.54625   2.57349   2.57539
  Beta virt. eigenvalues --    2.60012   2.60402   2.61846   2.62682   2.62811
  Beta virt. eigenvalues --    2.64495   2.65470   2.66569   2.68036   2.69024
  Beta virt. eigenvalues --    2.69836   2.72226   2.73276   2.73784   2.74464
  Beta virt. eigenvalues --    2.74567   2.76449   2.76856   2.77634   2.78563
  Beta virt. eigenvalues --    2.78723   2.80141   2.80539   2.82217   2.83636
  Beta virt. eigenvalues --    2.83814   2.83860   2.84594   2.86036   2.86746
  Beta virt. eigenvalues --    2.87248   2.87859   2.89554   2.90733   2.92100
  Beta virt. eigenvalues --    2.92179   2.93582   2.94255   2.95598   2.96932
  Beta virt. eigenvalues --    2.97510   2.98569   2.98856   2.99917   3.02009
  Beta virt. eigenvalues --    3.02138   3.03524   3.05069   3.05187   3.06363
  Beta virt. eigenvalues --    3.07959   3.08677   3.10151   3.10274   3.11372
  Beta virt. eigenvalues --    3.12211   3.12953   3.13303   3.14296   3.14860
  Beta virt. eigenvalues --    3.16263   3.16458   3.18345   3.18587   3.20030
  Beta virt. eigenvalues --    3.20584   3.20696   3.21242   3.21651   3.23077
  Beta virt. eigenvalues --    3.23766   3.24324   3.24830   3.25059   3.26870
  Beta virt. eigenvalues --    3.26934   3.26994   3.28100   3.28959   3.30085
  Beta virt. eigenvalues --    3.30412   3.31206   3.32292   3.32385   3.34688
  Beta virt. eigenvalues --    3.35474   3.35815   3.35925   3.36552   3.37366
  Beta virt. eigenvalues --    3.38332   3.39730   3.40147   3.41017   3.42354
  Beta virt. eigenvalues --    3.42618   3.45426   3.45565   3.46726   3.47120
  Beta virt. eigenvalues --    3.48280   3.48702   3.49027   3.50531   3.51430
  Beta virt. eigenvalues --    3.52296   3.53299   3.53346   3.56212   3.56697
  Beta virt. eigenvalues --    3.57461   3.57756   3.58863   3.59118   3.59980
  Beta virt. eigenvalues --    3.61758   3.62842   3.63628   3.65530   3.65668
  Beta virt. eigenvalues --    3.66366   3.67269   3.68270   3.70138   3.72115
  Beta virt. eigenvalues --    3.72202   3.74427   3.77277   3.79788   3.80506
  Beta virt. eigenvalues --    3.80886   3.82253   3.82692   3.83251   3.83645
  Beta virt. eigenvalues --    3.85657   3.87612   3.91144   3.91585   3.92910
  Beta virt. eigenvalues --    3.93490   3.95529   3.96627   4.01369   4.01719
  Beta virt. eigenvalues --    4.02507   4.04299   4.07100   4.09404   4.10756
  Beta virt. eigenvalues --    4.11163   4.12419   4.13217   4.14916   4.15677
  Beta virt. eigenvalues --    4.16911   4.18675   4.19523   4.20761   4.21002
  Beta virt. eigenvalues --    4.22614   4.24615   4.25836   4.28318   4.30123
  Beta virt. eigenvalues --    4.32530   4.32714   4.34206   4.35835   4.38864
  Beta virt. eigenvalues --    4.39284   4.43901   4.44591   4.45953   4.47771
  Beta virt. eigenvalues --    4.49412   4.50819   4.52138   4.54953   4.56378
  Beta virt. eigenvalues --    4.57918   4.59104   4.61202   4.66427   4.67623
  Beta virt. eigenvalues --    4.69891   4.72733   4.75933   4.76671   4.77144
  Beta virt. eigenvalues --    4.79031   4.79202   4.85280   4.87422   4.88323
  Beta virt. eigenvalues --    4.92511   4.92929   4.93797   4.95063   4.97860
  Beta virt. eigenvalues --    4.99507   5.02991   5.08161   5.09573   5.11507
  Beta virt. eigenvalues --    5.16678   5.20452   5.22742   5.25619   5.25997
  Beta virt. eigenvalues --    5.29530   5.37306   5.38051   5.39986   5.40309
  Beta virt. eigenvalues --    5.43639   5.44103   5.51941   5.54529   5.67118
  Beta virt. eigenvalues --    5.69013   5.71282   5.74781   5.88546   5.96568
  Beta virt. eigenvalues --    7.94885   7.95533   8.03350   8.04099   8.05664
  Beta virt. eigenvalues --    8.10172   8.11108   8.14554   8.18953   8.20015
  Beta virt. eigenvalues --    8.34145   8.40304  34.77056  34.77365  34.81306
  Beta virt. eigenvalues --   34.81682  34.84228  34.90702  34.98452  35.00045
  Beta virt. eigenvalues --   35.01866  35.02876  35.16975  35.23279
          Condensed to atoms (all electrons):
               1          2          3          4          5          6
     1  C    5.189111  -0.004353   0.424418  -0.002787   0.002422  -0.008820
     2  C   -0.004353   5.400890  -0.001771   0.436641  -0.107195   0.054262
     3  H    0.424418  -0.001771   0.489097   0.000036  -0.000026   0.000101
     4  H   -0.002787   0.436641   0.000036   0.477069  -0.017687  -0.008396
     5  C    0.002422  -0.107195  -0.000026  -0.017687   5.255846   0.468284
     6  C   -0.008820   0.054262   0.000101  -0.008396   0.468284   5.400172
     7  H    0.000065  -0.002948   0.000002   0.000180   0.439514  -0.033711
     8  H    0.001434  -0.008323  -0.000117   0.000098  -0.038222   0.436602
     9  C    0.002822  -0.033636  -0.000010  -0.005523  -0.057992   0.229560
    10  H   -0.000036   0.004473  -0.000001  -0.000474  -0.007210  -0.049774
    11  H   -0.000093  -0.007659   0.000004   0.000967   0.010750  -0.059435
    12  C   -0.000265   0.021043   0.000000   0.006546   0.291837  -0.060758
    13  H   -0.000001   0.000245   0.000000   0.000051  -0.031954   0.003589
    14  C    0.000121  -0.008816  -0.000000   0.001471  -0.044056  -0.004168
    15  H   -0.000000   0.000102  -0.000000  -0.000118   0.005085  -0.001794
    16  C   -0.000436   0.017084   0.000000  -0.000977   0.002987  -0.068288
    17  H    0.000029   0.001454  -0.000000  -0.005725   0.009709  -0.005233
    18  H    0.000001   0.000047   0.000000   0.000527  -0.003574   0.012897
    19  C   -0.044036   0.467883   0.005047  -0.038184  -0.029915  -0.107236
    20  H    0.004605  -0.034120  -0.000120  -0.005469  -0.000192  -0.002931
    21  C    0.540496  -0.060622  -0.030100   0.005880   0.004170   0.021069
    22  H   -0.024783   0.003524  -0.005324  -0.000069   0.000058   0.000249
    23  C   -0.083274   0.229452   0.004801  -0.016822   0.011592  -0.033630
    24  H    0.013391  -0.059429  -0.000051  -0.003978   0.005245  -0.007664
    25  H    0.003333  -0.049638  -0.000050  -0.002911   0.000475   0.004470
    26  C    0.266175  -0.068419  -0.027552   0.006426  -0.012658   0.017148
    27  H   -0.034995   0.012928  -0.004289  -0.000066   0.000424   0.000045
    28  H   -0.036401  -0.005236   0.000619  -0.000183  -0.004538   0.001462
               7          8          9         10         11         12
     1  C    0.000065   0.001434   0.002822  -0.000036  -0.000093  -0.000265
     2  C   -0.002948  -0.008323  -0.033636   0.004473  -0.007659   0.021043
     3  H    0.000002  -0.000117  -0.000010  -0.000001   0.000004   0.000000
     4  H    0.000180   0.000098  -0.005523  -0.000474   0.000967   0.006546
     5  C    0.439514  -0.038222  -0.057992  -0.007210   0.010750   0.291837
     6  C   -0.033711   0.436602   0.229560  -0.049774  -0.059435  -0.060758
     7  H    0.478074  -0.005480   0.003290  -0.000029   0.000001  -0.036136
     8  H   -0.005480   0.477171  -0.016832  -0.002914  -0.003977   0.005892
     9  C    0.003290  -0.016832   5.000029   0.409304   0.463792   0.032994
    10  H   -0.000029  -0.002914   0.409304   0.560648  -0.018888   0.000727
    11  H    0.000001  -0.003977   0.463792  -0.018888   0.522805  -0.005182
    12  C   -0.036136   0.005892   0.032994   0.000727  -0.005182   5.045384
    13  H   -0.003385  -0.000069   0.000546  -0.000116   0.000026   0.421549
    14  C    0.004633  -0.002794  -0.083295   0.003305   0.013389   0.540244
    15  H   -0.000120   0.000036   0.004806  -0.000051  -0.000051  -0.030413
    16  C   -0.001286   0.006433   0.325464  -0.023760  -0.056270  -0.052536
    17  H    0.000004  -0.000183  -0.029854   0.005795  -0.006221  -0.011646
    18  H    0.000035  -0.000067  -0.044049  -0.008352  -0.001270   0.005782
    19  C   -0.000187  -0.017672   0.011578   0.000484   0.005233   0.004152
    20  H    0.000002   0.000178   0.003044   0.000351  -0.003180  -0.000070
    21  C   -0.000070   0.006561  -0.003318  -0.000163  -0.000415  -0.000413
    22  H   -0.000001   0.000051  -0.000086  -0.000001  -0.000035  -0.000002
    23  C    0.003065  -0.005570   0.004234  -0.000154   0.000227  -0.003331
    24  H   -0.003199   0.000967   0.000226  -0.000028  -0.000009  -0.000417
    25  H    0.000350  -0.000473  -0.000153   0.000016  -0.000028  -0.000162
    26  C   -0.001288  -0.000946  -0.001565   0.000044  -0.000087   0.001468
    27  H   -0.000025   0.000529   0.000019  -0.000000  -0.000002  -0.000032
    28  H    0.002079  -0.005720   0.000475   0.000015   0.000019   0.000302
              13         14         15         16         17         18
     1  C   -0.000001   0.000121  -0.000000  -0.000436   0.000029   0.000001
     2  C    0.000245  -0.008816   0.000102   0.017084   0.001454   0.000047
     3  H    0.000000  -0.000000  -0.000000   0.000000  -0.000000   0.000000
     4  H    0.000051   0.001471  -0.000118  -0.000977  -0.005725   0.000527
     5  C   -0.031954  -0.044056   0.005085   0.002987   0.009709  -0.003574
     6  C    0.003589  -0.004168  -0.001794  -0.068288  -0.005233   0.012897
     7  H   -0.003385   0.004633  -0.000120  -0.001286   0.000004   0.000035
     8  H   -0.000069  -0.002794   0.000036   0.006433  -0.000183  -0.000067
     9  C    0.000546  -0.083295   0.004806   0.325464  -0.029854  -0.044049
    10  H   -0.000116   0.003305  -0.000051  -0.023760   0.005795  -0.008352
    11  H    0.000026   0.013389  -0.000051  -0.056270  -0.006221  -0.001270
    12  C    0.421549   0.540244  -0.030413  -0.052536  -0.011646   0.005782
    13  H    0.488910  -0.024564  -0.005334   0.003522  -0.000392  -0.000084
    14  C   -0.024564   5.189176   0.424700   0.266186  -0.036409  -0.034920
    15  H   -0.005334   0.424700   0.489180  -0.027531   0.000616  -0.004275
    16  C    0.003522   0.266186  -0.027531   4.983509   0.404694   0.430799
    17  H   -0.000392  -0.036409   0.000616   0.404694   0.575101  -0.021789
    18  H   -0.000084  -0.034920  -0.004275   0.430799  -0.021789   0.536380
    19  C    0.000058   0.002426  -0.000026  -0.012663  -0.004533   0.000426
    20  H   -0.000001   0.000064   0.000002  -0.001277   0.002079  -0.000025
    21  C   -0.000002  -0.000265   0.000000   0.001469   0.000304  -0.000032
    22  H    0.000000  -0.000001   0.000000   0.000007   0.000000  -0.000001
    23  C   -0.000084   0.002825  -0.000010  -0.001564   0.000473   0.000019
    24  H   -0.000037  -0.000095   0.000004  -0.000088   0.000019  -0.000002
    25  H   -0.000001  -0.000036  -0.000001   0.000045   0.000015  -0.000000
    26  C    0.000006  -0.000435   0.000000   0.000473  -0.000031  -0.000001
    27  H   -0.000001   0.000001   0.000000  -0.000001   0.000001  -0.000000
    28  H    0.000000   0.000029  -0.000000  -0.000031  -0.000012   0.000001
              19         20         21         22         23         24
     1  C   -0.044036   0.004605   0.540496  -0.024783  -0.083274   0.013391
     2  C    0.467883  -0.034120  -0.060622   0.003524   0.229452  -0.059429
     3  H    0.005047  -0.000120  -0.030100  -0.005324   0.004801  -0.000051
     4  H   -0.038184  -0.005469   0.005880  -0.000069  -0.016822  -0.003978
     5  C   -0.029915  -0.000192   0.004170   0.000058   0.011592   0.005245
     6  C   -0.107236  -0.002931   0.021069   0.000249  -0.033630  -0.007664
     7  H   -0.000187   0.000002  -0.000070  -0.000001   0.003065  -0.003199
     8  H   -0.017672   0.000178   0.006561   0.000051  -0.005570   0.000967
     9  C    0.011578   0.003044  -0.003318  -0.000086   0.004234   0.000226
    10  H    0.000484   0.000351  -0.000163  -0.000001  -0.000154  -0.000028
    11  H    0.005233  -0.003180  -0.000415  -0.000035   0.000227  -0.000009
    12  C    0.004152  -0.000070  -0.000413  -0.000002  -0.003331  -0.000417
    13  H    0.000058  -0.000001  -0.000002   0.000000  -0.000084  -0.000037
    14  C    0.002426   0.000064  -0.000265  -0.000001   0.002825  -0.000095
    15  H   -0.000026   0.000002   0.000000   0.000000  -0.000010   0.000004
    16  C   -0.012663  -0.001277   0.001469   0.000007  -0.001564  -0.000088
    17  H   -0.004533   0.002079   0.000304   0.000000   0.000473   0.000019
    18  H    0.000426  -0.000025  -0.000032  -0.000001   0.000019  -0.000002
    19  C    5.255771   0.439817   0.291950  -0.031858  -0.057827   0.010746
    20  H    0.439817   0.478086  -0.036036  -0.003388   0.003277   0.000001
    21  C    0.291950  -0.036036   5.045106   0.421748   0.033026  -0.005186
    22  H   -0.031858  -0.003388   0.421748   0.488926   0.000544   0.000026
    23  C   -0.057827   0.003277   0.033026   0.000544   4.999750   0.463804
    24  H    0.010746   0.000001  -0.005186   0.000026   0.463804   0.522925
    25  H   -0.007254  -0.000028   0.000722  -0.000115   0.409198  -0.018943
    26  C    0.003060  -0.001276  -0.052586   0.003527   0.325365  -0.056286
    27  H   -0.003596   0.000035   0.005858  -0.000083  -0.044069  -0.001276
    28  H    0.009710   0.000004  -0.011688  -0.000391  -0.029844  -0.006224
              25         26         27         28
     1  C    0.003333   0.266175  -0.034995  -0.036401
     2  C   -0.049638  -0.068419   0.012928  -0.005236
     3  H   -0.000050  -0.027552  -0.004289   0.000619
     4  H   -0.002911   0.006426  -0.000066  -0.000183
     5  C    0.000475  -0.012658   0.000424  -0.004538
     6  C    0.004470   0.017148   0.000045   0.001462
     7  H    0.000350  -0.001288  -0.000025   0.002079
     8  H   -0.000473  -0.000946   0.000529  -0.005720
     9  C   -0.000153  -0.001565   0.000019   0.000475
    10  H    0.000016   0.000044  -0.000000   0.000015
    11  H   -0.000028  -0.000087  -0.000002   0.000019
    12  C   -0.000162   0.001468  -0.000032   0.000302
    13  H   -0.000001   0.000006  -0.000001   0.000000
    14  C   -0.000036  -0.000435   0.000001   0.000029
    15  H   -0.000001   0.000000   0.000000  -0.000000
    16  C    0.000045   0.000473  -0.000001  -0.000031
    17  H    0.000015  -0.000031   0.000001  -0.000012
    18  H   -0.000000  -0.000001  -0.000000   0.000001
    19  C   -0.007254   0.003060  -0.003596   0.009710
    20  H   -0.000028  -0.001276   0.000035   0.000004
    21  C    0.000722  -0.052586   0.005858  -0.011688
    22  H   -0.000115   0.003527  -0.000083  -0.000391
    23  C    0.409198   0.325365  -0.044069  -0.029844
    24  H   -0.018943  -0.056286  -0.001276  -0.006224
    25  H    0.560679  -0.023730  -0.008340   0.005792
    26  C   -0.023730   4.983892   0.430831   0.404731
    27  H   -0.008340   0.430831   0.536221  -0.021781
    28  H    0.005792   0.404731  -0.021781   0.575003
          Atomic-Atomic Spin Densities.
               1          2          3          4          5          6
     1  C    0.158281  -0.000204  -0.000061   0.000092   0.000090   0.001499
     2  C   -0.000204  -0.174013   0.000016   0.002861   0.035568  -0.000017
     3  H   -0.000061   0.000016  -0.005751   0.000000  -0.000001  -0.000021
     4  H    0.000092   0.002861   0.000000   0.007876  -0.002349  -0.006396
     5  C    0.000090   0.035568  -0.000001  -0.002349  -0.249885   0.013491
     6  C    0.001499  -0.000017  -0.000021  -0.006396   0.013491   0.174038
[...]
     2  C    0.002303  -0.000222   0.000460  -0.001948
     3  H   -0.000001   0.000155   0.000007   0.000045
     4  H    0.000076  -0.000046  -0.000016   0.000071
     5  C    0.000629   0.000228   0.000005   0.000047
     6  C    0.000280   0.000450   0.000103  -0.001120
     7  H   -0.000003  -0.000042  -0.000001   0.000013
     8  H    0.000049   0.000249  -0.000023   0.000434
     9  C    0.000006  -0.000010  -0.000005   0.000095
    10  H    0.000000  -0.000001   0.000000  -0.000010
    11  H   -0.000001  -0.000002  -0.000001   0.000011
    12  C   -0.000075   0.000010  -0.000003   0.000035
    13  H   -0.000001   0.000000  -0.000000   0.000000
    14  C   -0.000019   0.000003   0.000000  -0.000004
    15  H    0.000000   0.000000   0.000000   0.000000
    16  C    0.000001   0.000000   0.000000   0.000000
    17  H    0.000010   0.000000   0.000000  -0.000000
    18  H   -0.000000  -0.000000   0.000000  -0.000000
    19  C   -0.000669  -0.001017  -0.000305   0.001990
    20  H   -0.000004   0.000036   0.000001  -0.000008
    21  C    0.000176   0.002423   0.000368  -0.000740
    22  H    0.000008   0.000056   0.000005  -0.000012
    23  C   -0.001355   0.001189   0.000214   0.000472
    24  H    0.000940  -0.000054  -0.000014   0.000108
    25  H   -0.006477   0.000496  -0.000009  -0.000088
    26  C    0.000496  -0.009268   0.001454   0.001448
    27  H   -0.000009   0.001454   0.004925  -0.001882
    28  H   -0.000088   0.001448  -0.001882   0.011837
 Mulliken charges and spin densities:
               1          2
     1  C   -0.205240   0.132293
     2  C   -0.208944  -0.117154
     3  H    0.148719  -0.005458
     4  H    0.183777   0.006058
     5  C   -0.170384  -0.185497
     6  C   -0.207373   0.117196
     7  H    0.162651   0.007580
     8  H    0.182924  -0.006054
     9  C   -0.236142  -0.004574
    10  H    0.135513   0.004075
    11  H    0.151712   0.001521
    12  C   -0.174446   0.072516
    13  H    0.150237  -0.002806
    14  C   -0.206326  -0.132292
    15  H    0.148662   0.005457
    16  C   -0.198691   0.009261
    17  H    0.126984  -0.007090
    18  H    0.135646  -0.003287
    19  C   -0.170790   0.185465
    20  H    0.162096  -0.007586
    21  C   -0.175873  -0.072509
    22  H    0.150678   0.002806
    23  C   -0.234490   0.004543
    24  H    0.152773  -0.001510
    25  H    0.134541  -0.004072
    26  C   -0.201257  -0.009264
    27  H    0.136017   0.003288
    28  H    0.127029   0.007093
 Sum of Mulliken charges =  -0.00000  -0.00000
 Mulliken charges and spin densities with hydrogens summed into heavy atoms:
               1          2
     1  C   -0.056521   0.126835
     2  C   -0.025167  -0.111096
     5  C   -0.007733  -0.177916
     6  C   -0.024449   0.111143
     9  C    0.051083   0.001023
    12  C   -0.024209   0.069710
    14  C   -0.057664  -0.126836
    16  C    0.063939  -0.001117
    19  C   -0.008694   0.177878
    21  C   -0.025195  -0.069703
    23  C    0.052823  -0.001039
    26  C    0.061788   0.001117
 Electronic spatial extent (au):  <R**2>=           2190.7564
 Charge=             -0.0000 electrons
 Dipole moment (field-independent basis, Debye):
    X=             -0.0003    Y=              0.0017    Z=             -0.0053  Tot=              0.0056
 Quadrupole moment (field-independent basis, Debye-Ang):
   XX=            -70.5450   YY=            -68.6646   ZZ=            -75.3085
   XY=             -3.2301   XZ=             -3.1644   YZ=             -1.0221
 Traceless Quadrupole moment (field-independent basis, Debye-Ang):
   XX=              0.9610   YY=              2.8415   ZZ=             -3.8025
   XY=             -3.2301   XZ=             -3.1644   YZ=             -1.0221
 Octapole moment (field-independent basis, Debye-Ang**2):
  XXX=             -0.0101  YYY=              0.0138  ZZZ=             -0.0290  XYY=              0.0112
  XXY=             -0.0161  XXZ=             -0.0320  XZZ=             -0.0142  YZZ=              0.0014
  YYZ=             -0.0063  XYZ=              0.0009
 Hexadecapole moment (field-independent basis, Debye-Ang**3):
 XXXX=          -1977.0446 YYYY=           -608.4311 ZZZZ=           -309.1361 XXXY=            -97.6171
 XXXZ=           -117.5470 YYYX=            -55.4405 YYYZ=             -0.1658 ZZZX=            -64.7574
 ZZZY=             -9.7563 XXYY=           -427.8716 XXZZ=           -408.1019 YYZZ=           -168.0648
 XXYZ=            -20.1352 YYXZ=            -23.9743 ZZXY=            -41.4634
 N-N= 6.915637698595D+02 E-N=-2.465633037110D+03  KE= 4.642976413192D+02
                          Isotropic Fermi Contact Couplings
        Atom                 a.u.       MegaHertz       Gauss      10(-4) cm-1
     1  C(13)              0.01019       5.72598       2.04317       1.90998
     2  C(13)             -0.02828     -15.89367      -5.67126      -5.30156
     3  H(1)              -0.00203      -4.54324      -1.62114      -1.51546
     4  H(1)               0.00332       7.41205       2.64480       2.47239
     5  C(13)             -0.01505      -8.45755      -3.01786      -2.82113
     6  C(13)              0.02827      15.88808       5.66926       5.29969
     7  H(1)               0.00281       6.29032       2.24454       2.09823
     8  H(1)              -0.00332      -7.41112      -2.64447      -2.47208
     9  C(13)             -0.00442      -2.48378      -0.88627      -0.82850
    10  H(1)               0.00220       4.91031       1.75212       1.63790
    11  H(1)               0.00048       1.07230       0.38262       0.35768
    12  C(13)              0.01230       6.91134       2.46614       2.30538
    13  H(1)              -0.00097      -2.17229      -0.77513      -0.72460
    14  C(13)             -0.01019      -5.72598      -2.04317      -1.90998
    15  H(1)               0.00203       4.54335       1.62118       1.51550
    16  C(13)              0.00521       2.93050       1.04568       0.97751
    17  H(1)              -0.00342      -7.64582      -2.72822      -2.55037
    18  H(1)              -0.00157      -3.50381      -1.25025      -1.16875
    19  C(13)              0.01505       8.45880       3.01831       2.82155
    20  H(1)              -0.00281      -6.28823      -2.24380      -2.09753
    21  C(13)             -0.01230      -6.91115      -2.46607      -2.30531
    22  H(1)               0.00097       2.17274       0.77529       0.72475
    23  C(13)              0.00442       2.48198       0.88563       0.82790
    24  H(1)              -0.00048      -1.07313      -0.38292      -0.35796
    25  H(1)              -0.00220      -4.90873      -1.75156      -1.63738
    26  C(13)             -0.00521      -2.92983      -1.04543      -0.97728
    27  H(1)               0.00157       3.50466       1.25055       1.16903
    28  H(1)               0.00342       7.64186       2.72680       2.54905
 --------------------------------------------------------
       Center         ----  Spin Dipole Couplings  ----
                      3XX-RR        3YY-RR        3ZZ-RR
 --------------------------------------------------------
     1   Atom       -0.026755     -0.078229      0.104985
     2   Atom        0.031095      0.069510     -0.100605
     3   Atom        0.007566     -0.009862      0.002296
     4   Atom       -0.005041      0.007902     -0.002861
     5   Atom        0.062357      0.111171     -0.173528
     6   Atom       -0.031107     -0.069515      0.100621
     7   Atom        0.003636     -0.003310     -0.000325
     8   Atom        0.005043     -0.007904      0.002861
     9   Atom       -0.000281     -0.001743      0.002024
    10   Atom        0.001142     -0.000682     -0.000460
    11   Atom        0.001043     -0.000744     -0.000298
    12   Atom       -0.020980     -0.034582      0.055562
    13   Atom       -0.002837      0.001785      0.001051
    14   Atom        0.026755      0.078228     -0.104983
    15   Atom       -0.007567      0.009863     -0.002296
    16   Atom        0.001070     -0.001201      0.000131
    17   Atom        0.001506     -0.002033      0.000528
    18   Atom        0.001580     -0.002374      0.000794
    19   Atom       -0.062363     -0.111159      0.173522
    20   Atom       -0.003633      0.003308      0.000325
    21   Atom        0.020979      0.034584     -0.055563
    22   Atom        0.002837     -0.001786     -0.001051
    23   Atom        0.000282      0.001743     -0.002024
    24   Atom       -0.001042      0.000745      0.000298
    25   Atom       -0.001142      0.000681      0.000461
    26   Atom       -0.001067      0.001202     -0.000135
    27   Atom       -0.001580      0.002374     -0.000794
    28   Atom       -0.001506      0.002034     -0.000528
 --------------------------------------------------------
                        XY            XZ            YZ
 --------------------------------------------------------
     1   Atom       -0.001459      0.093612     -0.004370
     2   Atom       -0.014126     -0.083222     -0.037295
     3   Atom        0.001889     -0.003818     -0.001190
     4   Atom        0.000062      0.003903     -0.002455
     5   Atom       -0.000369     -0.112593     -0.015592
     6   Atom        0.014128      0.083223      0.037307
     7   Atom        0.012684     -0.002699     -0.004441
     8   Atom       -0.000063     -0.003901      0.002455
     9   Atom        0.002731      0.002411     -0.001063
    10   Atom       -0.000651      0.001414      0.000940
    11   Atom       -0.001242      0.002024      0.000394
    12   Atom        0.003146      0.042009     -0.005887
    13   Atom        0.002540      0.002259     -0.001138
    14   Atom        0.001453     -0.093611      0.004357
    15   Atom       -0.001889      0.003818      0.001190
    16   Atom       -0.000673     -0.003167      0.000359
    17   Atom       -0.000823     -0.000700     -0.000836
    18   Atom        0.000307     -0.000022      0.000674
    19   Atom        0.000390      0.112575      0.015647
    20   Atom       -0.012686      0.002701      0.004435
    21   Atom       -0.003150     -0.042012      0.005878
    22   Atom       -0.002539     -0.002259      0.001140
    23   Atom       -0.002730     -0.002407      0.001056
    24   Atom        0.001243     -0.002024     -0.000393
    25   Atom        0.000651     -0.001415     -0.000939
    26   Atom        0.000673      0.003164     -0.000359
    27   Atom       -0.000307      0.000022     -0.000674
    28   Atom        0.000823      0.000699      0.000835
 --------------------------------------------------------


 ---------------------------------------------------------------------------------
              Anisotropic Spin Dipole Couplings in Principal Axis System
 ---------------------------------------------------------------------------------

       Atom             a.u.   MegaHertz   Gauss  10(-4) cm-1        Axes

              Baa    -0.0785   -10.532    -3.758    -3.513 -0.1894  0.9746  0.1199
     1 C(13)  Bbb    -0.0752   -10.089    -3.600    -3.365  0.8672  0.2233 -0.4451
              Bcc     0.1537    20.621     7.358     6.878  0.4606 -0.0196  0.8874
 
              Baa    -0.1481   -19.878    -7.093    -6.630  0.4259  0.1796  0.8868
     2 C(13)  Bbb     0.0697     9.349     3.336     3.118  0.8439 -0.4322 -0.3178
              Bcc     0.0785    10.529     3.757     3.512  0.3262  0.8837 -0.3357
 
              Baa    -0.0101    -5.398    -1.926    -1.801 -0.0916  0.9935  0.0671
     3 H(1)   Bbb     0.0003     0.157     0.056     0.052  0.4682 -0.0165  0.8835
              Bcc     0.0098     5.241     1.870     1.748  0.8788  0.1124 -0.4637
 
              Baa    -0.0082    -4.351    -1.552    -1.451  0.7788 -0.0977 -0.6196
     4 H(1)   Bbb    -0.0003    -0.176    -0.063    -0.059  0.6241  0.2189  0.7500
              Bcc     0.0085     4.527     1.615     1.510 -0.0623  0.9708 -0.2315
 
              Baa    -0.2193   -29.426   -10.500    -9.816  0.3709  0.0442  0.9276
     5 C(13)  Bbb     0.1038    13.926     4.969     4.645  0.7778 -0.5606 -0.2843
              Bcc     0.1155    15.501     5.531     5.170  0.5074  0.8269 -0.2423
 
              Baa    -0.0785   -10.530    -3.757    -3.512  0.3263  0.8837 -0.3357
     6 C(13)  Bbb    -0.0697    -9.350    -3.336    -3.119  0.8439 -0.4323 -0.3177
              Bcc     0.1481    19.880     7.094     6.631  0.4259  0.1796  0.8868
 
              Baa    -0.0133    -7.088    -2.529    -2.364 -0.5767  0.8022  0.1548
     7 H(1)   Bbb    -0.0016    -0.845    -0.301    -0.282  0.3372  0.0611  0.9394
              Bcc     0.0149     7.933     2.831     2.646  0.7442  0.5939 -0.3058
 
              Baa    -0.0085    -4.527    -1.615    -1.510 -0.0622  0.9708 -0.2315
     8 H(1)   Bbb     0.0003     0.177     0.063     0.059  0.6240  0.2189  0.7501
              Bcc     0.0082     4.350     1.552     1.451  0.7789 -0.0978 -0.6195
 
              Baa    -0.0047    -0.626    -0.224    -0.209 -0.6241  0.7050  0.3368
     9 C(13)  Bbb     0.0010     0.140     0.050     0.047  0.5119  0.6946 -0.5055
              Bcc     0.0036     0.486     0.174     0.162  0.5904  0.1431  0.7944
 
              Baa    -0.0022    -1.154    -0.412    -0.385 -0.4103 -0.6103  0.6776
    10 H(1)   Bbb     0.0002     0.103     0.037     0.034 -0.2729  0.7912  0.5473
              Bcc     0.0020     1.051     0.375     0.351  0.8702 -0.0397  0.4911
 
              Baa    -0.0025    -1.308    -0.467    -0.436 -0.5565 -0.5488  0.6238
    11 H(1)   Bbb    -0.0002    -0.129    -0.046    -0.043 -0.1399  0.8020  0.5808
              Bcc     0.0027     1.437     0.513     0.479  0.8190 -0.2359  0.5231
 
              Baa    -0.0429    -5.758    -2.055    -1.921  0.7619 -0.5402 -0.3573
    12 C(13)  Bbb    -0.0314    -4.209    -1.502    -1.404  0.5077  0.8407 -0.1884
              Bcc     0.0743     9.967     3.556     3.325  0.4022 -0.0378  0.9148
 
              Baa    -0.0050    -2.674    -0.954    -0.892  0.8417 -0.3789 -0.3847
    13 H(1)   Bbb     0.0021     1.114     0.397     0.371  0.4065 -0.0244  0.9133
              Bcc     0.0029     1.561     0.557     0.521  0.3554  0.9251 -0.1335
 
              Baa    -0.1537   -20.620    -7.358    -6.878  0.4606 -0.0196  0.8874
    14 C(13)  Bbb     0.0752    10.089     3.600     3.365  0.8672  0.2232 -0.4452
              Bcc     0.0785    10.531     3.758     3.513 -0.1894  0.9746  0.1198
 
              Baa    -0.0098    -5.241    -1.870    -1.748  0.8789  0.1123 -0.4636
    15 H(1)   Bbb    -0.0003    -0.157    -0.056    -0.052  0.4682 -0.0164  0.8835
              Bcc     0.0101     5.398     1.926     1.801 -0.0916  0.9935  0.0670
 
              Baa    -0.0026    -0.352    -0.126    -0.117  0.6590  0.1245  0.7418
    16 C(13)  Bbb    -0.0013    -0.173    -0.062    -0.058  0.0268  0.9817 -0.1886
              Bcc     0.0039     0.525     0.187     0.175  0.7517 -0.1442 -0.6436
 
              Baa    -0.0025    -1.349    -0.481    -0.450  0.2411  0.9206  0.3071
    17 H(1)   Bbb     0.0006     0.331     0.118     0.110  0.3343 -0.3759  0.8643
              Bcc     0.0019     1.018     0.363     0.339  0.9111 -0.1057 -0.3984
 
              Baa    -0.0025    -1.352    -0.482    -0.451 -0.0740  0.9773 -0.1985
    18 H(1)   Bbb     0.0009     0.496     0.177     0.165 -0.0591  0.1944  0.9791
              Bcc     0.0016     0.857     0.306     0.286  0.9955  0.0842  0.0434
 
              Baa    -0.1155   -15.500    -5.531    -5.170  0.5074  0.8269 -0.2424
    19 C(13)  Bbb    -0.1038   -13.925    -4.969    -4.645  0.7778 -0.5606 -0.2841
              Bcc     0.2193    29.425    10.499     9.815  0.3708  0.0444  0.9276
 
              Baa    -0.0149    -7.933    -2.831    -2.646  0.7441  0.5940 -0.3057
    20 H(1)   Bbb     0.0016     0.845     0.302     0.282  0.3369  0.0615  0.9395
              Bcc     0.0133     7.088     2.529     2.364 -0.5769  0.8021  0.1543
 
              Baa    -0.0743    -9.967    -3.557    -3.325  0.4022 -0.0378  0.9148
    21 C(13)  Bbb     0.0314     4.209     1.502     1.404  0.5077  0.8407 -0.1885
              Bcc     0.0429     5.759     2.055     1.921  0.7619 -0.5402 -0.3573
 
              Baa    -0.0029    -1.561    -0.557    -0.521  0.3546  0.9252 -0.1352
    22 H(1)   Bbb    -0.0021    -1.114    -0.397    -0.371  0.4072 -0.0226  0.9131
              Bcc     0.0050     2.675     0.954     0.892  0.8417 -0.3788 -0.3848
 
              Baa    -0.0036    -0.486    -0.173    -0.162  0.5904  0.1440  0.7942
    23 C(13)  Bbb    -0.0010    -0.140    -0.050    -0.047  0.5117  0.6942 -0.5063
              Bcc     0.0047     0.626     0.223     0.209 -0.6242  0.7053  0.3361
 
              Baa    -0.0027    -1.437    -0.513    -0.479  0.8189 -0.2361  0.5231
    24 H(1)   Bbb     0.0002     0.129     0.046     0.043 -0.1400  0.8017  0.5810
              Bcc     0.0025     1.308     0.467     0.436 -0.5566 -0.5490  0.6235
 
              Baa    -0.0020    -1.051    -0.375    -0.351  0.8702 -0.0399  0.4911
    25 H(1)   Bbb    -0.0002    -0.103    -0.037    -0.034 -0.2726  0.7913  0.5473
              Bcc     0.0022     1.154     0.412     0.385 -0.4104 -0.6101  0.6777
 
              Baa    -0.0039    -0.524    -0.187    -0.175  0.7514 -0.1442 -0.6439
    26 C(13)  Bbb     0.0013     0.173     0.062     0.058  0.0261  0.9816 -0.1893
              Bcc     0.0026     0.351     0.125     0.117  0.6593  0.1254  0.7414
 
              Baa    -0.0016    -0.857    -0.306    -0.286  0.9955  0.0842  0.0434
    27 H(1)   Bbb    -0.0009    -0.496    -0.177    -0.165 -0.0591  0.1944  0.9791
              Bcc     0.0025     1.352     0.482     0.451 -0.0740  0.9773 -0.1985
 
              Baa    -0.0019    -1.017    -0.363    -0.339  0.9112 -0.1058 -0.3982
    28 H(1)   Bbb    -0.0006    -0.331    -0.118    -0.110  0.3341 -0.3755  0.8645
              Bcc     0.0025     1.349     0.481     0.450  0.2410  0.9208  0.3068
 

 ---------------------------------------------------------------------------------

 No NMR shielding tensors so no spin-rotation constants.
 Leave Link  601 at Tue Aug  4 13:46:56 2020, MaxMem=  6442450944 cpu:              10.5 elap:               0.6
 (Enter /scratch/scicomp/CentOS/7.3.1611/Haswell/software/Gaussian/g16/l9999.exe)
 1\1\GINC-ATLAS-205\SP\UwB97XD\def2TZVP\C12H16\BOCHEN\04-Aug-2020\0\\#p
  uwb97xd guess=mix def2tzvp # scrf=(iefpcm,solvent=Cyclohexane,read) n
 osym 6d 10f\\endo-2 xp-pcm for eta=3\\0,1\C,0,-3.118154,-0.43497,0.246
 911\C,0,-0.525244,-0.179089,-0.881108\H,0,-4.082876,-0.549545,0.727275
 \H,0,0.369421,-0.116466,-1.488305\C,0,1.095749,1.409502,0.684953\C,0,0
 .525244,0.179089,0.881108\H,0,0.534376,2.315268,0.877539\H,0,-0.369421
 ,0.116466,1.488305\C,0,1.464053,-0.999907,0.987811\H,0,1.902396,-0.948
 136,1.990906\H,0,0.922907,-1.944294,0.931362\C,0,2.412752,1.518768,0.1
 1499\H,0,2.825512,2.507319,-0.049863\C,0,3.118154,0.43497,-0.246911\H,
 0,4.082876,0.549545,-0.727275\C,0,2.59196,-0.958481,-0.043904\H,0,2.25
 1216,-1.356631,-1.007828\H,0,3.400803,-1.621376,0.271761\C,0,-1.095749
 ,-1.409502,-0.684954\H,0,-0.534376,-2.315268,-0.877539\C,0,-2.412752,-
 1.518768,-0.11499\H,0,-2.825512,-2.507319,0.049863\C,0,-1.464053,0.999
 907,-0.987811\H,0,-0.922907,1.944294,-0.931362\H,0,-1.902396,0.948136,
 -1.990906\C,0,-2.59196,0.958481,0.043904\H,0,-3.400803,1.621376,-0.271
 761\H,0,-2.251216,1.356631,1.007828\\Version=ES64L-G16RevB.01\HF=-466.
 7705636\S2=0.102871\S2-1=0.\S2A=0.004344\RMSD=8.268e-09\Dipole=-0.0001
 054,0.0006839,-0.0020897\Quadrupole=0.7145008,2.1125517,-2.8270525,-2.
 4014954,-2.3526505,-0.7599059\PG=CI [X(C12H16)]\\@


 NATURE WILL TELL YOU A DIRECT LIE IF SHE CAN.

                                -- CHARLES DARWIN
 Job cpu time:       0 days  2 hours 59 minutes 42.2 seconds.
 Elapsed time:       0 days  0 hours  7 minutes 33.7 seconds.
 File lengths (MBytes):  RWF=    620 Int=      0 D2E=      0 Chk=     24 Scr=      1
 Normal termination of Gaussian 16 at Tue Aug  4 13:46:56 2020.
