 Entering Gaussian System, Link 0=g16
 Input=meso-TS_19_1_xp-Ger.com
 Output=meso-TS_19_1_xp-Ger.log
 Initial command:
 /scratch/scicomp/CentOS/7.3.1611/Haswell/software/Gaussian/g16/l1.exe "/scratch/bochen/cyclohexadiene-dimerization/wb97xd-def2tzvp/xp-pcm/meso/Gau-14933.inp" -scrdir="/scratch/bochen/cyclohexadiene-dimerization/wb97xd-def2tzvp/xp-pcm/meso/"
 Entering Link 1 = /scratch/scicomp/CentOS/7.3.1611/Haswell/software/Gaussian/g16/l1.exe PID=     14934.
  
 Copyright (c) 1988-2017, Gaussian, Inc.  All Rights Reserved.
  
 This is part of the Gaussian(R) 16 program.  It is based on
 the Gaussian(R) 09 system (copyright 2009, Gaussian, Inc.),
 the Gaussian(R) 03 system (copyright 2003, Gaussian, Inc.),
 the Gaussian(R) 98 system (copyright 1998, Gaussian, Inc.),
 the Gaussian(R) 94 system (copyright 1995, Gaussian, Inc.),
 the Gaussian 92(TM) system (copyright 1992, Gaussian, Inc.),
 the Gaussian 90(TM) system (copyright 1990, Gaussian, Inc.),
 the Gaussian 88(TM) system (copyright 1988, Gaussian, Inc.),
 the Gaussian 86(TM) system (copyright 1986, Carnegie Mellon
 University), and the Gaussian 82(TM) system (copyright 1983,
 Carnegie Mellon University). Gaussian is a federally registered
 trademark of Gaussian, Inc.
  
 This software contains proprietary and confidential information,
 including trade secrets, belonging to Gaussian, Inc.
  
 This software is provided under written license and may be
 used, copied, transmitted, or stored only in accord with that
 written license.
  
 The following legend is applicable only to US Government
 contracts under FAR:
  
                    RESTRICTED RIGHTS LEGEND
  
 Use, reproduction and disclosure by the US Government is
 subject to restrictions as set forth in subparagraphs (a)
 and (c) of the Commercial Computer Software - Restricted
 Rights clause in FAR 52.227-19.
  
 Gaussian, Inc.
 340 Quinnipiac St., Bldg. 40, Wallingford CT 06492
  
  
 ---------------------------------------------------------------
 Warning -- This program may not be used in any manner that
 competes with the business of Gaussian, Inc. or will provide
 assistance to any competitor of Gaussian, Inc.  The licensee
 of this program is prohibited from giving any competitor of
 Gaussian, Inc. access to this program.  By using this program,
 the user acknowledges that Gaussian, Inc. is engaged in the
 business of creating and licensing software in the field of
 computational chemistry and represents and warrants to the
 licensee that it is not a competitor of Gaussian, Inc. and that
 it will not use this program in any manner prohibited above.
 ---------------------------------------------------------------
  

 Cite this work as:
 Gaussian 16, Revision B.01,
 M. J. Frisch, G. W. Trucks, H. B. Schlegel, G. E. Scuseria, 
 M. A. Robb, J. R. Cheeseman, G. Scalmani, V. Barone, 
 G. A. Petersson, H. Nakatsuji, X. Li, M. Caricato, A. V. Marenich, 
 J. Bloino, B. G. Janesko, R. Gomperts, B. Mennucci, H. P. Hratchian, 
 J. V. Ortiz, A. F. Izmaylov, J. L. Sonnenberg, D. Williams-Young, 
 F. Ding, F. Lipparini, F. Egidi, J. Goings, B. Peng, A. Petrone, 
 T. Henderson, D. Ranasinghe, V. G. Zakrzewski, J. Gao, N. Rega, 
 G. Zheng, W. Liang, M. Hada, M. Ehara, K. Toyota, R. Fukuda, 
 J. Hasegawa, M. Ishida, T. Nakajima, Y. Honda, O. Kitao, H. Nakai, 
 T. Vreven, K. Throssell, J. A. Montgomery, Jr., J. E. Peralta, 
 F. Ogliaro, M. J. Bearpark, J. J. Heyd, E. N. Brothers, K. N. Kudin, 
 V. N. Staroverov, T. A. Keith, R. Kobayashi, J. Normand, 
 K. Raghavachari, A. P. Rendell, J. C. Burant, S. S. Iyengar, 
 J. Tomasi, M. Cossi, J. M. Millam, M. Klene, C. Adamo, R. Cammi, 
 J. W. Ochterski, R. L. Martin, K. Morokuma, O. Farkas, 
 J. B. Foresman, and D. J. Fox, Gaussian, Inc., Wallingford CT, 2016.
 
 ******************************************
 Gaussian 16:  ES64L-G16RevB.01 20-Dec-2017
                 4-Aug-2020 
 ******************************************
 %chk=meso-TS_19_1_xp-12.chk
 %nproc=24
 Will use up to   24 processors via shared memory.
 %mem=48GB
 ----------------------------------------------------------------------
 #p uwb97xd guess=mix def2tzvp # scrf=(iefpcm,solvent=Cyclohexane,read)
  nosym 6d 10f
 ----------------------------------------------------------------------
 1/38=1,40=2,172=1/1;
 2/12=2,15=1,17=6,18=5,40=1/2;
 3/5=44,7=101,8=22,11=2,25=1,30=1,70=2203,72=17,74=-58,116=2/1,2,3;
 4/13=-1/1;
 5/5=2,38=5,53=17/2;
 6/7=2,8=2,9=2,10=2,28=1/1;
 99/5=1,9=1/99;
 Leave Link    1 at Tue Aug  4 18:44:20 2020, MaxMem=  6442450944 cpu:              17.7 elap:               0.8
 (Enter /scratch/scicomp/CentOS/7.3.1611/Haswell/software/Gaussian/g16/l101.exe)
 -----------------------
 endo-2 xp-pcm for eta=3
 -----------------------
 Symbolic Z-matrix:
 Charge =  0 Multiplicity = 1
 6                    -3.11913  -0.42421   0.24875 
 6                    -0.41172  -0.11762  -0.69084 
 1                    -4.08958  -0.5461    0.714 
 1                     0.3311   -0.10625  -1.49222 
 6                     1.11322   1.43375   0.65615 
 6                     0.41172   0.11762   0.69084 
 1                     0.57554   2.33229   0.93198 
 1                    -0.3311    0.10625   1.49222 
 6                     1.44301  -0.99389   0.9656 
 1                     1.8466   -0.84722   1.97102 
 1                     0.95777  -1.97142   0.9566 
 6                     2.39326   1.5312    0.12958 
 1                     2.83489   2.51373   0.00292 
 6                     3.11913   0.42421  -0.24875 
 1                     4.08958   0.5461   -0.714 
 6                     2.59244  -0.96087  -0.04308 
 1                     2.25401  -1.36584  -1.0064 
 1                     3.39902  -1.62452   0.2803 
 6                    -1.11322  -1.43375  -0.65615 
 1                    -0.57554  -2.33229  -0.93198 
 6                    -2.39326  -1.5312   -0.12958 
 1                    -2.83489  -2.51373  -0.00292 
 6                    -1.44301   0.99389  -0.9656 
 1                    -0.95777   1.97142  -0.9566 
 1                    -1.8466    0.84722  -1.97102 
 6                    -2.59244   0.96087   0.04308 
 1                    -3.39902   1.62452  -0.2803 
 1                    -2.25401   1.36584   1.0064 
 
 ITRead=  0  0  0  0  0  0  0  0  0  0  0  0  0  0  0  0  0  0  0  0
 ITRead=  0  0  0  0  0  0  0  0
 MicOpt= -1 -1 -1 -1 -1 -1 -1 -1 -1 -1 -1 -1 -1 -1 -1 -1 -1 -1 -1 -1
 MicOpt= -1 -1 -1 -1 -1 -1 -1 -1
 NAtoms=     28 NQM=       28 NQMF=       0 NMMI=      0 NMMIF=      0
                NMic=       0 NMicF=      0.
                    Isotopes and Nuclear Properties:
 (Nuclear quadrupole moments (NQMom) in fm**2, nuclear magnetic moments (NMagM)
  in nuclear magnetons)

  Atom         1           2           3           4           5           6           7           8           9          10
 IAtWgt=          12          12           1           1          12          12           1           1          12           1
 AtmWgt=  12.0000000  12.0000000   1.0078250   1.0078250  12.0000000  12.0000000   1.0078250   1.0078250  12.0000000   1.0078250
 NucSpn=           0           0           1           1           0           0           1           1           0           1
 AtZEff=  -0.0000000  -0.0000000  -0.0000000  -0.0000000  -0.0000000  -0.0000000  -0.0000000  -0.0000000  -0.0000000  -0.0000000
 NQMom=    0.0000000   0.0000000   0.0000000   0.0000000   0.0000000   0.0000000   0.0000000   0.0000000   0.0000000   0.0000000
 NMagM=    0.0000000   0.0000000   2.7928460   2.7928460   0.0000000   0.0000000   2.7928460   2.7928460   0.0000000   2.7928460
 AtZNuc=   6.0000000   6.0000000   1.0000000   1.0000000   6.0000000   6.0000000   1.0000000   1.0000000   6.0000000   1.0000000

  Atom        11          12          13          14          15          16          17          18          19          20
 IAtWgt=           1          12           1          12           1          12           1           1          12           1
 AtmWgt=   1.0078250  12.0000000   1.0078250  12.0000000   1.0078250  12.0000000   1.0078250   1.0078250  12.0000000   1.0078250
 NucSpn=           1           0           1           0           1           0           1           1           0           1
 AtZEff=  -0.0000000  -0.0000000  -0.0000000  -0.0000000  -0.0000000  -0.0000000  -0.0000000  -0.0000000  -0.0000000  -0.0000000
 NQMom=    0.0000000   0.0000000   0.0000000   0.0000000   0.0000000   0.0000000   0.0000000   0.0000000   0.0000000   0.0000000
 NMagM=    2.7928460   0.0000000   2.7928460   0.0000000   2.7928460   0.0000000   2.7928460   2.7928460   0.0000000   2.7928460
 AtZNuc=   1.0000000   6.0000000   1.0000000   6.0000000   1.0000000   6.0000000   1.0000000   1.0000000   6.0000000   1.0000000

  Atom        21          22          23          24          25          26          27          28
 IAtWgt=          12           1          12           1           1          12           1           1
 AtmWgt=  12.0000000   1.0078250  12.0000000   1.0078250   1.0078250  12.0000000   1.0078250   1.0078250
 NucSpn=           0           1           0           1           1           0           1           1
 AtZEff=  -0.0000000  -0.0000000  -0.0000000  -0.0000000  -0.0000000  -0.0000000  -0.0000000  -0.0000000
 NQMom=    0.0000000   0.0000000   0.0000000   0.0000000   0.0000000   0.0000000   0.0000000   0.0000000
 NMagM=    0.0000000   2.7928460   0.0000000   2.7928460   2.7928460   0.0000000   2.7928460   2.7928460
 AtZNuc=   6.0000000   1.0000000   6.0000000   1.0000000   1.0000000   6.0000000   1.0000000   1.0000000
 Leave Link  101 at Tue Aug  4 18:44:20 2020, MaxMem=  6442450944 cpu:               4.2 elap:               0.2
 (Enter /scratch/scicomp/CentOS/7.3.1611/Haswell/software/Gaussian/g16/l202.exe)
                          Input orientation:                          
 ---------------------------------------------------------------------
 Center     Atomic      Atomic             Coordinates (Angstroms)
 Number     Number       Type             X           Y           Z
 ---------------------------------------------------------------------
      1          6           0       -3.119127   -0.424214    0.248750
      2          6           0       -0.411716   -0.117621   -0.690842
      3          1           0       -4.089584   -0.546101    0.713998
      4          1           0        0.331104   -0.106248   -1.492216
      5          6           0        1.113220    1.433745    0.656146
      6          6           0        0.411716    0.117621    0.690842
      7          1           0        0.575541    2.332289    0.931979
      8          1           0       -0.331104    0.106248    1.492216
      9          6           0        1.443013   -0.993893    0.965601
     10          1           0        1.846597   -0.847218    1.971019
     11          1           0        0.957769   -1.971415    0.956603
     12          6           0        2.393256    1.531202    0.129580
     13          1           0        2.834891    2.513727    0.002918
     14          6           0        3.119127    0.424214   -0.248750
     15          1           0        4.089584    0.546101   -0.713998
     16          6           0        2.592435   -0.960873   -0.043075
     17          1           0        2.254014   -1.365839   -1.006400
     18          1           0        3.399024   -1.624515    0.280295
     19          6           0       -1.113220   -1.433745   -0.656146
     20          1           0       -0.575541   -2.332289   -0.931979
     21          6           0       -2.393256   -1.531202   -0.129580
     22          1           0       -2.834891   -2.513727   -0.002918
     23          6           0       -1.443013    0.993893   -0.965601
     24          1           0       -0.957769    1.971415   -0.956603
     25          1           0       -1.846597    0.847218   -1.971019
     26          6           0       -2.592435    0.960873    0.043075
     27          1           0       -3.399023    1.624515   -0.280295
     28          1           0       -2.254014    1.365839    1.006400
 ---------------------------------------------------------------------
                    Distance matrix (angstroms):
                    1          2          3          4          5
     1  C    0.000000
     2  C    2.882170   0.000000
     3  H    1.083097   3.960288   0.000000
     4  H    3.877649   1.092754   4.960175   0.000000
     5  C    4.640123   2.558621   5.567073   2.756582   0.000000
     6  C    3.599428   1.625555   4.550029   2.195987   1.491809
     7  H    4.660009   3.100046   5.485985   3.447163   1.082850
     8  H    3.098495   2.195987   3.893245   3.064394   2.132448
     9  C    4.653121   2.636603   5.556388   2.839915   2.469403
    10  H    5.272908   3.566202   6.075279   3.852240   2.733043
    11  H    4.417688   2.833040   5.250348   3.141381   3.421923
    12  C    5.850147   3.355529   6.832565   3.092561   1.387538
    13  H    6.643964   4.236243   7.603719   3.920286   2.134764
    14  C    6.315311   3.599428   7.337159   3.098495   2.421085
    15  H    7.337159   4.550029   8.374417   3.893245   3.394694
    16  C    5.744137   3.186785   6.737549   2.818512   2.900204
    17  H    5.597562   2.960362   6.623668   2.349504   3.450093
    18  H    6.627821   4.211363   7.578280   3.854746   3.836550
    19  C    2.421085   1.491809   3.394694   2.132448   3.860265
    20  H    3.391858   2.233773   4.271792   2.468021   4.422337
    21  C    1.376752   2.497945   2.135316   3.362946   4.658718
    22  H    2.123721   3.476541   2.441265   4.247056   5.621786
    23  C    2.508991   1.540951   3.492416   2.152934   3.059062
    24  H    3.444326   2.175517   4.351673   2.502950   2.679374
    25  H    2.857140   2.151430   3.765852   2.425022   4.000816
    26  C    1.496052   2.541126   2.227681   3.470295   3.785676
    27  H    2.134367   3.482469   2.485371   4.286973   4.612337
    28  H    2.127615   2.911245   2.666520   3.884966   3.386082
                    6          7          8          9         10
     6  C    0.000000
     7  H    2.233773   0.000000
     8  H    1.092754   2.468021   0.000000
     9  C    1.540951   3.437605   2.152934   0.000000
    10  H    2.151430   3.578331   2.425022   1.093279   0.000000
    11  H    2.175517   4.320714   2.502950   1.091372   1.755811
    12  C    2.497945   2.142352   3.362946   2.824535   3.057223
    13  H    3.476541   2.449640   4.247056   3.894545   4.018221
    14  C    2.882170   3.391858   3.877649   2.508991   2.857140
    15  H    3.960288   4.271792   4.960175   3.492416   3.765852
    16  C    2.541126   3.982902   3.470295   1.529604   2.150759
    17  H    2.911245   4.500082   3.884966   2.164452   3.049587
    18  H    3.482470   4.904391   4.286974   2.166404   2.423379
    19  C    2.558621   4.422337   2.756582   3.059062   4.000816
    20  H    3.100046   5.153408   3.447163   3.076796   4.061968
    21  C    3.355529   4.986705   3.092561   4.025554   4.780869
    22  H    4.236243   5.999079   3.920286   4.642024   5.346963
    23  C    2.636603   3.076796   2.839915   4.001247   4.778594
    24  H    2.833040   2.459271   3.141381   4.272198   4.937624
    25  H    3.566202   4.061968   3.852240   4.778594   5.661312
    26  C    3.186785   3.564689   2.818512   4.577882   5.166349
    27  H    4.211362   4.215176   3.854745   5.643902   6.220483
    28  H    2.960362   2.990977   2.349504   4.386115   4.758479
                   11         12         13         14         15
    11  H    0.000000
    12  C    3.874650   0.000000
    13  H    4.954755   1.084638   0.000000
    14  C    3.444326   1.376752   2.123721   0.000000
    15  H    4.351673   2.135316   2.441265   1.083097   0.000000
    16  C    2.166260   2.505977   3.483353   1.496052   2.227681
    17  H    2.429064   3.114913   4.050577   2.127615   2.666520
    18  H    2.556845   3.315544   4.185717   2.134367   2.485370
    19  C    2.679374   4.658718   5.621786   4.640123   5.567073
    20  H    2.459271   4.986705   5.999079   4.660009   5.485985
    21  C    3.550063   5.688249   6.611545   5.850147   6.832565
    22  H    3.949564   6.611545   7.577714   6.643964   7.603719
    23  C    4.272198   4.025554   4.642024   4.653121   5.556388
    24  H    4.782839   3.550063   3.949564   4.417688   5.250348
    25  H    4.937624   4.780869   5.346963   5.272908   6.075279
    26  C    4.694336   5.018951   5.645249   5.744137   6.737549
    27  H    5.782929   5.807512   6.303379   6.627820   7.578279
    28  H    4.631986   4.732153   5.312398   5.597562   6.623668
                   16         17         18         19         20
    16  C    0.000000
    17  H    1.098418   0.000000
    18  H    1.093423   1.741708   0.000000
    19  C    3.785676   3.386082   4.612338   0.000000
    20  H    3.564689   2.990977   4.215177   1.082850   0.000000
    21  C    5.018951   4.732153   5.807513   1.387538   2.142352
    22  H    5.645249   5.312398   6.303380   2.134764   2.449640
    23  C    4.577882   4.386115   5.643903   2.469403   3.437605
    24  H    4.694336   4.631986   5.782930   3.421923   4.320714
    25  H    5.166349   4.758479   6.220484   2.733043   3.578331
    26  C    5.530227   5.477504   6.529784   2.900204   3.982902
    27  H    6.529784   6.436324   7.555389   3.836550   4.904390
    28  H    5.477504   5.642317   6.436325   3.450093   4.500082
                   21         22         23         24         25
    21  C    0.000000
    22  H    1.084638   0.000000
    23  C    2.824535   3.894545   0.000000
    24  H    3.874650   4.954755   1.091372   0.000000
    25  H    3.057223   4.018221   1.093279   1.755811   0.000000
    26  C    2.505977   3.483353   1.529604   2.166260   2.150759
    27  H    3.315544   4.185717   2.166403   2.556844   2.423379
    28  H    3.114913   4.050577   2.164452   2.429064   3.049587
                   26         27         28
    26  C    0.000000
    27  H    1.093423   0.000000
    28  H    1.098418   1.741707   0.000000
 Symmetry turned off by external request.
 Stoichiometry    C12H16
 Framework group  CI[X(C12H16)]
 Deg. of freedom    39
 Full point group                 CI      NOp   2
 Rotational constants (GHZ):           1.9934721           0.6464597           0.5547569
 Leave Link  202 at Tue Aug  4 18:44:21 2020, MaxMem=  6442450944 cpu:               0.3 elap:               0.1
 (Enter /scratch/scicomp/CentOS/7.3.1611/Haswell/software/Gaussian/g16/l301.exe)
 Standard basis: def2TZVP (6D, 10F)
 Ernie: Thresh=  0.10000D-02 Tol=  0.10000D-05 Strict=F.
   528 basis functions,   740 primitive gaussians,   528 cartesian basis functions
    44 alpha electrons       44 beta electrons
       nuclear repulsion energy       695.3715821447 Hartrees.
 IExCor= 4639 DFT=T Ex+Corr=wB97XD ExCW=0 ScaHFX=  1.000000
 ScaDFX=  1.000000  1.000000  1.000000  1.000000 ScalE2=  1.000000  1.000000
 IRadAn=      5 IRanWt=     -1 IRanGd=            0 ICorTp=0 IEmpDi=121
 HFx  wShort=  0.000000 wLong=  0.200000 cFull=  0.222036 cShort=  0.000000 cLong=  0.777964
 DFx  wShort=  0.000000 wLong=  0.200000 cFull=  0.000000 cShort=  0.000000 cLong=  1.000000
 NAtoms=   28 NActive=   28 NUniq=   28 SFac= 1.00D+00 NAtFMM=   60 NAOKFM=F Big=F
 Integral buffers will be    131072 words long.
 Raffenetti 2 integral format.
 Two-electron integral symmetry is turned off.
 R6Disp:  Grimme-D2 Dispersion energy=       -0.0228650701 Hartrees.
 Nuclear repulsion after empirical dispersion term =      695.3487170746 Hartrees.
 Using the following non-standard input for PCM:
 qrep pcmdoc geomview  nodis nocav g03defaults tsare=0.075
 Warning! Using old PCM defaults because the g03defaults keyword was found.
 These settings can be overridden by following keywords.
 nsfe=28
 NVESolv=36  SolvMW=84.1595   Rsolv=2.815
 eps=2.0165 RhoS=0.778099999999998
 --- end of non-standard input.
 Reading user-defined spheres from input:
 ISph  on   Nord    Re0     Alpha      Xe            Ye            Ze
 --- end of user-defined spheres data.
 ------------------------------------------------------------------------------
 Polarizable Continuum Model (PCM)
 =================================
 Model                : PCM.
 Atomic radii         : UA0 (Simple United Atom Topological Model).
 Polarization charges : Total charges.
 Charge compensation  : None.
 Solution method      : On-the-fly selection.
 Cavity type          : SES (Solvent Excluding Surface) (Alpha=1.000).
 Cavity algorithm     : GePol (RMin=0.200 OFac=0.890).
                        User-defined sphere list used, NSphG=   28.
                        Tesserae with average area of 0.075 Ang**2.
                        Smoothing algorithm: None.
                        Polarization charges: point-like.
                        Self-potential: constant (ISelfS= 1).
                        Self-field    : global E.n sum rule (ISelfD= 3).
 Solvent              : CycloHexane, Eps=   2.016500 Eps(inf)=   2.035188
                        RSolv=   2.815000 Ang.
 ------------------------------------------------------------------------------
 GePol: Number of generator spheres                  =      28
 GePol: Total number of spheres                      =     155
 GePol: Number of exposed spheres                    =     113 ( 72.90%)
 GePol: Number of tesserae                           =    4604
 GePol: Average area of tesserae                     =       0.05 Ang**2
 GePol: Minimum area of tessera                      =   0.10D-02 Ang**2
 GePol: Maximum area of tessera                      =    0.12395 Ang**2
 GePol: Number of small tesserae                     =       0
 GePol: Fraction of small tesserae (<1% of avg)      =       0.00%
 GePol: Total count of vertices                      =   16236
 GePol: Maximum number of vertices in a tessera      =       7
 GePol: Cavity surface area                          =    218.424 Ang**2
 GePol: Cavity volume                                =    244.795 Ang**3
 Leave Link  301 at Tue Aug  4 18:44:21 2020, MaxMem=  6442450944 cpu:               7.7 elap:               0.4
 (Enter /scratch/scicomp/CentOS/7.3.1611/Haswell/software/Gaussian/g16/l302.exe)
 NPDir=0 NMtPBC=     1 NCelOv=     1 NCel=       1 NClECP=     1 NCelD=      1
         NCelK=      1 NCelE2=     1 NClLst=     1 CellRange=     0.0.
 One-electron integrals computed using PRISM.
   1 Symmetry operations used in ECPInt.
 ECPInt:  NShTT=   19306 NPrTT=   56928 LenC2=   18538 LenP2D=   42322.
 LDataN:  DoStor=T MaxTD1= 6 Len=  172
 NBasis=   528 RedAO= T EigKep=  2.60D-05  NBF=   528
 NBsUse=   528 1.00D-06 EigRej= -1.00D+00 NBFU=   528
 Precomputing XC quadrature grid using
 IXCGrd= 4 IRadAn=           5 IRanWt=          -1 IRanGd=           0 AccXCQ= 0.00D+00.
 Generated NRdTot=       0 NPtTot=           0 NUsed=           0 NTot=          32
 NSgBfM=   526   526   526   526   526 MxSgAt=    28 MxSgA2=    28.
 Leave Link  302 at Tue Aug  4 18:44:22 2020, MaxMem=  6442450944 cpu:              13.3 elap:               0.6
 (Enter /scratch/scicomp/CentOS/7.3.1611/Haswell/software/Gaussian/g16/l303.exe)
 DipDrv:  MaxL=1.
 Leave Link  303 at Tue Aug  4 18:44:22 2020, MaxMem=  6442450944 cpu:               1.6 elap:               0.1
 (Enter /scratch/scicomp/CentOS/7.3.1611/Haswell/software/Gaussian/g16/l401.exe)
 ExpMin= 9.52D-02 ExpMax= 1.36D+04 ExpMxC= 4.63D+02 IAcc=3 IRadAn=         5 AccDes= 0.00D+00
 Harris functional with IExCor= 4639 and IRadAn=       5 diagonalized for initial guess.
 HarFok:  IExCor= 4639 AccDes= 0.00D+00 IRadAn=         5 IDoV= 1 UseB2=F ITyADJ=14
 ICtDFT=  3500011 ScaDFX=  1.000000  1.000000  1.000000  1.000000
 FoFCou: FMM=F IPFlag=           0 FMFlag=      100000 FMFlg1=           0
         NFxFlg=           0 DoJE=T BraDBF=F KetDBF=T FulRan=T
         wScrn=  0.000000 ICntrl=       500 IOpCl=  0 I1Cent=   200000004 NGrid=           0
         NMat0=    1 NMatS0=      1 NMatT0=    0 NMatD0=    1 NMtDS0=    0 NMtDT0=    0
 Symmetry not used in FoFCou.
 Harris En= -444.605566966634    
 JPrj=0 DoOrth=F DoCkMO=T.
 Mixing orbitals, IMix= 1 IMixAn=  0 NRI=1 NE=   44 Coef=  7.07106781D-01  7.07106781D-01
 Mixing orbitals, IMix= 1 IMixAn=  0 NRI=1 NE=   44 Coef= -7.07106781D-01  7.07106781D-01
 Initial guess <Sx>= 0.0000 <Sy>= 0.0000 <Sz>= 0.0000 <S**2>= 1.0000 S= 0.6180
 Leave Link  401 at Tue Aug  4 18:44:24 2020, MaxMem=  6442450944 cpu:              49.8 elap:               2.1
 (Enter /scratch/scicomp/CentOS/7.3.1611/Haswell/software/Gaussian/g16/l502.exe)
 Two-electron integral symmetry not used.
 UHF open shell SCF:
 Using DIIS extrapolation, IDIIS=  1040.
 NGot=  6442450944 LenX=  6441877030 LenY=  6441597718
 Requested convergence on RMS density matrix=1.00D-08 within 128 cycles.
 Requested convergence on MAX density matrix=1.00D-06.
 Requested convergence on             energy=1.00D-06.
 No special actions if energy rises.
 Fock matrices will be formed incrementally for  20 cycles.

 Cycle   1  Pass 1  IDiag  1:
 FoFJK:  IHMeth= 1 ICntrl=       0 DoSepK=T KAlg= 0 I1Cent=           0 FoldK=F
 IRaf=         1 NMat=       1 IRICut=       1 DoRegI=T DoRafI=F ISym2E= 0 IDoP0=0 IntGTp=1.
 FoFCou: FMM=F IPFlag=           0 FMFlag=      100000 FMFlg1=           0
         NFxFlg=           0 DoJE=T BraDBF=F KetDBF=F FulRan=T
         wScrn=  0.000000 ICntrl=       500 IOpCl=  0 I1Cent=           0 NGrid=           0
         NMat0=    1 NMatS0=      1 NMatT0=    0 NMatD0=    1 NMtDS0=    0 NMtDT0=    0
 Symmetry not used in FoFCou.
 Inv3:  Mode=1 IEnd=    63590448.
 Iteration    1 A*A^-1 deviation from unit magnitude is 3.77D-15 for   1147.
 Iteration    1 A*A^-1 deviation from orthogonality  is 1.52D-15 for   3686   3673.
 Iteration    1 A^-1*A deviation from unit magnitude is 3.77D-15 for   1147.
 Iteration    1 A^-1*A deviation from orthogonality  is 2.25D-15 for   3206   3196.
 E= -466.682514020574    
 DIIS: error= 6.42D-02 at cycle   1 NSaved=   1.
 NSaved= 1 IEnMin= 1 EnMin= -466.682514020574     IErMin= 1 ErrMin= 6.42D-02
 ErrMax= 6.42D-02  0.00D+00 EMaxC= 1.00D-01 BMatC= 4.10D+00 BMatP= 4.10D+00
 IDIUse=3 WtCom= 3.58D-01 WtEn= 6.42D-01
 Coeff-Com:  0.100D+01
 Coeff-En:   0.100D+01
 Coeff:      0.100D+01
 Gap=     0.232 Goal=   None    Shift=    0.000
 Gap=     0.232 Goal=   None    Shift=    0.000
 GapD=    0.232 DampG=1.000 DampE=0.500 DampFc=0.5000 IDamp=-1.
 Damping current iteration by 5.00D-01
 RMSDP=1.43D-03 MaxDP=9.23D-02              OVMax= 5.57D-02

 Cycle   2  Pass 1  IDiag  1:
 RMSU=  6.99D-04    CP:  9.76D-01
 E= -466.752365993296     Delta-E=       -0.069851972721 Rises=F Damp=T
 DIIS: error= 3.04D-02 at cycle   2 NSaved=   2.
 NSaved= 2 IEnMin= 2 EnMin= -466.752365993296     IErMin= 2 ErrMin= 3.04D-02
 ErrMax= 3.04D-02  0.00D+00 EMaxC= 1.00D-01 BMatC= 9.19D-01 BMatP= 4.10D+00
 IDIUse=3 WtCom= 6.96D-01 WtEn= 3.04D-01
 Coeff-Com: -0.864D+00 0.186D+01
 Coeff-En:   0.000D+00 0.100D+01
 Coeff:     -0.601D+00 0.160D+01
 Gap=     0.241 Goal=   None    Shift=    0.000
 Gap=     0.241 Goal=   None    Shift=    0.000
 RMSDP=8.82D-04 MaxDP=4.90D-02 DE=-6.99D-02 OVMax= 3.16D-02

 Cycle   3  Pass 1  IDiag  1:
 RMSU=  4.12D-04    CP:  9.49D-01  2.09D+00
 E= -466.820874373284     Delta-E=       -0.068508379988 Rises=F Damp=F
 DIIS: error= 2.44D-03 at cycle   3 NSaved=   3.
 NSaved= 3 IEnMin= 3 EnMin= -466.820874373284     IErMin= 3 ErrMin= 2.44D-03
 ErrMax= 2.44D-03  0.00D+00 EMaxC= 1.00D-01 BMatC= 1.59D-02 BMatP= 9.19D-01
 IDIUse=3 WtCom= 9.76D-01 WtEn= 2.44D-02
 Coeff-Com: -0.300D+00 0.650D+00 0.650D+00
 Coeff-En:   0.000D+00 0.000D+00 0.100D+01
 Coeff:     -0.293D+00 0.635D+00 0.658D+00
 Gap=     0.245 Goal=   None    Shift=    0.000
 Gap=     0.245 Goal=   None    Shift=    0.000
 RMSDP=1.04D-04 MaxDP=4.69D-03 DE=-6.85D-02 OVMax= 1.27D-02

 Cycle   4  Pass 1  IDiag  1:
 RMSU=  8.62D-05    CP:  9.46D-01  2.15D+00  9.18D-01
 E= -466.825000719482     Delta-E=       -0.004126346198 Rises=F Damp=F
 DIIS: error= 9.61D-04 at cycle   4 NSaved=   4.
 NSaved= 4 IEnMin= 4 EnMin= -466.825000719482     IErMin= 4 ErrMin= 9.61D-04
 ErrMax= 9.61D-04  0.00D+00 EMaxC= 1.00D-01 BMatC= 5.47D-04 BMatP= 1.59D-02
 IDIUse=3 WtCom= 9.90D-01 WtEn= 9.61D-03
 Coeff-Com:  0.114D+00-0.247D+00-0.145D+00 0.128D+01
 Coeff-En:   0.000D+00 0.000D+00 0.000D+00 0.100D+01
 Coeff:      0.113D+00-0.245D+00-0.144D+00 0.128D+01
 Gap=     0.250 Goal=   None    Shift=    0.000
 Gap=     0.250 Goal=   None    Shift=    0.000
 RMSDP=7.88D-05 MaxDP=4.77D-03 DE=-4.13D-03 OVMax= 1.26D-02

 Cycle   5  Pass 1  IDiag  1:
 RMSU=  3.23D-05    CP:  9.45D-01  2.20D+00  1.05D+00  1.45D+00
 E= -466.825649285704     Delta-E=       -0.000648566222 Rises=F Damp=F
 DIIS: error= 4.78D-04 at cycle   5 NSaved=   5.
 NSaved= 5 IEnMin= 5 EnMin= -466.825649285704     IErMin= 5 ErrMin= 4.78D-04
 ErrMax= 4.78D-04  0.00D+00 EMaxC= 1.00D-01 BMatC= 1.25D-04 BMatP= 5.47D-04
 IDIUse=3 WtCom= 9.95D-01 WtEn= 4.78D-03
 Coeff-Com:  0.370D-01-0.805D-01-0.778D-01 0.115D-01 0.111D+01
 Coeff-En:   0.000D+00 0.000D+00 0.000D+00 0.000D+00 0.100D+01
 Coeff:      0.368D-01-0.801D-01-0.774D-01 0.115D-01 0.111D+01
 Gap=     0.253 Goal=   None    Shift=    0.000
 Gap=     0.253 Goal=   None    Shift=    0.000
 RMSDP=2.85D-05 MaxDP=1.57D-03 DE=-6.49D-04 OVMax= 6.81D-03

 Cycle   6  Pass 1  IDiag  1:
 RMSU=  1.45D-05    CP:  9.45D-01  2.20D+00  1.07D+00  1.61D+00  1.52D+00
 E= -466.825791910701     Delta-E=       -0.000142624996 Rises=F Damp=F
 DIIS: error= 2.28D-04 at cycle   6 NSaved=   6.
 NSaved= 6 IEnMin= 6 EnMin= -466.825791910701     IErMin= 6 ErrMin= 2.28D-04
 ErrMax= 2.28D-04  0.00D+00 EMaxC= 1.00D-01 BMatC= 4.76D-05 BMatP= 1.25D-04
 IDIUse=3 WtCom= 9.98D-01 WtEn= 2.28D-03
 Coeff-Com: -0.234D-01 0.503D-01 0.169D-01-0.426D+00 0.466D+00 0.917D+00
 Coeff-En:   0.000D+00 0.000D+00 0.000D+00 0.000D+00 0.000D+00 0.100D+01
 Coeff:     -0.233D-01 0.502D-01 0.168D-01-0.425D+00 0.465D+00 0.917D+00
 Gap=     0.254 Goal=   None    Shift=    0.000
 Gap=     0.254 Goal=   None    Shift=    0.000
 RMSDP=1.56D-05 MaxDP=1.07D-03 DE=-1.43D-04 OVMax= 4.18D-03

 Cycle   7  Pass 1  IDiag  1:
 RMSU=  8.12D-06    CP:  9.45D-01  2.20D+00  1.08D+00  1.68D+00  1.87D+00
                    CP:  1.20D+00
 E= -466.825830654926     Delta-E=       -0.000038744225 Rises=F Damp=F
 DIIS: error= 5.99D-05 at cycle   7 NSaved=   7.
 NSaved= 7 IEnMin= 7 EnMin= -466.825830654926     IErMin= 7 ErrMin= 5.99D-05
 ErrMax= 5.99D-05  0.00D+00 EMaxC= 1.00D-01 BMatC= 3.22D-06 BMatP= 4.76D-05
 IDIUse=1 WtCom= 1.00D+00 WtEn= 0.00D+00
 Coeff-Com: -0.928D-02 0.201D-01 0.119D-01-0.936D-01-0.259D-01 0.199D+00
 Coeff-Com:  0.897D+00
 Coeff:     -0.928D-02 0.201D-01 0.119D-01-0.936D-01-0.259D-01 0.199D+00
 Coeff:      0.897D+00
 Gap=     0.254 Goal=   None    Shift=    0.000
 Gap=     0.254 Goal=   None    Shift=    0.000
 RMSDP=4.96D-06 MaxDP=3.33D-04 DE=-3.87D-05 OVMax= 1.10D-03

 Cycle   8  Pass 1  IDiag  1:
 RMSU=  2.27D-06    CP:  9.45D-01  2.20D+00  1.07D+00  1.68D+00  1.93D+00
                    CP:  1.39D+00  1.20D+00
 E= -466.825833211068     Delta-E=       -0.000002556142 Rises=F Damp=F
 DIIS: error= 3.11D-05 at cycle   8 NSaved=   8.
 NSaved= 8 IEnMin= 8 EnMin= -466.825833211068     IErMin= 8 ErrMin= 3.11D-05
 ErrMax= 3.11D-05  0.00D+00 EMaxC= 1.00D-01 BMatC= 5.55D-07 BMatP= 3.22D-06
 IDIUse=1 WtCom= 1.00D+00 WtEn= 0.00D+00
 Coeff-Com:  0.566D-03-0.120D-02 0.126D-02 0.352D-01-0.775D-01-0.788D-01
 Coeff-Com:  0.258D+00 0.863D+00
 Coeff:      0.566D-03-0.120D-02 0.126D-02 0.352D-01-0.775D-01-0.788D-01
 Coeff:      0.258D+00 0.863D+00
 Gap=     0.254 Goal=   None    Shift=    0.000
 Gap=     0.254 Goal=   None    Shift=    0.000
 RMSDP=2.07D-06 MaxDP=1.27D-04 DE=-2.56D-06 OVMax= 4.33D-04

 Cycle   9  Pass 1  IDiag  1:
 RMSU=  9.58D-07    CP:  9.45D-01  2.20D+00  1.07D+00  1.67D+00  1.93D+00
                    CP:  1.43D+00  1.36D+00  1.29D+00
 E= -466.825833579203     Delta-E=       -0.000000368135 Rises=F Damp=F
 DIIS: error= 1.32D-05 at cycle   9 NSaved=   9.
 NSaved= 9 IEnMin= 9 EnMin= -466.825833579203     IErMin= 9 ErrMin= 1.32D-05
 ErrMax= 1.32D-05  0.00D+00 EMaxC= 1.00D-01 BMatC= 6.05D-08 BMatP= 5.55D-07
 IDIUse=1 WtCom= 1.00D+00 WtEn= 0.00D+00
 Coeff-Com:  0.143D-02-0.311D-02-0.135D-02 0.215D-01-0.163D-01-0.473D-01
 Coeff-Com: -0.500D-01 0.227D+00 0.868D+00
 Coeff:      0.143D-02-0.311D-02-0.135D-02 0.215D-01-0.163D-01-0.473D-01
 Coeff:     -0.500D-01 0.227D+00 0.868D+00
 Gap=     0.254 Goal=   None    Shift=    0.000
 Gap=     0.254 Goal=   None    Shift=    0.000
 RMSDP=8.05D-07 MaxDP=4.69D-05 DE=-3.68D-07 OVMax= 1.79D-04

 Cycle  10  Pass 1  IDiag  1:
 RMSU=  3.15D-07    CP:  9.45D-01  2.20D+00  1.07D+00  1.67D+00  1.92D+00
                    CP:  1.43D+00  1.41D+00  1.49D+00  1.30D+00
 E= -466.825833623598     Delta-E=       -0.000000044395 Rises=F Damp=F
 DIIS: error= 4.49D-06 at cycle  10 NSaved=  10.
 NSaved=10 IEnMin=10 EnMin= -466.825833623598     IErMin=10 ErrMin= 4.49D-06
 ErrMax= 4.49D-06  0.00D+00 EMaxC= 1.00D-01 BMatC= 4.91D-09 BMatP= 6.05D-08
 IDIUse=1 WtCom= 1.00D+00 WtEn= 0.00D+00
 Coeff-Com: -0.990D-04 0.214D-03-0.968D-04-0.419D-02 0.800D-02 0.931D-02
 Coeff-Com: -0.235D-01-0.919D-01-0.200D-01 0.112D+01
 Coeff:     -0.990D-04 0.214D-03-0.968D-04-0.419D-02 0.800D-02 0.931D-02
 Coeff:     -0.235D-01-0.919D-01-0.200D-01 0.112D+01
 Gap=     0.254 Goal=   None    Shift=    0.000
 Gap=     0.254 Goal=   None    Shift=    0.000
 RMSDP=3.57D-07 MaxDP=2.75D-05 DE=-4.44D-08 OVMax= 7.53D-05

 Cycle  11  Pass 1  IDiag  1:
 RMSU=  1.11D-07    CP:  9.45D-01  2.20D+00  1.07D+00  1.67D+00  1.92D+00
                    CP:  1.43D+00  1.42D+00  1.57D+00  1.50D+00  1.40D+00
 E= -466.825833628967     Delta-E=       -0.000000005368 Rises=F Damp=F
 DIIS: error= 1.04D-06 at cycle  11 NSaved=  11.
 NSaved=11 IEnMin=11 EnMin= -466.825833628967     IErMin=11 ErrMin= 1.04D-06
 ErrMax= 1.04D-06  0.00D+00 EMaxC= 1.00D-01 BMatC= 1.25D-09 BMatP= 4.91D-09
 IDIUse=1 WtCom= 1.00D+00 WtEn= 0.00D+00
 Coeff-Com: -0.229D-03 0.495D-03 0.140D-03-0.443D-02 0.506D-02 0.989D-02
 Coeff-Com: -0.177D-02-0.629D-01-0.122D+00 0.406D+00 0.769D+00
 Coeff:     -0.229D-03 0.495D-03 0.140D-03-0.443D-02 0.506D-02 0.989D-02
 Coeff:     -0.177D-02-0.629D-01-0.122D+00 0.406D+00 0.769D+00
 Gap=     0.254 Goal=   None    Shift=    0.000
 Gap=     0.254 Goal=   None    Shift=    0.000
 RMSDP=1.05D-07 MaxDP=8.62D-06 DE=-5.37D-09 OVMax= 1.98D-05

 Cycle  12  Pass 1  IDiag  1:
 RMSU=  4.18D-08    CP:  9.45D-01  2.20D+00  1.07D+00  1.67D+00  1.92D+00
                    CP:  1.43D+00  1.42D+00  1.58D+00  1.55D+00  1.56D+00
                    CP:  1.32D+00
 E= -466.825833629673     Delta-E=       -0.000000000706 Rises=F Damp=F
 DIIS: error= 3.02D-07 at cycle  12 NSaved=  12.
 NSaved=12 IEnMin=12 EnMin= -466.825833629673     IErMin=12 ErrMin= 3.02D-07
 ErrMax= 3.02D-07  0.00D+00 EMaxC= 1.00D-01 BMatC= 1.10D-10 BMatP= 1.25D-09
 IDIUse=1 WtCom= 1.00D+00 WtEn= 0.00D+00
 Coeff-Com:  0.985D-05-0.217D-04 0.948D-05 0.435D-03-0.880D-03-0.859D-03
 Coeff-Com:  0.258D-02 0.994D-02 0.103D-02-0.127D+00 0.279D-01 0.109D+01
 Coeff:      0.985D-05-0.217D-04 0.948D-05 0.435D-03-0.880D-03-0.859D-03
 Coeff:      0.258D-02 0.994D-02 0.103D-02-0.127D+00 0.279D-01 0.109D+01
 Gap=     0.254 Goal=   None    Shift=    0.000
 Gap=     0.254 Goal=   None    Shift=    0.000
 RMSDP=4.36D-08 MaxDP=2.63D-06 DE=-7.06D-10 OVMax= 7.02D-06

 Cycle  13  Pass 1  IDiag  1:
 RMSU=  1.58D-08    CP:  9.45D-01  2.20D+00  1.07D+00  1.67D+00  1.92D+00
                    CP:  1.43D+00  1.42D+00  1.58D+00  1.56D+00  1.61D+00
                    CP:  1.58D+00  1.40D+00
 E= -466.825833629803     Delta-E=       -0.000000000130 Rises=F Damp=F
 DIIS: error= 1.70D-07 at cycle  13 NSaved=  13.
 NSaved=13 IEnMin=13 EnMin= -466.825833629803     IErMin=13 ErrMin= 1.70D-07
 ErrMax= 1.70D-07  0.00D+00 EMaxC= 1.00D-01 BMatC= 2.73D-11 BMatP= 1.10D-10
 IDIUse=1 WtCom= 1.00D+00 WtEn= 0.00D+00
 Coeff-Com:  0.393D-04-0.851D-04-0.201D-04 0.802D-03-0.998D-03-0.177D-02
 Coeff-Com:  0.932D-03 0.120D-01 0.202D-01-0.927D-01-0.126D+00 0.192D+00
 Coeff-Com:  0.995D+00
 Coeff:      0.393D-04-0.851D-04-0.201D-04 0.802D-03-0.998D-03-0.177D-02
 Coeff:      0.932D-03 0.120D-01 0.202D-01-0.927D-01-0.126D+00 0.192D+00
 Coeff:      0.995D+00
 Gap=     0.254 Goal=   None    Shift=    0.000
 Gap=     0.254 Goal=   None    Shift=    0.000
 RMSDP=1.87D-08 MaxDP=8.82D-07 DE=-1.30D-10 OVMax= 3.80D-06

 Cycle  14  Pass 1  IDiag  1:
 RMSU=  7.48D-09    CP:  9.45D-01  2.20D+00  1.07D+00  1.67D+00  1.92D+00
                    CP:  1.43D+00  1.42D+00  1.58D+00  1.56D+00  1.62D+00
                    CP:  1.68D+00  1.62D+00  1.45D+00
 E= -466.825833629845     Delta-E=       -0.000000000042 Rises=F Damp=F
 DIIS: error= 9.72D-08 at cycle  14 NSaved=  14.
 NSaved=14 IEnMin=14 EnMin= -466.825833629845     IErMin=14 ErrMin= 9.72D-08
 ErrMax= 9.72D-08  0.00D+00 EMaxC= 1.00D-01 BMatC= 7.46D-12 BMatP= 2.73D-11
 IDIUse=1 WtCom= 1.00D+00 WtEn= 0.00D+00
 Coeff-Com:  0.481D-05-0.103D-04-0.361D-05 0.649D-04-0.126D-04-0.184D-03
 Coeff-Com: -0.307D-03 0.158D-03 0.423D-02 0.747D-02-0.321D-01-0.186D+00
 Coeff-Com:  0.219D+00 0.988D+00
 Coeff:      0.481D-05-0.103D-04-0.361D-05 0.649D-04-0.126D-04-0.184D-03
 Coeff:     -0.307D-03 0.158D-03 0.423D-02 0.747D-02-0.321D-01-0.186D+00
 Coeff:      0.219D+00 0.988D+00
 Gap=     0.254 Goal=   None    Shift=    0.000
 Gap=     0.254 Goal=   None    Shift=    0.000
 RMSDP=8.23D-09 MaxDP=3.83D-07 DE=-4.17D-11 OVMax= 2.21D-06

 Error on total polarization charges =  0.01105
 SCF Done:  E(UwB97XD) =  -466.825833630     A.U. after   14 cycles
            NFock= 14  Conv=0.82D-08     -V/T= 2.0061
 <Sx>= 0.0000 <Sy>= 0.0000 <Sz>= 0.0000 <S**2>= 1.0501 S= 0.6402
 <L.S>=  0.00000000000    
 KE= 4.640094453796D+02 PE=-2.472422204512D+03 EE= 8.462382084282D+02
 --------------------------------------------------------------------
 Variational PCM results
 =======================
 <psi(f)|   H    |psi(f)>                     (a.u.) =    -466.834121
 <psi(f)|H+V(f)/2|psi(f)>                     (a.u.) =    -466.835335
 Total free energy in solution:
 - with all non electrostatic terms           (a.u.) =    -466.825834
 --------------------------------------------------------------------
 (Polarized solute)-Solvent               (kcal/mol) =      -0.76
 --------------------------------------------------------------------
 Quantum repulsion energy                 (kcal/mol) =       5.96
 Total non electrostatic                  (kcal/mol) =       5.96
 --------------------------------------------------------------------
 Partition over spheres:
 Sphere  on Atom  Surface  Charge   GEl     GCav    GDR
    1               7.56   0.010   -0.04    0.00    0.00
    2               0.07  -0.000    0.00    0.00    0.00
    3               7.51  -0.010   -0.04    0.00    0.00
    4               3.52  -0.003   -0.01    0.00    0.00
    5               4.19   0.007   -0.04    0.00    0.00
    6               0.07  -0.000    0.00    0.00    0.00
    7               5.51  -0.008   -0.03    0.00    0.00
    8               3.52  -0.003   -0.01    0.00    0.00
    9               3.17   0.002   -0.00    0.00    0.00
   10               6.15  -0.005   -0.01    0.00    0.00
   11               3.76  -0.003   -0.01    0.00    0.00
   12               6.91   0.011   -0.06    0.00    0.00
   13               7.51  -0.010   -0.03    0.00    0.00
   14               7.54   0.010   -0.04    0.00    0.00
   15               7.51  -0.010   -0.04    0.00    0.00
   16               3.87   0.002    0.00    0.00    0.00
   17               4.85  -0.004   -0.01    0.00    0.00
   18               7.54  -0.008   -0.03    0.00    0.00
   19               4.62   0.008   -0.04    0.00    0.00
   20               5.33  -0.007   -0.03    0.00    0.00
   21               7.09   0.011   -0.06    0.00    0.00
   22               7.53  -0.010   -0.03    0.00    0.00
   23               3.25   0.002   -0.00    0.00    0.00
   24               4.22  -0.003   -0.01    0.00    0.00
   25               6.64  -0.006   -0.01    0.00    0.00
   26               3.71   0.002    0.00    0.00    0.00
   27               7.54  -0.008   -0.03    0.00    0.00
   28               4.62  -0.005   -0.02    0.00    0.00
 Added spheres:    73.11   0.026   -0.17    0.00    0.00
 --------------------------------------------------------------------
 After PCM corrections, the energy is  -466.825833630     a.u.
 --------------------------------------------------------------------
 Annihilation of the first spin contaminant:
 S**2 before annihilation     1.0501,   after     0.5407
 Leave Link  502 at Tue Aug  4 18:48:55 2020, MaxMem=  6442450944 cpu:            6426.3 elap:             270.4
 (Enter /scratch/scicomp/CentOS/7.3.1611/Haswell/software/Gaussian/g16/l601.exe)
 Copying SCF densities to generalized density rwf, IOpCl= 1 IROHF=0.

 **********************************************************************

            Population analysis using the SCF Density.

 **********************************************************************

 Alpha  occ. eigenvalues --  -10.29222 -10.29086 -10.28637 -10.28378 -10.28226
 Alpha  occ. eigenvalues --  -10.28182 -10.27996 -10.27924 -10.27713 -10.27692
 Alpha  occ. eigenvalues --  -10.27678 -10.27648  -0.95110  -0.92516  -0.85555
 Alpha  occ. eigenvalues --   -0.84372  -0.83392  -0.80899  -0.71153  -0.70455
 Alpha  occ. eigenvalues --   -0.69061  -0.67396  -0.59907  -0.59081  -0.58525
 Alpha  occ. eigenvalues --   -0.56090  -0.53433  -0.52470  -0.50643  -0.48898
 Alpha  occ. eigenvalues --   -0.48715  -0.48320  -0.48037  -0.47167  -0.45900
 Alpha  occ. eigenvalues --   -0.44583  -0.41303  -0.40734  -0.39884  -0.38874
 Alpha  occ. eigenvalues --   -0.37635  -0.37082  -0.34416  -0.25052
 Alpha virt. eigenvalues --    0.00367   0.10726   0.11477   0.13346   0.14037
 Alpha virt. eigenvalues --    0.14774   0.15635   0.16411   0.17064   0.17334
 Alpha virt. eigenvalues --    0.17924   0.18153   0.19417   0.20960   0.21158
 Alpha virt. eigenvalues --    0.22264   0.22992   0.23324   0.24165   0.25058
 Alpha virt. eigenvalues --    0.25930   0.26019   0.26911   0.27242   0.27437
 Alpha virt. eigenvalues --    0.29154   0.29490   0.30387   0.31211   0.32124
 Alpha virt. eigenvalues --    0.32253   0.32616   0.32821   0.33864   0.34399
 Alpha virt. eigenvalues --    0.34721   0.36144   0.36711   0.37365   0.37857
 Alpha virt. eigenvalues --    0.38603   0.38925   0.41639   0.41858   0.42409
 Alpha virt. eigenvalues --    0.44080   0.44417   0.45934   0.46179   0.46738
 Alpha virt. eigenvalues --    0.47199   0.47381   0.48239   0.48956   0.49172
 Alpha virt. eigenvalues --    0.49464   0.49867   0.50062   0.50660   0.51257
 Alpha virt. eigenvalues --    0.51726   0.51869   0.52145   0.53045   0.53546
 Alpha virt. eigenvalues --    0.53621   0.54648   0.54808   0.55538   0.56063
 Alpha virt. eigenvalues --    0.56627   0.57324   0.58114   0.58790   0.58983
 Alpha virt. eigenvalues --    0.59307   0.61655   0.61970   0.64601   0.66064
 Alpha virt. eigenvalues --    0.67035   0.67724   0.68182   0.69443   0.70078
 Alpha virt. eigenvalues --    0.71040   0.71941   0.75531   0.75594   0.75884
 Alpha virt. eigenvalues --    0.79248   0.79439   0.80545   0.81747   0.82821
 Alpha virt. eigenvalues --    0.83639   0.84572   0.87568   0.87692   0.89005
 Alpha virt. eigenvalues --    0.90473   0.91216   0.92182   0.94060   0.95260
 Alpha virt. eigenvalues --    0.96620   0.97894   0.98395   0.99391   0.99940
 Alpha virt. eigenvalues --    1.02038   1.02189   1.04264   1.05124   1.05829
 Alpha virt. eigenvalues --    1.07279   1.09096   1.10261   1.10838   1.10964
 Alpha virt. eigenvalues --    1.12121   1.14608   1.16038   1.17204   1.17645
 Alpha virt. eigenvalues --    1.18778   1.19183   1.19873   1.20105   1.21039
 Alpha virt. eigenvalues --    1.22227   1.24082   1.25369   1.26237   1.27151
 Alpha virt. eigenvalues --    1.27184   1.28268   1.28965   1.29663   1.29862
 Alpha virt. eigenvalues --    1.30688   1.31416   1.33557   1.33988   1.35060
 Alpha virt. eigenvalues --    1.35492   1.36895   1.37343   1.38474   1.38878
 Alpha virt. eigenvalues --    1.39343   1.39593   1.40404   1.41420   1.42460
 Alpha virt. eigenvalues --    1.43333   1.43364   1.44637   1.45596   1.46460
 Alpha virt. eigenvalues --    1.46890   1.48042   1.48200   1.50859   1.51011
 Alpha virt. eigenvalues --    1.52461   1.54076   1.54453   1.57337   1.58041
 Alpha virt. eigenvalues --    1.59126   1.60681   1.62169   1.62303   1.63755
 Alpha virt. eigenvalues --    1.67526   1.68530   1.68881   1.69690   1.70288
 Alpha virt. eigenvalues --    1.73871   1.74276   1.77105   1.78173   1.78877
 Alpha virt. eigenvalues --    1.80791   1.81608   1.83699   1.85068   1.88084
 Alpha virt. eigenvalues --    1.88745   1.91831   1.92121   1.92911   1.94893
 Alpha virt. eigenvalues --    1.96849   1.98924   2.02121   2.05384   2.07428
 Alpha virt. eigenvalues --    2.07997   2.08368   2.09266   2.12183   2.12820
 Alpha virt. eigenvalues --    2.13571   2.14700   2.16644   2.18461   2.18637
 Alpha virt. eigenvalues --    2.20006   2.20437   2.21122   2.22785   2.24149
 Alpha virt. eigenvalues --    2.26829   2.27650   2.29436   2.31990   2.33913
 Alpha virt. eigenvalues --    2.35641   2.36734   2.37836   2.40569   2.41981
 Alpha virt. eigenvalues --    2.45803   2.46501   2.47075   2.49193   2.50662
 Alpha virt. eigenvalues --    2.51093   2.54025   2.55681   2.56289   2.57700
 Alpha virt. eigenvalues --    2.57925   2.60813   2.61666   2.63064   2.63470
 Alpha virt. eigenvalues --    2.64994   2.65311   2.67438   2.67817   2.68522
 Alpha virt. eigenvalues --    2.69329   2.70945   2.72652   2.72905   2.73219
 Alpha virt. eigenvalues --    2.74580   2.75062   2.76308   2.77854   2.80127
 Alpha virt. eigenvalues --    2.80422   2.82141   2.82269   2.82978   2.83280
 Alpha virt. eigenvalues --    2.84115   2.85478   2.86773   2.87026   2.87951
 Alpha virt. eigenvalues --    2.88221   2.88706   2.89756   2.90537   2.91124
 Alpha virt. eigenvalues --    2.93475   2.93788   2.94756   2.95905   2.97661
 Alpha virt. eigenvalues --    2.99037   3.01278   3.01457   3.02703   3.04139
 Alpha virt. eigenvalues --    3.06629   3.06708   3.06893   3.07804   3.08491
 Alpha virt. eigenvalues --    3.10278   3.10774   3.11420   3.12578   3.13020
 Alpha virt. eigenvalues --    3.13079   3.14348   3.15480   3.16033   3.16585
 Alpha virt. eigenvalues --    3.16785   3.17269   3.17558   3.19348   3.20259
 Alpha virt. eigenvalues --    3.20809   3.21275   3.21919   3.23131   3.24214
 Alpha virt. eigenvalues --    3.24968   3.25428   3.25667   3.25810   3.26520
 Alpha virt. eigenvalues --    3.27379   3.28844   3.29526   3.31527   3.31803
 Alpha virt. eigenvalues --    3.32492   3.32835   3.33210   3.35009   3.35762
 Alpha virt. eigenvalues --    3.36707   3.37069   3.38337   3.38730   3.39926
 Alpha virt. eigenvalues --    3.40848   3.41397   3.41543   3.43208   3.43750
 Alpha virt. eigenvalues --    3.44437   3.44529   3.46475   3.46753   3.49140
 Alpha virt. eigenvalues --    3.49555   3.50769   3.51180   3.51444   3.52604
 Alpha virt. eigenvalues --    3.53113   3.54660   3.55337   3.56733   3.57430
 Alpha virt. eigenvalues --    3.58299   3.58624   3.59479   3.60729   3.62298
 Alpha virt. eigenvalues --    3.63004   3.63679   3.64050   3.64794   3.66501
 Alpha virt. eigenvalues --    3.68030   3.70045   3.72254   3.72460   3.73607
 Alpha virt. eigenvalues --    3.74539   3.78518   3.78803   3.79826   3.81379
 Alpha virt. eigenvalues --    3.83112   3.83593   3.84125   3.84989   3.85540
 Alpha virt. eigenvalues --    3.88680   3.90497   3.90748   3.93758   3.95001
 Alpha virt. eigenvalues --    3.95663   3.96726   3.97883   3.99432   4.03225
 Alpha virt. eigenvalues --    4.04775   4.06065   4.08379   4.08866   4.09143
 Alpha virt. eigenvalues --    4.11794   4.12970   4.13853   4.15872   4.17701
 Alpha virt. eigenvalues --    4.18661   4.21353   4.22265   4.24047   4.25551
 Alpha virt. eigenvalues --    4.25853   4.27489   4.28547   4.28842   4.29369
 Alpha virt. eigenvalues --    4.31359   4.35606   4.39650   4.40458   4.41063
 Alpha virt. eigenvalues --    4.42468   4.42778   4.44508   4.45776   4.50224
 Alpha virt. eigenvalues --    4.52991   4.54800   4.56435   4.57752   4.58068
 Alpha virt. eigenvalues --    4.59722   4.62468   4.63660   4.64774   4.68488
 Alpha virt. eigenvalues --    4.69769   4.70403   4.73633   4.75118   4.77771
 Alpha virt. eigenvalues --    4.81258   4.82585   4.86930   4.88984   4.89373
 Alpha virt. eigenvalues --    4.91984   4.92211   4.95295   4.97413   4.99454
 Alpha virt. eigenvalues --    5.03724   5.07108   5.08200   5.12275   5.13869
 Alpha virt. eigenvalues --    5.19784   5.23547   5.25677   5.26191   5.30415
 Alpha virt. eigenvalues --    5.33383   5.35422   5.37625   5.39025   5.41728
 Alpha virt. eigenvalues --    5.43364   5.46161   5.51857   5.54102   5.56798
 Alpha virt. eigenvalues --    5.63451   5.72103   5.74190   5.80535   5.81399
 Alpha virt. eigenvalues --    7.94493   7.95384   8.03196   8.04885   8.08426
 Alpha virt. eigenvalues --    8.11089   8.12188   8.16225   8.17425   8.21747
 Alpha virt. eigenvalues --    8.32729   8.37007  34.75247  34.75884  34.82181
 Alpha virt. eigenvalues --   34.82817  34.86062  34.89682  34.98922  35.01140
 Alpha virt. eigenvalues --   35.01410  35.03526  35.15923  35.23863
  Beta  occ. eigenvalues --  -10.29223 -10.29086 -10.28637 -10.28377 -10.28228
  Beta  occ. eigenvalues --  -10.28179 -10.27997 -10.27925 -10.27712 -10.27694
  Beta  occ. eigenvalues --  -10.27677 -10.27649  -0.95110  -0.92517  -0.85555
  Beta  occ. eigenvalues --   -0.84371  -0.83393  -0.80899  -0.71153  -0.70454
  Beta  occ. eigenvalues --   -0.69061  -0.67396  -0.59907  -0.59081  -0.58525
  Beta  occ. eigenvalues --   -0.56090  -0.53433  -0.52470  -0.50643  -0.48898
  Beta  occ. eigenvalues --   -0.48715  -0.48320  -0.48037  -0.47167  -0.45900
  Beta  occ. eigenvalues --   -0.44583  -0.41303  -0.40734  -0.39884  -0.38874
  Beta  occ. eigenvalues --   -0.37635  -0.37082  -0.34417  -0.25052
  Beta virt. eigenvalues --    0.00366   0.10727   0.11475   0.13346   0.14035
  Beta virt. eigenvalues --    0.14774   0.15637   0.16410   0.17065   0.17334
  Beta virt. eigenvalues --    0.17924   0.18152   0.19418   0.20961   0.21157
  Beta virt. eigenvalues --    0.22264   0.22991   0.23324   0.24165   0.25059
  Beta virt. eigenvalues --    0.25930   0.26020   0.26911   0.27242   0.27437
  Beta virt. eigenvalues --    0.29153   0.29490   0.30388   0.31210   0.32126
  Beta virt. eigenvalues --    0.32251   0.32616   0.32821   0.33864   0.34399
  Beta virt. eigenvalues --    0.34721   0.36145   0.36711   0.37366   0.37856
  Beta virt. eigenvalues --    0.38603   0.38924   0.41642   0.41854   0.42409
  Beta virt. eigenvalues --    0.44080   0.44417   0.45933   0.46179   0.46738
  Beta virt. eigenvalues --    0.47201   0.47381   0.48239   0.48956   0.49171
  Beta virt. eigenvalues --    0.49464   0.49867   0.50062   0.50660   0.51258
  Beta virt. eigenvalues --    0.51726   0.51868   0.52145   0.53045   0.53547
  Beta virt. eigenvalues --    0.53620   0.54649   0.54808   0.55538   0.56063
  Beta virt. eigenvalues --    0.56627   0.57323   0.58114   0.58791   0.58983
  Beta virt. eigenvalues --    0.59305   0.61655   0.61970   0.64601   0.66064
  Beta virt. eigenvalues --    0.67034   0.67724   0.68182   0.69443   0.70078
  Beta virt. eigenvalues --    0.71040   0.71941   0.75529   0.75596   0.75884
  Beta virt. eigenvalues --    0.79248   0.79439   0.80545   0.81747   0.82821
  Beta virt. eigenvalues --    0.83639   0.84572   0.87567   0.87693   0.89005
  Beta virt. eigenvalues --    0.90473   0.91215   0.92182   0.94060   0.95260
  Beta virt. eigenvalues --    0.96620   0.97894   0.98395   0.99391   0.99941
  Beta virt. eigenvalues --    1.02039   1.02189   1.04264   1.05124   1.05829
  Beta virt. eigenvalues --    1.07279   1.09096   1.10262   1.10838   1.10964
  Beta virt. eigenvalues --    1.12121   1.14607   1.16039   1.17205   1.17644
  Beta virt. eigenvalues --    1.18779   1.19183   1.19873   1.20104   1.21039
  Beta virt. eigenvalues --    1.22227   1.24083   1.25369   1.26237   1.27151
  Beta virt. eigenvalues --    1.27184   1.28268   1.28965   1.29663   1.29862
  Beta virt. eigenvalues --    1.30688   1.31416   1.33557   1.33988   1.35061
  Beta virt. eigenvalues --    1.35492   1.36895   1.37344   1.38473   1.38878
  Beta virt. eigenvalues --    1.39343   1.39593   1.40404   1.41420   1.42460
  Beta virt. eigenvalues --    1.43333   1.43365   1.44637   1.45596   1.46460
  Beta virt. eigenvalues --    1.46890   1.48042   1.48200   1.50858   1.51011
  Beta virt. eigenvalues --    1.52461   1.54076   1.54453   1.57337   1.58041
  Beta virt. eigenvalues --    1.59126   1.60681   1.62168   1.62303   1.63755
  Beta virt. eigenvalues --    1.67526   1.68530   1.68881   1.69690   1.70288
  Beta virt. eigenvalues --    1.73871   1.74277   1.77105   1.78173   1.78877
  Beta virt. eigenvalues --    1.80790   1.81608   1.83699   1.85068   1.88084
  Beta virt. eigenvalues --    1.88745   1.91831   1.92121   1.92911   1.94893
  Beta virt. eigenvalues --    1.96849   1.98924   2.02121   2.05384   2.07429
  Beta virt. eigenvalues --    2.07997   2.08369   2.09266   2.12183   2.12820
  Beta virt. eigenvalues --    2.13571   2.14700   2.16644   2.18461   2.18637
  Beta virt. eigenvalues --    2.20006   2.20438   2.21122   2.22785   2.24149
  Beta virt. eigenvalues --    2.26829   2.27650   2.29436   2.31990   2.33913
  Beta virt. eigenvalues --    2.35641   2.36734   2.37835   2.40569   2.41981
  Beta virt. eigenvalues --    2.45803   2.46501   2.47075   2.49193   2.50662
  Beta virt. eigenvalues --    2.51093   2.54025   2.55682   2.56289   2.57700
  Beta virt. eigenvalues --    2.57925   2.60813   2.61666   2.63064   2.63470
  Beta virt. eigenvalues --    2.64994   2.65311   2.67438   2.67817   2.68521
  Beta virt. eigenvalues --    2.69329   2.70944   2.72652   2.72905   2.73219
  Beta virt. eigenvalues --    2.74580   2.75062   2.76308   2.77855   2.80127
  Beta virt. eigenvalues --    2.80422   2.82141   2.82269   2.82978   2.83280
  Beta virt. eigenvalues --    2.84115   2.85478   2.86773   2.87026   2.87951
  Beta virt. eigenvalues --    2.88221   2.88706   2.89756   2.90537   2.91124
  Beta virt. eigenvalues --    2.93475   2.93788   2.94756   2.95905   2.97661
  Beta virt. eigenvalues --    2.99037   3.01278   3.01457   3.02703   3.04139
  Beta virt. eigenvalues --    3.06629   3.06708   3.06893   3.07804   3.08491
  Beta virt. eigenvalues --    3.10278   3.10774   3.11420   3.12578   3.13020
  Beta virt. eigenvalues --    3.13079   3.14348   3.15480   3.16033   3.16585
  Beta virt. eigenvalues --    3.16785   3.17269   3.17558   3.19348   3.20259
  Beta virt. eigenvalues --    3.20809   3.21275   3.21919   3.23130   3.24214
  Beta virt. eigenvalues --    3.24968   3.25429   3.25667   3.25810   3.26520
  Beta virt. eigenvalues --    3.27379   3.28844   3.29526   3.31527   3.31803
  Beta virt. eigenvalues --    3.32492   3.32834   3.33210   3.35009   3.35762
  Beta virt. eigenvalues --    3.36707   3.37069   3.38337   3.38730   3.39926
  Beta virt. eigenvalues --    3.40848   3.41397   3.41543   3.43208   3.43750
  Beta virt. eigenvalues --    3.44437   3.44529   3.46475   3.46753   3.49140
  Beta virt. eigenvalues --    3.49555   3.50770   3.51180   3.51444   3.52604
  Beta virt. eigenvalues --    3.53113   3.54660   3.55337   3.56733   3.57430
  Beta virt. eigenvalues --    3.58299   3.58624   3.59479   3.60729   3.62298
  Beta virt. eigenvalues --    3.63004   3.63679   3.64050   3.64794   3.66501
  Beta virt. eigenvalues --    3.68030   3.70045   3.72254   3.72461   3.73607
  Beta virt. eigenvalues --    3.74539   3.78518   3.78803   3.79826   3.81379
  Beta virt. eigenvalues --    3.83112   3.83593   3.84125   3.84989   3.85540
  Beta virt. eigenvalues --    3.88680   3.90497   3.90748   3.93758   3.95001
  Beta virt. eigenvalues --    3.95663   3.96726   3.97883   3.99432   4.03225
  Beta virt. eigenvalues --    4.04775   4.06065   4.08379   4.08866   4.09143
  Beta virt. eigenvalues --    4.11794   4.12970   4.13853   4.15872   4.17701
  Beta virt. eigenvalues --    4.18661   4.21353   4.22265   4.24047   4.25551
  Beta virt. eigenvalues --    4.25853   4.27489   4.28547   4.28842   4.29368
  Beta virt. eigenvalues --    4.31359   4.35606   4.39650   4.40458   4.41063
  Beta virt. eigenvalues --    4.42469   4.42778   4.44508   4.45777   4.50224
  Beta virt. eigenvalues --    4.52991   4.54800   4.56435   4.57752   4.58068
  Beta virt. eigenvalues --    4.59722   4.62468   4.63661   4.64774   4.68488
  Beta virt. eigenvalues --    4.69769   4.70403   4.73633   4.75118   4.77771
  Beta virt. eigenvalues --    4.81258   4.82585   4.86930   4.88984   4.89373
  Beta virt. eigenvalues --    4.91984   4.92211   4.95295   4.97413   4.99453
  Beta virt. eigenvalues --    5.03724   5.07108   5.08199   5.12275   5.13869
  Beta virt. eigenvalues --    5.19784   5.23547   5.25677   5.26191   5.30415
  Beta virt. eigenvalues --    5.33383   5.35422   5.37625   5.39024   5.41728
  Beta virt. eigenvalues --    5.43364   5.46161   5.51857   5.54102   5.56798
  Beta virt. eigenvalues --    5.63451   5.72103   5.74190   5.80535   5.81398
  Beta virt. eigenvalues --    7.94494   7.95383   8.03197   8.04884   8.08427
  Beta virt. eigenvalues --    8.11089   8.12188   8.16225   8.17425   8.21747
  Beta virt. eigenvalues --    8.32729   8.37006  34.75248  34.75883  34.82182
  Beta virt. eigenvalues --   34.82816  34.86062  34.89682  34.98923  35.01140
  Beta virt. eigenvalues --   35.01410  35.03526  35.15923  35.23863
          Condensed to atoms (all electrons):
               1          2          3          4          5          6
     1  C    5.265678   0.028304   0.428998  -0.003015   0.001663  -0.012647
     2  C    0.028304   5.349767  -0.001638   0.428897  -0.107298   0.250136
     3  H    0.428998  -0.001638   0.484665   0.000036   0.000001   0.000179
     4  H   -0.003015   0.428897   0.000036   0.523472  -0.002362  -0.011798
     5  C    0.001663  -0.107298   0.000001  -0.002362   5.342900   0.259480
     6  C   -0.012647   0.250136   0.000179  -0.011798   0.259480   5.349376
     7  H    0.000008  -0.000329   0.000003   0.000297   0.428052  -0.029862
     8  H   -0.001342  -0.011739  -0.000090   0.001505  -0.049059   0.428906
     9  C    0.002038  -0.066117  -0.000004  -0.010109  -0.048283   0.240358
    10  H   -0.000034   0.006927  -0.000001  -0.000215  -0.001618  -0.046563
    11  H   -0.000285  -0.005636   0.000002   0.000927   0.011597  -0.049971
    12  C   -0.000172   0.013010  -0.000001   0.003143   0.425445  -0.069954
    13  H   -0.000000  -0.000245   0.000000  -0.000043  -0.025437   0.003325
    14  C    0.000058  -0.012581  -0.000000  -0.001290  -0.055386   0.028394
    15  H   -0.000000   0.000179  -0.000000  -0.000089   0.003833  -0.001642
    16  C   -0.000311   0.024247   0.000000   0.002062  -0.003073  -0.078114
    17  H    0.000045   0.003157  -0.000000  -0.003653   0.005368  -0.013957
    18  H    0.000001  -0.000457   0.000000   0.000389  -0.001813   0.012410
    19  C   -0.055240   0.259153   0.003852  -0.049163   0.011780  -0.107416
    20  H    0.003918  -0.030493  -0.000126  -0.005154  -0.000544  -0.000297
    21  C    0.448152  -0.069838  -0.032447   0.006409  -0.001104   0.013089
    22  H   -0.026706   0.003300  -0.004556  -0.000122   0.000045  -0.000242
    23  C   -0.096686   0.240284   0.004987  -0.022648   0.018114  -0.066137
    24  H    0.013052  -0.049986  -0.000035  -0.003254   0.004645  -0.005708
    25  H   -0.001334  -0.046357  -0.000145  -0.004994  -0.000093   0.006934
    26  C    0.274869  -0.078210  -0.027203   0.009129  -0.011268   0.024348
    27  H   -0.031760   0.012418  -0.003944  -0.000141   0.000100  -0.000461
    28  H   -0.041756  -0.013936   0.000075  -0.000182  -0.000734   0.003229
               7          8          9         10         11         12
     1  C    0.000008  -0.001342   0.002038  -0.000034  -0.000285  -0.000172
     2  C   -0.000329  -0.011739  -0.066117   0.006927  -0.005636   0.013010
     3  H    0.000003  -0.000090  -0.000004  -0.000001   0.000002  -0.000001
     4  H    0.000297   0.001505  -0.010109  -0.000215   0.000927   0.003143
     5  C    0.428052  -0.049059  -0.048283  -0.001618   0.011597   0.425445
     6  C   -0.029862   0.428906   0.240358  -0.046563  -0.049971  -0.069954
     7  H    0.473331  -0.005164   0.003024   0.000220  -0.000036  -0.030997
     8  H   -0.005164   0.523438  -0.022785  -0.004993  -0.003240   0.006418
     9  C    0.003024  -0.022785   5.049694   0.418613   0.452073   0.031379
    10  H    0.000220  -0.004993   0.418613   0.543942  -0.014138   0.001012
    11  H   -0.000036  -0.003240   0.452073  -0.014138   0.520239  -0.005322
    12  C   -0.030997   0.006418   0.031379   0.001012  -0.005322   5.006019
    13  H   -0.004161  -0.000122   0.000480  -0.000120   0.000027   0.416963
    14  C    0.003971  -0.003018  -0.096546  -0.001290   0.013037   0.448279
    15  H   -0.000124   0.000036   0.004979  -0.000147  -0.000035  -0.032389
    16  C   -0.001184   0.009141   0.320637  -0.026235  -0.055465  -0.046345
    17  H   -0.000023  -0.000183  -0.027056   0.004553  -0.003762  -0.004634
    18  H    0.000053  -0.000141  -0.041515  -0.005501  -0.002908   0.004036
    19  C   -0.000540  -0.002453   0.018228  -0.000083   0.004581  -0.001126
    20  H    0.000003   0.000296   0.002894   0.000261  -0.003317  -0.000029
    21  C   -0.000029   0.003233  -0.004533  -0.000016   0.000044   0.000166
    22  H   -0.000001  -0.000042  -0.000062  -0.000002  -0.000011   0.000000
    23  C    0.002929  -0.010107   0.009034  -0.000192  -0.000011  -0.004574
    24  H   -0.003323   0.000928  -0.000011  -0.000015  -0.000005   0.000050
    25  H    0.000260  -0.000215  -0.000191   0.000013  -0.000014  -0.000017
    26  C   -0.000968   0.002087  -0.002205   0.000057   0.000045   0.001263
    27  H   -0.000026   0.000389   0.000031  -0.000001  -0.000003  -0.000005
    28  H    0.001968  -0.003659   0.000881   0.000010   0.000009  -0.000036
              13         14         15         16         17         18
     1  C   -0.000000   0.000058  -0.000000  -0.000311   0.000045   0.000001
     2  C   -0.000245  -0.012581   0.000179   0.024247   0.003157  -0.000457
     3  H    0.000000  -0.000000  -0.000000   0.000000  -0.000000   0.000000
     4  H   -0.000043  -0.001290  -0.000089   0.002062  -0.003653   0.000389
     5  C   -0.025437  -0.055386   0.003833  -0.003073   0.005368  -0.001813
     6  C    0.003325   0.028394  -0.001642  -0.078114  -0.013957   0.012410
     7  H   -0.004161   0.003971  -0.000124  -0.001184  -0.000023   0.000053
     8  H   -0.000122  -0.003018   0.000036   0.009141  -0.000183  -0.000141
     9  C    0.000480  -0.096546   0.004979   0.320637  -0.027056  -0.041515
    10  H   -0.000120  -0.001290  -0.000147  -0.026235   0.004553  -0.005501
    11  H    0.000027   0.013037  -0.000035  -0.055465  -0.003762  -0.002908
    12  C    0.416963   0.448279  -0.032389  -0.046345  -0.004634   0.004036
    13  H    0.492073  -0.026384  -0.004552   0.003505  -0.000323  -0.000118
    14  C   -0.026384   5.265534   0.428973   0.275039  -0.041874  -0.031775
    15  H   -0.004552   0.428973   0.484593  -0.027174   0.000063  -0.003938
    16  C    0.003505   0.275039  -0.027174   4.981085   0.406337   0.422418
    17  H   -0.000323  -0.041874   0.000063   0.406337   0.574565  -0.022138
    18  H   -0.000118  -0.031775  -0.003938   0.422418  -0.022138   0.539855
    19  C    0.000044   0.001664   0.000002  -0.011298  -0.000693   0.000101
    20  H   -0.000001   0.000005   0.000003  -0.000953   0.001997  -0.000026
    21  C    0.000000  -0.000173  -0.000001   0.001267  -0.000028  -0.000006
    22  H    0.000000  -0.000000   0.000000   0.000002  -0.000005  -0.000001
    23  C   -0.000061   0.002046  -0.000004  -0.002207   0.000881   0.000031
    24  H   -0.000012  -0.000289   0.000002   0.000047   0.000009  -0.000003
    25  H   -0.000002  -0.000033  -0.000001   0.000056   0.000010  -0.000001
    26  C    0.000002  -0.000312   0.000000   0.000496  -0.000059  -0.000001
    27  H   -0.000001   0.000001   0.000000  -0.000001   0.000001  -0.000000
    28  H   -0.000005   0.000046  -0.000000  -0.000060  -0.000002   0.000001
              19         20         21         22         23         24
     1  C   -0.055240   0.003918   0.448152  -0.026706  -0.096686   0.013052
     2  C    0.259153  -0.030493  -0.069838   0.003300   0.240284  -0.049986
     3  H    0.003852  -0.000126  -0.032447  -0.004556   0.004987  -0.000035
     4  H   -0.049163  -0.005154   0.006409  -0.000122  -0.022648  -0.003254
     5  C    0.011780  -0.000544  -0.001104   0.000045   0.018114   0.004645
     6  C   -0.107416  -0.000297   0.013089  -0.000242  -0.066137  -0.005708
     7  H   -0.000540   0.000003  -0.000029  -0.000001   0.002929  -0.003323
     8  H   -0.002453   0.000296   0.003233  -0.000042  -0.010107   0.000928
     9  C    0.018228   0.002894  -0.004533  -0.000062   0.009034  -0.000011
    10  H   -0.000083   0.000261  -0.000016  -0.000002  -0.000192  -0.000015
    11  H    0.004581  -0.003317   0.000044  -0.000011  -0.000011  -0.000005
    12  C   -0.001126  -0.000029   0.000166   0.000000  -0.004574   0.000050
    13  H    0.000044  -0.000001   0.000000   0.000000  -0.000061  -0.000012
    14  C    0.001664   0.000005  -0.000173  -0.000000   0.002046  -0.000289
    15  H    0.000002   0.000003  -0.000001   0.000000  -0.000004   0.000002
    16  C   -0.011298  -0.000953   0.001267   0.000002  -0.002207   0.000047
    17  H   -0.000693   0.001997  -0.000028  -0.000005   0.000881   0.000009
    18  H    0.000101  -0.000026  -0.000006  -0.000001   0.000031  -0.000003
    19  C    5.342300   0.428030   0.425652  -0.025356  -0.048179   0.011617
    20  H    0.428030   0.473723  -0.030417  -0.004170   0.003014  -0.000036
    21  C    0.425652  -0.030417   5.006061   0.417237   0.031547  -0.005338
    22  H   -0.025356  -0.004170   0.417237   0.492142   0.000471   0.000027
    23  C   -0.048179   0.003014   0.031547   0.000471   5.049507   0.452068
    24  H    0.011617  -0.000036  -0.005338   0.000027   0.452068   0.520251
    25  H   -0.001751   0.000217   0.001070  -0.000119   0.418482  -0.014173
    26  C   -0.003231  -0.001161  -0.046217   0.003516   0.320899  -0.055461
    27  H   -0.001823   0.000053   0.004056  -0.000117  -0.041543  -0.002902
    28  H    0.005382  -0.000023  -0.004764  -0.000323  -0.026858  -0.003766
              25         26         27         28
     1  C   -0.001334   0.274869  -0.031760  -0.041756
     2  C   -0.046357  -0.078210   0.012418  -0.013936
     3  H   -0.000145  -0.027203  -0.003944   0.000075
     4  H   -0.004994   0.009129  -0.000141  -0.000182
     5  C   -0.000093  -0.011268   0.000100  -0.000734
     6  C    0.006934   0.024348  -0.000461   0.003229
     7  H    0.000260  -0.000968  -0.000026   0.001968
     8  H   -0.000215   0.002087   0.000389  -0.003659
     9  C   -0.000191  -0.002205   0.000031   0.000881
    10  H    0.000013   0.000057  -0.000001   0.000010
    11  H   -0.000014   0.000045  -0.000003   0.000009
    12  C   -0.000017   0.001263  -0.000005  -0.000036
    13  H   -0.000002   0.000002  -0.000001  -0.000005
    14  C   -0.000033  -0.000312   0.000001   0.000046
    15  H   -0.000001   0.000000   0.000000  -0.000000
    16  C    0.000056   0.000496  -0.000001  -0.000060
    17  H    0.000010  -0.000059   0.000001  -0.000002
    18  H   -0.000001  -0.000001  -0.000000   0.000001
    19  C   -0.001751  -0.003231  -0.001823   0.005382
    20  H    0.000217  -0.001161   0.000053  -0.000023
    21  C    0.001070  -0.046217   0.004056  -0.004764
    22  H   -0.000119   0.003516  -0.000117  -0.000323
    23  C    0.418482   0.320899  -0.041543  -0.026858
    24  H   -0.014173  -0.055461  -0.002902  -0.003766
    25  H    0.543850  -0.026114  -0.005516   0.004543
    26  C   -0.026114   4.981201   0.422362   0.406406
    27  H   -0.005516   0.422362   0.539897  -0.022143
    28  H    0.004543   0.406406  -0.022143   0.573900
          Atomic-Atomic Spin Densities.
               1          2          3          4          5          6
     1  C   -0.692042  -0.006852   0.001118  -0.000050   0.000440  -0.003996
     2  C   -0.006852   0.094143  -0.000190  -0.001587  -0.043271  -0.000066
     3  H    0.001118  -0.000190   0.024610   0.000001   0.000004   0.000034
     4  H   -0.000050  -0.001587   0.000001  -0.010108   0.001438   0.007511
     5  C    0.000440  -0.043271   0.000004   0.001438   0.771083  -0.040076
     6  C   -0.003996  -0.000066   0.000034   0.007511  -0.040076  -0.094285
     7  H    0.000001   0.000676   0.000000  -0.000004  -0.003272   0.000755
     8  H    0.001319  -0.007503   0.000007  -0.000000  -0.000118   0.001607
     9  C   -0.000011  -0.010642   0.000001  -0.001074  -0.005137   0.010390
    10  H   -0.000012   0.000343  -0.000000  -0.000013  -0.001735   0.000022
    11  H    0.000197   0.000798  -0.000000   0.000021   0.000036   0.001108
    12  C    0.000047   0.006643  -0.000000  -0.001039  -0.008101   0.008108
    13  H    0.000000   0.000150  -0.000000  -0.000016  -0.001774   0.000466
    14  C    0.000000   0.004034  -0.000000  -0.001326  -0.059188   0.006931
    15  H    0.000000  -0.000034   0.000000  -0.000007  -0.000394   0.000191
    16  C    0.000015  -0.000818   0.000000   0.001041   0.006705  -0.003887
    17  H   -0.000005  -0.002153   0.000000   0.000226   0.004049  -0.003845
    18  H    0.000000   0.000165  -0.000000  -0.000029  -0.000180   0.001063
    19  C    0.059071   0.040169   0.000393   0.000102  -0.000035   0.043401
    20  H    0.000278  -0.000781  -0.000005  -0.000256  -0.000059  -0.000664
    21  C   -0.008592  -0.008257  -0.000524   0.000941   0.000424  -0.006726
    22  H    0.000935  -0.000470  -0.000249   0.000022   0.000006  -0.000151
    23  C   -0.002601  -0.010226   0.000291  -0.004241  -0.001142   0.010721
    24  H   -0.000140  -0.001120  -0.000004   0.000183   0.000818  -0.000803
    25  H    0.000302  -0.000017   0.000003   0.000102   0.000012  -0.000341
    26  C    0.032721   0.003809  -0.000952  -0.000118  -0.000304   0.000796
    27  H    0.007402  -0.001068  -0.000229   0.000044   0.000027  -0.000164
    28  H    0.021470   0.003855   0.000133  -0.000192   0.000024   0.002142
               7          8          9         10         11         12
     1  C    0.000001   0.001319  -0.000011  -0.000012   0.000197   0.000047
     2  C    0.000676  -0.007503  -0.010642   0.000343   0.000798   0.006643
     3  H    0.000000   0.000007   0.000001  -0.000000  -0.000000  -0.000000
     4  H   -0.000004  -0.000000  -0.001074  -0.000013   0.000021  -0.001039
     5  C   -0.003272  -0.000118  -0.005137  -0.001735   0.000036  -0.008101
     6  C    0.000755   0.001607   0.010390   0.000022   0.001108   0.008108
     7  H   -0.025497   0.000254  -0.000392  -0.000023   0.000007   0.001997
     8  H    0.000254   0.010106   0.004233  -0.000103  -0.000183  -0.000930
     9  C   -0.000392   0.004233   0.006668  -0.000529  -0.001251  -0.002192
    10  H   -0.000023  -0.000103  -0.000529   0.000498   0.000355   0.001085
    11  H    0.000007  -0.000183  -0.001251   0.000355  -0.000162  -0.000065
    12  C    0.001997  -0.000930  -0.002192   0.001085  -0.000065  -0.246394
    13  H    0.000288  -0.000022  -0.000136   0.000016  -0.000000   0.001977
    14  C   -0.000281   0.000047   0.002550  -0.000308   0.000141   0.008678
    15  H    0.000005  -0.000001  -0.000291  -0.000003   0.000004   0.000524
    16  C    0.000044   0.000120   0.007296   0.000346  -0.000069   0.003721
    17  H   -0.000028   0.000192  -0.001428   0.000233  -0.000535  -0.000360
    18  H    0.000004  -0.000044   0.002261  -0.000484   0.000281   0.000625
    19  C    0.000060  -0.001452   0.001006  -0.000015  -0.000790  -0.000395
    20  H   -0.000000   0.000004   0.000224   0.000014  -0.000170   0.000025
    21  C   -0.000025   0.001054  -0.000592  -0.000009   0.000070  -0.000001
    22  H   -0.000000   0.000016  -0.000016   0.000000   0.000008  -0.000000
    23  C   -0.000226   0.001064  -0.000013  -0.000005  -0.000148   0.000614
    24  H    0.000169  -0.000021   0.000149  -0.000000  -0.000000  -0.000072
    25  H   -0.000014   0.000013   0.000004   0.000000   0.000000   0.000009
    26  C    0.000154  -0.001034  -0.000069   0.000004  -0.000025  -0.000158
    27  H    0.000005   0.000029   0.000009  -0.000000   0.000001   0.000004
    28  H   -0.000096  -0.000227  -0.000106  -0.000000  -0.000029  -0.000089
              13         14         15         16         17         18
     1  C    0.000000   0.000000   0.000000   0.000015  -0.000005   0.000000
     2  C    0.000150   0.004034  -0.000034  -0.000818  -0.002153   0.000165
     3  H   -0.000000  -0.000000   0.000000   0.000000   0.000000  -0.000000
     4  H   -0.000016  -0.001326  -0.000007   0.001041   0.000226  -0.000029
     5  C   -0.001774  -0.059188  -0.000394   0.006705   0.004049  -0.000180
     6  C    0.000466   0.006931   0.000191  -0.003887  -0.003845   0.001063
     7  H    0.000288  -0.000281   0.000005   0.000044  -0.000028   0.000004
     8  H   -0.000022   0.000047  -0.000001   0.000120   0.000192  -0.000044
     9  C   -0.000136   0.002550  -0.000291   0.007296  -0.001428   0.002261
    10  H    0.000016  -0.000308  -0.000003   0.000346   0.000233  -0.000484
    11  H   -0.000000   0.000141   0.000004  -0.000069  -0.000535   0.000281
    12  C    0.001977   0.008678   0.000524   0.003721  -0.000360   0.000625
    13  H    0.009027  -0.000915   0.000249   0.000090  -0.000052   0.000020
    14  C   -0.000915   0.692032  -0.001120  -0.032639  -0.021548  -0.007388
    15  H    0.000249  -0.001120  -0.024610   0.000954  -0.000135   0.000230
    16  C    0.000090  -0.032639   0.000954  -0.036586   0.011680   0.005062
    17  H   -0.000052  -0.021548  -0.000135   0.011680   0.055177  -0.008624
    18  H    0.000020  -0.007388   0.000230   0.005062  -0.008624   0.021310
    19  C   -0.000006  -0.000455  -0.000004   0.000345  -0.000027  -0.000027
    20  H    0.000000  -0.000002  -0.000000  -0.000153   0.000099  -0.000006
    21  C    0.000000  -0.000048   0.000000   0.000157   0.000093  -0.000004
    22  H   -0.000000  -0.000000   0.000000   0.000002   0.000001  -0.000000
    23  C    0.000017   0.000012  -0.000001   0.000075   0.000104  -0.000009
    24  H   -0.000008  -0.000199   0.000000   0.000025   0.000029  -0.000001
    25  H   -0.000000   0.000012   0.000000  -0.000004   0.000000   0.000000
    26  C   -0.000002  -0.000016  -0.000000   0.000000   0.000005  -0.000000
    27  H    0.000000  -0.000000   0.000000   0.000000   0.000000   0.000000
    28  H   -0.000001   0.000004  -0.000000  -0.000004  -0.000000  -0.000000
              19         20         21         22         23         24
     1  C    0.059071   0.000278  -0.008592   0.000935  -0.002601  -0.000140
     2  C    0.040169  -0.000781  -0.008257  -0.000470  -0.010226  -0.001120
     3  H    0.000393  -0.000005  -0.000524  -0.000249   0.000291  -0.000004
     4  H    0.000102  -0.000256   0.000941   0.000022  -0.004241   0.000183
     5  C   -0.000035  -0.000059   0.000424   0.000006  -0.001142   0.000818
     6  C    0.043401  -0.000664  -0.006726  -0.000151   0.010721  -0.000803
     7  H    0.000060  -0.000000  -0.000025  -0.000000  -0.000226   0.000169
     8  H   -0.001452   0.000004   0.001054   0.000016   0.001064  -0.000021
     9  C    0.001006   0.000224  -0.000592  -0.000016  -0.000013   0.000149
    10  H   -0.000015   0.000014  -0.000009   0.000000  -0.000005  -0.000000
    11  H   -0.000790  -0.000170   0.000070   0.000008  -0.000148  -0.000000
    12  C   -0.000395   0.000025  -0.000001  -0.000000   0.000614  -0.000072
    13  H   -0.000006   0.000000   0.000000  -0.000000   0.000017  -0.000008
    14  C   -0.000455  -0.000002  -0.000048  -0.000000   0.000012  -0.000199
    15  H   -0.000004  -0.000000   0.000000   0.000000  -0.000001   0.000000
    16  C    0.000345  -0.000153   0.000157   0.000002   0.000075   0.000025
    17  H   -0.000027   0.000099   0.000093   0.000001   0.000104   0.000029
    18  H   -0.000027  -0.000006  -0.000004  -0.000000  -0.000009  -0.000001
    19  C   -0.771197   0.003240   0.008326   0.001791   0.005040  -0.000033
    20  H    0.003240   0.025523  -0.001954  -0.000287   0.000387  -0.000007
    21  C    0.008326  -0.001954   0.246177  -0.002005   0.002278   0.000064
    22  H    0.001791  -0.000287  -0.002005  -0.009037   0.000138   0.000000
    23  C    0.005040   0.000387   0.002278   0.000138  -0.006752   0.001252
    24  H   -0.000033  -0.000007   0.000064   0.000000   0.001252   0.000162
    25  H    0.001734   0.000023  -0.001081  -0.000016   0.000525  -0.000355
    26  C   -0.006678  -0.000041  -0.003759  -0.000091  -0.007237   0.000069
    27  H    0.000186  -0.000003  -0.000642  -0.000021  -0.002248  -0.000281
    28  H   -0.004059   0.000028   0.000407   0.000053   0.001390   0.000533
              25         26         27         28
     1  C    0.000302   0.032721   0.007402   0.021470
     2  C   -0.000017   0.003809  -0.001068   0.003855
     3  H    0.000003  -0.000952  -0.000229   0.000133
     4  H    0.000102  -0.000118   0.000044  -0.000192
     5  C    0.000012  -0.000304   0.000027   0.000024
     6  C   -0.000341   0.000796  -0.000164   0.002142
     7  H   -0.000014   0.000154   0.000005  -0.000096
     8  H    0.000013  -0.001034   0.000029  -0.000227
     9  C    0.000004  -0.000069   0.000009  -0.000106
    10  H    0.000000   0.000004  -0.000000  -0.000000
    11  H    0.000000  -0.000025   0.000001  -0.000029
    12  C    0.000009  -0.000158   0.000004  -0.000089
    13  H   -0.000000  -0.000002   0.000000  -0.000001
    14  C    0.000012  -0.000016  -0.000000   0.000004
    15  H    0.000000  -0.000000   0.000000  -0.000000
    16  C   -0.000004   0.000000   0.000000  -0.000004
    17  H    0.000000   0.000005   0.000000  -0.000000
    18  H    0.000000  -0.000000   0.000000  -0.000000
    19  C    0.001734  -0.006678   0.000186  -0.004059
    20  H    0.000023  -0.000041  -0.000003   0.000028
    21  C   -0.001081  -0.003759  -0.000642   0.000407
    22  H   -0.000016  -0.000091  -0.000021   0.000053
    23  C    0.000525  -0.007237  -0.002248   0.001390
    24  H   -0.000355   0.000069  -0.000281   0.000533
    25  H   -0.000498  -0.000344   0.000486  -0.000234
    26  C   -0.000344   0.036509  -0.005053  -0.011691
    27  H    0.000486  -0.005053  -0.021323   0.008613
    28  H   -0.000234  -0.011691   0.008613  -0.055064
 Mulliken charges and spin densities:
               1          2
     1  C   -0.195496  -0.588984
     2  C   -0.124920   0.059729
     3  H    0.147392   0.024441
     4  H    0.141966  -0.008428
     5  C   -0.204950   0.620279
     6  C   -0.125394  -0.059757
     7  H    0.162650  -0.025438
     8  H    0.141976   0.008428
     9  C   -0.234925   0.010912
    10  H    0.125555  -0.000324
    11  H    0.141578  -0.000398
    12  C   -0.161584  -0.225740
    13  H    0.145170   0.009368
    14  C   -0.196097   0.589006
    15  H    0.147435  -0.024442
    16  C   -0.193919  -0.036483
    17  H    0.121408   0.033149
    18  H    0.131048   0.014225
    19  C   -0.204031  -0.620310
    20  H    0.162334   0.025454
    21  C   -0.163073   0.225769
    22  H    0.145096  -0.009369
    23  C   -0.235085  -0.010943
    24  H    0.141620   0.000409
    25  H    0.125636   0.000324
    26  C   -0.194269   0.036494
    27  H    0.131081  -0.014227
    28  H    0.121800  -0.033141
 Sum of Mulliken charges =  -0.00000  -0.00000
[...]
     2  C    0.000508   0.004554  -0.001514   0.005648
     3  H    0.000001  -0.000829  -0.000213   0.000120
     4  H    0.000102  -0.000055   0.000041  -0.000190
     5  C    0.000050  -0.000890   0.000009   0.000331
     6  C   -0.000347   0.000149  -0.000024   0.000658
     7  H   -0.000014   0.000206   0.000006  -0.000130
     8  H    0.000017  -0.000939   0.000010   0.000075
     9  C   -0.000008  -0.000098   0.000012  -0.000136
    10  H    0.000000  -0.000001  -0.000000  -0.000000
    11  H    0.000001  -0.000004   0.000001  -0.000018
    12  C    0.000011  -0.000102   0.000002  -0.000056
    13  H   -0.000000  -0.000001  -0.000000  -0.000001
    14  C    0.000008  -0.000000  -0.000000  -0.000001
    15  H    0.000000  -0.000000   0.000000  -0.000000
    16  C    0.000001   0.000000  -0.000000   0.000004
    17  H    0.000000  -0.000004   0.000000  -0.000000
    18  H    0.000000   0.000000   0.000000  -0.000000
    19  C    0.001448  -0.005483   0.000344  -0.004493
    20  H    0.000018  -0.000073  -0.000005   0.000037
    21  C   -0.001051  -0.003783  -0.000627   0.000568
    22  H   -0.000011  -0.000126  -0.000020   0.000051
    23  C   -0.000285  -0.008913  -0.001408  -0.000282
    24  H   -0.000317  -0.000114  -0.000272   0.000533
    25  H   -0.000327   0.000031   0.000429  -0.000220
    26  C    0.000031   0.039040  -0.005560  -0.009640
    27  H    0.000429  -0.005560  -0.020877   0.008292
    28  H   -0.000220  -0.009640   0.008292  -0.054618
 Mulliken charges and spin densities:
               1          2
     1  C   -0.192032  -0.586664
     2  C   -0.154923   0.060828
     3  H    0.150534   0.024031
     4  H    0.156379  -0.008587
     5  C   -0.211846   0.618155
     6  C   -0.152950  -0.060782
     7  H    0.168387  -0.025001
     8  H    0.154180   0.008585
     9  C   -0.253640   0.010363
    10  H    0.135190  -0.000251
    11  H    0.148756  -0.000073
    12  C   -0.159475  -0.223854
    13  H    0.147823   0.009215
    14  C   -0.191927   0.586584
    15  H    0.150549  -0.024027
    16  C   -0.196269  -0.035362
    17  H    0.125742   0.033290
    18  H    0.135960   0.014209
    19  C   -0.212551  -0.618132
    20  H    0.168945   0.024975
    21  C   -0.159205   0.223885
    22  H    0.147846  -0.009215
    23  C   -0.253325  -0.010353
    24  H    0.148820   0.000079
    25  H    0.134733   0.000251
    26  C   -0.197538   0.035376
    27  H    0.136043  -0.014214
    28  H    0.125793  -0.033314
 Sum of Mulliken charges =  -0.00000   0.00000
 Mulliken charges and spin densities with hydrogens summed into heavy atoms:
               1          2
     1  C   -0.041497  -0.562633
     2  C    0.001456   0.052242
     5  C   -0.043459   0.593154
     6  C    0.001230  -0.052197
     9  C    0.030305   0.010040
    12  C   -0.011652  -0.214638
    14  C   -0.041378   0.562558
    16  C    0.065434   0.012138
    19  C   -0.043606  -0.593157
    21  C   -0.011360   0.214670
    23  C    0.030229  -0.010023
    26  C    0.064298  -0.012152
 Electronic spatial extent (au):  <R**2>=           2169.1061
 Charge=             -0.0000 electrons
 Dipole moment (field-independent basis, Debye):
    X=             -0.0008    Y=             -0.0004    Z=             -0.0019  Tot=              0.0021
 Quadrupole moment (field-independent basis, Debye-Ang):
   XX=            -69.8379   YY=            -69.5599   ZZ=            -74.8637
   XY=             -2.4755   XZ=             -2.8534   YZ=             -0.0889
 Traceless Quadrupole moment (field-independent basis, Debye-Ang):
   XX=              1.5826   YY=              1.8606   ZZ=             -3.4432
   XY=             -2.4755   XZ=             -2.8534   YZ=             -0.0889
 Octapole moment (field-independent basis, Debye-Ang**2):
  XXX=             -0.0224  YYY=             -0.0031  ZZZ=             -0.0046  XYY=             -0.0032
  XXY=             -0.0025  XXZ=             -0.0131  XZZ=              0.0058  YZZ=              0.0046
  YYZ=             -0.0038  XYZ=              0.0123
 Hexadecapole moment (field-independent basis, Debye-Ang**3):
 XXXX=          -1947.7370 YYYY=           -620.6485 ZZZZ=           -282.8383 XXXY=            -85.8261
 XXXZ=           -109.8134 YYYX=            -58.0965 YYYZ=              1.7368 ZZZX=            -58.8455
 ZZZY=             -6.5477 XXYY=           -426.4888 XXZZ=           -403.2297 YYZZ=           -164.8780
 XXYZ=            -19.3965 YYXZ=            -22.5740 ZZXY=            -39.9868
 N-N= 6.953487170746D+02 E-N=-2.473100156664D+03  KE= 4.641202990546D+02
                          Isotropic Fermi Contact Couplings
        Atom                 a.u.       MegaHertz       Gauss      10(-4) cm-1
     1  C(13)             -0.04552     -25.58541      -9.12951      -8.53437
     2  C(13)              0.05693      31.99778      11.41760      10.67331
     3  H(1)               0.00901      20.13141       7.18339       6.71511
     4  H(1)              -0.00429      -9.58857      -3.42144      -3.19840
     5  C(13)              0.04877      27.41529       9.78246       9.14476
     6  C(13)             -0.05694     -32.00310     -11.41950     -10.67508
     7  H(1)              -0.00950     -21.23889      -7.57856      -7.08453
     8  H(1)               0.00429       9.58517       3.42023       3.19727
     9  C(13)              0.00354       1.99025       0.71017       0.66387
    10  H(1)              -0.00030      -0.66707      -0.23803      -0.22251
    11  H(1)              -0.00030      -0.67718      -0.24163      -0.22588
    12  C(13)             -0.04367     -24.54537      -8.75840      -8.18746
    13  H(1)               0.00316       7.06950       2.52257       2.35813
    14  C(13)              0.04551      25.58112       9.12798       8.53294
    15  H(1)              -0.00901     -20.12799      -7.18217      -6.71397
    16  C(13)             -0.01856     -10.43393      -3.72308      -3.48038
    17  H(1)               0.01606      35.89045      12.80660      11.97176
    18  H(1)               0.00677      15.12885       5.39835       5.04644
    19  C(13)             -0.04876     -27.40771      -9.77975      -9.14223
    20  H(1)               0.00950      21.23445       7.57698       7.08305
    21  C(13)              0.04367      24.54586       8.75857       8.18762
    22  H(1)              -0.00316      -7.06980      -2.52268      -2.35823
    23  C(13)             -0.00353      -1.98665      -0.70888      -0.66267
    24  H(1)               0.00030       0.67751       0.24175       0.22599
    25  H(1)               0.00030       0.66850       0.23854       0.22299
    26  C(13)              0.01857      10.43541       3.72362       3.48088
    27  H(1)              -0.00677     -15.13435      -5.40031      -5.04828
    28  H(1)              -0.01606     -35.89410     -12.80791     -11.97298
 --------------------------------------------------------
       Center         ----  Spin Dipole Couplings  ----
                      3XX-RR        3YY-RR        3ZZ-RR
 --------------------------------------------------------
     1   Atom        0.140228      0.352083     -0.492312
     2   Atom       -0.003979     -0.024020      0.027998
     3   Atom       -0.034873      0.044650     -0.009777
     4   Atom       -0.002933     -0.004727      0.007659
     5   Atom       -0.242907     -0.353215      0.596122
     6   Atom        0.003991      0.024025     -0.028016
     7   Atom       -0.019405      0.017277      0.002128
     8   Atom        0.002931      0.004729     -0.007659
     9   Atom       -0.001420      0.008657     -0.007236
    10   Atom       -0.004297      0.003728      0.000569
    11   Atom       -0.005876      0.007164     -0.001288
    12   Atom        0.074440      0.100837     -0.175276
    13   Atom        0.007019     -0.001769     -0.005250
    14   Atom       -0.140165     -0.352028      0.492192
    15   Atom        0.034867     -0.044644      0.009777
    16   Atom       -0.005294      0.002582      0.002713
    17   Atom       -0.008455      0.009201     -0.000746
    18   Atom       -0.006341      0.010713     -0.004372
    19   Atom        0.242838      0.353139     -0.595977
    20   Atom        0.019408     -0.017272     -0.002136
    21   Atom       -0.074434     -0.100848      0.175282
    22   Atom       -0.007016      0.001767      0.005249
    23   Atom        0.001415     -0.008652      0.007237
    24   Atom        0.005876     -0.007163      0.001287
    25   Atom        0.004297     -0.003728     -0.000569
    26   Atom        0.005287     -0.002586     -0.002701
    27   Atom        0.006341     -0.010715      0.004374
    28   Atom        0.008455     -0.009203      0.000748
 --------------------------------------------------------
                        XY            XZ            YZ
 --------------------------------------------------------
     1   Atom        0.001961     -0.407922      0.007593
     2   Atom        0.007806      0.036059      0.017389
     3   Atom       -0.008428      0.018087      0.004940
     4   Atom       -0.005256      0.005410      0.008885
     5   Atom       -0.050441      0.346009     -0.107322
     6   Atom       -0.007802     -0.036054     -0.017393
     7   Atom       -0.043590      0.003320      0.014753
     8   Atom        0.005258     -0.005409     -0.008884
     9   Atom       -0.013979     -0.012621      0.002596
    10   Atom       -0.001245     -0.003506     -0.005792
    11   Atom        0.004679     -0.008223     -0.000047
    12   Atom       -0.007714     -0.127875      0.025403
    13   Atom       -0.007553     -0.007733      0.003224
    14   Atom       -0.001964      0.407885     -0.007596
    15   Atom        0.008426     -0.018087     -0.004940
    16   Atom        0.001925      0.006438     -0.000566
    17   Atom        0.004569      0.001706      0.005442
    18   Atom       -0.002583     -0.000832     -0.002715
    19   Atom        0.050449     -0.345964      0.107331
    20   Atom        0.043580     -0.003317     -0.014755
    21   Atom        0.007713      0.127888     -0.025410
    22   Atom        0.007557      0.007732     -0.003225
    23   Atom        0.013978      0.012618     -0.002591
    24   Atom       -0.004679      0.008224      0.000047
    25   Atom        0.001245      0.003508      0.005791
    26   Atom       -0.001922     -0.006436      0.000575
    27   Atom        0.002583      0.000831      0.002716
    28   Atom       -0.004571     -0.001705     -0.005442
 --------------------------------------------------------


 ---------------------------------------------------------------------------------
              Anisotropic Spin Dipole Couplings in Principal Axis System
 ---------------------------------------------------------------------------------

       Atom             a.u.   MegaHertz   Gauss  10(-4) cm-1        Axes

              Baa    -0.6923   -92.895   -33.147   -30.986  0.4400 -0.0074  0.8980
     1 C(13)  Bbb     0.3399    45.614    16.276    15.215  0.8910  0.1283 -0.4355
              Bcc     0.3523    47.281    16.871    15.771 -0.1120  0.9917  0.0630
 
              Baa    -0.0309    -4.140    -1.477    -1.381  0.4451  0.7472 -0.4935
     2 C(13)  Bbb    -0.0250    -3.361    -1.199    -1.121  0.7262 -0.6236 -0.2893
              Bcc     0.0559     7.501     2.677     2.502  0.5239  0.2296  0.8202
 
              Baa    -0.0454   -24.221    -8.643    -8.079  0.8803  0.1077 -0.4620
     3 H(1)   Bbb    -0.0003    -0.169    -0.060    -0.056  0.4656 -0.0100  0.8849
              Bcc     0.0457    24.390     8.703     8.136 -0.0907  0.9941  0.0589
 
              Baa    -0.0141    -7.503    -2.677    -2.503  0.5479  0.7176 -0.4300
     4 H(1)   Bbb     0.0013     0.719     0.256     0.240  0.8182 -0.5668  0.0965
              Bcc     0.0127     6.785     2.421     2.263  0.1744  0.4047  0.8977
 
              Baa    -0.3778   -50.692   -18.088   -16.909  0.7073  0.6847 -0.1758
     5 C(13)  Bbb    -0.3555   -47.701   -17.021   -15.911 -0.6214  0.7208  0.3072
              Bcc     0.7332    98.393    35.109    32.820  0.3371 -0.1080  0.9353
 
              Baa    -0.0559    -7.502    -2.677    -2.502  0.5237  0.2296  0.8203
     6 C(13)  Bbb     0.0250     3.361     1.199     1.121  0.7265 -0.6233 -0.2893
              Bcc     0.0309     4.141     1.478     1.381  0.4449  0.7475 -0.4933
 
              Baa    -0.0507   -27.033    -9.646    -9.017  0.8024  0.5597 -0.2069
     7 H(1)   Bbb     0.0020     1.081     0.386     0.361  0.2966 -0.0733  0.9522
              Bcc     0.0486    25.952     9.260     8.657 -0.5178  0.8254  0.2249
 
              Baa    -0.0127    -6.784    -2.421    -2.263  0.1743  0.4047  0.8977
     8 H(1)   Bbb    -0.0013    -0.720    -0.257    -0.240  0.8182 -0.5667  0.0966
              Bcc     0.0141     7.504     2.678     2.503  0.5478  0.7177 -0.4299
 
              Baa    -0.0193    -2.587    -0.923    -0.863  0.6918  0.2845  0.6637
     9 C(13)  Bbb    -0.0025    -0.336    -0.120    -0.112 -0.3824 -0.6353  0.6709
              Bcc     0.0218     2.922     1.043     0.975 -0.6125  0.7180  0.3307
 
              Baa    -0.0077    -4.091    -1.460    -1.365  0.7317  0.3707  0.5720
    10 H(1)   Bbb    -0.0006    -0.318    -0.114    -0.106  0.6745 -0.5147 -0.5292
              Bcc     0.0083     4.410     1.573     1.471  0.0982  0.7731 -0.6266
 
              Baa    -0.0128    -6.840    -2.441    -2.282  0.8003 -0.1860  0.5699
    11 H(1)   Bbb     0.0032     1.732     0.618     0.578 -0.4180  0.5083  0.7529
              Bcc     0.0096     5.108     1.823     1.704  0.4298  0.8409 -0.3290
 
              Baa    -0.2304   -30.918   -11.032   -10.313  0.3848 -0.0617  0.9210
    12 C(13)  Bbb     0.0938    12.585     4.491     4.198  0.4279  0.8960 -0.1188
              Bcc     0.1366    18.333     6.542     6.115  0.8178 -0.4398 -0.3711
 
              Baa    -0.0090    -4.815    -1.718    -1.606  0.4695  0.0990  0.8774
    13 H(1)   Bbb    -0.0058    -3.089    -1.102    -1.031  0.3512  0.8908 -0.2884
              Bcc     0.0148     7.904     2.820     2.637  0.8101 -0.4435 -0.3835
 
              Baa    -0.3523   -47.274   -16.868   -15.769 -0.1119  0.9917  0.0629
    14 C(13)  Bbb    -0.3399   -45.606   -16.273   -15.213  0.8910  0.1281 -0.4356
              Bcc     0.6922    92.880    33.142    30.981  0.4401 -0.0074  0.8979
 
              Baa    -0.0457   -24.386    -8.702    -8.134 -0.0907  0.9941  0.0589
    15 H(1)   Bbb     0.0003     0.168     0.060     0.056  0.4657 -0.0100  0.8849
              Bcc     0.0454    24.218     8.642     8.078  0.8803  0.1077 -0.4620
 
              Baa    -0.0092    -1.234    -0.440    -0.412  0.8645 -0.1641 -0.4751
    16 C(13)  Bbb     0.0029     0.383     0.137     0.128  0.0820  0.9786 -0.1888
              Bcc     0.0063     0.851     0.304     0.284  0.4959  0.1243  0.8594
 
              Baa    -0.0096    -5.115    -1.825    -1.706  0.9737 -0.2220 -0.0513
    17 H(1)   Bbb    -0.0031    -1.672    -0.596    -0.558 -0.0406 -0.3907  0.9196
              Bcc     0.0127     6.787     2.422     2.264  0.2242  0.8934  0.3895
 
              Baa    -0.0073    -3.897    -1.390    -1.300  0.8834  0.1911  0.4280
    18 H(1)   Bbb    -0.0042    -2.246    -0.801    -0.749 -0.4491  0.0841  0.8895
              Bcc     0.0115     6.142     2.192     2.049 -0.1340  0.9780 -0.1601
 
              Baa    -0.7331   -98.374   -35.102   -32.814  0.3371 -0.1081  0.9352
    19 C(13)  Bbb     0.3554    47.692    17.018    15.908 -0.6214  0.7207  0.3073
              Bcc     0.3777    50.682    18.085    16.906  0.7073  0.6847 -0.1758
 
              Baa    -0.0486   -25.946    -9.258    -8.655 -0.5177  0.8254  0.2250
    20 H(1)   Bbb    -0.0020    -1.084    -0.387    -0.361  0.2967 -0.0735  0.9521
              Bcc     0.0507    27.030     9.645     9.016  0.8025  0.5597 -0.2068
 
              Baa    -0.1366   -18.334    -6.542    -6.115  0.8178 -0.4399 -0.3711
    21 C(13)  Bbb    -0.0938   -12.586    -4.491    -4.198  0.4280  0.8959 -0.1188
              Bcc     0.2304    30.920    11.033    10.314  0.3848 -0.0617  0.9209
 
              Baa    -0.0148    -7.905    -2.821    -2.637  0.8100 -0.4437 -0.3835
    22 H(1)   Bbb     0.0058     3.090     1.103     1.031  0.3512  0.8907 -0.2887
              Bcc     0.0090     4.815     1.718     1.606  0.4696  0.0991  0.8773
 
              Baa    -0.0218    -2.922    -1.043    -0.975 -0.6126  0.7179  0.3306
    23 C(13)  Bbb     0.0025     0.335     0.120     0.112 -0.3824 -0.6353  0.6709
              Bcc     0.0193     2.587     0.923     0.863  0.6917  0.2846  0.6638
 
              Baa    -0.0096    -5.108    -1.823    -1.704  0.4298  0.8408 -0.3291
    24 H(1)   Bbb    -0.0032    -1.732    -0.618    -0.578 -0.4180  0.5084  0.7529
              Bcc     0.0128     6.840     2.441     2.282  0.8003 -0.1861  0.5699
 
              Baa    -0.0083    -4.409    -1.573    -1.471  0.0984  0.7731 -0.6267
    25 H(1)   Bbb     0.0006     0.317     0.113     0.106  0.6745 -0.5148 -0.5292
              Bcc     0.0077     4.092     1.460     1.365  0.7317  0.3706  0.5721
 
              Baa    -0.0063    -0.850    -0.303    -0.284  0.4962  0.1226  0.8595
    26 C(13)  Bbb    -0.0029    -0.384    -0.137    -0.128  0.0829  0.9788 -0.1874
              Bcc     0.0092     1.234     0.440     0.412  0.8642 -0.1642 -0.4755
 
              Baa    -0.0115    -6.143    -2.192    -2.049 -0.1340  0.9780 -0.1601
    27 H(1)   Bbb     0.0042     2.247     0.802     0.749 -0.4492  0.0841  0.8895
              Bcc     0.0073     3.896     1.390     1.300  0.8833  0.1912  0.4281
 
              Baa    -0.0127    -6.788    -2.422    -2.264  0.2242  0.8934  0.3893
    28 H(1)   Bbb     0.0031     1.673     0.597     0.558 -0.0408 -0.3906  0.9197
              Bcc     0.0096     5.115     1.825     1.706  0.9737 -0.2221 -0.0511
 

 ---------------------------------------------------------------------------------

 No NMR shielding tensors so no spin-rotation constants.
 Leave Link  601 at Tue Aug  4 19:16:45 2020, MaxMem=  6442450944 cpu:               8.2 elap:               0.4
 (Enter /scratch/scicomp/CentOS/7.3.1611/Haswell/software/Gaussian/g16/l9999.exe)
 1\1\GINC-ATLAS-205\SP\UwB97XD\def2TZVP\C12H16\BOCHEN\04-Aug-2020\0\\#p
  uwb97xd guess=mix def2tzvp # scrf=(iefpcm,solvent=Cyclohexane,read) n
 osym 6d 10f\\endo-2 xp-pcm for eta=3\\0,1\C,0,-3.119127,-0.424214,0.24
 875\C,0,-0.411716,-0.117621,-0.690842\H,0,-4.089584,-0.546101,0.713998
 \H,0,0.331104,-0.106248,-1.492216\C,0,1.11322,1.433745,0.656146\C,0,0.
 411716,0.117621,0.690842\H,0,0.575541,2.332289,0.931979\H,0,-0.331104,
 0.106248,1.492216\C,0,1.443013,-0.993893,0.965601\H,0,1.846597,-0.8472
 18,1.971019\H,0,0.957769,-1.971415,0.956603\C,0,2.393256,1.531202,0.12
 958\H,0,2.834891,2.513727,0.002918\C,0,3.119127,0.424214,-0.24875\H,0,
 4.089584,0.546101,-0.713998\C,0,2.592435,-0.960873,-0.043075\H,0,2.254
 014,-1.365839,-1.0064\H,0,3.399024,-1.624515,0.280295\C,0,-1.11322,-1.
 433745,-0.656146\H,0,-0.575541,-2.332289,-0.931979\C,0,-2.393256,-1.53
 1202,-0.12958\H,0,-2.834891,-2.513727,-0.002918\C,0,-1.443013,0.993893
 ,-0.965601\H,0,-0.957769,1.971415,-0.956603\H,0,-1.846597,0.847218,-1.
 971019\C,0,-2.592435,0.960873,0.043075\H,0,-3.399023,1.624515,-0.28029
 5\H,0,-2.254014,1.365839,1.0064\\Version=ES64L-G16RevB.01\HF=-466.7871
 314\S2=1.050869\S2-1=0.\S2A=0.545103\RMSD=6.081e-09\Dipole=-0.0003127,
 -0.0001679,-0.0007384\Quadrupole=1.1766328,1.3832897,-2.5599225,-1.840
 5067,-2.1214227,-0.0660701\PG=CI [X(C12H16)]\\@


 HICKORY, DICKORY, DOCK
 TWO MICE RAN UP THE CLOCK
 THE CLOCK STRUCK ONE...
 THE OTHER ESCAPED WITH MINOR INJURIES.
 Job cpu time:       0 days  1 hours 48 minutes 31.6 seconds.
 Elapsed time:       0 days  0 hours  4 minutes 34.4 seconds.
 File lengths (MBytes):  RWF=    633 Int=      0 D2E=      0 Chk=     24 Scr=      1
 Normal termination of Gaussian 16 at Tue Aug  4 19:16:45 2020.
