 Entering Gaussian System, Link 0=g16
 Input=meso-TS_1_1_xp-Vc.com
 Output=meso-TS_1_1_xp-Vc.log
 Initial command:
 /scratch/scicomp/CentOS/7.3.1611/Haswell/software/Gaussian/g16/l1.exe "/scratch/bochen/cyclohexadiene-dimerization/wb97xd-def2tzvp/xp-pcm/meso/Gau-107568.inp" -scrdir="/scratch/bochen/cyclohexadiene-dimerization/wb97xd-def2tzvp/xp-pcm/meso/"
 Entering Link 1 = /scratch/scicomp/CentOS/7.3.1611/Haswell/software/Gaussian/g16/l1.exe PID=    107569.
  
 Copyright (c) 1988-2017, Gaussian, Inc.  All Rights Reserved.
  
 This is part of the Gaussian(R) 16 program.  It is based on
 the Gaussian(R) 09 system (copyright 2009, Gaussian, Inc.),
 the Gaussian(R) 03 system (copyright 2003, Gaussian, Inc.),
 the Gaussian(R) 98 system (copyright 1998, Gaussian, Inc.),
 the Gaussian(R) 94 system (copyright 1995, Gaussian, Inc.),
 the Gaussian 92(TM) system (copyright 1992, Gaussian, Inc.),
 the Gaussian 90(TM) system (copyright 1990, Gaussian, Inc.),
 the Gaussian 88(TM) system (copyright 1988, Gaussian, Inc.),
 the Gaussian 86(TM) system (copyright 1986, Carnegie Mellon
 University), and the Gaussian 82(TM) system (copyright 1983,
 Carnegie Mellon University). Gaussian is a federally registered
 trademark of Gaussian, Inc.
  
 This software contains proprietary and confidential information,
 including trade secrets, belonging to Gaussian, Inc.
  
 This software is provided under written license and may be
 used, copied, transmitted, or stored only in accord with that
 written license.
  
 The following legend is applicable only to US Government
 contracts under FAR:
  
                    RESTRICTED RIGHTS LEGEND
  
 Use, reproduction and disclosure by the US Government is
 subject to restrictions as set forth in subparagraphs (a)
 and (c) of the Commercial Computer Software - Restricted
 Rights clause in FAR 52.227-19.
  
 Gaussian, Inc.
 340 Quinnipiac St., Bldg. 40, Wallingford CT 06492
  
  
 ---------------------------------------------------------------
 Warning -- This program may not be used in any manner that
 competes with the business of Gaussian, Inc. or will provide
 assistance to any competitor of Gaussian, Inc.  The licensee
 of this program is prohibited from giving any competitor of
 Gaussian, Inc. access to this program.  By using this program,
 the user acknowledges that Gaussian, Inc. is engaged in the
 business of creating and licensing software in the field of
 computational chemistry and represents and warrants to the
 licensee that it is not a competitor of Gaussian, Inc. and that
 it will not use this program in any manner prohibited above.
 ---------------------------------------------------------------
  

 Cite this work as:
 Gaussian 16, Revision B.01,
 M. J. Frisch, G. W. Trucks, H. B. Schlegel, G. E. Scuseria, 
 M. A. Robb, J. R. Cheeseman, G. Scalmani, V. Barone, 
 G. A. Petersson, H. Nakatsuji, X. Li, M. Caricato, A. V. Marenich, 
 J. Bloino, B. G. Janesko, R. Gomperts, B. Mennucci, H. P. Hratchian, 
 J. V. Ortiz, A. F. Izmaylov, J. L. Sonnenberg, D. Williams-Young, 
 F. Ding, F. Lipparini, F. Egidi, J. Goings, B. Peng, A. Petrone, 
 T. Henderson, D. Ranasinghe, V. G. Zakrzewski, J. Gao, N. Rega, 
 G. Zheng, W. Liang, M. Hada, M. Ehara, K. Toyota, R. Fukuda, 
 J. Hasegawa, M. Ishida, T. Nakajima, Y. Honda, O. Kitao, H. Nakai, 
 T. Vreven, K. Throssell, J. A. Montgomery, Jr., J. E. Peralta, 
 F. Ogliaro, M. J. Bearpark, J. J. Heyd, E. N. Brothers, K. N. Kudin, 
 V. N. Staroverov, T. A. Keith, R. Kobayashi, J. Normand, 
 K. Raghavachari, A. P. Rendell, J. C. Burant, S. S. Iyengar, 
 J. Tomasi, M. Cossi, J. M. Millam, M. Klene, C. Adamo, R. Cammi, 
 J. W. Ochterski, R. L. Martin, K. Morokuma, O. Farkas, 
 J. B. Foresman, and D. J. Fox, Gaussian, Inc., Wallingford CT, 2016.
 
 ******************************************
 Gaussian 16:  ES64L-G16RevB.01 20-Dec-2017
                 3-Aug-2020 
 ******************************************
 %chk=meso-TS_1_1_xp-12.chk
 %nproc=24
 Will use up to   24 processors via shared memory.
 %mem=48GB
 ----------------------------------------------------------------------
 #p uwb97xd guess=mix def2tzvp # scrf=(iefpcm,solvent=Cyclohexane,read)
  nosym guess=only pop=none
 ----------------------------------------------------------------------
 1/38=1,40=2,172=1/1;
 2/12=2,15=1,17=6,18=5,40=1/2;
 3/5=44,7=101,11=2,25=1,30=1,70=2203,72=17,74=-58,89=1,116=2/1,2;
 4/13=-1/1;
 99/5=2/99;
 Leave Link    1 at Mon Aug  3 17:31:53 2020, MaxMem=  6442450944 cpu:               2.3 elap:               0.1
 (Enter /scratch/scicomp/CentOS/7.3.1611/Haswell/software/Gaussian/g16/l101.exe)
 -----------------------
 endo-2 xp-pcm for eta=3
 -----------------------
 Symbolic Z-matrix:
 Charge =  0 Multiplicity = 1
 6                    -3.11898  -0.43168   0.24743 
 6                    -0.49895  -0.16098  -0.84214 
 1                    -4.084    -0.54881   0.72591 
 1                     0.35397  -0.11571  -1.51151 
 6                     1.10474   1.4191    0.68091 
 6                     0.49895   0.16098   0.84214 
 1                     0.54438   2.32227   0.8864 
 1                    -0.35397   0.11571   1.51151 
 6                     1.46262  -0.99982   0.98748 
 1                     1.89872  -0.93738   1.99035 
 1                     0.92962  -1.94975   0.93618 
 6                     2.40637   1.52255   0.1181 
 1                     2.82445   2.50923  -0.04555 
 6                     3.11898   0.43168  -0.24743 
 1                     4.084     0.54881  -0.72591 
 6                     2.59228  -0.95858  -0.04339 
 1                     2.24858  -1.35702  -1.00651 
 1                     3.40124  -1.62253   0.271 
 6                    -1.10474  -1.4191   -0.68091 
 1                    -0.54438  -2.32227  -0.8864 
 6                    -2.40637  -1.52255  -0.1181 
 1                    -2.82445  -2.50923   0.04555 
 6                    -1.46262   0.99982  -0.98748 
 1                    -0.92962   1.94975  -0.93618 
 1                    -1.89872   0.93738  -1.99035 
 6                    -2.59228   0.95858   0.04339 
 1                    -3.40124   1.62253  -0.271 
 1                    -2.24858   1.35702   1.00651 
 
 ITRead=  0  0  0  0  0  0  0  0  0  0  0  0  0  0  0  0  0  0  0  0
 ITRead=  0  0  0  0  0  0  0  0
 MicOpt= -1 -1 -1 -1 -1 -1 -1 -1 -1 -1 -1 -1 -1 -1 -1 -1 -1 -1 -1 -1
 MicOpt= -1 -1 -1 -1 -1 -1 -1 -1
 NAtoms=     28 NQM=       28 NQMF=       0 NMMI=      0 NMMIF=      0
                NMic=       0 NMicF=      0.
                    Isotopes and Nuclear Properties:
 (Nuclear quadrupole moments (NQMom) in fm**2, nuclear magnetic moments (NMagM)
  in nuclear magnetons)

  Atom         1           2           3           4           5           6           7           8           9          10
 IAtWgt=          12          12           1           1          12          12           1           1          12           1
 AtmWgt=  12.0000000  12.0000000   1.0078250   1.0078250  12.0000000  12.0000000   1.0078250   1.0078250  12.0000000   1.0078250
 NucSpn=           0           0           1           1           0           0           1           1           0           1
 AtZEff=  -0.0000000  -0.0000000  -0.0000000  -0.0000000  -0.0000000  -0.0000000  -0.0000000  -0.0000000  -0.0000000  -0.0000000
 NQMom=    0.0000000   0.0000000   0.0000000   0.0000000   0.0000000   0.0000000   0.0000000   0.0000000   0.0000000   0.0000000
 NMagM=    0.0000000   0.0000000   2.7928460   2.7928460   0.0000000   0.0000000   2.7928460   2.7928460   0.0000000   2.7928460
 AtZNuc=   6.0000000   6.0000000   1.0000000   1.0000000   6.0000000   6.0000000   1.0000000   1.0000000   6.0000000   1.0000000

  Atom        11          12          13          14          15          16          17          18          19          20
 IAtWgt=           1          12           1          12           1          12           1           1          12           1
 AtmWgt=   1.0078250  12.0000000   1.0078250  12.0000000   1.0078250  12.0000000   1.0078250   1.0078250  12.0000000   1.0078250
 NucSpn=           1           0           1           0           1           0           1           1           0           1
 AtZEff=  -0.0000000  -0.0000000  -0.0000000  -0.0000000  -0.0000000  -0.0000000  -0.0000000  -0.0000000  -0.0000000  -0.0000000
 NQMom=    0.0000000   0.0000000   0.0000000   0.0000000   0.0000000   0.0000000   0.0000000   0.0000000   0.0000000   0.0000000
 NMagM=    2.7928460   0.0000000   2.7928460   0.0000000   2.7928460   0.0000000   2.7928460   2.7928460   0.0000000   2.7928460
 AtZNuc=   1.0000000   6.0000000   1.0000000   6.0000000   1.0000000   6.0000000   1.0000000   1.0000000   6.0000000   1.0000000

  Atom        21          22          23          24          25          26          27          28
 IAtWgt=          12           1          12           1           1          12           1           1
 AtmWgt=  12.0000000   1.0078250  12.0000000   1.0078250   1.0078250  12.0000000   1.0078250   1.0078250
 NucSpn=           0           1           0           1           1           0           1           1
 AtZEff=  -0.0000000  -0.0000000  -0.0000000  -0.0000000  -0.0000000  -0.0000000  -0.0000000  -0.0000000
 NQMom=    0.0000000   0.0000000   0.0000000   0.0000000   0.0000000   0.0000000   0.0000000   0.0000000
 NMagM=    0.0000000   2.7928460   0.0000000   2.7928460   2.7928460   0.0000000   2.7928460   2.7928460
 AtZNuc=   6.0000000   1.0000000   6.0000000   1.0000000   1.0000000   6.0000000   1.0000000   1.0000000
 Leave Link  101 at Mon Aug  3 17:31:53 2020, MaxMem=  6442450944 cpu:               2.5 elap:               0.2
 (Enter /scratch/scicomp/CentOS/7.3.1611/Haswell/software/Gaussian/g16/l202.exe)
                          Input orientation:                          
 ---------------------------------------------------------------------
 Center     Atomic      Atomic             Coordinates (Angstroms)
 Number     Number       Type             X           Y           Z
 ---------------------------------------------------------------------
      1          6           0       -3.118978   -0.431679    0.247428
      2          6           0       -0.498946   -0.160979   -0.842137
      3          1           0       -4.084002   -0.548806    0.725908
      4          1           0        0.353974   -0.115713   -1.511513
      5          6           0        1.104740    1.419096    0.680914
      6          6           0        0.498946    0.160979    0.842137
      7          1           0        0.544380    2.322265    0.886395
      8          1           0       -0.353974    0.115713    1.511513
      9          6           0        1.462618   -0.999815    0.987483
     10          1           0        1.898715   -0.937376    1.990350
     11          1           0        0.929624   -1.949747    0.936184
     12          6           0        2.406372    1.522548    0.118104
     13          1           0        2.824451    2.509227   -0.045547
     14          6           0        3.118978    0.431679   -0.247428
     15          1           0        4.084002    0.548806   -0.725908
     16          6           0        2.592276   -0.958579   -0.043389
     17          1           0        2.248579   -1.357021   -1.006512
     18          1           0        3.401237   -1.622533    0.271000
     19          6           0       -1.104740   -1.419096   -0.680914
     20          1           0       -0.544380   -2.322265   -0.886395
     21          6           0       -2.406372   -1.522548   -0.118104
     22          1           0       -2.824451   -2.509227    0.045547
     23          6           0       -1.462618    0.999815   -0.987483
     24          1           0       -0.929624    1.949747   -0.936184
     25          1           0       -1.898715    0.937376   -1.990350
     26          6           0       -2.592276    0.958579    0.043389
     27          1           0       -3.401236    1.622533   -0.271000
     28          1           0       -2.248578    1.357021    1.006512
 ---------------------------------------------------------------------
                    Distance matrix (angstroms):
                    1          2          3          4          5
     1  C    0.000000
     2  C    2.850438   0.000000
     3  H    1.083482   3.932150   0.000000
     4  H    3.905778   1.085166   4.988913   0.000000
     5  C    4.631746   2.718112   5.549568   2.779573   0.000000
     6  C    3.714067   1.983992   4.639043   2.374288   1.405645
     7  H    4.627384   3.200446   5.448920   3.424902   1.082562
     8  H    3.089142   2.374288   3.869350   3.113428   2.125217
     9  C    4.675626   2.810496   5.571070   2.873275   2.464385
    10  H    5.335799   3.791379   6.127210   3.914639   2.810334
    11  H    4.378367   2.898781   5.209923   3.112278   3.383036
    12  C    5.862186   3.492449   6.839948   3.090613   1.421866
    13  H    6.637704   4.336995   7.594303   3.891352   2.161837
    14  C    6.316832   3.714067   7.334279   3.089142   2.427749
    15  H    7.334279   4.639043   8.368322   3.869350   3.407720
    16  C    5.742876   3.290869   6.732935   2.806387   2.896673
    17  H    5.589212   3.001071   6.614837   2.320646   3.444213
    18  H    6.628114   4.311223   7.575529   3.838446   3.833202
    19  C    2.427749   1.405645   3.407720   2.125217   3.845999
    20  H    3.389458   2.162216   4.274763   2.463064   4.378794
    21  C    1.353298   2.452829   2.115413   3.397099   4.649689
    22  H    2.108010   3.422021   2.427470   4.272673   5.592312
    23  C    2.513505   1.515662   3.493650   2.195226   3.090416
    24  H    3.444619   2.156268   4.353782   2.498950   2.652401
    25  H    2.893269   2.117576   3.789759   2.532368   4.048265
    26  C    1.500621   2.533692   2.227844   3.500316   3.779741
    27  H    2.137340   3.454041   2.484896   4.319951   4.609918
    28  H    2.129144   2.963619   2.660770   3.909306   3.369660
                    6          7          8          9         10
     6  C    0.000000
     7  H    2.162216   0.000000
     8  H    1.085166   2.463064   0.000000
     9  C    1.515662   3.448129   2.195226   0.000000
    10  H    2.117576   3.698405   2.532368   1.095364   0.000000
    11  H    2.156268   4.289636   2.498950   1.090452   1.753653
    12  C    2.452829   2.167218   3.397099   2.829983   3.132770
    13  H    3.422021   2.470262   4.272673   3.903219   4.108642
    14  C    2.850438   3.389458   3.905778   2.513505   2.893269
    15  H    3.932150   4.274763   4.988913   3.493650   3.789759
    16  C    2.533692   3.977727   3.500316   1.529877   2.148853
    17  H    2.963620   4.474878   3.909307   2.172866   3.046258
    18  H    3.454042   4.909356   4.319952   2.158557   2.383941
    19  C    2.718112   4.378794   2.779573   3.090416   4.048265
    20  H    3.200446   5.089189   3.424902   3.047677   4.020235
    21  C    3.492449   4.949600   3.090613   4.057666   4.829263
    22  H    4.336995   5.949736   3.891352   4.641608   5.344275
    23  C    2.810496   3.047677   2.873275   4.056602   4.890681
    24  H    2.898781   2.373447   3.112278   4.257139   4.989948
    25  H    3.791379   4.020235   3.914639   4.890681   5.812155
    26  C    3.290869   3.522628   2.806387   4.600955   5.249219
    27  H    4.311222   4.170980   3.838446   5.667236   6.305261
    28  H    3.001070   2.957489   2.320646   4.396364   4.840685
                   11         12         13         14         15
    11  H    0.000000
    12  C    3.860942   0.000000
    13  H    4.943340   1.084024   0.000000
    14  C    3.444619   1.353298   2.108010   0.000000
    15  H    4.353782   2.115413   2.427470   1.083482   0.000000
    16  C    2.169421   2.493317   3.475570   1.500621   2.227844
    17  H    2.421783   3.095412   4.025290   2.129143   2.660769
    18  H    2.580389   3.302222   4.183817   2.137341   2.484896
    19  C    2.652401   4.649689   5.592312   4.631746   5.549568
    20  H    2.373447   4.949600   5.949736   4.627384   5.448920
    21  C    3.524612   5.700080   6.604694   5.862186   6.839948
    22  H    3.898632   6.604694   7.556671   6.637704   7.594303
    23  C    4.257139   4.057666   4.641608   4.675626   5.571070
    24  H    4.708356   3.524612   3.898632   4.378367   5.209923
    25  H    4.989948   4.829263   5.344275   5.335799   6.127210
    26  C    4.653947   5.030917   5.635011   5.742876   6.732935
    27  H    5.742371   5.821487   6.292554   6.628113   7.575528
    28  H    4.587006   4.741859   5.307545   5.589211   6.614836
                   16         17         18         19         20
    16  C    0.000000
    17  H    1.097492   0.000000
    18  H    1.092746   1.741021   0.000000
    19  C    3.779741   3.369661   4.609919   0.000000
    20  H    3.522628   2.957489   4.170981   1.082562   0.000000
    21  C    5.030917   4.741860   5.821488   1.421866   2.167218
    22  H    5.635011   5.307546   6.292555   2.161837   2.470262
    23  C    4.600955   4.396365   5.667237   2.464385   3.448129
    24  H    4.653947   4.587007   5.742372   3.383036   4.289636
    25  H    5.249219   4.840686   6.305262   2.810334   3.698405
    26  C    5.528346   5.467922   6.529636   2.896673   3.977727
    27  H    6.529635   6.429551   7.556312   3.833201   4.909355
    28  H    5.467921   5.625185   6.429551   3.444212   4.474878
                   21         22         23         24         25
    21  C    0.000000
    22  H    1.084024   0.000000
    23  C    2.829983   3.903219   0.000000
    24  H    3.860942   4.943340   1.090452   0.000000
    25  H    3.132770   4.108642   1.095364   1.753653   0.000000
    26  C    2.493317   3.475570   1.529877   2.169421   2.148853
    27  H    3.302221   4.183817   2.158556   2.580388   2.383941
    28  H    3.095412   4.025290   2.172866   2.421783   3.046258
                   26         27         28
    26  C    0.000000
    27  H    1.092745   0.000000
    28  H    1.097493   1.741021   0.000000
 Symmetry turned off by external request.
 Stoichiometry    C12H16
 Framework group  CI[X(C12H16)]
 Deg. of freedom    39
 Full point group                 CI      NOp   2
 Rotational constants (GHZ):           1.9483341           0.6370922           0.5524173
 Leave Link  202 at Mon Aug  3 17:31:53 2020, MaxMem=  6442450944 cpu:               0.3 elap:               0.1
 (Enter /scratch/scicomp/CentOS/7.3.1611/Haswell/software/Gaussian/g16/l301.exe)
 Standard basis: def2TZVP (5D, 7F)
 Ernie: Thresh=  0.10000D-02 Tol=  0.10000D-05 Strict=F.
   468 basis functions,   740 primitive gaussians,   528 cartesian basis functions
    44 alpha electrons       44 beta electrons
       nuclear repulsion energy       691.7104163567 Hartrees.
 IExCor= 4639 DFT=T Ex+Corr=wB97XD ExCW=0 ScaHFX=  1.000000
 ScaDFX=  1.000000  1.000000  1.000000  1.000000 ScalE2=  1.000000  1.000000
 IRadAn=      5 IRanWt=     -1 IRanGd=            0 ICorTp=0 IEmpDi=121
 HFx  wShort=  0.000000 wLong=  0.200000 cFull=  0.222036 cShort=  0.000000 cLong=  0.777964
 DFx  wShort=  0.000000 wLong=  0.200000 cFull=  0.000000 cShort=  0.000000 cLong=  1.000000
 NAtoms=   28 NActive=   28 NUniq=   28 SFac= 1.00D+00 NAtFMM=   60 NAOKFM=F Big=F
 Integral buffers will be    131072 words long.
 Raffenetti 2 integral format.
 Two-electron integral symmetry is turned off.
 R6Disp:  Grimme-D2 Dispersion energy=       -0.0229094515 Hartrees.
 Nuclear repulsion after empirical dispersion term =      691.6875069052 Hartrees.
 Using the following non-standard input for PCM:
 qrep pcmdoc geomview  nodis nocav g03defaults tsare=0.075
 Warning! Using old PCM defaults because the g03defaults keyword was found.
 These settings can be overridden by following keywords.
 nsfe=28
 NVESolv=36  SolvMW=84.1595   Rsolv=2.815
 eps=2.0165 RhoS=0.7781
 --- end of non-standard input.
 Reading user-defined spheres from input:
 ISph  on   Nord    Re0     Alpha      Xe            Ye            Ze
 --- end of user-defined spheres data.
 ------------------------------------------------------------------------------
 Polarizable Continuum Model (PCM)
 =================================
 Model                : PCM.
 Atomic radii         : UA0 (Simple United Atom Topological Model).
 Polarization charges : Total charges.
 Charge compensation  : None.
 Solution method      : On-the-fly selection.
 Cavity type          : SES (Solvent Excluding Surface) (Alpha=1.000).
 Cavity algorithm     : GePol (RMin=0.200 OFac=0.890).
                        User-defined sphere list used, NSphG=   28.
                        Tesserae with average area of 0.075 Ang**2.
                        Smoothing algorithm: None.
                        Polarization charges: point-like.
                        Self-potential: constant (ISelfS= 1).
                        Self-field    : global E.n sum rule (ISelfD= 3).
 Solvent              : CycloHexane, Eps=   2.016500 Eps(inf)=   2.035188
                        RSolv=   2.815000 Ang.
 ------------------------------------------------------------------------------
 GePol: Number of generator spheres                  =      28
 GePol: Total number of spheres                      =     171
 GePol: Number of exposed spheres                    =     124 ( 72.51%)
 GePol: Number of tesserae                           =    4592
 GePol: Average area of tesserae                     =       0.05 Ang**2
 GePol: Minimum area of tessera                      =   0.10D-02 Ang**2
 GePol: Maximum area of tessera                      =    0.12623 Ang**2
 GePol: Number of small tesserae                     =       0
 GePol: Fraction of small tesserae (<1% of avg)      =       0.00%
 GePol: Total count of vertices                      =   16222
 GePol: Maximum number of vertices in a tessera      =       7
 GePol: Cavity surface area                          =    218.815 Ang**2
 GePol: Cavity volume                                =    245.981 Ang**3
 Leave Link  301 at Mon Aug  3 17:31:54 2020, MaxMem=  6442450944 cpu:               8.7 elap:               0.4
 (Enter /scratch/scicomp/CentOS/7.3.1611/Haswell/software/Gaussian/g16/l302.exe)
 NPDir=0 NMtPBC=     1 NCelOv=     1 NCel=       1 NClECP=     1 NCelD=      1
         NCelK=      1 NCelE2=     1 NClLst=     1 CellRange=     0.0.
 One-electron integrals computed using PRISM.
   1 Symmetry operations used in ECPInt.
 ECPInt:  NShTT=   19306 NPrTT=   56928 LenC2=   18528 LenP2D=   42284.
 LDataN:  DoStor=T MaxTD1= 6 Len=  172
 NBasis=   468 RedAO= T EigKep=  3.32D-05  NBF=   468
 NBsUse=   468 1.00D-06 EigRej= -1.00D+00 NBFU=   468
 Precomputing XC quadrature grid using
 IXCGrd= 4 IRadAn=           5 IRanWt=          -1 IRanGd=           0 AccXCQ= 0.00D+00.
 Generated NRdTot=       0 NPtTot=           0 NUsed=           0 NTot=          32
 NSgBfM=   526   526   526   526   526 MxSgAt=    28 MxSgA2=    28.
 Leave Link  302 at Mon Aug  3 17:31:54 2020, MaxMem=  6442450944 cpu:              12.3 elap:               0.6
 (Enter /scratch/scicomp/CentOS/7.3.1611/Haswell/software/Gaussian/g16/l401.exe)
 ExpMin= 9.52D-02 ExpMax= 1.36D+04 ExpMxC= 4.63D+02 IAcc=3 IRadAn=         5 AccDes= 0.00D+00
 Harris functional with IExCor= 4639 and IRadAn=       5 diagonalized for initial guess.
 HarFok:  IExCor= 4639 AccDes= 0.00D+00 IRadAn=         5 IDoV= 1 UseB2=F ITyADJ=14
 ICtDFT=  3500011 ScaDFX=  1.000000  1.000000  1.000000  1.000000
 FoFCou: FMM=F IPFlag=           0 FMFlag=      100000 FMFlg1=           0
         NFxFlg=           0 DoJE=T BraDBF=F KetDBF=T FulRan=T
         wScrn=  0.000000 ICntrl=       500 IOpCl=  0 I1Cent=   200000004 NGrid=           0
         NMat0=    1 NMatS0=      1 NMatT0=    0 NMatD0=    1 NMtDS0=    0 NMtDT0=    0
 Symmetry not used in FoFCou.
 Harris En= -444.595665137426    
 JPrj=0 DoOrth=F DoCkMO=T.
 Mixing orbitals, IMix= 1 IMixAn=  0 NRI=1 NE=   44 Coef=  7.07106781D-01  7.07106781D-01
 Mixing orbitals, IMix= 1 IMixAn=  0 NRI=1 NE=   44 Coef= -7.07106781D-01  7.07106781D-01
 Initial guess <Sx>= 0.0000 <Sy>= 0.0000 <Sz>= 0.0000 <S**2>= 1.0000 S= 0.6180
 Leave Link  401 at Mon Aug  3 17:31:57 2020, MaxMem=  6442450944 cpu:              48.5 elap:               2.1
 (Enter /scratch/scicomp/CentOS/7.3.1611/Haswell/software/Gaussian/g16/l9999.exe)

 This type of calculation cannot be archived.


 PICNIC:  A SNACK IN THE GRASS.
 Job cpu time:       0 days  0 hours  1 minutes 15.5 seconds.
 Elapsed time:       0 days  0 hours  0 minutes  3.5 seconds.
 File lengths (MBytes):  RWF=    386 Int=      0 D2E=      0 Chk=      1 Scr=      1
 Normal termination of Gaussian 16 at Mon Aug  3 17:31:57 2020.
 Initial command:
 /scratch/scicomp/CentOS/7.3.1611/Haswell/software/Gaussian/g16/l1.exe "/scratch/bochen/cyclohexadiene-dimerization/wb97xd-def2tzvp/xp-pcm/meso/Gau-107568.inp" -scrdir="/scratch/bochen/cyclohexadiene-dimerization/wb97xd-def2tzvp/xp-pcm/meso/"
 Entering Link 1 = /scratch/scicomp/CentOS/7.3.1611/Haswell/software/Gaussian/g16/l1.exe PID=    107731.
  
 Copyright (c) 1988-2017, Gaussian, Inc.  All Rights Reserved.
  
 This is part of the Gaussian(R) 16 program.  It is based on
 the Gaussian(R) 09 system (copyright 2009, Gaussian, Inc.),
 the Gaussian(R) 03 system (copyright 2003, Gaussian, Inc.),
 the Gaussian(R) 98 system (copyright 1998, Gaussian, Inc.),
 the Gaussian(R) 94 system (copyright 1995, Gaussian, Inc.),
 the Gaussian 92(TM) system (copyright 1992, Gaussian, Inc.),
 the Gaussian 90(TM) system (copyright 1990, Gaussian, Inc.),
 the Gaussian 88(TM) system (copyright 1988, Gaussian, Inc.),
 the Gaussian 86(TM) system (copyright 1986, Carnegie Mellon
 University), and the Gaussian 82(TM) system (copyright 1983,
 Carnegie Mellon University). Gaussian is a federally registered
 trademark of Gaussian, Inc.
  
 This software contains proprietary and confidential information,
 including trade secrets, belonging to Gaussian, Inc.
  
 This software is provided under written license and may be
 used, copied, transmitted, or stored only in accord with that
 written license.
  
 The following legend is applicable only to US Government
 contracts under FAR:
  
                    RESTRICTED RIGHTS LEGEND
  
 Use, reproduction and disclosure by the US Government is
 subject to restrictions as set forth in subparagraphs (a)
 and (c) of the Commercial Computer Software - Restricted
 Rights clause in FAR 52.227-19.
  
 Gaussian, Inc.
 340 Quinnipiac St., Bldg. 40, Wallingford CT 06492
  
  
 ---------------------------------------------------------------
 Warning -- This program may not be used in any manner that
 competes with the business of Gaussian, Inc. or will provide
 assistance to any competitor of Gaussian, Inc.  The licensee
 of this program is prohibited from giving any competitor of
 Gaussian, Inc. access to this program.  By using this program,
 the user acknowledges that Gaussian, Inc. is engaged in the
 business of creating and licensing software in the field of
 computational chemistry and represents and warrants to the
 licensee that it is not a competitor of Gaussian, Inc. and that
 it will not use this program in any manner prohibited above.
 ---------------------------------------------------------------
  

 Cite this work as:
 Gaussian 16, Revision B.01,
 M. J. Frisch, G. W. Trucks, H. B. Schlegel, G. E. Scuseria, 
 M. A. Robb, J. R. Cheeseman, G. Scalmani, V. Barone, 
 G. A. Petersson, H. Nakatsuji, X. Li, M. Caricato, A. V. Marenich, 
 J. Bloino, B. G. Janesko, R. Gomperts, B. Mennucci, H. P. Hratchian, 
 J. V. Ortiz, A. F. Izmaylov, J. L. Sonnenberg, D. Williams-Young, 
 F. Ding, F. Lipparini, F. Egidi, J. Goings, B. Peng, A. Petrone, 
 T. Henderson, D. Ranasinghe, V. G. Zakrzewski, J. Gao, N. Rega, 
 G. Zheng, W. Liang, M. Hada, M. Ehara, K. Toyota, R. Fukuda, 
 J. Hasegawa, M. Ishida, T. Nakajima, Y. Honda, O. Kitao, H. Nakai, 
 T. Vreven, K. Throssell, J. A. Montgomery, Jr., J. E. Peralta, 
 F. Ogliaro, M. J. Bearpark, J. J. Heyd, E. N. Brothers, K. N. Kudin, 
 V. N. Staroverov, T. A. Keith, R. Kobayashi, J. Normand, 
 K. Raghavachari, A. P. Rendell, J. C. Burant, S. S. Iyengar, 
 J. Tomasi, M. Cossi, J. M. Millam, M. Klene, C. Adamo, R. Cammi, 
 J. W. Ochterski, R. L. Martin, K. Morokuma, O. Farkas, 
 J. B. Foresman, and D. J. Fox, Gaussian, Inc., Wallingford CT, 2016.
 
 ******************************************
 Gaussian 16:  ES64L-G16RevB.01 20-Dec-2017
                 3-Aug-2020 
 ******************************************
 %chk=meso-TS_1_1_xp-115.chk
 %nproc=24
 Will use up to   24 processors via shared memory.
 %mem=48GB
 ----------------------------------------------------------------------
 #p uwb97xd guess=mix def2tzvp # scrf=(iefpcm,solvent=Cyclohexane,read)
  nosym guess=only pop=none
 ----------------------------------------------------------------------
 1/38=1,40=2,172=1/1;
 2/12=2,15=1,17=6,18=5,40=1/2;
 3/5=44,7=101,11=2,25=1,30=1,70=2203,72=17,74=-58,89=1,116=2/1,2;
 4/13=-1/1;
 99/5=2/99;
 Leave Link    1 at Mon Aug  3 17:31:57 2020, MaxMem=  6442450944 cpu:               1.8 elap:               0.1
 (Enter /scratch/scicomp/CentOS/7.3.1611/Haswell/software/Gaussian/g16/l101.exe)
 -----------------------
 endo-2 xp-pcm for eta=3
 -----------------------
 Symbolic Z-matrix:
 Charge =  0 Multiplicity = 1
 6                    -3.11898  -0.43168   0.24743 
 6                    -0.49895  -0.16098  -0.84214 
 1                    -4.084    -0.54881   0.72591 
 1                     0.35397  -0.11571  -1.51151 
 6                     1.10474   1.4191    0.68091 
 6                     0.49895   0.16098   0.84214 
 1                     0.54438   2.32227   0.8864 
 1                    -0.35397   0.11571   1.51151 
 6                     1.46262  -0.99982   0.98748 
 1                     1.89872  -0.93738   1.99035 
 1                     0.92962  -1.94975   0.93618 
 6                     2.40637   1.52255   0.1181 
 1                     2.82445   2.50923  -0.04555 
 6                     3.11898   0.43168  -0.24743 
 1                     4.084     0.54881  -0.72591 
 6                     2.59228  -0.95858  -0.04339 
 1                     2.24858  -1.35702  -1.00651 
 1                     3.40124  -1.62253   0.271 
 6                    -1.10474  -1.4191   -0.68091 
 1                    -0.54438  -2.32227  -0.8864 
 6                    -2.40637  -1.52255  -0.1181 
 1                    -2.82445  -2.50923   0.04555 
 6                    -1.46262   0.99982  -0.98748 
 1                    -0.92962   1.94975  -0.93618 
 1                    -1.89872   0.93738  -1.99035 
 6                    -2.59228   0.95858   0.04339 
 1                    -3.40124   1.62253  -0.271 
 1                    -2.24858   1.35702   1.00651 
 
 ITRead=  0  0  0  0  0  0  0  0  0  0  0  0  0  0  0  0  0  0  0  0
 ITRead=  0  0  0  0  0  0  0  0
 MicOpt= -1 -1 -1 -1 -1 -1 -1 -1 -1 -1 -1 -1 -1 -1 -1 -1 -1 -1 -1 -1
 MicOpt= -1 -1 -1 -1 -1 -1 -1 -1
 NAtoms=     28 NQM=       28 NQMF=       0 NMMI=      0 NMMIF=      0
                NMic=       0 NMicF=      0.
                    Isotopes and Nuclear Properties:
 (Nuclear quadrupole moments (NQMom) in fm**2, nuclear magnetic moments (NMagM)
  in nuclear magnetons)

  Atom         1           2           3           4           5           6           7           8           9          10
 IAtWgt=          12          12           1           1          12          12           1           1          12           1
 AtmWgt=  12.0000000  12.0000000   1.0078250   1.0078250  12.0000000  12.0000000   1.0078250   1.0078250  12.0000000   1.0078250
 NucSpn=           0           0           1           1           0           0           1           1           0           1
 AtZEff=  -0.0000000  -0.0000000  -0.0000000  -0.0000000  -0.0000000  -0.0000000  -0.0000000  -0.0000000  -0.0000000  -0.0000000
 NQMom=    0.0000000   0.0000000   0.0000000   0.0000000   0.0000000   0.0000000   0.0000000   0.0000000   0.0000000   0.0000000
 NMagM=    0.0000000   0.0000000   2.7928460   2.7928460   0.0000000   0.0000000   2.7928460   2.7928460   0.0000000   2.7928460
 AtZNuc=   6.0000000   6.0000000   1.0000000   1.0000000   6.0000000   6.0000000   1.0000000   1.0000000   6.0000000   1.0000000

  Atom        11          12          13          14          15          16          17          18          19          20
 IAtWgt=           1          12           1          12           1          12           1           1          12           1
 AtmWgt=   1.0078250  12.0000000   1.0078250  12.0000000   1.0078250  12.0000000   1.0078250   1.0078250  12.0000000   1.0078250
 NucSpn=           1           0           1           0           1           0           1           1           0           1
 AtZEff=  -0.0000000  -0.0000000  -0.0000000  -0.0000000  -0.0000000  -0.0000000  -0.0000000  -0.0000000  -0.0000000  -0.0000000
 NQMom=    0.0000000   0.0000000   0.0000000   0.0000000   0.0000000   0.0000000   0.0000000   0.0000000   0.0000000   0.0000000
 NMagM=    2.7928460   0.0000000   2.7928460   0.0000000   2.7928460   0.0000000   2.7928460   2.7928460   0.0000000   2.7928460
 AtZNuc=   1.0000000   6.0000000   1.0000000   6.0000000   1.0000000   6.0000000   1.0000000   1.0000000   6.0000000   1.0000000

  Atom        21          22          23          24          25          26          27          28
 IAtWgt=          12           1          12           1           1          12           1           1
 AtmWgt=  12.0000000   1.0078250  12.0000000   1.0078250   1.0078250  12.0000000   1.0078250   1.0078250
 NucSpn=           0           1           0           1           1           0           1           1
 AtZEff=  -0.0000000  -0.0000000  -0.0000000  -0.0000000  -0.0000000  -0.0000000  -0.0000000  -0.0000000
 NQMom=    0.0000000   0.0000000   0.0000000   0.0000000   0.0000000   0.0000000   0.0000000   0.0000000
 NMagM=    0.0000000   2.7928460   0.0000000   2.7928460   2.7928460   0.0000000   2.7928460   2.7928460
 AtZNuc=   6.0000000   1.0000000   6.0000000   1.0000000   1.0000000   6.0000000   1.0000000   1.0000000
 Leave Link  101 at Mon Aug  3 17:31:57 2020, MaxMem=  6442450944 cpu:               2.4 elap:               0.1
 (Enter /scratch/scicomp/CentOS/7.3.1611/Haswell/software/Gaussian/g16/l202.exe)
                          Input orientation:                          
 ---------------------------------------------------------------------
 Center     Atomic      Atomic             Coordinates (Angstroms)
 Number     Number       Type             X           Y           Z
 ---------------------------------------------------------------------
      1          6           0       -3.118978   -0.431679    0.247428
      2          6           0       -0.498946   -0.160979   -0.842137
      3          1           0       -4.084002   -0.548806    0.725908
      4          1           0        0.353974   -0.115713   -1.511513
      5          6           0        1.104740    1.419096    0.680914
      6          6           0        0.498946    0.160979    0.842137
      7          1           0        0.544380    2.322265    0.886395
      8          1           0       -0.353974    0.115713    1.511513
      9          6           0        1.462618   -0.999815    0.987483
     10          1           0        1.898715   -0.937376    1.990350
     11          1           0        0.929624   -1.949747    0.936184
     12          6           0        2.406372    1.522548    0.118104
     13          1           0        2.824451    2.509227   -0.045547
     14          6           0        3.118978    0.431679   -0.247428
     15          1           0        4.084002    0.548806   -0.725908
     16          6           0        2.592276   -0.958579   -0.043389
     17          1           0        2.248579   -1.357021   -1.006512
     18          1           0        3.401237   -1.622533    0.271000
     19          6           0       -1.104740   -1.419096   -0.680914
     20          1           0       -0.544380   -2.322265   -0.886395
     21          6           0       -2.406372   -1.522548   -0.118104
     22          1           0       -2.824451   -2.509227    0.045547
     23          6           0       -1.462618    0.999815   -0.987483
     24          1           0       -0.929624    1.949747   -0.936184
     25          1           0       -1.898715    0.937376   -1.990350
     26          6           0       -2.592276    0.958579    0.043389
     27          1           0       -3.401236    1.622533   -0.271000
     28          1           0       -2.248578    1.357021    1.006512
 ---------------------------------------------------------------------
                    Distance matrix (angstroms):
                    1          2          3          4          5
     1  C    0.000000
     2  C    2.850438   0.000000
     3  H    1.083482   3.932150   0.000000
     4  H    3.905778   1.085166   4.988913   0.000000
     5  C    4.631746   2.718112   5.549568   2.779573   0.000000
     6  C    3.714067   1.983992   4.639043   2.374288   1.405645
     7  H    4.627384   3.200446   5.448920   3.424902   1.082562
     8  H    3.089142   2.374288   3.869350   3.113428   2.125217
     9  C    4.675626   2.810496   5.571070   2.873275   2.464385
    10  H    5.335799   3.791379   6.127210   3.914639   2.810334
    11  H    4.378367   2.898781   5.209923   3.112278   3.383036
    12  C    5.862186   3.492449   6.839948   3.090613   1.421866
    13  H    6.637704   4.336995   7.594303   3.891352   2.161837
    14  C    6.316832   3.714067   7.334279   3.089142   2.427749
    15  H    7.334279   4.639043   8.368322   3.869350   3.407720
    16  C    5.742876   3.290869   6.732935   2.806387   2.896673
    17  H    5.589212   3.001071   6.614837   2.320646   3.444213
    18  H    6.628114   4.311223   7.575529   3.838446   3.833202
    19  C    2.427749   1.405645   3.407720   2.125217   3.845999
    20  H    3.389458   2.162216   4.274763   2.463064   4.378794
    21  C    1.353298   2.452829   2.115413   3.397099   4.649689
    22  H    2.108010   3.422021   2.427470   4.272673   5.592312
    23  C    2.513505   1.515662   3.493650   2.195226   3.090416
    24  H    3.444619   2.156268   4.353782   2.498950   2.652401
    25  H    2.893269   2.117576   3.789759   2.532368   4.048265
    26  C    1.500621   2.533692   2.227844   3.500316   3.779741
    27  H    2.137340   3.454041   2.484896   4.319951   4.609918
    28  H    2.129144   2.963619   2.660770   3.909306   3.369660
                    6          7          8          9         10
     6  C    0.000000
     7  H    2.162216   0.000000
     8  H    1.085166   2.463064   0.000000
     9  C    1.515662   3.448129   2.195226   0.000000
    10  H    2.117576   3.698405   2.532368   1.095364   0.000000
    11  H    2.156268   4.289636   2.498950   1.090452   1.753653
    12  C    2.452829   2.167218   3.397099   2.829983   3.132770
    13  H    3.422021   2.470262   4.272673   3.903219   4.108642
    14  C    2.850438   3.389458   3.905778   2.513505   2.893269
    15  H    3.932150   4.274763   4.988913   3.493650   3.789759
    16  C    2.533692   3.977727   3.500316   1.529877   2.148853
    17  H    2.963620   4.474878   3.909307   2.172866   3.046258
    18  H    3.454042   4.909356   4.319952   2.158557   2.383941
    19  C    2.718112   4.378794   2.779573   3.090416   4.048265
    20  H    3.200446   5.089189   3.424902   3.047677   4.020235
    21  C    3.492449   4.949600   3.090613   4.057666   4.829263
    22  H    4.336995   5.949736   3.891352   4.641608   5.344275
    23  C    2.810496   3.047677   2.873275   4.056602   4.890681
    24  H    2.898781   2.373447   3.112278   4.257139   4.989948
    25  H    3.791379   4.020235   3.914639   4.890681   5.812155
    26  C    3.290869   3.522628   2.806387   4.600955   5.249219
    27  H    4.311222   4.170980   3.838446   5.667236   6.305261
    28  H    3.001070   2.957489   2.320646   4.396364   4.840685
                   11         12         13         14         15
    11  H    0.000000
    12  C    3.860942   0.000000
    13  H    4.943340   1.084024   0.000000
    14  C    3.444619   1.353298   2.108010   0.000000
    15  H    4.353782   2.115413   2.427470   1.083482   0.000000
    16  C    2.169421   2.493317   3.475570   1.500621   2.227844
    17  H    2.421783   3.095412   4.025290   2.129143   2.660769
    18  H    2.580389   3.302222   4.183817   2.137341   2.484896
    19  C    2.652401   4.649689   5.592312   4.631746   5.549568
    20  H    2.373447   4.949600   5.949736   4.627384   5.448920
    21  C    3.524612   5.700080   6.604694   5.862186   6.839948
    22  H    3.898632   6.604694   7.556671   6.637704   7.594303
    23  C    4.257139   4.057666   4.641608   4.675626   5.571070
    24  H    4.708356   3.524612   3.898632   4.378367   5.209923
    25  H    4.989948   4.829263   5.344275   5.335799   6.127210
    26  C    4.653947   5.030917   5.635011   5.742876   6.732935
    27  H    5.742371   5.821487   6.292554   6.628113   7.575528
    28  H    4.587006   4.741859   5.307545   5.589211   6.614836
                   16         17         18         19         20
    16  C    0.000000
    17  H    1.097492   0.000000
    18  H    1.092746   1.741021   0.000000
    19  C    3.779741   3.369661   4.609919   0.000000
    20  H    3.522628   2.957489   4.170981   1.082562   0.000000
    21  C    5.030917   4.741860   5.821488   1.421866   2.167218
    22  H    5.635011   5.307546   6.292555   2.161837   2.470262
    23  C    4.600955   4.396365   5.667237   2.464385   3.448129
    24  H    4.653947   4.587007   5.742372   3.383036   4.289636
    25  H    5.249219   4.840686   6.305262   2.810334   3.698405
    26  C    5.528346   5.467922   6.529636   2.896673   3.977727
    27  H    6.529635   6.429551   7.556312   3.833201   4.909355
    28  H    5.467921   5.625185   6.429551   3.444212   4.474878
                   21         22         23         24         25
    21  C    0.000000
    22  H    1.084024   0.000000
    23  C    2.829983   3.903219   0.000000
    24  H    3.860942   4.943340   1.090452   0.000000
    25  H    3.132770   4.108642   1.095364   1.753653   0.000000
    26  C    2.493317   3.475570   1.529877   2.169421   2.148853
    27  H    3.302221   4.183817   2.158556   2.580388   2.383941
    28  H    3.095412   4.025290   2.172866   2.421783   3.046258
                   26         27         28
    26  C    0.000000
    27  H    1.092745   0.000000
    28  H    1.097493   1.741021   0.000000
 Symmetry turned off by external request.
 Stoichiometry    C12H16
 Framework group  CI[X(C12H16)]
 Deg. of freedom    39
 Full point group                 CI      NOp   2
 Rotational constants (GHZ):           1.9483341           0.6370922           0.5524173
 Leave Link  202 at Mon Aug  3 17:31:57 2020, MaxMem=  6442450944 cpu:               0.3 elap:               0.1
 (Enter /scratch/scicomp/CentOS/7.3.1611/Haswell/software/Gaussian/g16/l301.exe)
 Standard basis: def2TZVP (5D, 7F)
 Ernie: Thresh=  0.10000D-02 Tol=  0.10000D-05 Strict=F.
   468 basis functions,   740 primitive gaussians,   528 cartesian basis functions
    44 alpha electrons       44 beta electrons
       nuclear repulsion energy       691.7104163567 Hartrees.
 IExCor= 4639 DFT=T Ex+Corr=wB97XD ExCW=0 ScaHFX=  1.000000
 ScaDFX=  1.000000  1.000000  1.000000  1.000000 ScalE2=  1.000000  1.000000
 IRadAn=      5 IRanWt=     -1 IRanGd=            0 ICorTp=0 IEmpDi=121
 HFx  wShort=  0.000000 wLong=  0.200000 cFull=  0.222036 cShort=  0.000000 cLong=  0.777964
 DFx  wShort=  0.000000 wLong=  0.200000 cFull=  0.000000 cShort=  0.000000 cLong=  1.000000
 NAtoms=   28 NActive=   28 NUniq=   28 SFac= 1.00D+00 NAtFMM=   60 NAOKFM=F Big=F
 Integral buffers will be    131072 words long.
 Raffenetti 2 integral format.
 Two-electron integral symmetry is turned off.
 R6Disp:  Grimme-D2 Dispersion energy=       -0.0229094515 Hartrees.
 Nuclear repulsion after empirical dispersion term =      691.6875069052 Hartrees.
 Using the following non-standard input for PCM:
 qrep pcmdoc geomview  nodis nocav g03defaults tsare=0.075
 Warning! Using old PCM defaults because the g03defaults keyword was found.
 These settings can be overridden by following keywords.
 nsfe=28
 NVESolv=36  SolvMW=84.1595   Rsolv=2.815
 eps=2.0165 RhoS=0.7781
 --- end of non-standard input.
 Reading user-defined spheres from input:
 ISph  on   Nord    Re0     Alpha      Xe            Ye            Ze
 --- end of user-defined spheres data.
 ------------------------------------------------------------------------------
 Polarizable Continuum Model (PCM)
 =================================
 Model                : PCM.
 Atomic radii         : UA0 (Simple United Atom Topological Model).
 Polarization charges : Total charges.
 Charge compensation  : None.
 Solution method      : On-the-fly selection.
 Cavity type          : SES (Solvent Excluding Surface) (Alpha=1.000).
 Cavity algorithm     : GePol (RMin=0.200 OFac=0.890).
                        User-defined sphere list used, NSphG=   28.
                        Tesserae with average area of 0.075 Ang**2.
                        Smoothing algorithm: None.
                        Polarization charges: point-like.
                        Self-potential: constant (ISelfS= 1).
                        Self-field    : global E.n sum rule (ISelfD= 3).
 Solvent              : CycloHexane, Eps=   2.016500 Eps(inf)=   2.035188
                        RSolv=   2.815000 Ang.
 ------------------------------------------------------------------------------
 GePol: Number of generator spheres                  =      28
 GePol: Total number of spheres                      =     205
 GePol: Number of exposed spheres                    =     147 ( 71.71%)
 GePol: Number of tesserae                           =    4792
 GePol: Average area of tesserae                     =       0.04 Ang**2
 GePol: Minimum area of tessera                      =   0.10D-02 Ang**2
 GePol: Maximum area of tessera                      =    0.11576 Ang**2
 GePol: Number of small tesserae                     =       0
 GePol: Fraction of small tesserae (<1% of avg)      =       0.00%
 GePol: Total count of vertices                      =   17016
 GePol: Maximum number of vertices in a tessera      =       9
 GePol: Cavity surface area                          =    211.349 Ang**2
 GePol: Cavity volume                                =    231.702 Ang**3
 Leave Link  301 at Mon Aug  3 17:31:58 2020, MaxMem=  6442450944 cpu:               8.6 elap:               0.4
 (Enter /scratch/scicomp/CentOS/7.3.1611/Haswell/software/Gaussian/g16/l302.exe)
 NPDir=0 NMtPBC=     1 NCelOv=     1 NCel=       1 NClECP=     1 NCelD=      1
         NCelK=      1 NCelE2=     1 NClLst=     1 CellRange=     0.0.
 One-electron integrals computed using PRISM.
   1 Symmetry operations used in ECPInt.
 ECPInt:  NShTT=   19306 NPrTT=   56928 LenC2=   18528 LenP2D=   42284.
 LDataN:  DoStor=T MaxTD1= 6 Len=  172
 NBasis=   468 RedAO= T EigKep=  3.32D-05  NBF=   468
 NBsUse=   468 1.00D-06 EigRej= -1.00D+00 NBFU=   468
 Precomputing XC quadrature grid using
 IXCGrd= 4 IRadAn=           5 IRanWt=          -1 IRanGd=           0 AccXCQ= 0.00D+00.
 Generated NRdTot=       0 NPtTot=           0 NUsed=           0 NTot=          32
 NSgBfM=   526   526   526   526   526 MxSgAt=    28 MxSgA2=    28.
 Leave Link  302 at Mon Aug  3 17:31:58 2020, MaxMem=  6442450944 cpu:              12.2 elap:               0.6
 (Enter /scratch/scicomp/CentOS/7.3.1611/Haswell/software/Gaussian/g16/l401.exe)
 ExpMin= 9.52D-02 ExpMax= 1.36D+04 ExpMxC= 4.63D+02 IAcc=3 IRadAn=         5 AccDes= 0.00D+00
 Harris functional with IExCor= 4639 and IRadAn=       5 diagonalized for initial guess.
 HarFok:  IExCor= 4639 AccDes= 0.00D+00 IRadAn=         5 IDoV= 1 UseB2=F ITyADJ=14
 ICtDFT=  3500011 ScaDFX=  1.000000  1.000000  1.000000  1.000000
 FoFCou: FMM=F IPFlag=           0 FMFlag=      100000 FMFlg1=           0
         NFxFlg=           0 DoJE=T BraDBF=F KetDBF=T FulRan=T
         wScrn=  0.000000 ICntrl=       500 IOpCl=  0 I1Cent=   200000004 NGrid=           0
         NMat0=    1 NMatS0=      1 NMatT0=    0 NMatD0=    1 NMtDS0=    0 NMtDT0=    0
 Symmetry not used in FoFCou.
 Harris En= -444.595665137426    
 JPrj=0 DoOrth=F DoCkMO=T.
 Mixing orbitals, IMix= 1 IMixAn=  0 NRI=1 NE=   44 Coef=  7.07106781D-01  7.07106781D-01
 Mixing orbitals, IMix= 1 IMixAn=  0 NRI=1 NE=   44 Coef= -7.07106781D-01  7.07106781D-01
 Initial guess <Sx>= 0.0000 <Sy>= 0.0000 <Sz>= 0.0000 <S**2>= 1.0000 S= 0.6180
 Leave Link  401 at Mon Aug  3 17:32:01 2020, MaxMem=  6442450944 cpu:              48.2 elap:               2.1
 (Enter /scratch/scicomp/CentOS/7.3.1611/Haswell/software/Gaussian/g16/l9999.exe)

 This type of calculation cannot be archived.


 THE DIFFICULTY IN SCIENCE IS OFTEN NOT SO MUCH HOW
 TO MAKE A DISCOVERY BUT RATHER TO KNOW ONE HAS MADE IT.

                                                   -- J. D. BERNAL
 Job cpu time:       0 days  0 hours  1 minutes 14.6 seconds.
 Elapsed time:       0 days  0 hours  0 minutes  3.4 seconds.
 File lengths (MBytes):  RWF=    419 Int=      0 D2E=      0 Chk=      1 Scr=      1
 Normal termination of Gaussian 16 at Mon Aug  3 17:32:01 2020.
 Initial command:
 /scratch/scicomp/CentOS/7.3.1611/Haswell/software/Gaussian/g16/l1.exe "/scratch/bochen/cyclohexadiene-dimerization/wb97xd-def2tzvp/xp-pcm/meso/Gau-107568.inp" -scrdir="/scratch/bochen/cyclohexadiene-dimerization/wb97xd-def2tzvp/xp-pcm/meso/"
 Entering Link 1 = /scratch/scicomp/CentOS/7.3.1611/Haswell/software/Gaussian/g16/l1.exe PID=    107893.
  
 Copyright (c) 1988-2017, Gaussian, Inc.  All Rights Reserved.
  
 This is part of the Gaussian(R) 16 program.  It is based on
 the Gaussian(R) 09 system (copyright 2009, Gaussian, Inc.),
 the Gaussian(R) 03 system (copyright 2003, Gaussian, Inc.),
 the Gaussian(R) 98 system (copyright 1998, Gaussian, Inc.),
 the Gaussian(R) 94 system (copyright 1995, Gaussian, Inc.),
 the Gaussian 92(TM) system (copyright 1992, Gaussian, Inc.),
 the Gaussian 90(TM) system (copyright 1990, Gaussian, Inc.),
 the Gaussian 88(TM) system (copyright 1988, Gaussian, Inc.),
 the Gaussian 86(TM) system (copyright 1986, Carnegie Mellon
 University), and the Gaussian 82(TM) system (copyright 1983,
 Carnegie Mellon University). Gaussian is a federally registered
 trademark of Gaussian, Inc.
  
 This software contains proprietary and confidential information,
 including trade secrets, belonging to Gaussian, Inc.
  
 This software is provided under written license and may be
 used, copied, transmitted, or stored only in accord with that
 written license.
  
 The following legend is applicable only to US Government
 contracts under FAR:
  
                    RESTRICTED RIGHTS LEGEND
  
 Use, reproduction and disclosure by the US Government is
 subject to restrictions as set forth in subparagraphs (a)
 and (c) of the Commercial Computer Software - Restricted
 Rights clause in FAR 52.227-19.
  
 Gaussian, Inc.
 340 Quinnipiac St., Bldg. 40, Wallingford CT 06492
  
  
 ---------------------------------------------------------------
 Warning -- This program may not be used in any manner that
 competes with the business of Gaussian, Inc. or will provide
 assistance to any competitor of Gaussian, Inc.  The licensee
 of this program is prohibited from giving any competitor of
 Gaussian, Inc. access to this program.  By using this program,
 the user acknowledges that Gaussian, Inc. is engaged in the
 business of creating and licensing software in the field of
 computational chemistry and represents and warrants to the
 licensee that it is not a competitor of Gaussian, Inc. and that
 it will not use this program in any manner prohibited above.
 ---------------------------------------------------------------
  

 Cite this work as:
 Gaussian 16, Revision B.01,
 M. J. Frisch, G. W. Trucks, H. B. Schlegel, G. E. Scuseria, 
 M. A. Robb, J. R. Cheeseman, G. Scalmani, V. Barone, 
 G. A. Petersson, H. Nakatsuji, X. Li, M. Caricato, A. V. Marenich, 
 J. Bloino, B. G. Janesko, R. Gomperts, B. Mennucci, H. P. Hratchian, 
 J. V. Ortiz, A. F. Izmaylov, J. L. Sonnenberg, D. Williams-Young, 
 F. Ding, F. Lipparini, F. Egidi, J. Goings, B. Peng, A. Petrone, 
 T. Henderson, D. Ranasinghe, V. G. Zakrzewski, J. Gao, N. Rega, 
 G. Zheng, W. Liang, M. Hada, M. Ehara, K. Toyota, R. Fukuda, 
 J. Hasegawa, M. Ishida, T. Nakajima, Y. Honda, O. Kitao, H. Nakai, 
 T. Vreven, K. Throssell, J. A. Montgomery, Jr., J. E. Peralta, 
 F. Ogliaro, M. J. Bearpark, J. J. Heyd, E. N. Brothers, K. N. Kudin, 
 V. N. Staroverov, T. A. Keith, R. Kobayashi, J. Normand, 
 K. Raghavachari, A. P. Rendell, J. C. Burant, S. S. Iyengar, 
 J. Tomasi, M. Cossi, J. M. Millam, M. Klene, C. Adamo, R. Cammi, 
 J. W. Ochterski, R. L. Martin, K. Morokuma, O. Farkas, 
 J. B. Foresman, and D. J. Fox, Gaussian, Inc., Wallingford CT, 2016.
 
 ******************************************
 Gaussian 16:  ES64L-G16RevB.01 20-Dec-2017
                 3-Aug-2020 
 ******************************************
 %chk=meso-TS_1_1_xp-110.chk
 %nproc=24
 Will use up to   24 processors via shared memory.
 %mem=48GB
 ----------------------------------------------------------------------
 #p uwb97xd guess=mix def2tzvp # scrf=(iefpcm,solvent=Cyclohexane,read)
  nosym guess=only pop=none
 ----------------------------------------------------------------------
 1/38=1,40=2,172=1/1;
 2/12=2,15=1,17=6,18=5,40=1/2;
 3/5=44,7=101,11=2,25=1,30=1,70=2203,72=17,74=-58,89=1,116=2/1,2;
 4/13=-1/1;
 99/5=2/99;
 Leave Link    1 at Mon Aug  3 17:32:01 2020, MaxMem=  6442450944 cpu:               1.8 elap:               0.1
 (Enter /scratch/scicomp/CentOS/7.3.1611/Haswell/software/Gaussian/g16/l101.exe)
 -----------------------
 endo-2 xp-pcm for eta=3
 -----------------------
 Symbolic Z-matrix:
 Charge =  0 Multiplicity = 1
 6                    -3.11898  -0.43168   0.24743 
 6                    -0.49895  -0.16098  -0.84214 
 1                    -4.084    -0.54881   0.72591 
 1                     0.35397  -0.11571  -1.51151 
 6                     1.10474   1.4191    0.68091 
 6                     0.49895   0.16098   0.84214 
 1                     0.54438   2.32227   0.8864 
 1                    -0.35397   0.11571   1.51151 
 6                     1.46262  -0.99982   0.98748 
 1                     1.89872  -0.93738   1.99035 
 1                     0.92962  -1.94975   0.93618 
 6                     2.40637   1.52255   0.1181 
 1                     2.82445   2.50923  -0.04555 
 6                     3.11898   0.43168  -0.24743 
 1                     4.084     0.54881  -0.72591 
 6                     2.59228  -0.95858  -0.04339 
 1                     2.24858  -1.35702  -1.00651 
 1                     3.40124  -1.62253   0.271 
 6                    -1.10474  -1.4191   -0.68091 
 1                    -0.54438  -2.32227  -0.8864 
 6                    -2.40637  -1.52255  -0.1181 
 1                    -2.82445  -2.50923   0.04555 
 6                    -1.46262   0.99982  -0.98748 
 1                    -0.92962   1.94975  -0.93618 
 1                    -1.89872   0.93738  -1.99035 
 6                    -2.59228   0.95858   0.04339 
 1                    -3.40124   1.62253  -0.271 
 1                    -2.24858   1.35702   1.00651 
 
 ITRead=  0  0  0  0  0  0  0  0  0  0  0  0  0  0  0  0  0  0  0  0
 ITRead=  0  0  0  0  0  0  0  0
 MicOpt= -1 -1 -1 -1 -1 -1 -1 -1 -1 -1 -1 -1 -1 -1 -1 -1 -1 -1 -1 -1
 MicOpt= -1 -1 -1 -1 -1 -1 -1 -1
 NAtoms=     28 NQM=       28 NQMF=       0 NMMI=      0 NMMIF=      0
                NMic=       0 NMicF=      0.
                    Isotopes and Nuclear Properties:
 (Nuclear quadrupole moments (NQMom) in fm**2, nuclear magnetic moments (NMagM)
  in nuclear magnetons)

  Atom         1           2           3           4           5           6           7           8           9          10
 IAtWgt=          12          12           1           1          12          12           1           1          12           1
 AtmWgt=  12.0000000  12.0000000   1.0078250   1.0078250  12.0000000  12.0000000   1.0078250   1.0078250  12.0000000   1.0078250
 NucSpn=           0           0           1           1           0           0           1           1           0           1
 AtZEff=  -0.0000000  -0.0000000  -0.0000000  -0.0000000  -0.0000000  -0.0000000  -0.0000000  -0.0000000  -0.0000000  -0.0000000
 NQMom=    0.0000000   0.0000000   0.0000000   0.0000000   0.0000000   0.0000000   0.0000000   0.0000000   0.0000000   0.0000000
 NMagM=    0.0000000   0.0000000   2.7928460   2.7928460   0.0000000   0.0000000   2.7928460   2.7928460   0.0000000   2.7928460
 AtZNuc=   6.0000000   6.0000000   1.0000000   1.0000000   6.0000000   6.0000000   1.0000000   1.0000000   6.0000000   1.0000000

  Atom        11          12          13          14          15          16          17          18          19          20
 IAtWgt=           1          12           1          12           1          12           1           1          12           1
 AtmWgt=   1.0078250  12.0000000   1.0078250  12.0000000   1.0078250  12.0000000   1.0078250   1.0078250  12.0000000   1.0078250
 NucSpn=           1           0           1           0           1           0           1           1           0           1
 AtZEff=  -0.0000000  -0.0000000  -0.0000000  -0.0000000  -0.0000000  -0.0000000  -0.0000000  -0.0000000  -0.0000000  -0.0000000
 NQMom=    0.0000000   0.0000000   0.0000000   0.0000000   0.0000000   0.0000000   0.0000000   0.0000000   0.0000000   0.0000000
 NMagM=    2.7928460   0.0000000   2.7928460   0.0000000   2.7928460   0.0000000   2.7928460   2.7928460   0.0000000   2.7928460
 AtZNuc=   1.0000000   6.0000000   1.0000000   6.0000000   1.0000000   6.0000000   1.0000000   1.0000000   6.0000000   1.0000000

  Atom        21          22          23          24          25          26          27          28
 IAtWgt=          12           1          12           1           1          12           1           1
 AtmWgt=  12.0000000   1.0078250  12.0000000   1.0078250   1.0078250  12.0000000   1.0078250   1.0078250
 NucSpn=           0           1           0           1           1           0           1           1
 AtZEff=  -0.0000000  -0.0000000  -0.0000000  -0.0000000  -0.0000000  -0.0000000  -0.0000000  -0.0000000
 NQMom=    0.0000000   0.0000000   0.0000000   0.0000000   0.0000000   0.0000000   0.0000000   0.0000000
 NMagM=    0.0000000   2.7928460   0.0000000   2.7928460   2.7928460   0.0000000   2.7928460   2.7928460
 AtZNuc=   6.0000000   1.0000000   6.0000000   1.0000000   1.0000000   6.0000000   1.0000000   1.0000000
 Leave Link  101 at Mon Aug  3 17:32:01 2020, MaxMem=  6442450944 cpu:               3.3 elap:               0.2
 (Enter /scratch/scicomp/CentOS/7.3.1611/Haswell/software/Gaussian/g16/l202.exe)
                          Input orientation:                          
 ---------------------------------------------------------------------
 Center     Atomic      Atomic             Coordinates (Angstroms)
 Number     Number       Type             X           Y           Z
 ---------------------------------------------------------------------
      1          6           0       -3.118978   -0.431679    0.247428
      2          6           0       -0.498946   -0.160979   -0.842137
      3          1           0       -4.084002   -0.548806    0.725908
      4          1           0        0.353974   -0.115713   -1.511513
      5          6           0        1.104740    1.419096    0.680914
      6          6           0        0.498946    0.160979    0.842137
      7          1           0        0.544380    2.322265    0.886395
      8          1           0       -0.353974    0.115713    1.511513
      9          6           0        1.462618   -0.999815    0.987483
     10          1           0        1.898715   -0.937376    1.990350
     11          1           0        0.929624   -1.949747    0.936184
     12          6           0        2.406372    1.522548    0.118104
     13          1           0        2.824451    2.509227   -0.045547
     14          6           0        3.118978    0.431679   -0.247428
     15          1           0        4.084002    0.548806   -0.725908
     16          6           0        2.592276   -0.958579   -0.043389
     17          1           0        2.248579   -1.357021   -1.006512
     18          1           0        3.401237   -1.622533    0.271000
     19          6           0       -1.104740   -1.419096   -0.680914
     20          1           0       -0.544380   -2.322265   -0.886395
     21          6           0       -2.406372   -1.522548   -0.118104
     22          1           0       -2.824451   -2.509227    0.045547
     23          6           0       -1.462618    0.999815   -0.987483
     24          1           0       -0.929624    1.949747   -0.936184
     25          1           0       -1.898715    0.937376   -1.990350
     26          6           0       -2.592276    0.958579    0.043389
     27          1           0       -3.401236    1.622533   -0.271000
     28          1           0       -2.248578    1.357021    1.006512
 ---------------------------------------------------------------------
                    Distance matrix (angstroms):
                    1          2          3          4          5
     1  C    0.000000
     2  C    2.850438   0.000000
     3  H    1.083482   3.932150   0.000000
     4  H    3.905778   1.085166   4.988913   0.000000
     5  C    4.631746   2.718112   5.549568   2.779573   0.000000
     6  C    3.714067   1.983992   4.639043   2.374288   1.405645
     7  H    4.627384   3.200446   5.448920   3.424902   1.082562
     8  H    3.089142   2.374288   3.869350   3.113428   2.125217
     9  C    4.675626   2.810496   5.571070   2.873275   2.464385
    10  H    5.335799   3.791379   6.127210   3.914639   2.810334
    11  H    4.378367   2.898781   5.209923   3.112278   3.383036
    12  C    5.862186   3.492449   6.839948   3.090613   1.421866
    13  H    6.637704   4.336995   7.594303   3.891352   2.161837
    14  C    6.316832   3.714067   7.334279   3.089142   2.427749
    15  H    7.334279   4.639043   8.368322   3.869350   3.407720
    16  C    5.742876   3.290869   6.732935   2.806387   2.896673
    17  H    5.589212   3.001071   6.614837   2.320646   3.444213
    18  H    6.628114   4.311223   7.575529   3.838446   3.833202
    19  C    2.427749   1.405645   3.407720   2.125217   3.845999
    20  H    3.389458   2.162216   4.274763   2.463064   4.378794
    21  C    1.353298   2.452829   2.115413   3.397099   4.649689
    22  H    2.108010   3.422021   2.427470   4.272673   5.592312
    23  C    2.513505   1.515662   3.493650   2.195226   3.090416
    24  H    3.444619   2.156268   4.353782   2.498950   2.652401
    25  H    2.893269   2.117576   3.789759   2.532368   4.048265
    26  C    1.500621   2.533692   2.227844   3.500316   3.779741
    27  H    2.137340   3.454041   2.484896   4.319951   4.609918
    28  H    2.129144   2.963619   2.660770   3.909306   3.369660
                    6          7          8          9         10
     6  C    0.000000
     7  H    2.162216   0.000000
     8  H    1.085166   2.463064   0.000000
     9  C    1.515662   3.448129   2.195226   0.000000
    10  H    2.117576   3.698405   2.532368   1.095364   0.000000
    11  H    2.156268   4.289636   2.498950   1.090452   1.753653
    12  C    2.452829   2.167218   3.397099   2.829983   3.132770
    13  H    3.422021   2.470262   4.272673   3.903219   4.108642
    14  C    2.850438   3.389458   3.905778   2.513505   2.893269
    15  H    3.932150   4.274763   4.988913   3.493650   3.789759
    16  C    2.533692   3.977727   3.500316   1.529877   2.148853
    17  H    2.963620   4.474878   3.909307   2.172866   3.046258
    18  H    3.454042   4.909356   4.319952   2.158557   2.383941
    19  C    2.718112   4.378794   2.779573   3.090416   4.048265
    20  H    3.200446   5.089189   3.424902   3.047677   4.020235
    21  C    3.492449   4.949600   3.090613   4.057666   4.829263
    22  H    4.336995   5.949736   3.891352   4.641608   5.344275
    23  C    2.810496   3.047677   2.873275   4.056602   4.890681
    24  H    2.898781   2.373447   3.112278   4.257139   4.989948
    25  H    3.791379   4.020235   3.914639   4.890681   5.812155
    26  C    3.290869   3.522628   2.806387   4.600955   5.249219
    27  H    4.311222   4.170980   3.838446   5.667236   6.305261
    28  H    3.001070   2.957489   2.320646   4.396364   4.840685
                   11         12         13         14         15
    11  H    0.000000
    12  C    3.860942   0.000000
    13  H    4.943340   1.084024   0.000000
    14  C    3.444619   1.353298   2.108010   0.000000
    15  H    4.353782   2.115413   2.427470   1.083482   0.000000
    16  C    2.169421   2.493317   3.475570   1.500621   2.227844
    17  H    2.421783   3.095412   4.025290   2.129143   2.660769
    18  H    2.580389   3.302222   4.183817   2.137341   2.484896
    19  C    2.652401   4.649689   5.592312   4.631746   5.549568
    20  H    2.373447   4.949600   5.949736   4.627384   5.448920
    21  C    3.524612   5.700080   6.604694   5.862186   6.839948
    22  H    3.898632   6.604694   7.556671   6.637704   7.594303
    23  C    4.257139   4.057666   4.641608   4.675626   5.571070
    24  H    4.708356   3.524612   3.898632   4.378367   5.209923
    25  H    4.989948   4.829263   5.344275   5.335799   6.127210
    26  C    4.653947   5.030917   5.635011   5.742876   6.732935
    27  H    5.742371   5.821487   6.292554   6.628113   7.575528
    28  H    4.587006   4.741859   5.307545   5.589211   6.614836
                   16         17         18         19         20
    16  C    0.000000
    17  H    1.097492   0.000000
    18  H    1.092746   1.741021   0.000000
    19  C    3.779741   3.369661   4.609919   0.000000
    20  H    3.522628   2.957489   4.170981   1.082562   0.000000
    21  C    5.030917   4.741860   5.821488   1.421866   2.167218
    22  H    5.635011   5.307546   6.292555   2.161837   2.470262
    23  C    4.600955   4.396365   5.667237   2.464385   3.448129
    24  H    4.653947   4.587007   5.742372   3.383036   4.289636
    25  H    5.249219   4.840686   6.305262   2.810334   3.698405
    26  C    5.528346   5.467922   6.529636   2.896673   3.977727
    27  H    6.529635   6.429551   7.556312   3.833201   4.909355
    28  H    5.467921   5.625185   6.429551   3.444212   4.474878
                   21         22         23         24         25
    21  C    0.000000
    22  H    1.084024   0.000000
    23  C    2.829983   3.903219   0.000000
    24  H    3.860942   4.943340   1.090452   0.000000
    25  H    3.132770   4.108642   1.095364   1.753653   0.000000
    26  C    2.493317   3.475570   1.529877   2.169421   2.148853
    27  H    3.302221   4.183817   2.158556   2.580388   2.383941
    28  H    3.095412   4.025290   2.172866   2.421783   3.046258
                   26         27         28
    26  C    0.000000
    27  H    1.092745   0.000000
    28  H    1.097493   1.741021   0.000000
 Symmetry turned off by external request.
 Stoichiometry    C12H16
 Framework group  CI[X(C12H16)]
 Deg. of freedom    39
 Full point group                 CI      NOp   2
 Rotational constants (GHZ):           1.9483341           0.6370922           0.5524173
 Leave Link  202 at Mon Aug  3 17:32:01 2020, MaxMem=  6442450944 cpu:               0.3 elap:               0.1
 (Enter /scratch/scicomp/CentOS/7.3.1611/Haswell/software/Gaussian/g16/l301.exe)
 Standard basis: def2TZVP (5D, 7F)
 Ernie: Thresh=  0.10000D-02 Tol=  0.10000D-05 Strict=F.
   468 basis functions,   740 primitive gaussians,   528 cartesian basis functions
    44 alpha electrons       44 beta electrons
       nuclear repulsion energy       691.7104163567 Hartrees.
 IExCor= 4639 DFT=T Ex+Corr=wB97XD ExCW=0 ScaHFX=  1.000000
 ScaDFX=  1.000000  1.000000  1.000000  1.000000 ScalE2=  1.000000  1.000000
 IRadAn=      5 IRanWt=     -1 IRanGd=            0 ICorTp=0 IEmpDi=121
 HFx  wShort=  0.000000 wLong=  0.200000 cFull=  0.222036 cShort=  0.000000 cLong=  0.777964
 DFx  wShort=  0.000000 wLong=  0.200000 cFull=  0.000000 cShort=  0.000000 cLong=  1.000000
 NAtoms=   28 NActive=   28 NUniq=   28 SFac= 1.00D+00 NAtFMM=   60 NAOKFM=F Big=F
 Integral buffers will be    131072 words long.
 Raffenetti 2 integral format.
 Two-electron integral symmetry is turned off.
 R6Disp:  Grimme-D2 Dispersion energy=       -0.0229094515 Hartrees.
 Nuclear repulsion after empirical dispersion term =      691.6875069052 Hartrees.
 Using the following non-standard input for PCM:
 qrep pcmdoc geomview  nodis nocav g03defaults tsare=0.075
 Warning! Using old PCM defaults because the g03defaults keyword was found.
 These settings can be overridden by following keywords.
 nsfe=28
 NVESolv=36  SolvMW=84.1595   Rsolv=2.815
 eps=2.0165 RhoS=0.7781
 --- end of non-standard input.
 Reading user-defined spheres from input:
 ISph  on   Nord    Re0     Alpha      Xe            Ye            Ze
 --- end of user-defined spheres data.
 ------------------------------------------------------------------------------
 Polarizable Continuum Model (PCM)
 =================================
 Model                : PCM.
 Atomic radii         : UA0 (Simple United Atom Topological Model).
 Polarization charges : Total charges.
 Charge compensation  : None.
 Solution method      : On-the-fly selection.
 Cavity type          : SES (Solvent Excluding Surface) (Alpha=1.000).
 Cavity algorithm     : GePol (RMin=0.200 OFac=0.890).
                        User-defined sphere list used, NSphG=   28.
                        Tesserae with average area of 0.075 Ang**2.
                        Smoothing algorithm: None.
                        Polarization charges: point-like.
                        Self-potential: constant (ISelfS= 1).
                        Self-field    : global E.n sum rule (ISelfD= 3).
 Solvent              : CycloHexane, Eps=   2.016500 Eps(inf)=   2.035188
                        RSolv=   2.815000 Ang.
 ------------------------------------------------------------------------------
 GePol: Number of generator spheres                  =      28
 GePol: Total number of spheres                      =     259
 GePol: Number of exposed spheres                    =     183 ( 70.66%)
 GePol: Number of tesserae                           =    4643
 GePol: Average area of tesserae                     =       0.04 Ang**2
 GePol: Minimum area of tessera                      =   0.10D-02 Ang**2
 GePol: Maximum area of tessera                      =    0.11641 Ang**2
 GePol: Number of small tesserae                     =       0
 GePol: Fraction of small tesserae (<1% of avg)      =       0.00%
 GePol: Total count of vertices                      =   16737
 GePol: Maximum number of vertices in a tessera      =       7
 GePol: Cavity surface area                          =    204.384 Ang**2
 GePol: Cavity volume                                =    218.007 Ang**3
 Leave Link  301 at Mon Aug  3 17:32:02 2020, MaxMem=  6442450944 cpu:               8.9 elap:               0.4
 (Enter /scratch/scicomp/CentOS/7.3.1611/Haswell/software/Gaussian/g16/l302.exe)
 NPDir=0 NMtPBC=     1 NCelOv=     1 NCel=       1 NClECP=     1 NCelD=      1
         NCelK=      1 NCelE2=     1 NClLst=     1 CellRange=     0.0.
 One-electron integrals computed using PRISM.
   1 Symmetry operations used in ECPInt.
 ECPInt:  NShTT=   19306 NPrTT=   56928 LenC2=   18528 LenP2D=   42284.
 LDataN:  DoStor=T MaxTD1= 6 Len=  172
 NBasis=   468 RedAO= T EigKep=  3.32D-05  NBF=   468
 NBsUse=   468 1.00D-06 EigRej= -1.00D+00 NBFU=   468
 Precomputing XC quadrature grid using
 IXCGrd= 4 IRadAn=           5 IRanWt=          -1 IRanGd=           0 AccXCQ= 0.00D+00.
 Generated NRdTot=       0 NPtTot=           0 NUsed=           0 NTot=          32
 NSgBfM=   526   526   526   526   526 MxSgAt=    28 MxSgA2=    28.
 Leave Link  302 at Mon Aug  3 17:32:03 2020, MaxMem=  6442450944 cpu:              12.1 elap:               0.6
 (Enter /scratch/scicomp/CentOS/7.3.1611/Haswell/software/Gaussian/g16/l401.exe)
 ExpMin= 9.52D-02 ExpMax= 1.36D+04 ExpMxC= 4.63D+02 IAcc=3 IRadAn=         5 AccDes= 0.00D+00
 Harris functional with IExCor= 4639 and IRadAn=       5 diagonalized for initial guess.
 HarFok:  IExCor= 4639 AccDes= 0.00D+00 IRadAn=         5 IDoV= 1 UseB2=F ITyADJ=14
 ICtDFT=  3500011 ScaDFX=  1.000000  1.000000  1.000000  1.000000
 FoFCou: FMM=F IPFlag=           0 FMFlag=      100000 FMFlg1=           0
         NFxFlg=           0 DoJE=T BraDBF=F KetDBF=T FulRan=T
         wScrn=  0.000000 ICntrl=       500 IOpCl=  0 I1Cent=   200000004 NGrid=           0
         NMat0=    1 NMatS0=      1 NMatT0=    0 NMatD0=    1 NMtDS0=    0 NMtDT0=    0
 Symmetry not used in FoFCou.
 Harris En= -444.595665137426    
 JPrj=0 DoOrth=F DoCkMO=T.
 Mixing orbitals, IMix= 1 IMixAn=  0 NRI=1 NE=   44 Coef=  7.07106781D-01  7.07106781D-01
 Mixing orbitals, IMix= 1 IMixAn=  0 NRI=1 NE=   44 Coef= -7.07106781D-01  7.07106781D-01
 Initial guess <Sx>= 0.0000 <Sy>= 0.0000 <Sz>= 0.0000 <S**2>= 1.0000 S= 0.6180
 Leave Link  401 at Mon Aug  3 17:32:05 2020, MaxMem=  6442450944 cpu:              48.4 elap:               2.1
 (Enter /scratch/scicomp/CentOS/7.3.1611/Haswell/software/Gaussian/g16/l9999.exe)

 This type of calculation cannot be archived.


 IT IS BETTER TO THINK YOU ARE HALF DRY THAN TO KNOW YOU
 ARE ALL WET.  -- SNOOPY
 Job cpu time:       0 days  0 hours  1 minutes 16.0 seconds.
 Elapsed time:       0 days  0 hours  0 minutes  3.5 seconds.
 File lengths (MBytes):  RWF=    396 Int=      0 D2E=      0 Chk=      1 Scr=      1
 Normal termination of Gaussian 16 at Mon Aug  3 17:32:05 2020.
 Initial command:
 /scratch/scicomp/CentOS/7.3.1611/Haswell/software/Gaussian/g16/l1.exe "/scratch/bochen/cyclohexadiene-dimerization/wb97xd-def2tzvp/xp-pcm/meso/Gau-107568.inp" -scrdir="/scratch/bochen/cyclohexadiene-dimerization/wb97xd-def2tzvp/xp-pcm/meso/"
 Entering Link 1 = /scratch/scicomp/CentOS/7.3.1611/Haswell/software/Gaussian/g16/l1.exe PID=    108055.
  
 Copyright (c) 1988-2017, Gaussian, Inc.  All Rights Reserved.
  
 This is part of the Gaussian(R) 16 program.  It is based on
 the Gaussian(R) 09 system (copyright 2009, Gaussian, Inc.),
 the Gaussian(R) 03 system (copyright 2003, Gaussian, Inc.),
 the Gaussian(R) 98 system (copyright 1998, Gaussian, Inc.),
 the Gaussian(R) 94 system (copyright 1995, Gaussian, Inc.),
 the Gaussian 92(TM) system (copyright 1992, Gaussian, Inc.),
 the Gaussian 90(TM) system (copyright 1990, Gaussian, Inc.),
 the Gaussian 88(TM) system (copyright 1988, Gaussian, Inc.),
 the Gaussian 86(TM) system (copyright 1986, Carnegie Mellon
 University), and the Gaussian 82(TM) system (copyright 1983,
 Carnegie Mellon University). Gaussian is a federally registered
 trademark of Gaussian, Inc.
  
 This software contains proprietary and confidential information,
 including trade secrets, belonging to Gaussian, Inc.
  
 This software is provided under written license and may be
 used, copied, transmitted, or stored only in accord with that
 written license.
  
 The following legend is applicable only to US Government
 contracts under FAR:
  
                    RESTRICTED RIGHTS LEGEND
  
 Use, reproduction and disclosure by the US Government is
 subject to restrictions as set forth in subparagraphs (a)
 and (c) of the Commercial Computer Software - Restricted
 Rights clause in FAR 52.227-19.
  
 Gaussian, Inc.
 340 Quinnipiac St., Bldg. 40, Wallingford CT 06492
  
  
 ---------------------------------------------------------------
 Warning -- This program may not be used in any manner that
 competes with the business of Gaussian, Inc. or will provide
 assistance to any competitor of Gaussian, Inc.  The licensee
 of this program is prohibited from giving any competitor of
 Gaussian, Inc. access to this program.  By using this program,
 the user acknowledges that Gaussian, Inc. is engaged in the
 business of creating and licensing software in the field of
 computational chemistry and represents and warrants to the
 licensee that it is not a competitor of Gaussian, Inc. and that
 it will not use this program in any manner prohibited above.
 ---------------------------------------------------------------
  

 Cite this work as:
 Gaussian 16, Revision B.01,
 M. J. Frisch, G. W. Trucks, H. B. Schlegel, G. E. Scuseria, 
 M. A. Robb, J. R. Cheeseman, G. Scalmani, V. Barone, 
 G. A. Petersson, H. Nakatsuji, X. Li, M. Caricato, A. V. Marenich, 
 J. Bloino, B. G. Janesko, R. Gomperts, B. Mennucci, H. P. Hratchian, 
 J. V. Ortiz, A. F. Izmaylov, J. L. Sonnenberg, D. Williams-Young, 
 F. Ding, F. Lipparini, F. Egidi, J. Goings, B. Peng, A. Petrone, 
 T. Henderson, D. Ranasinghe, V. G. Zakrzewski, J. Gao, N. Rega, 
 G. Zheng, W. Liang, M. Hada, M. Ehara, K. Toyota, R. Fukuda, 
 J. Hasegawa, M. Ishida, T. Nakajima, Y. Honda, O. Kitao, H. Nakai, 
 T. Vreven, K. Throssell, J. A. Montgomery, Jr., J. E. Peralta, 
 F. Ogliaro, M. J. Bearpark, J. J. Heyd, E. N. Brothers, K. N. Kudin, 
 V. N. Staroverov, T. A. Keith, R. Kobayashi, J. Normand, 
 K. Raghavachari, A. P. Rendell, J. C. Burant, S. S. Iyengar, 
 J. Tomasi, M. Cossi, J. M. Millam, M. Klene, C. Adamo, R. Cammi, 
 J. W. Ochterski, R. L. Martin, K. Morokuma, O. Farkas, 
 J. B. Foresman, and D. J. Fox, Gaussian, Inc., Wallingford CT, 2016.
 
 ******************************************
 Gaussian 16:  ES64L-G16RevB.01 20-Dec-2017
                 3-Aug-2020 
 ******************************************
 %chk=meso-TS_1_1_xp-105.chk
 %nproc=24
 Will use up to   24 processors via shared memory.
 %mem=48GB
 ----------------------------------------------------------------------
 #p uwb97xd guess=mix def2tzvp # scrf=(iefpcm,solvent=Cyclohexane,read)
  nosym guess=only pop=none
 ----------------------------------------------------------------------
 1/38=1,40=2,172=1/1;
 2/12=2,15=1,17=6,18=5,40=1/2;
 3/5=44,7=101,11=2,25=1,30=1,70=2203,72=17,74=-58,89=1,116=2/1,2;
 4/13=-1/1;
 99/5=2/99;
 Leave Link    1 at Mon Aug  3 17:32:05 2020, MaxMem=  6442450944 cpu:               1.8 elap:               0.1
 (Enter /scratch/scicomp/CentOS/7.3.1611/Haswell/software/Gaussian/g16/l101.exe)
 -----------------------
 endo-2 xp-pcm for eta=3
 -----------------------
 Symbolic Z-matrix:
 Charge =  0 Multiplicity = 1
 6                    -3.11898  -0.43168   0.24743 
 6                    -0.49895  -0.16098  -0.84214 
 1                    -4.084    -0.54881   0.72591 
 1                     0.35397  -0.11571  -1.51151 
 6                     1.10474   1.4191    0.68091 
 6                     0.49895   0.16098   0.84214 
 1                     0.54438   2.32227   0.8864 
 1                    -0.35397   0.11571   1.51151 
 6                     1.46262  -0.99982   0.98748 
 1                     1.89872  -0.93738   1.99035 
 1                     0.92962  -1.94975   0.93618 
 6                     2.40637   1.52255   0.1181 
 1                     2.82445   2.50923  -0.04555 
 6                     3.11898   0.43168  -0.24743 
 1                     4.084     0.54881  -0.72591 
 6                     2.59228  -0.95858  -0.04339 
 1                     2.24858  -1.35702  -1.00651 
 1                     3.40124  -1.62253   0.271 
 6                    -1.10474  -1.4191   -0.68091 
 1                    -0.54438  -2.32227  -0.8864 
 6                    -2.40637  -1.52255  -0.1181 
 1                    -2.82445  -2.50923   0.04555 
 6                    -1.46262   0.99982  -0.98748 
 1                    -0.92962   1.94975  -0.93618 
[...]
 6                    -0.49895  -0.16098  -0.84214 
 1                    -4.084    -0.54881   0.72591 
 1                     0.35397  -0.11571  -1.51151 
 6                     1.10474   1.4191    0.68091 
 6                     0.49895   0.16098   0.84214 
 1                     0.54438   2.32227   0.8864 
 1                    -0.35397   0.11571   1.51151 
 6                     1.46262  -0.99982   0.98748 
 1                     1.89872  -0.93738   1.99035 
 1                     0.92962  -1.94975   0.93618 
 6                     2.40637   1.52255   0.1181 
 1                     2.82445   2.50923  -0.04555 
 6                     3.11898   0.43168  -0.24743 
 1                     4.084     0.54881  -0.72591 
 6                     2.59228  -0.95858  -0.04339 
 1                     2.24858  -1.35702  -1.00651 
 1                     3.40124  -1.62253   0.271 
 6                    -1.10474  -1.4191   -0.68091 
 1                    -0.54438  -2.32227  -0.8864 
 6                    -2.40637  -1.52255  -0.1181 
 1                    -2.82445  -2.50923   0.04555 
 6                    -1.46262   0.99982  -0.98748 
 1                    -0.92962   1.94975  -0.93618 
 1                    -1.89872   0.93738  -1.99035 
 6                    -2.59228   0.95858   0.04339 
 1                    -3.40124   1.62253  -0.271 
 1                    -2.24858   1.35702   1.00651 
 
 ITRead=  0  0  0  0  0  0  0  0  0  0  0  0  0  0  0  0  0  0  0  0
 ITRead=  0  0  0  0  0  0  0  0
 MicOpt= -1 -1 -1 -1 -1 -1 -1 -1 -1 -1 -1 -1 -1 -1 -1 -1 -1 -1 -1 -1
 MicOpt= -1 -1 -1 -1 -1 -1 -1 -1
 NAtoms=     28 NQM=       28 NQMF=       0 NMMI=      0 NMMIF=      0
                NMic=       0 NMicF=      0.
                    Isotopes and Nuclear Properties:
 (Nuclear quadrupole moments (NQMom) in fm**2, nuclear magnetic moments (NMagM)
  in nuclear magnetons)

  Atom         1           2           3           4           5           6           7           8           9          10
 IAtWgt=          12          12           1           1          12          12           1           1          12           1
 AtmWgt=  12.0000000  12.0000000   1.0078250   1.0078250  12.0000000  12.0000000   1.0078250   1.0078250  12.0000000   1.0078250
 NucSpn=           0           0           1           1           0           0           1           1           0           1
 AtZEff=  -0.0000000  -0.0000000  -0.0000000  -0.0000000  -0.0000000  -0.0000000  -0.0000000  -0.0000000  -0.0000000  -0.0000000
 NQMom=    0.0000000   0.0000000   0.0000000   0.0000000   0.0000000   0.0000000   0.0000000   0.0000000   0.0000000   0.0000000
 NMagM=    0.0000000   0.0000000   2.7928460   2.7928460   0.0000000   0.0000000   2.7928460   2.7928460   0.0000000   2.7928460
 AtZNuc=   6.0000000   6.0000000   1.0000000   1.0000000   6.0000000   6.0000000   1.0000000   1.0000000   6.0000000   1.0000000

  Atom        11          12          13          14          15          16          17          18          19          20
 IAtWgt=           1          12           1          12           1          12           1           1          12           1
 AtmWgt=   1.0078250  12.0000000   1.0078250  12.0000000   1.0078250  12.0000000   1.0078250   1.0078250  12.0000000   1.0078250
 NucSpn=           1           0           1           0           1           0           1           1           0           1
 AtZEff=  -0.0000000  -0.0000000  -0.0000000  -0.0000000  -0.0000000  -0.0000000  -0.0000000  -0.0000000  -0.0000000  -0.0000000
 NQMom=    0.0000000   0.0000000   0.0000000   0.0000000   0.0000000   0.0000000   0.0000000   0.0000000   0.0000000   0.0000000
 NMagM=    2.7928460   0.0000000   2.7928460   0.0000000   2.7928460   0.0000000   2.7928460   2.7928460   0.0000000   2.7928460
 AtZNuc=   1.0000000   6.0000000   1.0000000   6.0000000   1.0000000   6.0000000   1.0000000   1.0000000   6.0000000   1.0000000

  Atom        21          22          23          24          25          26          27          28
 IAtWgt=          12           1          12           1           1          12           1           1
 AtmWgt=  12.0000000   1.0078250  12.0000000   1.0078250   1.0078250  12.0000000   1.0078250   1.0078250
 NucSpn=           0           1           0           1           1           0           1           1
 AtZEff=  -0.0000000  -0.0000000  -0.0000000  -0.0000000  -0.0000000  -0.0000000  -0.0000000  -0.0000000
 NQMom=    0.0000000   0.0000000   0.0000000   0.0000000   0.0000000   0.0000000   0.0000000   0.0000000
 NMagM=    0.0000000   2.7928460   0.0000000   2.7928460   2.7928460   0.0000000   2.7928460   2.7928460
 AtZNuc=   6.0000000   1.0000000   6.0000000   1.0000000   1.0000000   6.0000000   1.0000000   1.0000000
 Leave Link  101 at Mon Aug  3 17:32:17 2020, MaxMem=  6442450944 cpu:               2.4 elap:               0.1
 (Enter /scratch/scicomp/CentOS/7.3.1611/Haswell/software/Gaussian/g16/l202.exe)
                          Input orientation:                          
 ---------------------------------------------------------------------
 Center     Atomic      Atomic             Coordinates (Angstroms)
 Number     Number       Type             X           Y           Z
 ---------------------------------------------------------------------
      1          6           0       -3.118978   -0.431679    0.247428
      2          6           0       -0.498946   -0.160979   -0.842137
      3          1           0       -4.084002   -0.548806    0.725908
      4          1           0        0.353974   -0.115713   -1.511513
      5          6           0        1.104740    1.419096    0.680914
      6          6           0        0.498946    0.160979    0.842137
      7          1           0        0.544380    2.322265    0.886395
      8          1           0       -0.353974    0.115713    1.511513
      9          6           0        1.462618   -0.999815    0.987483
     10          1           0        1.898715   -0.937376    1.990350
     11          1           0        0.929624   -1.949747    0.936184
     12          6           0        2.406372    1.522548    0.118104
     13          1           0        2.824451    2.509227   -0.045547
     14          6           0        3.118978    0.431679   -0.247428
     15          1           0        4.084002    0.548806   -0.725908
     16          6           0        2.592276   -0.958579   -0.043389
     17          1           0        2.248579   -1.357021   -1.006512
     18          1           0        3.401237   -1.622533    0.271000
     19          6           0       -1.104740   -1.419096   -0.680914
     20          1           0       -0.544380   -2.322265   -0.886395
     21          6           0       -2.406372   -1.522548   -0.118104
     22          1           0       -2.824451   -2.509227    0.045547
     23          6           0       -1.462618    0.999815   -0.987483
     24          1           0       -0.929624    1.949747   -0.936184
     25          1           0       -1.898715    0.937376   -1.990350
     26          6           0       -2.592276    0.958579    0.043389
     27          1           0       -3.401236    1.622533   -0.271000
     28          1           0       -2.248578    1.357021    1.006512
 ---------------------------------------------------------------------
                    Distance matrix (angstroms):
                    1          2          3          4          5
     1  C    0.000000
     2  C    2.850438   0.000000
     3  H    1.083482   3.932150   0.000000
     4  H    3.905778   1.085166   4.988913   0.000000
     5  C    4.631746   2.718112   5.549568   2.779573   0.000000
     6  C    3.714067   1.983992   4.639043   2.374288   1.405645
     7  H    4.627384   3.200446   5.448920   3.424902   1.082562
     8  H    3.089142   2.374288   3.869350   3.113428   2.125217
     9  C    4.675626   2.810496   5.571070   2.873275   2.464385
    10  H    5.335799   3.791379   6.127210   3.914639   2.810334
    11  H    4.378367   2.898781   5.209923   3.112278   3.383036
    12  C    5.862186   3.492449   6.839948   3.090613   1.421866
    13  H    6.637704   4.336995   7.594303   3.891352   2.161837
    14  C    6.316832   3.714067   7.334279   3.089142   2.427749
    15  H    7.334279   4.639043   8.368322   3.869350   3.407720
    16  C    5.742876   3.290869   6.732935   2.806387   2.896673
    17  H    5.589212   3.001071   6.614837   2.320646   3.444213
    18  H    6.628114   4.311223   7.575529   3.838446   3.833202
    19  C    2.427749   1.405645   3.407720   2.125217   3.845999
    20  H    3.389458   2.162216   4.274763   2.463064   4.378794
    21  C    1.353298   2.452829   2.115413   3.397099   4.649689
    22  H    2.108010   3.422021   2.427470   4.272673   5.592312
    23  C    2.513505   1.515662   3.493650   2.195226   3.090416
    24  H    3.444619   2.156268   4.353782   2.498950   2.652401
    25  H    2.893269   2.117576   3.789759   2.532368   4.048265
    26  C    1.500621   2.533692   2.227844   3.500316   3.779741
    27  H    2.137340   3.454041   2.484896   4.319951   4.609918
    28  H    2.129144   2.963619   2.660770   3.909306   3.369660
                    6          7          8          9         10
     6  C    0.000000
     7  H    2.162216   0.000000
     8  H    1.085166   2.463064   0.000000
     9  C    1.515662   3.448129   2.195226   0.000000
    10  H    2.117576   3.698405   2.532368   1.095364   0.000000
    11  H    2.156268   4.289636   2.498950   1.090452   1.753653
    12  C    2.452829   2.167218   3.397099   2.829983   3.132770
    13  H    3.422021   2.470262   4.272673   3.903219   4.108642
    14  C    2.850438   3.389458   3.905778   2.513505   2.893269
    15  H    3.932150   4.274763   4.988913   3.493650   3.789759
    16  C    2.533692   3.977727   3.500316   1.529877   2.148853
    17  H    2.963620   4.474878   3.909307   2.172866   3.046258
    18  H    3.454042   4.909356   4.319952   2.158557   2.383941
    19  C    2.718112   4.378794   2.779573   3.090416   4.048265
    20  H    3.200446   5.089189   3.424902   3.047677   4.020235
    21  C    3.492449   4.949600   3.090613   4.057666   4.829263
    22  H    4.336995   5.949736   3.891352   4.641608   5.344275
    23  C    2.810496   3.047677   2.873275   4.056602   4.890681
    24  H    2.898781   2.373447   3.112278   4.257139   4.989948
    25  H    3.791379   4.020235   3.914639   4.890681   5.812155
    26  C    3.290869   3.522628   2.806387   4.600955   5.249219
    27  H    4.311222   4.170980   3.838446   5.667236   6.305261
    28  H    3.001070   2.957489   2.320646   4.396364   4.840685
                   11         12         13         14         15
    11  H    0.000000
    12  C    3.860942   0.000000
    13  H    4.943340   1.084024   0.000000
    14  C    3.444619   1.353298   2.108010   0.000000
    15  H    4.353782   2.115413   2.427470   1.083482   0.000000
    16  C    2.169421   2.493317   3.475570   1.500621   2.227844
    17  H    2.421783   3.095412   4.025290   2.129143   2.660769
    18  H    2.580389   3.302222   4.183817   2.137341   2.484896
    19  C    2.652401   4.649689   5.592312   4.631746   5.549568
    20  H    2.373447   4.949600   5.949736   4.627384   5.448920
    21  C    3.524612   5.700080   6.604694   5.862186   6.839948
    22  H    3.898632   6.604694   7.556671   6.637704   7.594303
    23  C    4.257139   4.057666   4.641608   4.675626   5.571070
    24  H    4.708356   3.524612   3.898632   4.378367   5.209923
    25  H    4.989948   4.829263   5.344275   5.335799   6.127210
    26  C    4.653947   5.030917   5.635011   5.742876   6.732935
    27  H    5.742371   5.821487   6.292554   6.628113   7.575528
    28  H    4.587006   4.741859   5.307545   5.589211   6.614836
                   16         17         18         19         20
    16  C    0.000000
    17  H    1.097492   0.000000
    18  H    1.092746   1.741021   0.000000
    19  C    3.779741   3.369661   4.609919   0.000000
    20  H    3.522628   2.957489   4.170981   1.082562   0.000000
    21  C    5.030917   4.741860   5.821488   1.421866   2.167218
    22  H    5.635011   5.307546   6.292555   2.161837   2.470262
    23  C    4.600955   4.396365   5.667237   2.464385   3.448129
    24  H    4.653947   4.587007   5.742372   3.383036   4.289636
    25  H    5.249219   4.840686   6.305262   2.810334   3.698405
    26  C    5.528346   5.467922   6.529636   2.896673   3.977727
    27  H    6.529635   6.429551   7.556312   3.833201   4.909355
    28  H    5.467921   5.625185   6.429551   3.444212   4.474878
                   21         22         23         24         25
    21  C    0.000000
    22  H    1.084024   0.000000
    23  C    2.829983   3.903219   0.000000
    24  H    3.860942   4.943340   1.090452   0.000000
    25  H    3.132770   4.108642   1.095364   1.753653   0.000000
    26  C    2.493317   3.475570   1.529877   2.169421   2.148853
    27  H    3.302221   4.183817   2.158556   2.580388   2.383941
    28  H    3.095412   4.025290   2.172866   2.421783   3.046258
                   26         27         28
    26  C    0.000000
    27  H    1.092745   0.000000
    28  H    1.097493   1.741021   0.000000
 Symmetry turned off by external request.
 Stoichiometry    C12H16
 Framework group  CI[X(C12H16)]
 Deg. of freedom    39
 Full point group                 CI      NOp   2
 Rotational constants (GHZ):           1.9483341           0.6370922           0.5524173
 Leave Link  202 at Mon Aug  3 17:32:18 2020, MaxMem=  6442450944 cpu:               0.3 elap:               0.0
 (Enter /scratch/scicomp/CentOS/7.3.1611/Haswell/software/Gaussian/g16/l301.exe)
 Standard basis: def2TZVP (5D, 7F)
 Ernie: Thresh=  0.10000D-02 Tol=  0.10000D-05 Strict=F.
   468 basis functions,   740 primitive gaussians,   528 cartesian basis functions
    44 alpha electrons       44 beta electrons
       nuclear repulsion energy       691.7104163567 Hartrees.
 IExCor= 4639 DFT=T Ex+Corr=wB97XD ExCW=0 ScaHFX=  1.000000
 ScaDFX=  1.000000  1.000000  1.000000  1.000000 ScalE2=  1.000000  1.000000
 IRadAn=      5 IRanWt=     -1 IRanGd=            0 ICorTp=0 IEmpDi=121
 HFx  wShort=  0.000000 wLong=  0.200000 cFull=  0.222036 cShort=  0.000000 cLong=  0.777964
 DFx  wShort=  0.000000 wLong=  0.200000 cFull=  0.000000 cShort=  0.000000 cLong=  1.000000
 NAtoms=   28 NActive=   28 NUniq=   28 SFac= 1.00D+00 NAtFMM=   60 NAOKFM=F Big=F
 Integral buffers will be    131072 words long.
 Raffenetti 2 integral format.
 Two-electron integral symmetry is turned off.
 R6Disp:  Grimme-D2 Dispersion energy=       -0.0229094515 Hartrees.
 Nuclear repulsion after empirical dispersion term =      691.6875069052 Hartrees.
 Using the following non-standard input for PCM:
 qrep pcmdoc geomview  nodis nocav g03defaults tsare=0.075
 Warning! Using old PCM defaults because the g03defaults keyword was found.
 These settings can be overridden by following keywords.
 nsfe=28
 NVESolv=36  SolvMW=84.1595   Rsolv=2.815
 eps=2.0165 RhoS=0.7781
 --- end of non-standard input.
 Reading user-defined spheres from input:
 ISph  on   Nord    Re0     Alpha      Xe            Ye            Ze
 --- end of user-defined spheres data.
 ------------------------------------------------------------------------------
 Polarizable Continuum Model (PCM)
 =================================
 Model                : PCM.
 Atomic radii         : UA0 (Simple United Atom Topological Model).
 Polarization charges : Total charges.
 Charge compensation  : None.
 Solution method      : On-the-fly selection.
 Cavity type          : SES (Solvent Excluding Surface) (Alpha=1.000).
 Cavity algorithm     : GePol (RMin=0.200 OFac=0.890).
                        User-defined sphere list used, NSphG=   28.
                        Tesserae with average area of 0.075 Ang**2.
                        Smoothing algorithm: None.
                        Polarization charges: point-like.
                        Self-potential: constant (ISelfS= 1).
                        Self-field    : global E.n sum rule (ISelfD= 3).
 Solvent              : CycloHexane, Eps=   2.016500 Eps(inf)=   2.035188
                        RSolv=   2.815000 Ang.
 ------------------------------------------------------------------------------
 GePol: Number of generator spheres                  =      28
 GePol: Total number of spheres                      =     448
 GePol: Number of exposed spheres                    =     287 ( 64.06%)
 GePol: Number of tesserae                           =    4595
 GePol: Average area of tesserae                     =       0.04 Ang**2
 GePol: Minimum area of tessera                      =   0.10D-02 Ang**2
 GePol: Maximum area of tessera                      =    0.12550 Ang**2
 GePol: Number of small tesserae                     =       0
 GePol: Fraction of small tesserae (<1% of avg)      =       0.00%
 GePol: Total count of vertices                      =   17268
 GePol: Maximum number of vertices in a tessera      =       8
 GePol: Cavity surface area                          =    183.721 Ang**2
 GePol: Cavity volume                                =    179.313 Ang**3
 Leave Link  301 at Mon Aug  3 17:32:18 2020, MaxMem=  6442450944 cpu:              11.7 elap:               0.5
 (Enter /scratch/scicomp/CentOS/7.3.1611/Haswell/software/Gaussian/g16/l302.exe)
 NPDir=0 NMtPBC=     1 NCelOv=     1 NCel=       1 NClECP=     1 NCelD=      1
         NCelK=      1 NCelE2=     1 NClLst=     1 CellRange=     0.0.
 One-electron integrals computed using PRISM.
   1 Symmetry operations used in ECPInt.
 ECPInt:  NShTT=   19306 NPrTT=   56928 LenC2=   18528 LenP2D=   42284.
 LDataN:  DoStor=T MaxTD1= 6 Len=  172
 NBasis=   468 RedAO= T EigKep=  3.32D-05  NBF=   468
 NBsUse=   468 1.00D-06 EigRej= -1.00D+00 NBFU=   468
 Precomputing XC quadrature grid using
 IXCGrd= 4 IRadAn=           5 IRanWt=          -1 IRanGd=           0 AccXCQ= 0.00D+00.
 Generated NRdTot=       0 NPtTot=           0 NUsed=           0 NTot=          32
 NSgBfM=   526   526   526   526   526 MxSgAt=    28 MxSgA2=    28.
 Leave Link  302 at Mon Aug  3 17:32:19 2020, MaxMem=  6442450944 cpu:              11.8 elap:               0.5
 (Enter /scratch/scicomp/CentOS/7.3.1611/Haswell/software/Gaussian/g16/l401.exe)
 ExpMin= 9.52D-02 ExpMax= 1.36D+04 ExpMxC= 4.63D+02 IAcc=3 IRadAn=         5 AccDes= 0.00D+00
 Harris functional with IExCor= 4639 and IRadAn=       5 diagonalized for initial guess.
 HarFok:  IExCor= 4639 AccDes= 0.00D+00 IRadAn=         5 IDoV= 1 UseB2=F ITyADJ=14
 ICtDFT=  3500011 ScaDFX=  1.000000  1.000000  1.000000  1.000000
 FoFCou: FMM=F IPFlag=           0 FMFlag=      100000 FMFlg1=           0
         NFxFlg=           0 DoJE=T BraDBF=F KetDBF=T FulRan=T
         wScrn=  0.000000 ICntrl=       500 IOpCl=  0 I1Cent=   200000004 NGrid=           0
         NMat0=    1 NMatS0=      1 NMatT0=    0 NMatD0=    1 NMtDS0=    0 NMtDT0=    0
 Symmetry not used in FoFCou.
 Harris En= -444.595665137426    
 JPrj=0 DoOrth=F DoCkMO=T.
 Mixing orbitals, IMix= 1 IMixAn=  0 NRI=1 NE=   44 Coef=  7.07106781D-01  7.07106781D-01
 Mixing orbitals, IMix= 1 IMixAn=  0 NRI=1 NE=   44 Coef= -7.07106781D-01  7.07106781D-01
 Initial guess <Sx>= 0.0000 <Sy>= 0.0000 <Sz>= 0.0000 <S**2>= 1.0000 S= 0.6180
 Leave Link  401 at Mon Aug  3 17:32:21 2020, MaxMem=  6442450944 cpu:              48.5 elap:               2.1
 (Enter /scratch/scicomp/CentOS/7.3.1611/Haswell/software/Gaussian/g16/l9999.exe)

 This type of calculation cannot be archived.


 JUST WHEN YOU THINK YOU'VE GOT THE WORLD ON A STRING,
 YOU FIND OUT IT'S YOUR LEASH.
 Job cpu time:       0 days  0 hours  1 minutes 17.0 seconds.
 Elapsed time:       0 days  0 hours  0 minutes  3.5 seconds.
 File lengths (MBytes):  RWF=    387 Int=      0 D2E=      0 Chk=      1 Scr=      1
 Normal termination of Gaussian 16 at Mon Aug  3 17:32:21 2020.
