 Entering Gaussian System, Link 0=g16
 Input=meso-TS_79_2_pcm.com
 Output=meso-TS_79_2_pcm.log
 Initial command:
 /scratch/scicomp/CentOS/7.3.1611/Haswell/software/Gaussian/g16/l1.exe "/scratch/bochen/cyclohexadiene-dimerization/wb97xd-def2tzvp/xp-pcm/meso/Gau-13012.inp" -scrdir="/scratch/bochen/cyclohexadiene-dimerization/wb97xd-def2tzvp/xp-pcm/meso/"
 Entering Link 1 = /scratch/scicomp/CentOS/7.3.1611/Haswell/software/Gaussian/g16/l1.exe PID=     13030.
  
 Copyright (c) 1988-2017, Gaussian, Inc.  All Rights Reserved.
  
 This is part of the Gaussian(R) 16 program.  It is based on
 the Gaussian(R) 09 system (copyright 2009, Gaussian, Inc.),
 the Gaussian(R) 03 system (copyright 2003, Gaussian, Inc.),
 the Gaussian(R) 98 system (copyright 1998, Gaussian, Inc.),
 the Gaussian(R) 94 system (copyright 1995, Gaussian, Inc.),
 the Gaussian 92(TM) system (copyright 1992, Gaussian, Inc.),
 the Gaussian 90(TM) system (copyright 1990, Gaussian, Inc.),
 the Gaussian 88(TM) system (copyright 1988, Gaussian, Inc.),
 the Gaussian 86(TM) system (copyright 1986, Carnegie Mellon
 University), and the Gaussian 82(TM) system (copyright 1983,
 Carnegie Mellon University). Gaussian is a federally registered
 trademark of Gaussian, Inc.
  
 This software contains proprietary and confidential information,
 including trade secrets, belonging to Gaussian, Inc.
  
 This software is provided under written license and may be
 used, copied, transmitted, or stored only in accord with that
 written license.
  
 The following legend is applicable only to US Government
 contracts under FAR:
  
                    RESTRICTED RIGHTS LEGEND
  
 Use, reproduction and disclosure by the US Government is
 subject to restrictions as set forth in subparagraphs (a)
 and (c) of the Commercial Computer Software - Restricted
 Rights clause in FAR 52.227-19.
  
 Gaussian, Inc.
 340 Quinnipiac St., Bldg. 40, Wallingford CT 06492
  
  
 ---------------------------------------------------------------
 Warning -- This program may not be used in any manner that
 competes with the business of Gaussian, Inc. or will provide
 assistance to any competitor of Gaussian, Inc.  The licensee
 of this program is prohibited from giving any competitor of
 Gaussian, Inc. access to this program.  By using this program,
 the user acknowledges that Gaussian, Inc. is engaged in the
 business of creating and licensing software in the field of
 computational chemistry and represents and warrants to the
 licensee that it is not a competitor of Gaussian, Inc. and that
 it will not use this program in any manner prohibited above.
 ---------------------------------------------------------------
  

 Cite this work as:
 Gaussian 16, Revision B.01,
 M. J. Frisch, G. W. Trucks, H. B. Schlegel, G. E. Scuseria, 
 M. A. Robb, J. R. Cheeseman, G. Scalmani, V. Barone, 
 G. A. Petersson, H. Nakatsuji, X. Li, M. Caricato, A. V. Marenich, 
 J. Bloino, B. G. Janesko, R. Gomperts, B. Mennucci, H. P. Hratchian, 
 J. V. Ortiz, A. F. Izmaylov, J. L. Sonnenberg, D. Williams-Young, 
 F. Ding, F. Lipparini, F. Egidi, J. Goings, B. Peng, A. Petrone, 
 T. Henderson, D. Ranasinghe, V. G. Zakrzewski, J. Gao, N. Rega, 
 G. Zheng, W. Liang, M. Hada, M. Ehara, K. Toyota, R. Fukuda, 
 J. Hasegawa, M. Ishida, T. Nakajima, Y. Honda, O. Kitao, H. Nakai, 
 T. Vreven, K. Throssell, J. A. Montgomery, Jr., J. E. Peralta, 
 F. Ogliaro, M. J. Bearpark, J. J. Heyd, E. N. Brothers, K. N. Kudin, 
 V. N. Staroverov, T. A. Keith, R. Kobayashi, J. Normand, 
 K. Raghavachari, A. P. Rendell, J. C. Burant, S. S. Iyengar, 
 J. Tomasi, M. Cossi, J. M. Millam, M. Klene, C. Adamo, R. Cammi, 
 J. W. Ochterski, R. L. Martin, K. Morokuma, O. Farkas, 
 J. B. Foresman, and D. J. Fox, Gaussian, Inc., Wallingford CT, 2016.
 
 ******************************************
 Gaussian 16:  ES64L-G16RevB.01 20-Dec-2017
                 3-Aug-2020 
 ******************************************
 %nproc=24
 Will use up to   24 processors via shared memory.
 %mem=48GB
 ----------------------------------------------------------------------
 #p uwb97xd guess=mix def2tzvp # scrf=(iefpcm,solvent=Cyclohexane,read)
  nosym 6d 10f
 ----------------------------------------------------------------------
 1/38=1,40=2,172=1/1;
 2/12=2,15=1,17=6,18=5,40=1/2;
 3/5=44,7=101,8=22,11=2,25=1,30=1,70=2203,72=17,74=-58,116=2/1,2,3;
 4/13=-1/1;
 5/5=2,38=5,53=17/2;
 6/7=2,8=2,9=2,10=2,28=1/1;
 99/5=1,9=1/99;
 Leave Link    1 at Mon Aug  3 13:52:09 2020, MaxMem=  6442450944 cpu:               1.8 elap:               0.1
 (Enter /scratch/scicomp/CentOS/7.3.1611/Haswell/software/Gaussian/g16/l101.exe)
 -----------------------
 endo-2 xp-pcm for eta=3
 -----------------------
 Symbolic Z-matrix:
 Charge =  0 Multiplicity = 1
 6                    -3.11503  -0.43856   0.28545 
 6                    -0.82883  -0.27675  -1.3806 
 1                    -4.02662  -0.51469   0.86675 
 1                     0.08895  -0.20593  -1.95195 
 6                     1.23629   1.4433    0.88738 
 6                     0.82883   0.27675   1.3806 
 1                     0.65234   2.3428    1.04303 
 1                    -0.08895   0.20593   1.95195 
 6                     1.6547   -0.967     1.21694 
 1                     2.27971  -1.0777    2.11289 
 1                     1.00719  -1.84479   1.18574 
 6                     2.48793   1.53631   0.13365 
 1                     2.88985   2.51741  -0.08943 
 6                     3.11503   0.43856  -0.28545 
 1                     4.02662   0.51469  -0.86675 
 6                     2.54072  -0.9282   -0.03041 
 1                     1.95523  -1.22372  -0.90966 
 1                     3.3399   -1.66615   0.05955 
 6                    -1.23629  -1.4433   -0.88738 
 1                    -0.65234  -2.3428   -1.04303 
 6                    -2.48793  -1.53631  -0.13365 
 1                    -2.88985  -2.51741   0.08943 
 6                    -1.6547    0.967    -1.21694 
 1                    -1.00719   1.84479  -1.18574 
 1                    -2.27971   1.0777   -2.11289 
 6                    -2.54072   0.9282    0.03041 
 1                    -3.3399    1.66615  -0.05955 
 1                    -1.95523   1.22372   0.90966 
 
 ITRead=  0  0  0  0  0  0  0  0  0  0  0  0  0  0  0  0  0  0  0  0
 ITRead=  0  0  0  0  0  0  0  0
 MicOpt= -1 -1 -1 -1 -1 -1 -1 -1 -1 -1 -1 -1 -1 -1 -1 -1 -1 -1 -1 -1
 MicOpt= -1 -1 -1 -1 -1 -1 -1 -1
 NAtoms=     28 NQM=       28 NQMF=       0 NMMI=      0 NMMIF=      0
                NMic=       0 NMicF=      0.
                    Isotopes and Nuclear Properties:
 (Nuclear quadrupole moments (NQMom) in fm**2, nuclear magnetic moments (NMagM)
  in nuclear magnetons)

  Atom         1           2           3           4           5           6           7           8           9          10
 IAtWgt=          12          12           1           1          12          12           1           1          12           1
 AtmWgt=  12.0000000  12.0000000   1.0078250   1.0078250  12.0000000  12.0000000   1.0078250   1.0078250  12.0000000   1.0078250
 NucSpn=           0           0           1           1           0           0           1           1           0           1
 AtZEff=  -0.0000000  -0.0000000  -0.0000000  -0.0000000  -0.0000000  -0.0000000  -0.0000000  -0.0000000  -0.0000000  -0.0000000
 NQMom=    0.0000000   0.0000000   0.0000000   0.0000000   0.0000000   0.0000000   0.0000000   0.0000000   0.0000000   0.0000000
 NMagM=    0.0000000   0.0000000   2.7928460   2.7928460   0.0000000   0.0000000   2.7928460   2.7928460   0.0000000   2.7928460
 AtZNuc=   6.0000000   6.0000000   1.0000000   1.0000000   6.0000000   6.0000000   1.0000000   1.0000000   6.0000000   1.0000000

  Atom        11          12          13          14          15          16          17          18          19          20
 IAtWgt=           1          12           1          12           1          12           1           1          12           1
 AtmWgt=   1.0078250  12.0000000   1.0078250  12.0000000   1.0078250  12.0000000   1.0078250   1.0078250  12.0000000   1.0078250
 NucSpn=           1           0           1           0           1           0           1           1           0           1
 AtZEff=  -0.0000000  -0.0000000  -0.0000000  -0.0000000  -0.0000000  -0.0000000  -0.0000000  -0.0000000  -0.0000000  -0.0000000
 NQMom=    0.0000000   0.0000000   0.0000000   0.0000000   0.0000000   0.0000000   0.0000000   0.0000000   0.0000000   0.0000000
 NMagM=    2.7928460   0.0000000   2.7928460   0.0000000   2.7928460   0.0000000   2.7928460   2.7928460   0.0000000   2.7928460
 AtZNuc=   1.0000000   6.0000000   1.0000000   6.0000000   1.0000000   6.0000000   1.0000000   1.0000000   6.0000000   1.0000000

  Atom        21          22          23          24          25          26          27          28
 IAtWgt=          12           1          12           1           1          12           1           1
 AtmWgt=  12.0000000   1.0078250  12.0000000   1.0078250   1.0078250  12.0000000   1.0078250   1.0078250
 NucSpn=           0           1           0           1           1           0           1           1
 AtZEff=  -0.0000000  -0.0000000  -0.0000000  -0.0000000  -0.0000000  -0.0000000  -0.0000000  -0.0000000
 NQMom=    0.0000000   0.0000000   0.0000000   0.0000000   0.0000000   0.0000000   0.0000000   0.0000000
 NMagM=    0.0000000   2.7928460   0.0000000   2.7928460   2.7928460   0.0000000   2.7928460   2.7928460
 AtZNuc=   6.0000000   1.0000000   6.0000000   1.0000000   1.0000000   6.0000000   1.0000000   1.0000000
 Leave Link  101 at Mon Aug  3 13:52:09 2020, MaxMem=  6442450944 cpu:               2.4 elap:               0.1
 (Enter /scratch/scicomp/CentOS/7.3.1611/Haswell/software/Gaussian/g16/l202.exe)
                          Input orientation:                          
 ---------------------------------------------------------------------
 Center     Atomic      Atomic             Coordinates (Angstroms)
 Number     Number       Type             X           Y           Z
 ---------------------------------------------------------------------
      1          6           0       -3.115030   -0.438560    0.285445
      2          6           0       -0.828832   -0.276745   -1.380600
      3          1           0       -4.026619   -0.514692    0.866746
      4          1           0        0.088953   -0.205930   -1.951950
      5          6           0        1.236290    1.443298    0.887382
      6          6           0        0.828832    0.276745    1.380600
      7          1           0        0.652342    2.342795    1.043029
      8          1           0       -0.088953    0.205930    1.951950
      9          6           0        1.654704   -0.967003    1.216943
     10          1           0        2.279712   -1.077701    2.112893
     11          1           0        1.007187   -1.844793    1.185737
     12          6           0        2.487931    1.536308    0.133650
     13          1           0        2.889851    2.517413   -0.089428
     14          6           0        3.115030    0.438560   -0.285445
     15          1           0        4.026619    0.514692   -0.866746
     16          6           0        2.540720   -0.928204   -0.030413
     17          1           0        1.955227   -1.223717   -0.909655
     18          1           0        3.339904   -1.666148    0.059554
     19          6           0       -1.236290   -1.443298   -0.887382
     20          1           0       -0.652342   -2.342795   -1.043029
     21          6           0       -2.487931   -1.536308   -0.133650
     22          1           0       -2.889851   -2.517413    0.089428
     23          6           0       -1.654704    0.967003   -1.216943
     24          1           0       -1.007187    1.844793   -1.185737
     25          1           0       -2.279712    1.077701   -2.112893
     26          6           0       -2.540720    0.928204    0.030413
     27          1           0       -3.339904    1.666148   -0.059554
     28          1           0       -1.955227    1.223717    0.909655
 ---------------------------------------------------------------------
                    Distance matrix (angstroms):
                    1          2          3          4          5
     1  C    0.000000
     2  C    2.833477   0.000000
     3  H    1.083836   3.915741   0.000000
     4  H    3.914787   1.083414   4.997831   0.000000
     5  C    4.778881   3.516677   5.615368   3.478238   0.000000
     6  C    4.155126   3.267786   4.946294   3.447649   1.330463
     7  H    4.743729   3.863916   5.485343   3.972821   1.083659
     8  H    3.514221   3.447649   4.147551   3.929595   2.102535
     9  C    4.888487   3.659459   5.710049   3.615618   2.468447
    10  H    5.731606   4.744372   6.452881   4.699187   2.990994
    11  H    4.447549   3.523610   5.216333   3.657062   3.309539
    12  C    5.942753   4.071981   6.869017   3.624944   1.464025
    13  H    6.703499   4.827323   7.612193   4.327888   2.200487
    14  C    6.317349   4.155126   7.296532   3.514221   2.432013
    15  H    7.296532   4.946294   8.301763   4.147551   3.424209
    16  C    5.685686   3.687992   6.641222   3.197678   2.857955
    17  H    5.268040   2.978176   6.280191   2.367540   3.295327
    18  H    6.574509   4.624159   7.499538   4.092318   3.844365
    19  C    2.432013   1.330463   3.424209   2.102535   4.194744
    20  H    3.384640   2.100873   4.286601   2.437591   4.650583
    21  C    1.331895   2.427755   2.100489   3.422930   4.877538
    22  H    2.100180   3.380736   2.430505   4.287593   5.774859
    23  C    2.522960   1.501918   3.487572   2.226285   3.607338
    24  H    3.438180   2.137921   4.347048   2.448279   3.080943
    25  H    2.957842   2.115616   3.803373   2.698923   4.636548
    26  C    1.504300   2.524563   2.233674   3.482988   3.907112
    27  H    2.144618   3.438819   2.466916   4.340841   4.678451
    28  H    2.120836   2.960645   2.704547   3.796228   3.199139
                    6          7          8          9         10
     6  C    0.000000
     7  H    2.100873   0.000000
     8  H    1.083414   2.437591   0.000000
     9  C    1.501918   3.462620   2.226285   0.000000
    10  H    2.115616   3.936081   2.698923   1.098005   0.000000
    11  H    2.137921   4.205018   2.448279   1.091223   1.751390
    12  C    2.427755   2.201540   3.422930   2.852079   3.285392
    13  H    3.380736   2.513841   4.287593   3.920886   4.259969
    14  C    2.833477   3.384640   3.914787   2.522960   2.957842
    15  H    3.915741   4.286601   4.997831   3.487572   3.803373
    16  C    2.524563   3.926536   3.482988   1.530499   2.164309
    17  H    2.960645   4.269718   3.796228   2.163015   3.043420
    18  H    3.438819   4.925631   4.340841   2.160614   2.384634
    19  C    3.516677   4.650583   3.478238   3.607338   4.636548
    20  H    3.863916   5.292314   3.972821   3.510376   4.489682
    21  C    4.071981   5.127702   3.624944   4.394273   5.290340
    22  H    4.827323   6.089180   4.327888   4.932346   5.735117
    23  C    3.659459   3.510376   3.615618   4.540524   5.545111
    24  H    3.523610   2.823020   3.657062   4.556834   5.497785
    25  H    4.744372   4.489682   4.699187   5.545111   6.579618
    26  C    3.687992   3.636221   3.197678   4.754077   5.621116
    27  H    4.624159   4.196614   4.092318   5.788699   6.620296
    28  H    2.978176   2.840694   2.367540   4.233826   4.967798
                   11         12         13         14         15
    11  H    0.000000
    12  C    3.838142   0.000000
    13  H    4.919279   1.083453   0.000000
    14  C    3.438180   1.331895   2.100180   0.000000
    15  H    4.347048   2.100489   2.430505   1.083836   0.000000
    16  C    2.161222   2.470531   3.463763   1.504300   2.233674
    17  H    2.382264   2.998332   3.942378   2.120836   2.704547
    18  H    2.596492   3.314675   4.210336   2.144618   2.466916
    19  C    3.080943   4.877538   5.774859   4.778881   5.615368
    20  H    2.823020   5.127702   6.089180   4.743729   5.485343
    21  C    3.748572   5.854197   6.734623   5.942753   6.869017
    22  H    4.103805   6.734623   7.667230   6.703499   7.612193
    23  C    4.556834   4.394273   4.932346   4.888487   5.710049
    24  H    4.826452   3.748572   4.103805   4.447549   5.216333
    25  H    5.497785   5.290340   5.735117   5.731606   6.452881
    26  C    4.648863   5.066338   5.659598   5.685686   6.641222
    27  H    5.724915   5.832482   6.287718   6.574509   7.499538
    28  H    4.274093   4.521233   5.113374   5.268040   6.280191
                   16         17         18         19         20
    16  C    0.000000
    17  H    1.096903   0.000000
    18  H    1.091490   1.747124   0.000000
    19  C    3.907112   3.199139   4.678451   0.000000
    20  H    3.636221   2.840694   4.196614   1.083659   0.000000
    21  C    5.066338   4.521233   5.832482   1.464025   2.201540
    22  H    5.659598   5.113374   6.287718   2.200487   2.513841
    23  C    4.754077   4.233826   5.788699   2.468447   3.462620
    24  H    4.648863   4.274093   5.724915   3.309539   4.205018
    25  H    5.621116   4.967798   6.620296   2.990994   3.936081
    26  C    5.410266   5.072281   6.427538   2.857955   3.926536
    27  H    6.427538   6.091995   7.465803   3.844365   4.925631
    28  H    5.072281   4.958979   6.091995   3.295327   4.269718
                   21         22         23         24         25
    21  C    0.000000
    22  H    1.083453   0.000000
    23  C    2.852079   3.920886   0.000000
    24  H    3.838142   4.919279   1.091223   0.000000
    25  H    3.285392   4.259969   1.098005   1.751390   0.000000
    26  C    2.470531   3.463763   1.530499   2.161222   2.164309
    27  H    3.314675   4.210336   2.160614   2.596492   2.384634
    28  H    2.998332   3.942378   2.163015   2.382264   3.043420
                   26         27         28
    26  C    0.000000
    27  H    1.091490   0.000000
    28  H    1.096903   1.747124   0.000000
 Symmetry turned off by external request.
 Stoichiometry    C12H16
 Framework group  CI[X(C12H16)]
 Deg. of freedom    39
 Full point group                 CI      NOp   2
 Rotational constants (GHZ):           1.6660577           0.5704748           0.5267456
 Leave Link  202 at Mon Aug  3 13:52:10 2020, MaxMem=  6442450944 cpu:               0.3 elap:               0.1
 (Enter /scratch/scicomp/CentOS/7.3.1611/Haswell/software/Gaussian/g16/l301.exe)
 Standard basis: def2TZVP (6D, 10F)
 Ernie: Thresh=  0.10000D-02 Tol=  0.10000D-05 Strict=F.
   528 basis functions,   740 primitive gaussians,   528 cartesian basis functions
    44 alpha electrons       44 beta electrons
       nuclear repulsion energy       668.5605671062 Hartrees.
 IExCor= 4639 DFT=T Ex+Corr=wB97XD ExCW=0 ScaHFX=  1.000000
 ScaDFX=  1.000000  1.000000  1.000000  1.000000 ScalE2=  1.000000  1.000000
 IRadAn=      5 IRanWt=     -1 IRanGd=            0 ICorTp=0 IEmpDi=121
 HFx  wShort=  0.000000 wLong=  0.200000 cFull=  0.222036 cShort=  0.000000 cLong=  0.777964
 DFx  wShort=  0.000000 wLong=  0.200000 cFull=  0.000000 cShort=  0.000000 cLong=  1.000000
 NAtoms=   28 NActive=   28 NUniq=   28 SFac= 1.00D+00 NAtFMM=   60 NAOKFM=F Big=F
 Integral buffers will be    131072 words long.
 Raffenetti 2 integral format.
 Two-electron integral symmetry is turned off.
 R6Disp:  Grimme-D2 Dispersion energy=       -0.0208476668 Hartrees.
 Nuclear repulsion after empirical dispersion term =      668.5397194395 Hartrees.
 Using the following non-standard input for PCM:
 norep pcmdoc geomview  nodis nocav g03defaults tsare=0.075
 Warning! Using old PCM defaults because the g03defaults keyword was found.
 These settings can be overridden by following keywords.
 nsfe=28
 NVESolv=36  SolvMW=84.1595   Rsolv=2.815
 eps=2.0165 RhoS=0.7781
 --- end of non-standard input.
 Reading user-defined spheres from input:
 ISph  on   Nord    Re0     Alpha      Xe            Ye            Ze
 --- end of user-defined spheres data.
 ------------------------------------------------------------------------------
 Polarizable Continuum Model (PCM)
 =================================
 Model                : PCM.
 Atomic radii         : UA0 (Simple United Atom Topological Model).
 Polarization charges : Total charges.
 Charge compensation  : None.
 Solution method      : On-the-fly selection.
 Cavity type          : SES (Solvent Excluding Surface) (Alpha=1.000).
 Cavity algorithm     : GePol (RMin=0.200 OFac=0.890).
                        User-defined sphere list used, NSphG=   28.
                        Tesserae with average area of 0.075 Ang**2.
                        Smoothing algorithm: None.
                        Polarization charges: point-like.
                        Self-potential: constant (ISelfS= 1).
                        Self-field    : global E.n sum rule (ISelfD= 3).
 Solvent              : CycloHexane, Eps=   2.016500 Eps(inf)=   2.035188
                        RSolv=   2.815000 Ang.
 ------------------------------------------------------------------------------
 GePol: Number of generator spheres                  =      28
 GePol: Total number of spheres                      =     186
 GePol: Number of exposed spheres                    =     127 ( 68.28%)
 GePol: Number of tesserae                           =    4771
 GePol: Average area of tesserae                     =       0.05 Ang**2
 GePol: Minimum area of tessera                      =   0.10D-02 Ang**2
 GePol: Maximum area of tessera                      =    0.12594 Ang**2
 GePol: Number of small tesserae                     =       0
 GePol: Fraction of small tesserae (<1% of avg)      =       0.00%
 GePol: Total count of vertices                      =   16898
 GePol: Maximum number of vertices in a tessera      =       7
 GePol: Cavity surface area                          =    225.328 Ang**2
 GePol: Cavity volume                                =    258.055 Ang**3
 Leave Link  301 at Mon Aug  3 13:52:10 2020, MaxMem=  6442450944 cpu:               8.2 elap:               0.4
 (Enter /scratch/scicomp/CentOS/7.3.1611/Haswell/software/Gaussian/g16/l302.exe)
 NPDir=0 NMtPBC=     1 NCelOv=     1 NCel=       1 NClECP=     1 NCelD=      1
         NCelK=      1 NCelE2=     1 NClLst=     1 CellRange=     0.0.
 One-electron integrals computed using PRISM.
   1 Symmetry operations used in ECPInt.
 ECPInt:  NShTT=   19306 NPrTT=   56928 LenC2=   18448 LenP2D=   41666.
 LDataN:  DoStor=T MaxTD1= 6 Len=  172
 NBasis=   528 RedAO= T EigKep=  2.05D-05  NBF=   528
 NBsUse=   528 1.00D-06 EigRej= -1.00D+00 NBFU=   528
 Precomputing XC quadrature grid using
 IXCGrd= 4 IRadAn=           5 IRanWt=          -1 IRanGd=           0 AccXCQ= 0.00D+00.
 Generated NRdTot=       0 NPtTot=           0 NUsed=           0 NTot=          32
 NSgBfM=   526   526   526   526   526 MxSgAt=    28 MxSgA2=    28.
 Leave Link  302 at Mon Aug  3 13:52:11 2020, MaxMem=  6442450944 cpu:              12.9 elap:               0.6
 (Enter /scratch/scicomp/CentOS/7.3.1611/Haswell/software/Gaussian/g16/l303.exe)
 DipDrv:  MaxL=1.
 Leave Link  303 at Mon Aug  3 13:52:11 2020, MaxMem=  6442450944 cpu:               1.6 elap:               0.1
 (Enter /scratch/scicomp/CentOS/7.3.1611/Haswell/software/Gaussian/g16/l401.exe)
 ExpMin= 9.52D-02 ExpMax= 1.36D+04 ExpMxC= 4.63D+02 IAcc=3 IRadAn=         5 AccDes= 0.00D+00
 Harris functional with IExCor= 4639 and IRadAn=       5 diagonalized for initial guess.
 HarFok:  IExCor= 4639 AccDes= 0.00D+00 IRadAn=         5 IDoV= 1 UseB2=F ITyADJ=14
 ICtDFT=  3500011 ScaDFX=  1.000000  1.000000  1.000000  1.000000
 FoFCou: FMM=F IPFlag=           0 FMFlag=      100000 FMFlg1=           0
         NFxFlg=           0 DoJE=T BraDBF=F KetDBF=T FulRan=T
         wScrn=  0.000000 ICntrl=       500 IOpCl=  0 I1Cent=   200000004 NGrid=           0
         NMat0=    1 NMatS0=      1 NMatT0=    0 NMatD0=    1 NMtDS0=    0 NMtDT0=    0
 Symmetry not used in FoFCou.
 Harris En= -444.661141288774    
 JPrj=0 DoOrth=F DoCkMO=T.
 Mixing orbitals, IMix= 1 IMixAn=  0 NRI=1 NE=   44 Coef=  7.07106781D-01  7.07106781D-01
 Mixing orbitals, IMix= 1 IMixAn=  0 NRI=1 NE=   44 Coef= -7.07106781D-01  7.07106781D-01
 Initial guess <Sx>= 0.0000 <Sy>= 0.0000 <Sz>= 0.0000 <S**2>= 1.0000 S= 0.6180
 Leave Link  401 at Mon Aug  3 13:52:13 2020, MaxMem=  6442450944 cpu:              47.8 elap:               2.1
 (Enter /scratch/scicomp/CentOS/7.3.1611/Haswell/software/Gaussian/g16/l502.exe)
 Two-electron integral symmetry not used.
 UHF open shell SCF:
 Using DIIS extrapolation, IDIIS=  1040.
 NGot=  6442450944 LenX=  6441877030 LenY=  6441597718
 Requested convergence on RMS density matrix=1.00D-08 within 128 cycles.
 Requested convergence on MAX density matrix=1.00D-06.
 Requested convergence on             energy=1.00D-06.
 No special actions if energy rises.
 Fock matrices will be formed incrementally for  20 cycles.

 Cycle   1  Pass 1  IDiag  1:
 FoFJK:  IHMeth= 1 ICntrl=       0 DoSepK=T KAlg= 0 I1Cent=           0 FoldK=F
 IRaf=         1 NMat=       1 IRICut=       1 DoRegI=T DoRafI=F ISym2E= 0 IDoP0=0 IntGTp=1.
 FoFCou: FMM=F IPFlag=           0 FMFlag=      100000 FMFlg1=           0
         NFxFlg=           0 DoJE=T BraDBF=F KetDBF=F FulRan=T
         wScrn=  0.000000 ICntrl=       500 IOpCl=  0 I1Cent=           0 NGrid=           0
         NMat0=    1 NMatS0=      1 NMatT0=    0 NMatD0=    1 NMtDS0=    0 NMtDT0=    0
 Symmetry not used in FoFCou.
 Inv3:  Mode=1 IEnd=    68287323.
 Iteration    1 A*A^-1 deviation from unit magnitude is 4.66D-15 for   2654.
 Iteration    1 A*A^-1 deviation from orthogonality  is 2.08D-15 for   1634    579.
 Iteration    1 A^-1*A deviation from unit magnitude is 3.55D-15 for   1394.
 Iteration    1 A^-1*A deviation from orthogonality  is 2.27D-15 for   2110    910.
 E= -466.572432870637    
 DIIS: error= 5.36D-02 at cycle   1 NSaved=   1.
 NSaved= 1 IEnMin= 1 EnMin= -466.572432870637     IErMin= 1 ErrMin= 5.36D-02
 ErrMax= 5.36D-02  0.00D+00 EMaxC= 1.00D-01 BMatC= 4.12D+00 BMatP= 4.12D+00
 IDIUse=3 WtCom= 4.64D-01 WtEn= 5.36D-01
 Coeff-Com:  0.100D+01
 Coeff-En:   0.100D+01
 Coeff:      0.100D+01
 Gap=     0.179 Goal=   None    Shift=    0.000
 Gap=     0.179 Goal=   None    Shift=    0.000
 GapD=    0.179 DampG=1.000 DampE=0.500 DampFc=0.5000 IDamp=-1.
 Damping current iteration by 5.00D-01
 RMSDP=1.66D-03 MaxDP=9.32D-02              OVMax= 3.66D-01

 Cycle   2  Pass 1  IDiag  1:
 RMSU=  7.90D-04    CP:  9.61D-01
 E= -466.688436481345     Delta-E=       -0.116003610709 Rises=F Damp=T
 DIIS: error= 2.56D-02 at cycle   2 NSaved=   2.
 NSaved= 2 IEnMin= 2 EnMin= -466.688436481345     IErMin= 2 ErrMin= 2.56D-02
 ErrMax= 2.56D-02  0.00D+00 EMaxC= 1.00D-01 BMatC= 9.38D-01 BMatP= 4.12D+00
 IDIUse=3 WtCom= 7.44D-01 WtEn= 2.56D-01
 Coeff-Com: -0.868D+00 0.187D+01
 Coeff-En:   0.000D+00 0.100D+01
 Coeff:     -0.646D+00 0.165D+01
 Gap=     0.285 Goal=   None    Shift=    0.000
 Gap=     0.285 Goal=   None    Shift=    0.000
 RMSDP=1.19D-03 MaxDP=4.89D-02 DE=-1.16D-01 OVMax= 1.39D-01

 Cycle   3  Pass 1  IDiag  1:
 RMSU=  6.09D-04    CP:  9.02D-01  2.20D+00
 E= -466.840658581751     Delta-E=       -0.152222100405 Rises=F Damp=F
 DIIS: error= 7.83D-03 at cycle   3 NSaved=   3.
 NSaved= 3 IEnMin= 3 EnMin= -466.840658581751     IErMin= 3 ErrMin= 7.83D-03
 ErrMax= 7.83D-03  0.00D+00 EMaxC= 1.00D-01 BMatC= 2.38D-02 BMatP= 9.38D-01
 IDIUse=3 WtCom= 9.22D-01 WtEn= 7.83D-02
 Coeff-Com: -0.310D+00 0.666D+00 0.645D+00
 Coeff-En:   0.000D+00 0.000D+00 0.100D+01
 Coeff:     -0.286D+00 0.613D+00 0.673D+00
 Gap=     0.308 Goal=   None    Shift=    0.000
 Gap=     0.308 Goal=   None    Shift=    0.000
 RMSDP=2.05D-04 MaxDP=9.95D-03 DE=-1.52D-01 OVMax= 6.38D-02

 Cycle   4  Pass 1  IDiag  1:
 RMSU=  1.86D-04    CP:  8.95D-01  2.30D+00  1.00D+00
 E= -466.851278379423     Delta-E=       -0.010619797672 Rises=F Damp=F
 DIIS: error= 5.06D-03 at cycle   4 NSaved=   4.
 NSaved= 4 IEnMin= 4 EnMin= -466.851278379423     IErMin= 4 ErrMin= 5.06D-03
 ErrMax= 5.06D-03  0.00D+00 EMaxC= 1.00D-01 BMatC= 2.01D-03 BMatP= 2.38D-02
 IDIUse=3 WtCom= 9.49D-01 WtEn= 5.06D-02
 Coeff-Com:  0.150D+00-0.322D+00-0.817D-01 0.125D+01
 Coeff-En:   0.000D+00 0.000D+00 0.000D+00 0.100D+01
 Coeff:      0.143D+00-0.306D+00-0.776D-01 0.124D+01
 Gap=     0.319 Goal=   None    Shift=    0.000
 Gap=     0.319 Goal=   None    Shift=    0.000
 RMSDP=2.07D-04 MaxDP=1.14D-02 DE=-1.06D-02 OVMax= 7.57D-02

 Cycle   5  Pass 1  IDiag  1:
 RMSU=  8.11D-05    CP:  8.88D-01  2.35D+00  1.23D+00  1.64D+00
 E= -466.855796164046     Delta-E=       -0.004517784623 Rises=F Damp=F
 DIIS: error= 2.17D-03 at cycle   5 NSaved=   5.
 NSaved= 5 IEnMin= 5 EnMin= -466.855796164046     IErMin= 5 ErrMin= 2.17D-03
 ErrMax= 2.17D-03  0.00D+00 EMaxC= 1.00D-01 BMatC= 7.55D-04 BMatP= 2.01D-03
 IDIUse=3 WtCom= 9.78D-01 WtEn= 2.17D-02
 Coeff-Com:  0.496D-01-0.107D+00-0.568D-01 0.270D+00 0.844D+00
 Coeff-En:   0.000D+00 0.000D+00 0.000D+00 0.000D+00 0.100D+01
 Coeff:      0.485D-01-0.104D+00-0.556D-01 0.264D+00 0.847D+00
 Gap=     0.320 Goal=   None    Shift=    0.000
 Gap=     0.320 Goal=   None    Shift=    0.000
 RMSDP=7.06D-05 MaxDP=2.74D-03 DE=-4.52D-03 OVMax= 2.65D-02

 Cycle   6  Pass 1  IDiag  1:
 RMSU=  3.03D-05    CP:  8.86D-01  2.36D+00  1.26D+00  1.90D+00  1.42D+00
 E= -466.857103685052     Delta-E=       -0.001307521006 Rises=F Damp=F
 DIIS: error= 1.49D-03 at cycle   6 NSaved=   6.
 NSaved= 6 IEnMin= 6 EnMin= -466.857103685052     IErMin= 6 ErrMin= 1.49D-03
 ErrMax= 1.49D-03  0.00D+00 EMaxC= 1.00D-01 BMatC= 5.04D-04 BMatP= 7.55D-04
 IDIUse=3 WtCom= 9.85D-01 WtEn= 1.49D-02
 Coeff-Com: -0.845D-01 0.181D+00 0.568D-01-0.641D+00 0.119D+00 0.137D+01
 Coeff-En:   0.000D+00 0.000D+00 0.000D+00 0.000D+00 0.000D+00 0.100D+01
 Coeff:     -0.832D-01 0.178D+00 0.560D-01-0.631D+00 0.117D+00 0.136D+01
 Gap=     0.317 Goal=   None    Shift=    0.000
 Gap=     0.317 Goal=   None    Shift=    0.000
 RMSDP=9.60D-05 MaxDP=3.91D-03 DE=-1.31D-03 OVMax= 3.64D-02

 Cycle   7  Pass 1  IDiag  1:
 RMSU=  2.97D-05    CP:  8.85D-01  2.36D+00  1.30D+00  2.18D+00  2.14D+00
                    CP:  2.30D+00
 E= -466.858673004694     Delta-E=       -0.001569319642 Rises=F Damp=F
 DIIS: error= 1.03D-03 at cycle   7 NSaved=   7.
 NSaved= 7 IEnMin= 7 EnMin= -466.858673004694     IErMin= 7 ErrMin= 1.03D-03
 ErrMax= 1.03D-03  0.00D+00 EMaxC= 1.00D-01 BMatC= 2.50D-04 BMatP= 5.04D-04
 IDIUse=3 WtCom= 9.90D-01 WtEn= 1.03D-02
 Coeff-Com: -0.252D-01 0.545D-01 0.415D-01-0.134D-01-0.801D+00-0.289D+00
 Coeff-Com:  0.203D+01
 Coeff-En:   0.000D+00 0.000D+00 0.000D+00 0.000D+00 0.000D+00 0.000D+00
 Coeff-En:   0.100D+01
 Coeff:     -0.249D-01 0.539D-01 0.411D-01-0.133D-01-0.793D+00-0.286D+00
 Coeff:      0.202D+01
 Gap=     0.317 Goal=   None    Shift=    0.000
 Gap=     0.317 Goal=   None    Shift=    0.000
 RMSDP=1.29D-04 MaxDP=6.08D-03 DE=-1.57D-03 OVMax= 4.85D-02

 Cycle   8  Pass 1  IDiag  1:
 RMSU=  5.62D-05    CP:  8.83D-01  2.36D+00  1.33D+00  2.47D+00  3.00D+00
                    CP:  3.00D+00  2.66D+00
 E= -466.859962762658     Delta-E=       -0.001289757964 Rises=F Damp=F
 DIIS: error= 3.58D-04 at cycle   8 NSaved=   8.
 NSaved= 8 IEnMin= 8 EnMin= -466.859962762658     IErMin= 8 ErrMin= 3.58D-04
 ErrMax= 3.58D-04  0.00D+00 EMaxC= 1.00D-01 BMatC= 5.42D-05 BMatP= 2.50D-04
 IDIUse=3 WtCom= 9.96D-01 WtEn= 3.58D-03
 Coeff-Com:  0.236D-01-0.506D-01-0.634D-02 0.251D+00-0.260D+00-0.603D+00
 Coeff-Com:  0.547D+00 0.110D+01
 Coeff-En:   0.000D+00 0.000D+00 0.000D+00 0.000D+00 0.000D+00 0.000D+00
 Coeff-En:   0.000D+00 0.100D+01
 Coeff:      0.235D-01-0.504D-01-0.632D-02 0.250D+00-0.259D+00-0.601D+00
 Coeff:      0.546D+00 0.110D+01
 Gap=     0.319 Goal=   None    Shift=    0.000
 Gap=     0.319 Goal=   None    Shift=    0.000
 RMSDP=5.56D-05 MaxDP=2.69D-03 DE=-1.29D-03 OVMax= 2.03D-02

 Cycle   9  Pass 1  IDiag  1:
 RMSU=  3.14D-05    CP:  8.82D-01  2.36D+00  1.35D+00  2.56D+00  3.00D+00
                    CP:  3.00D+00  3.00D+00  1.64D+00
 E= -466.860160014713     Delta-E=       -0.000197252056 Rises=F Damp=F
 DIIS: error= 1.09D-04 at cycle   9 NSaved=   9.
 NSaved= 9 IEnMin= 9 EnMin= -466.860160014713     IErMin= 9 ErrMin= 1.09D-04
 ErrMax= 1.09D-04  0.00D+00 EMaxC= 1.00D-01 BMatC= 7.83D-06 BMatP= 5.42D-05
 IDIUse=3 WtCom= 9.99D-01 WtEn= 1.09D-03
 Coeff-Com:  0.115D-01-0.247D-01-0.792D-02 0.803D-01 0.387D-01-0.140D+00
 Coeff-Com: -0.136D+00 0.284D+00 0.895D+00
 Coeff-En:   0.000D+00 0.000D+00 0.000D+00 0.000D+00 0.000D+00 0.000D+00
 Coeff-En:   0.000D+00 0.000D+00 0.100D+01
 Coeff:      0.115D-01-0.246D-01-0.791D-02 0.802D-01 0.386D-01-0.140D+00
 Coeff:     -0.136D+00 0.284D+00 0.895D+00
 Gap=     0.318 Goal=   None    Shift=    0.000
 Gap=     0.318 Goal=   None    Shift=    0.000
 RMSDP=1.31D-05 MaxDP=6.42D-04 DE=-1.97D-04 OVMax= 4.91D-03

 Cycle  10  Pass 1  IDiag  1:
 RMSU=  4.60D-06    CP:  8.81D-01  2.36D+00  1.35D+00  2.58D+00  3.00D+00
                    CP:  3.00D+00  3.00D+00  1.79D+00  1.26D+00
 E= -466.860173722236     Delta-E=       -0.000013707522 Rises=F Damp=F
 DIIS: error= 4.54D-05 at cycle  10 NSaved=  10.
 NSaved=10 IEnMin=10 EnMin= -466.860173722236     IErMin=10 ErrMin= 4.54D-05
 ErrMax= 4.54D-05  0.00D+00 EMaxC= 1.00D-01 BMatC= 1.14D-06 BMatP= 7.83D-06
 IDIUse=1 WtCom= 1.00D+00 WtEn= 0.00D+00
 Coeff-Com: -0.194D-02 0.419D-02-0.208D-03-0.299D-01 0.435D-01 0.783D-01
 Coeff-Com: -0.978D-01-0.178D+00 0.145D+00 0.104D+01
 Coeff:     -0.194D-02 0.419D-02-0.208D-03-0.299D-01 0.435D-01 0.783D-01
 Coeff:     -0.978D-01-0.178D+00 0.145D+00 0.104D+01
 Gap=     0.318 Goal=   None    Shift=    0.000
 Gap=     0.318 Goal=   None    Shift=    0.000
 RMSDP=5.48D-06 MaxDP=2.56D-04 DE=-1.37D-05 OVMax= 2.04D-03

 Cycle  11  Pass 1  IDiag  1:
 RMSU=  2.07D-06    CP:  8.81D-01  2.36D+00  1.35D+00  2.59D+00  3.00D+00
                    CP:  3.00D+00  3.00D+00  1.83D+00  1.36D+00  1.42D+00
 E= -466.860175382707     Delta-E=       -0.000001660472 Rises=F Damp=F
 DIIS: error= 1.60D-05 at cycle  11 NSaved=  11.
 NSaved=11 IEnMin=11 EnMin= -466.860175382707     IErMin=11 ErrMin= 1.60D-05
 ErrMax= 1.60D-05  0.00D+00 EMaxC= 1.00D-01 BMatC= 2.15D-07 BMatP= 1.14D-06
 IDIUse=1 WtCom= 1.00D+00 WtEn= 0.00D+00
 Coeff-Com: -0.116D-02 0.251D-02 0.260D-03-0.134D-01 0.117D-01 0.316D-01
 Coeff-Com: -0.207D-01-0.751D-01-0.125D-01 0.339D+00 0.737D+00
 Coeff:     -0.116D-02 0.251D-02 0.260D-03-0.134D-01 0.117D-01 0.316D-01
 Coeff:     -0.207D-01-0.751D-01-0.125D-01 0.339D+00 0.737D+00
 Gap=     0.318 Goal=   None    Shift=    0.000
 Gap=     0.318 Goal=   None    Shift=    0.000
 RMSDP=7.62D-07 MaxDP=4.19D-05 DE=-1.66D-06 OVMax= 1.54D-04

 Cycle  12  Pass 1  IDiag  1:
 RMSU=  5.55D-07    CP:  8.81D-01  2.36D+00  1.35D+00  2.59D+00  3.00D+00
                    CP:  3.00D+00  3.00D+00  1.83D+00  1.37D+00  1.47D+00
                    CP:  1.17D+00
 E= -466.860175508603     Delta-E=       -0.000000125896 Rises=F Damp=F
 DIIS: error= 1.14D-05 at cycle  12 NSaved=  12.
 NSaved=12 IEnMin=12 EnMin= -466.860175508603     IErMin=12 ErrMin= 1.14D-05
 ErrMax= 1.14D-05  0.00D+00 EMaxC= 1.00D-01 BMatC= 6.50D-08 BMatP= 2.15D-07
 IDIUse=1 WtCom= 1.00D+00 WtEn= 0.00D+00
 Coeff-Com:  0.374D-03-0.813D-03-0.219D-05 0.596D-02-0.814D-02-0.157D-01
 Coeff-Com:  0.216D-01 0.338D-01-0.427D-01-0.228D+00 0.228D+00 0.101D+01
 Coeff:      0.374D-03-0.813D-03-0.219D-05 0.596D-02-0.814D-02-0.157D-01
 Coeff:      0.216D-01 0.338D-01-0.427D-01-0.228D+00 0.228D+00 0.101D+01
 Gap=     0.318 Goal=   None    Shift=    0.000
 Gap=     0.318 Goal=   None    Shift=    0.000
 RMSDP=6.10D-07 MaxDP=2.72D-05 DE=-1.26D-07 OVMax= 1.32D-04

 Cycle  13  Pass 1  IDiag  1:
 RMSU=  3.70D-07    CP:  8.81D-01  2.36D+00  1.35D+00  2.59D+00  3.00D+00
                    CP:  3.00D+00  3.00D+00  1.82D+00  1.37D+00  1.49D+00
                    CP:  1.33D+00  1.55D+00
 E= -466.860175581122     Delta-E=       -0.000000072519 Rises=F Damp=F
 DIIS: error= 6.40D-06 at cycle  13 NSaved=  13.
 NSaved=13 IEnMin=13 EnMin= -466.860175581122     IErMin=13 ErrMin= 6.40D-06
 ErrMax= 6.40D-06  0.00D+00 EMaxC= 1.00D-01 BMatC= 1.32D-08 BMatP= 6.50D-08
 IDIUse=1 WtCom= 1.00D+00 WtEn= 0.00D+00
 Coeff-Com: -0.447D-04 0.989D-04 0.608D-04-0.386D-03 0.422D-03 0.471D-03
 Coeff-Com: -0.216D-02 0.170D-02 0.814D-02-0.167D-02-0.191D+00-0.222D+00
 Coeff-Com:  0.141D+01
 Coeff:     -0.447D-04 0.989D-04 0.608D-04-0.386D-03 0.422D-03 0.471D-03
 Coeff:     -0.216D-02 0.170D-02 0.814D-02-0.167D-02-0.191D+00-0.222D+00
 Coeff:      0.141D+01
 Gap=     0.318 Goal=   None    Shift=    0.000
 Gap=     0.318 Goal=   None    Shift=    0.000
 RMSDP=3.80D-07 MaxDP=2.05D-05 DE=-7.25D-08 OVMax= 9.43D-05

 Cycle  14  Pass 1  IDiag  1:
 RMSU=  2.33D-07    CP:  8.81D-01  2.36D+00  1.35D+00  2.59D+00  3.00D+00
                    CP:  3.00D+00  3.00D+00  1.82D+00  1.37D+00  1.50D+00
                    CP:  1.38D+00  1.87D+00  1.55D+00
 E= -466.860175609708     Delta-E=       -0.000000028586 Rises=F Damp=F
 DIIS: error= 3.36D-06 at cycle  14 NSaved=  14.
 NSaved=14 IEnMin=14 EnMin= -466.860175609708     IErMin=14 ErrMin= 3.36D-06
 ErrMax= 3.36D-06  0.00D+00 EMaxC= 1.00D-01 BMatC= 3.79D-09 BMatP= 1.32D-08
 IDIUse=1 WtCom= 1.00D+00 WtEn= 0.00D+00
 Coeff-Com: -0.138D-03 0.299D-03 0.531D-04-0.174D-02 0.190D-02 0.425D-02
 Coeff-Com: -0.573D-02-0.852D-02 0.128D-01 0.628D-01-0.934D-01-0.319D+00
 Coeff-Com:  0.132D+00 0.121D+01
 Coeff:     -0.138D-03 0.299D-03 0.531D-04-0.174D-02 0.190D-02 0.425D-02
 Coeff:     -0.573D-02-0.852D-02 0.128D-01 0.628D-01-0.934D-01-0.319D+00
 Coeff:      0.132D+00 0.121D+01
 Gap=     0.318 Goal=   None    Shift=    0.000
 Gap=     0.318 Goal=   None    Shift=    0.000
 RMSDP=2.50D-07 MaxDP=1.19D-05 DE=-2.86D-08 OVMax= 6.32D-05

 Cycle  15  Pass 1  IDiag  1:
 RMSU=  8.37D-08    CP:  8.81D-01  2.36D+00  1.35D+00  2.59D+00  3.00D+00
                    CP:  3.00D+00  3.00D+00  1.82D+00  1.37D+00  1.51D+00
                    CP:  1.39D+00  2.00D+00  1.87D+00  1.79D+00
 E= -466.860175618006     Delta-E=       -0.000000008298 Rises=F Damp=F
 DIIS: error= 1.20D-06 at cycle  15 NSaved=  15.
 NSaved=15 IEnMin=15 EnMin= -466.860175618006     IErMin=15 ErrMin= 1.20D-06
 ErrMax= 1.20D-06  0.00D+00 EMaxC= 1.00D-01 BMatC= 6.29D-10 BMatP= 3.79D-09
 IDIUse=1 WtCom= 1.00D+00 WtEn= 0.00D+00
 Coeff-Com:  0.126D-04-0.275D-04-0.241D-04 0.302D-04 0.110D-03 0.167D-03
 Coeff-Com: -0.386D-03-0.892D-03 0.913D-03 0.870D-02 0.301D-01-0.619D-03
 Coeff-Com: -0.333D+00 0.217D+00 0.108D+01
 Coeff:      0.126D-04-0.275D-04-0.241D-04 0.302D-04 0.110D-03 0.167D-03
 Coeff:     -0.386D-03-0.892D-03 0.913D-03 0.870D-02 0.301D-01-0.619D-03
 Coeff:     -0.333D+00 0.217D+00 0.108D+01
 Gap=     0.318 Goal=   None    Shift=    0.000
 Gap=     0.318 Goal=   None    Shift=    0.000
 RMSDP=1.17D-07 MaxDP=5.27D-06 DE=-8.30D-09 OVMax= 2.71D-05

 Cycle  16  Pass 1  IDiag  1:
 RMSU=  3.85D-08    CP:  8.81D-01  2.36D+00  1.35D+00  2.59D+00  3.00D+00
                    CP:  3.00D+00  3.00D+00  1.82D+00  1.37D+00  1.51D+00
                    CP:  1.39D+00  2.02D+00  1.99D+00  2.17D+00  1.45D+00
 E= -466.860175619064     Delta-E=       -0.000000001058 Rises=F Damp=F
 DIIS: error= 2.08D-07 at cycle  16 NSaved=  16.
 NSaved=16 IEnMin=16 EnMin= -466.860175619064     IErMin=16 ErrMin= 2.08D-07
 ErrMax= 2.08D-07  0.00D+00 EMaxC= 1.00D-01 BMatC= 5.35D-11 BMatP= 6.29D-10
 IDIUse=1 WtCom= 1.00D+00 WtEn= 0.00D+00
 Coeff-Com:  0.723D-05-0.157D-04-0.747D-05 0.856D-04-0.783D-04-0.153D-03
 Coeff-Com:  0.229D-03 0.276D-03-0.835D-03-0.250D-02 0.149D-01 0.241D-01
 Coeff-Com: -0.847D-01-0.536D-01 0.243D+00 0.859D+00
 Coeff:      0.723D-05-0.157D-04-0.747D-05 0.856D-04-0.783D-04-0.153D-03
 Coeff:      0.229D-03 0.276D-03-0.835D-03-0.250D-02 0.149D-01 0.241D-01
 Coeff:     -0.847D-01-0.536D-01 0.243D+00 0.859D+00
 Gap=     0.318 Goal=   None    Shift=    0.000
 Gap=     0.318 Goal=   None    Shift=    0.000
 RMSDP=2.45D-08 MaxDP=1.01D-06 DE=-1.06D-09 OVMax= 3.88D-06

 Cycle  17  Pass 1  IDiag  1:
 RMSU=  1.10D-08    CP:  8.81D-01  2.36D+00  1.35D+00  2.59D+00  3.00D+00
                    CP:  3.00D+00  3.00D+00  1.82D+00  1.37D+00  1.52D+00
                    CP:  1.39D+00  2.01D+00  1.99D+00  2.21D+00  1.56D+00
                    CP:  1.34D+00
 E= -466.860175619104     Delta-E=       -0.000000000040 Rises=F Damp=F
 DIIS: error= 8.81D-08 at cycle  17 NSaved=  17.
 NSaved=17 IEnMin=17 EnMin= -466.860175619104     IErMin=17 ErrMin= 8.81D-08
 ErrMax= 8.81D-08  0.00D+00 EMaxC= 1.00D-01 BMatC= 6.94D-12 BMatP= 5.35D-11
 IDIUse=1 WtCom= 1.00D+00 WtEn= 0.00D+00
 Coeff-Com: -0.437D-06 0.987D-06 0.110D-05 0.166D-05-0.169D-04-0.706D-05
 Coeff-Com:  0.354D-04 0.123D-03-0.236D-03-0.132D-02-0.185D-02 0.278D-02
 Coeff-Com:  0.343D-01-0.377D-01-0.117D+00 0.138D+00 0.984D+00
 Coeff:     -0.437D-06 0.987D-06 0.110D-05 0.166D-05-0.169D-04-0.706D-05
 Coeff:      0.354D-04 0.123D-03-0.236D-03-0.132D-02-0.185D-02 0.278D-02
 Coeff:      0.343D-01-0.377D-01-0.117D+00 0.138D+00 0.984D+00
 Gap=     0.318 Goal=   None    Shift=    0.000
 Gap=     0.318 Goal=   None    Shift=    0.000
 RMSDP=9.21D-09 MaxDP=3.13D-07 DE=-3.96D-11 OVMax= 1.24D-06

 Error on total polarization charges =  0.01181
 SCF Done:  E(UwB97XD) =  -466.860175619     A.U. after   17 cycles
            NFock= 17  Conv=0.92D-08     -V/T= 2.0059
 <Sx>= 0.0000 <Sy>= 0.0000 <Sz>= 0.0000 <S**2>= 0.0000 S= 0.0000
 <L.S>=  0.00000000000    
 KE= 4.641395641130D+02 PE=-2.418816234002D+03 EE= 8.192767748299D+02
 --------------------------------------------------------------------
 Variational PCM results
 =======================
 <psi(f)|   H    |psi(f)>                     (a.u.) =    -466.858678
 <psi(f)|H+V(f)/2|psi(f)>                     (a.u.) =    -466.860176
 (Polarized solute)-Solvent               (kcal/mol) =      -0.94
 --------------------------------------------------------------------
 Partition over spheres:
 Sphere  on Atom  Surface  Charge   GEl     GCav    GDR
    1      C1       6.93   0.010   -0.05    0.00    0.00
    2      C2       4.80   0.007   -0.04    0.00    0.00
    3      H3       7.52  -0.010   -0.04    0.00    0.00
    4      H4       3.33  -0.005   -0.01    0.00    0.00
    5      C5       4.62   0.008   -0.06    0.00    0.00
    6      C6       4.64   0.007   -0.04    0.00    0.00
    7      H7       5.05  -0.007   -0.03    0.00    0.00
    8      H8       3.90  -0.006   -0.02    0.00    0.00
    9      C9       3.60   0.002    0.00    0.00    0.00
   10      H10      7.16  -0.007   -0.01    0.00    0.00
   11      H11      3.33  -0.003   -0.01    0.00    0.00
   12      C12      6.35   0.010   -0.05    0.00    0.00
   13      H13      7.52  -0.010   -0.03    0.00    0.00
   14      C14      6.93   0.010   -0.05    0.00    0.00
   15      H15      7.52  -0.010   -0.04    0.00    0.00
   16      C16      3.73   0.002    0.00    0.00    0.00
   17      H17      2.54  -0.002   -0.00    0.00    0.00
   18      H18      7.44  -0.008   -0.03    0.00    0.00
   19      C19      5.08   0.009   -0.06    0.00    0.00
   20      H20      5.06  -0.007   -0.03    0.00    0.00
   21      C21      6.47   0.010   -0.06    0.00    0.00
   22      H22      7.51  -0.010   -0.03    0.00    0.00
   23      C23      3.60   0.002    0.00    0.00    0.00
   24      H24      3.33  -0.003   -0.01    0.00    0.00
   25      H25      7.15  -0.007   -0.01    0.00    0.00
   26      C26      3.45   0.002    0.00    0.00    0.00
   27      H27      7.44  -0.008   -0.03    0.00    0.00
   28      H28      2.21  -0.002   -0.01    0.00    0.00
 Added spheres:    77.13   0.014   -0.21    0.00    0.00
 --------------------------------------------------------------------
 After PCM corrections, the energy is  -466.860175619     a.u.
 --------------------------------------------------------------------
 Annihilation of the first spin contaminant:
 S**2 before annihilation     0.0000,   after    -0.0000
 Leave Link  502 at Mon Aug  3 13:57:06 2020, MaxMem=  6442450944 cpu:            6973.8 elap:             293.4
 (Enter /scratch/scicomp/CentOS/7.3.1611/Haswell/software/Gaussian/g16/l601.exe)
 Copying SCF densities to generalized density rwf, IOpCl= 1 IROHF=0.

 **********************************************************************

            Population analysis using the SCF Density.

 **********************************************************************

 Alpha  occ. eigenvalues --  -10.28441 -10.28440 -10.28334 -10.28333 -10.28315
 Alpha  occ. eigenvalues --  -10.28314 -10.28241 -10.28239 -10.28023 -10.28022
 Alpha  occ. eigenvalues --  -10.27751 -10.27749  -0.94156  -0.93792  -0.84145
 Alpha  occ. eigenvalues --   -0.84118  -0.83959  -0.83764  -0.71290  -0.71282
 Alpha  occ. eigenvalues --   -0.67974  -0.67955  -0.59786  -0.59650  -0.57489
 Alpha  occ. eigenvalues --   -0.56974  -0.53423  -0.52729  -0.50952  -0.50892
 Alpha  occ. eigenvalues --   -0.50019  -0.49599  -0.47332  -0.47061  -0.45191
 Alpha  occ. eigenvalues --   -0.45018  -0.41252  -0.41107  -0.39671  -0.39296
 Alpha  occ. eigenvalues --   -0.39276  -0.39140  -0.29810  -0.27946
 Alpha virt. eigenvalues --    0.03854   0.04520   0.10525   0.12216   0.13284
 Alpha virt. eigenvalues --    0.14282   0.14592   0.15492   0.15591   0.15914
 Alpha virt. eigenvalues --    0.16871   0.16898   0.17118   0.18216   0.19886
 Alpha virt. eigenvalues --    0.20727   0.21429   0.22598   0.22965   0.23666
 Alpha virt. eigenvalues --    0.24878   0.25649   0.25860   0.26906   0.27730
 Alpha virt. eigenvalues --    0.28110   0.28917   0.29102   0.29700   0.30380
 Alpha virt. eigenvalues --    0.31089   0.31730   0.31737   0.32067   0.32733
 Alpha virt. eigenvalues --    0.33135   0.34146   0.34967   0.35239   0.37259
 Alpha virt. eigenvalues --    0.37340   0.38130   0.39618   0.40903   0.41234
 Alpha virt. eigenvalues --    0.41239   0.43005   0.43762   0.45069   0.45592
 Alpha virt. eigenvalues --    0.45834   0.46217   0.47416   0.47836   0.48051
 Alpha virt. eigenvalues --    0.48384   0.48831   0.49117   0.49559   0.49698
 Alpha virt. eigenvalues --    0.50433   0.50467   0.51152   0.51686   0.52345
 Alpha virt. eigenvalues --    0.52520   0.53123   0.54193   0.54233   0.54920
 Alpha virt. eigenvalues --    0.56878   0.57157   0.57348   0.59110   0.59164
 Alpha virt. eigenvalues --    0.59558   0.61010   0.62390   0.63006   0.64065
 Alpha virt. eigenvalues --    0.64431   0.66325   0.67693   0.68285   0.69217
 Alpha virt. eigenvalues --    0.70570   0.72331   0.72792   0.73279   0.75036
 Alpha virt. eigenvalues --    0.76429   0.77985   0.78191   0.80313   0.81321
 Alpha virt. eigenvalues --    0.81807   0.81942   0.83002   0.86504   0.86612
 Alpha virt. eigenvalues --    0.86866   0.88452   0.90740   0.91195   0.92309
 Alpha virt. eigenvalues --    0.92370   0.95058   0.95920   0.98310   0.98855
 Alpha virt. eigenvalues --    1.00640   1.03025   1.03667   1.03804   1.04145
 Alpha virt. eigenvalues --    1.06432   1.06970   1.08190   1.09619   1.11199
 Alpha virt. eigenvalues --    1.12962   1.13172   1.14161   1.14515   1.15396
 Alpha virt. eigenvalues --    1.15996   1.16049   1.16632   1.18801   1.20264
 Alpha virt. eigenvalues --    1.21232   1.22664   1.23149   1.23431   1.24459
 Alpha virt. eigenvalues --    1.24897   1.25662   1.26618   1.26957   1.28408
 Alpha virt. eigenvalues --    1.28683   1.30168   1.31970   1.32272   1.32679
 Alpha virt. eigenvalues --    1.34326   1.34627   1.35248   1.36810   1.38411
 Alpha virt. eigenvalues --    1.38602   1.39260   1.40427   1.40737   1.41830
 Alpha virt. eigenvalues --    1.41845   1.42399   1.43607   1.45090   1.45144
 Alpha virt. eigenvalues --    1.45674   1.46412   1.46535   1.46648   1.48337
 Alpha virt. eigenvalues --    1.50039   1.50132   1.51178   1.52936   1.55443
 Alpha virt. eigenvalues --    1.55817   1.57354   1.57504   1.58254   1.60553
 Alpha virt. eigenvalues --    1.60808   1.62294   1.62972   1.64771   1.67027
 Alpha virt. eigenvalues --    1.68436   1.69333   1.69824   1.71688   1.75303
 Alpha virt. eigenvalues --    1.75534   1.79654   1.80523   1.82200   1.83112
 Alpha virt. eigenvalues --    1.86731   1.87789   1.89076   1.89432   1.91208
 Alpha virt. eigenvalues --    1.92188   1.95740   1.99981   2.01280   2.01286
 Alpha virt. eigenvalues --    2.03836   2.04813   2.06782   2.07417   2.08719
 Alpha virt. eigenvalues --    2.08849   2.11541   2.12187   2.13183   2.15308
 Alpha virt. eigenvalues --    2.18743   2.19444   2.19896   2.20298   2.22130
 Alpha virt. eigenvalues --    2.22856   2.23079   2.23674   2.25267   2.25975
 Alpha virt. eigenvalues --    2.28497   2.31908   2.37055   2.37813   2.40055
 Alpha virt. eigenvalues --    2.42366   2.45922   2.46899   2.48375   2.49338
 Alpha virt. eigenvalues --    2.49944   2.50133   2.52388   2.53986   2.54572
 Alpha virt. eigenvalues --    2.54990   2.57125   2.57320   2.60213   2.60489
 Alpha virt. eigenvalues --    2.61865   2.63931   2.64268   2.65101   2.66492
 Alpha virt. eigenvalues --    2.67612   2.68473   2.70016   2.72104   2.72238
 Alpha virt. eigenvalues --    2.73069   2.73140   2.74815   2.75872   2.76493
 Alpha virt. eigenvalues --    2.77406   2.77707   2.78734   2.80188   2.80945
 Alpha virt. eigenvalues --    2.81337   2.81692   2.82361   2.83649   2.84072
 Alpha virt. eigenvalues --    2.84734   2.85735   2.86798   2.88660   2.88792
 Alpha virt. eigenvalues --    2.89655   2.89748   2.92136   2.92552   2.93057
 Alpha virt. eigenvalues --    2.94173   2.94557   2.94818   2.95832   2.98583
 Alpha virt. eigenvalues --    3.01564   3.01745   3.02816   3.03839   3.06077
 Alpha virt. eigenvalues --    3.06413   3.08033   3.08651   3.09381   3.10786
 Alpha virt. eigenvalues --    3.12026   3.12271   3.12428   3.13793   3.14670
 Alpha virt. eigenvalues --    3.14835   3.16839   3.17090   3.18329   3.18605
 Alpha virt. eigenvalues --    3.19300   3.19405   3.19934   3.20845   3.20891
 Alpha virt. eigenvalues --    3.22275   3.22280   3.23282   3.23365   3.24065
 Alpha virt. eigenvalues --    3.25248   3.25767   3.26862   3.27725   3.28069
 Alpha virt. eigenvalues --    3.28660   3.29278   3.29819   3.31099   3.31208
 Alpha virt. eigenvalues --    3.32420   3.32850   3.33162   3.33553   3.34322
 Alpha virt. eigenvalues --    3.34673   3.35219   3.35933   3.37688   3.38382
 Alpha virt. eigenvalues --    3.38784   3.39086   3.41679   3.43545   3.43562
 Alpha virt. eigenvalues --    3.44741   3.45571   3.46235   3.46674   3.46936
 Alpha virt. eigenvalues --    3.47982   3.48645   3.48997   3.49312   3.51021
 Alpha virt. eigenvalues --    3.51269   3.51615   3.53227   3.53755   3.53953
 Alpha virt. eigenvalues --    3.54604   3.55404   3.59425   3.59566   3.61256
 Alpha virt. eigenvalues --    3.63077   3.64384   3.64423   3.64682   3.64797
 Alpha virt. eigenvalues --    3.67624   3.68372   3.69806   3.71385   3.71575
 Alpha virt. eigenvalues --    3.73629   3.76040   3.76172   3.77842   3.78291
 Alpha virt. eigenvalues --    3.83938   3.84527   3.85003   3.86046   3.86227
 Alpha virt. eigenvalues --    3.87556   3.89128   3.89965   3.92370   3.93443
 Alpha virt. eigenvalues --    3.93930   3.95224   3.99063   3.99078   4.01539
 Alpha virt. eigenvalues --    4.03839   4.08006   4.09021   4.09119   4.10612
 Alpha virt. eigenvalues --    4.11747   4.12547   4.13056   4.15616   4.18034
 Alpha virt. eigenvalues --    4.19120   4.20029   4.21686   4.22532   4.22793
 Alpha virt. eigenvalues --    4.24707   4.26889   4.30812   4.30970   4.33239
 Alpha virt. eigenvalues --    4.35339   4.36685   4.37169   4.39165   4.39696
 Alpha virt. eigenvalues --    4.43536   4.44964   4.45427   4.47071   4.48327
 Alpha virt. eigenvalues --    4.48359   4.59004   4.60414   4.61344   4.64445
 Alpha virt. eigenvalues --    4.69123   4.69383   4.71393   4.73265   4.74069
 Alpha virt. eigenvalues --    4.74740   4.76687   4.77773   4.79237   4.81916
 Alpha virt. eigenvalues --    4.83582   4.84282   4.88898   4.88987   4.94124
 Alpha virt. eigenvalues --    4.94315   4.94974   4.96783   5.05167   5.08326
 Alpha virt. eigenvalues --    5.09312   5.10730   5.17768   5.18830   5.22974
 Alpha virt. eigenvalues --    5.23667   5.28927   5.31453   5.39551   5.40093
 Alpha virt. eigenvalues --    5.43335   5.44610   5.47959   5.48560   5.66078
 Alpha virt. eigenvalues --    5.69843   5.74579   5.76281   5.91418   5.96771
 Alpha virt. eigenvalues --    7.93968   7.95612   8.01961   8.02055   8.05780
 Alpha virt. eigenvalues --    8.07184   8.10953   8.11012   8.17151   8.18020
 Alpha virt. eigenvalues --    8.33415   8.35641  34.76111  34.77718  34.80876
 Alpha virt. eigenvalues --   34.81885  34.84640  34.86926  34.97264  34.97666
 Alpha virt. eigenvalues --   35.00171  35.01196  35.15120  35.18276
  Beta  occ. eigenvalues --  -10.28441 -10.28440 -10.28334 -10.28333 -10.28315
  Beta  occ. eigenvalues --  -10.28314 -10.28241 -10.28239 -10.28023 -10.28022
  Beta  occ. eigenvalues --  -10.27751 -10.27749  -0.94156  -0.93792  -0.84145
  Beta  occ. eigenvalues --   -0.84118  -0.83959  -0.83764  -0.71290  -0.71282
  Beta  occ. eigenvalues --   -0.67974  -0.67955  -0.59786  -0.59650  -0.57489
  Beta  occ. eigenvalues --   -0.56974  -0.53423  -0.52729  -0.50952  -0.50892
  Beta  occ. eigenvalues --   -0.50019  -0.49599  -0.47332  -0.47061  -0.45191
  Beta  occ. eigenvalues --   -0.45018  -0.41252  -0.41107  -0.39671  -0.39296
  Beta  occ. eigenvalues --   -0.39276  -0.39140  -0.29810  -0.27946
  Beta virt. eigenvalues --    0.03854   0.04520   0.10525   0.12216   0.13284
  Beta virt. eigenvalues --    0.14282   0.14592   0.15492   0.15591   0.15914
  Beta virt. eigenvalues --    0.16871   0.16898   0.17118   0.18216   0.19886
  Beta virt. eigenvalues --    0.20727   0.21429   0.22598   0.22965   0.23666
  Beta virt. eigenvalues --    0.24878   0.25649   0.25860   0.26906   0.27730
  Beta virt. eigenvalues --    0.28110   0.28917   0.29102   0.29700   0.30380
  Beta virt. eigenvalues --    0.31089   0.31730   0.31737   0.32067   0.32733
  Beta virt. eigenvalues --    0.33135   0.34146   0.34967   0.35239   0.37259
  Beta virt. eigenvalues --    0.37340   0.38130   0.39618   0.40903   0.41234
  Beta virt. eigenvalues --    0.41239   0.43005   0.43762   0.45069   0.45592
  Beta virt. eigenvalues --    0.45834   0.46217   0.47416   0.47836   0.48051
  Beta virt. eigenvalues --    0.48384   0.48831   0.49117   0.49559   0.49698
  Beta virt. eigenvalues --    0.50433   0.50467   0.51152   0.51686   0.52345
  Beta virt. eigenvalues --    0.52520   0.53123   0.54193   0.54233   0.54920
  Beta virt. eigenvalues --    0.56878   0.57157   0.57348   0.59110   0.59164
  Beta virt. eigenvalues --    0.59558   0.61010   0.62390   0.63006   0.64065
  Beta virt. eigenvalues --    0.64431   0.66325   0.67693   0.68285   0.69217
  Beta virt. eigenvalues --    0.70570   0.72331   0.72792   0.73279   0.75036
  Beta virt. eigenvalues --    0.76429   0.77985   0.78191   0.80313   0.81321
  Beta virt. eigenvalues --    0.81807   0.81942   0.83002   0.86504   0.86612
  Beta virt. eigenvalues --    0.86866   0.88452   0.90740   0.91195   0.92309
  Beta virt. eigenvalues --    0.92370   0.95058   0.95920   0.98310   0.98855
  Beta virt. eigenvalues --    1.00640   1.03025   1.03667   1.03804   1.04145
  Beta virt. eigenvalues --    1.06432   1.06970   1.08190   1.09619   1.11199
  Beta virt. eigenvalues --    1.12962   1.13172   1.14161   1.14515   1.15396
  Beta virt. eigenvalues --    1.15996   1.16049   1.16632   1.18801   1.20264
  Beta virt. eigenvalues --    1.21232   1.22664   1.23149   1.23431   1.24459
  Beta virt. eigenvalues --    1.24897   1.25662   1.26618   1.26957   1.28408
  Beta virt. eigenvalues --    1.28683   1.30168   1.31970   1.32272   1.32679
  Beta virt. eigenvalues --    1.34326   1.34627   1.35248   1.36810   1.38411
  Beta virt. eigenvalues --    1.38602   1.39260   1.40427   1.40737   1.41830
  Beta virt. eigenvalues --    1.41845   1.42399   1.43607   1.45090   1.45144
  Beta virt. eigenvalues --    1.45674   1.46412   1.46535   1.46648   1.48337
  Beta virt. eigenvalues --    1.50039   1.50132   1.51178   1.52936   1.55443
  Beta virt. eigenvalues --    1.55817   1.57354   1.57504   1.58254   1.60553
  Beta virt. eigenvalues --    1.60808   1.62294   1.62972   1.64771   1.67027
  Beta virt. eigenvalues --    1.68436   1.69333   1.69824   1.71688   1.75303
  Beta virt. eigenvalues --    1.75534   1.79654   1.80523   1.82200   1.83112
  Beta virt. eigenvalues --    1.86731   1.87789   1.89076   1.89432   1.91208
  Beta virt. eigenvalues --    1.92188   1.95740   1.99981   2.01280   2.01286
  Beta virt. eigenvalues --    2.03836   2.04813   2.06782   2.07417   2.08719
  Beta virt. eigenvalues --    2.08849   2.11541   2.12187   2.13183   2.15308
  Beta virt. eigenvalues --    2.18743   2.19444   2.19896   2.20298   2.22130
  Beta virt. eigenvalues --    2.22856   2.23079   2.23674   2.25267   2.25975
  Beta virt. eigenvalues --    2.28497   2.31908   2.37055   2.37813   2.40055
  Beta virt. eigenvalues --    2.42366   2.45922   2.46899   2.48375   2.49338
  Beta virt. eigenvalues --    2.49944   2.50133   2.52388   2.53986   2.54572
  Beta virt. eigenvalues --    2.54990   2.57125   2.57320   2.60213   2.60489
  Beta virt. eigenvalues --    2.61865   2.63931   2.64268   2.65101   2.66492
  Beta virt. eigenvalues --    2.67612   2.68473   2.70016   2.72104   2.72238
  Beta virt. eigenvalues --    2.73069   2.73140   2.74815   2.75872   2.76493
  Beta virt. eigenvalues --    2.77406   2.77707   2.78734   2.80188   2.80945
  Beta virt. eigenvalues --    2.81337   2.81692   2.82361   2.83649   2.84072
  Beta virt. eigenvalues --    2.84734   2.85735   2.86798   2.88660   2.88792
  Beta virt. eigenvalues --    2.89655   2.89748   2.92136   2.92552   2.93057
  Beta virt. eigenvalues --    2.94173   2.94557   2.94818   2.95832   2.98583
  Beta virt. eigenvalues --    3.01564   3.01745   3.02816   3.03839   3.06077
  Beta virt. eigenvalues --    3.06413   3.08033   3.08651   3.09381   3.10786
  Beta virt. eigenvalues --    3.12026   3.12271   3.12428   3.13793   3.14670
  Beta virt. eigenvalues --    3.14835   3.16839   3.17090   3.18329   3.18605
  Beta virt. eigenvalues --    3.19300   3.19405   3.19934   3.20845   3.20891
  Beta virt. eigenvalues --    3.22275   3.22280   3.23282   3.23365   3.24065
  Beta virt. eigenvalues --    3.25248   3.25767   3.26862   3.27725   3.28069
  Beta virt. eigenvalues --    3.28660   3.29278   3.29819   3.31099   3.31208
  Beta virt. eigenvalues --    3.32420   3.32850   3.33162   3.33553   3.34322
  Beta virt. eigenvalues --    3.34673   3.35219   3.35933   3.37688   3.38382
  Beta virt. eigenvalues --    3.38784   3.39086   3.41679   3.43545   3.43562
  Beta virt. eigenvalues --    3.44741   3.45571   3.46235   3.46674   3.46936
  Beta virt. eigenvalues --    3.47982   3.48645   3.48997   3.49312   3.51021
  Beta virt. eigenvalues --    3.51269   3.51615   3.53227   3.53755   3.53953
  Beta virt. eigenvalues --    3.54604   3.55404   3.59425   3.59566   3.61256
  Beta virt. eigenvalues --    3.63077   3.64384   3.64423   3.64682   3.64797
  Beta virt. eigenvalues --    3.67624   3.68372   3.69806   3.71385   3.71575
  Beta virt. eigenvalues --    3.73629   3.76040   3.76172   3.77842   3.78291
  Beta virt. eigenvalues --    3.83938   3.84527   3.85003   3.86046   3.86227
  Beta virt. eigenvalues --    3.87556   3.89128   3.89965   3.92370   3.93443
  Beta virt. eigenvalues --    3.93930   3.95224   3.99063   3.99078   4.01539
  Beta virt. eigenvalues --    4.03839   4.08006   4.09021   4.09119   4.10612
  Beta virt. eigenvalues --    4.11747   4.12547   4.13056   4.15616   4.18034
  Beta virt. eigenvalues --    4.19120   4.20029   4.21686   4.22532   4.22793
  Beta virt. eigenvalues --    4.24707   4.26889   4.30812   4.30970   4.33239
  Beta virt. eigenvalues --    4.35339   4.36685   4.37169   4.39165   4.39696
  Beta virt. eigenvalues --    4.43536   4.44964   4.45427   4.47071   4.48327
  Beta virt. eigenvalues --    4.48359   4.59004   4.60414   4.61344   4.64445
  Beta virt. eigenvalues --    4.69123   4.69383   4.71393   4.73265   4.74069
  Beta virt. eigenvalues --    4.74740   4.76687   4.77773   4.79237   4.81916
  Beta virt. eigenvalues --    4.83582   4.84282   4.88898   4.88987   4.94124
  Beta virt. eigenvalues --    4.94315   4.94974   4.96783   5.05167   5.08326
  Beta virt. eigenvalues --    5.09312   5.10730   5.17768   5.18830   5.22974
  Beta virt. eigenvalues --    5.23667   5.28927   5.31453   5.39551   5.40093
  Beta virt. eigenvalues --    5.43335   5.44610   5.47959   5.48560   5.66078
  Beta virt. eigenvalues --    5.69843   5.74579   5.76281   5.91418   5.96771
  Beta virt. eigenvalues --    7.93968   7.95612   8.01961   8.02055   8.05780
  Beta virt. eigenvalues --    8.07184   8.10953   8.11012   8.17151   8.18020
  Beta virt. eigenvalues --    8.33415   8.35641  34.76111  34.77718  34.80876
  Beta virt. eigenvalues --   34.81885  34.84640  34.86926  34.97264  34.97666
  Beta virt. eigenvalues --   35.00171  35.01196  35.15120  35.18276
          Condensed to atoms (all electrons):
               1          2          3          4          5          6
     1  C    5.121614   0.013081   0.422660  -0.001783   0.000081  -0.003110
     2  C    0.013081   5.217132  -0.001897   0.422921  -0.017375  -0.042640
     3  H    0.422660  -0.001897   0.497282   0.000036  -0.000044  -0.000045
     4  H   -0.001783   0.422921   0.000036   0.481461  -0.001502   0.001441
     5  C    0.000081  -0.017375  -0.000044  -0.001502   5.082164   0.559084
     6  C   -0.003110  -0.042640  -0.000045   0.001441   0.559084   5.217258
     7  H    0.000197  -0.000698  -0.000000  -0.000067   0.423296  -0.028770
     8  H   -0.000326   0.001442   0.000008   0.000016  -0.041802   0.422907
     9  C    0.001010   0.000821  -0.000001  -0.000607  -0.074061   0.276971
    10  H   -0.000013  -0.000288  -0.000001  -0.000045  -0.003651  -0.033705
    11  H    0.000093  -0.001097   0.000000   0.000001   0.006505  -0.048485
    12  C   -0.000091   0.005798   0.000002   0.001100   0.315770  -0.078322
    13  H   -0.000001   0.000015   0.000000  -0.000004  -0.037404   0.004834
    14  C    0.000107  -0.003110  -0.000000  -0.000324  -0.068329   0.013092
    15  H   -0.000000  -0.000045  -0.000000   0.000008   0.007199  -0.001897
    16  C   -0.000502   0.006568  -0.000001   0.000436   0.005933  -0.077148
    17  H   -0.000075  -0.001329  -0.000001  -0.000826   0.011110  -0.001018
    18  H    0.000001   0.000604   0.000000   0.000077  -0.002193   0.010855
    19  C   -0.068320   0.559096   0.007198  -0.041827   0.000802  -0.017389
    20  H    0.003767  -0.028727  -0.000125  -0.005797   0.000127  -0.000699
    21  C    0.600132  -0.078303  -0.033016   0.005859   0.000352   0.005805
    22  H   -0.027437   0.004843  -0.006332  -0.000088   0.000010   0.000015
    23  C   -0.089424   0.276987   0.005356  -0.016307   0.000812   0.000823
    24  H    0.012179  -0.048480  -0.000143  -0.004121   0.002763  -0.001097
    25  H    0.006148  -0.033715   0.000019   0.000154   0.000217  -0.000288
    26  C    0.290985  -0.077118  -0.030258   0.004139  -0.001387   0.006566
    27  H   -0.036355   0.010854  -0.004637  -0.000147   0.000364   0.000604
    28  H   -0.034744  -0.001023   0.001515  -0.000147  -0.002529  -0.001335
               7          8          9         10         11         12
     1  C    0.000197  -0.000326   0.001010  -0.000013   0.000093  -0.000091
     2  C   -0.000698   0.001442   0.000821  -0.000288  -0.001097   0.005798
     3  H   -0.000000   0.000008  -0.000001  -0.000001   0.000000   0.000002
     4  H   -0.000067   0.000016  -0.000607  -0.000045   0.000001   0.001100
     5  C    0.423296  -0.041802  -0.074061  -0.003651   0.006505   0.315770
     6  C   -0.028770   0.422907   0.276971  -0.033705  -0.048485  -0.078322
     7  H    0.488084  -0.005793   0.003793  -0.000305  -0.000073  -0.031401
     8  H   -0.005793   0.481312  -0.016294   0.000153  -0.004121   0.005856
     9  C    0.003793  -0.016294   4.915283   0.380972   0.441411   0.033909
    10  H   -0.000305   0.000153   0.380972   0.581106  -0.021870   0.001903
    11  H   -0.000073  -0.004121   0.441411  -0.021870   0.544399  -0.003212
    12  C   -0.031401   0.005856   0.033909   0.001903  -0.003212   4.990163
    13  H   -0.003451  -0.000088  -0.000499  -0.000053   0.000038   0.425201
    14  C    0.003760  -0.001782  -0.089439   0.006150   0.012181   0.600141
    15  H   -0.000125   0.000036   0.005356   0.000019  -0.000143  -0.033027
    16  C   -0.000723   0.004137   0.379286  -0.027592  -0.047458  -0.066500
    17  H    0.000024  -0.000146  -0.036073   0.007886  -0.008676  -0.015731
    18  H    0.000040  -0.000146  -0.042464  -0.008290  -0.001505   0.005694
    19  C    0.000127  -0.001503   0.000809   0.000217   0.002768   0.000354
    20  H    0.000006  -0.000067   0.001279   0.000078  -0.000205  -0.000096
    21  C   -0.000096   0.001101  -0.000137   0.000024  -0.000438  -0.000167
    22  H   -0.000000  -0.000004  -0.000038  -0.000000  -0.000004   0.000000
    23  C    0.001279  -0.000607   0.000157  -0.000010   0.000027  -0.000137
    24  H   -0.000205   0.000001   0.000027   0.000004  -0.000014  -0.000436
    25  H    0.000078  -0.000045  -0.000010   0.000001   0.000004   0.000024
    26  C   -0.001054   0.000437  -0.000584   0.000038  -0.000048   0.000483
    27  H   -0.000017   0.000076  -0.000026   0.000001  -0.000001  -0.000050
    28  H    0.001473  -0.000828   0.000256  -0.000011   0.000026   0.000530
              13         14         15         16         17         18
     1  C   -0.000001   0.000107  -0.000000  -0.000502  -0.000075   0.000001
     2  C    0.000015  -0.003110  -0.000045   0.006568  -0.001329   0.000604
     3  H    0.000000  -0.000000  -0.000000  -0.000001  -0.000001   0.000000
     4  H   -0.000004  -0.000324   0.000008   0.000436  -0.000826   0.000077
     5  C   -0.037404  -0.068329   0.007199   0.005933   0.011110  -0.002193
     6  C    0.004834   0.013092  -0.001897  -0.077148  -0.001018   0.010855
     7  H   -0.003451   0.003760  -0.000125  -0.000723   0.000024   0.000040
     8  H   -0.000088  -0.001782   0.000036   0.004137  -0.000146  -0.000146
     9  C   -0.000499  -0.089439   0.005356   0.379286  -0.036073  -0.042464
    10  H   -0.000053   0.006150   0.000019  -0.027592   0.007886  -0.008290
    11  H    0.000038   0.012181  -0.000143  -0.047458  -0.008676  -0.001505
    12  C    0.425201   0.600141  -0.033027  -0.066500  -0.015731   0.005694
    13  H    0.495247  -0.027464  -0.006332   0.004842  -0.000398  -0.000136
    14  C   -0.027464   5.121521   0.422663   0.291006  -0.034751  -0.036355
    15  H   -0.006332   0.422663   0.497300  -0.030253   0.001514  -0.004638
    16  C    0.004842   0.291006  -0.030253   4.909241   0.396873   0.428397
    17  H   -0.000398  -0.034751   0.001514   0.396873   0.596198  -0.022125
    18  H   -0.000136  -0.036355  -0.004638   0.428397  -0.022125   0.547264
    19  C    0.000010   0.000081  -0.000044  -0.001384  -0.002535   0.000365
    20  H   -0.000000   0.000197  -0.000000  -0.001053   0.001473  -0.000017
    21  C    0.000000  -0.000092   0.000002   0.000483   0.000530  -0.000050
    22  H    0.000000  -0.000001   0.000000   0.000008  -0.000005  -0.000001
    23  C   -0.000039   0.001009  -0.000001  -0.000584   0.000257  -0.000026
    24  H   -0.000004   0.000093   0.000000  -0.000048   0.000026  -0.000001
    25  H   -0.000000  -0.000013  -0.000001   0.000038  -0.000011   0.000001
    26  C    0.000008  -0.000502  -0.000001   0.000903   0.000143  -0.000001
    27  H   -0.000001   0.000001   0.000000  -0.000001   0.000003  -0.000000
    28  H   -0.000005  -0.000075  -0.000001   0.000143  -0.000028   0.000003
              19         20         21         22         23         24
     1  C   -0.068320   0.003767   0.600132  -0.027437  -0.089424   0.012179
     2  C    0.559096  -0.028727  -0.078303   0.004843   0.276987  -0.048480
     3  H    0.007198  -0.000125  -0.033016  -0.006332   0.005356  -0.000143
     4  H   -0.041827  -0.005797   0.005859  -0.000088  -0.016307  -0.004121
     5  C    0.000802   0.000127   0.000352   0.000010   0.000812   0.002763
     6  C   -0.017389  -0.000699   0.005805   0.000015   0.000823  -0.001097
     7  H    0.000127   0.000006  -0.000096  -0.000000   0.001279  -0.000205
     8  H   -0.001503  -0.000067   0.001101  -0.000004  -0.000607   0.000001
     9  C    0.000809   0.001279  -0.000137  -0.000038   0.000157   0.000027
    10  H    0.000217   0.000078   0.000024  -0.000000  -0.000010   0.000004
    11  H    0.002768  -0.000205  -0.000438  -0.000004   0.000027  -0.000014
    12  C    0.000354  -0.000096  -0.000167   0.000000  -0.000137  -0.000436
    13  H    0.000010  -0.000000   0.000000   0.000000  -0.000039  -0.000004
    14  C    0.000081   0.000197  -0.000092  -0.000001   0.001009   0.000093
    15  H   -0.000044  -0.000000   0.000002   0.000000  -0.000001   0.000000
    16  C   -0.001384  -0.001053   0.000483   0.000008  -0.000584  -0.000048
    17  H   -0.002535   0.001473   0.000530  -0.000005   0.000257   0.000026
    18  H    0.000365  -0.000017  -0.000050  -0.000001  -0.000026  -0.000001
    19  C    5.082147   0.423280   0.315706  -0.037436  -0.074071   0.006507
    20  H    0.423280   0.488141  -0.031438  -0.003451   0.003794  -0.000073
    21  C    0.315706  -0.031438   4.990180   0.425198   0.033907  -0.003211
    22  H   -0.037436  -0.003451   0.425198   0.495263  -0.000499   0.000038
    23  C   -0.074071   0.003794   0.033907  -0.000499   4.915308   0.441417
    24  H    0.006507  -0.000073  -0.003211   0.000038   0.441417   0.544351
    25  H   -0.003643  -0.000305   0.001899  -0.000053   0.380979  -0.021869
    26  C    0.005913  -0.000724  -0.066506   0.004844   0.379261  -0.047454
    27  H   -0.002193   0.000040   0.005695  -0.000137  -0.042461  -0.001506
    28  H    0.011115   0.000024  -0.015733  -0.000398  -0.036066  -0.008674
              25         26         27         28
     1  C    0.006148   0.290985  -0.036355  -0.034744
     2  C   -0.033715  -0.077118   0.010854  -0.001023
     3  H    0.000019  -0.030258  -0.004637   0.001515
     4  H    0.000154   0.004139  -0.000147  -0.000147
     5  C    0.000217  -0.001387   0.000364  -0.002529
     6  C   -0.000288   0.006566   0.000604  -0.001335
     7  H    0.000078  -0.001054  -0.000017   0.001473
     8  H   -0.000045   0.000437   0.000076  -0.000828
     9  C   -0.000010  -0.000584  -0.000026   0.000256
    10  H    0.000001   0.000038   0.000001  -0.000011
    11  H    0.000004  -0.000048  -0.000001   0.000026
    12  C    0.000024   0.000483  -0.000050   0.000530
    13  H   -0.000000   0.000008  -0.000001  -0.000005
    14  C   -0.000013  -0.000502   0.000001  -0.000075
    15  H   -0.000001  -0.000001   0.000000  -0.000001
    16  C    0.000038   0.000903  -0.000001   0.000143
    17  H   -0.000011   0.000143   0.000003  -0.000028
    18  H    0.000001  -0.000001  -0.000000   0.000003
    19  C   -0.003643   0.005913  -0.002193   0.011115
    20  H   -0.000305  -0.000724   0.000040   0.000024
    21  C    0.001899  -0.066506   0.005695  -0.015733
    22  H   -0.000053   0.004844  -0.000137  -0.000398
    23  C    0.380979   0.379261  -0.042461  -0.036066
    24  H   -0.021869  -0.047454  -0.001506  -0.008674
    25  H    0.581097  -0.027591  -0.008289   0.007885
    26  C   -0.027591   4.909275   0.428390   0.396887
    27  H   -0.008289   0.428390   0.547258  -0.022126
    28  H    0.007885   0.396887  -0.022126   0.596141
          Atomic-Atomic Spin Densities.
               1          2          3          4          5          6
     1  C   -0.000001  -0.000000   0.000000   0.000000  -0.000000  -0.000000
     2  C   -0.000000   0.000000   0.000000   0.000000  -0.000000  -0.000000
     3  H    0.000000   0.000000   0.000000  -0.000000  -0.000000   0.000000
     4  H    0.000000   0.000000  -0.000000   0.000000   0.000000  -0.000000
     5  C   -0.000000  -0.000000  -0.000000   0.000000  -0.000001   0.000000
     6  C   -0.000000  -0.000000   0.000000  -0.000000   0.000000  -0.000000
     7  H   -0.000000   0.000000   0.000000  -0.000000  -0.000000  -0.000000
     8  H    0.000000   0.000000  -0.000000  -0.000000  -0.000000  -0.000000
     9  C   -0.000000   0.000000  -0.000000  -0.000000  -0.000000   0.000000
    10  H   -0.000000  -0.000000  -0.000000   0.000000  -0.000000   0.000000
    11  H    0.000000  -0.000000   0.000000   0.000000   0.000000  -0.000000
    12  C   -0.000000   0.000000   0.000000  -0.000000   0.000000   0.000000
    13  H    0.000000   0.000000   0.000000   0.000000   0.000000  -0.000000
    14  C   -0.000000   0.000000  -0.000000  -0.000000   0.000000   0.000000
    15  H    0.000000  -0.000000  -0.000000   0.000000  -0.000000  -0.000000
    16  C   -0.000000   0.000000   0.000000   0.000000  -0.000000  -0.000000
    17  H   -0.000000  -0.000000  -0.000000   0.000000   0.000000   0.000000
    18  H   -0.000000   0.000000   0.000000   0.000000   0.000000  -0.000000
    19  C   -0.000000  -0.000000   0.000000   0.000000  -0.000000   0.000000
    20  H   -0.000000   0.000000   0.000000   0.000000  -0.000000  -0.000000
    21  C    0.000000  -0.000000  -0.000000  -0.000000   0.000000  -0.000000
    22  H   -0.000000   0.000000  -0.000000  -0.000000   0.000000  -0.000000
    23  C   -0.000000  -0.000000   0.000000  -0.000000  -0.000000  -0.000000
    24  H   -0.000000   0.000000  -0.000000  -0.000000   0.000000   0.000000
    25  H   -0.000000  -0.000000   0.000000   0.000000  -0.000000   0.000000
    26  C    0.000000   0.000000  -0.000000  -0.000000   0.000000  -0.000000
    27  H    0.000000   0.000000  -0.000000   0.000000   0.000000  -0.000000
    28  H    0.000000  -0.000000  -0.000000   0.000000  -0.000000   0.000000
               7          8          9         10         11         12
     1  C   -0.000000   0.000000  -0.000000  -0.000000   0.000000  -0.000000
     2  C    0.000000   0.000000   0.000000  -0.000000  -0.000000   0.000000
     3  H    0.000000  -0.000000  -0.000000  -0.000000   0.000000   0.000000
     4  H   -0.000000  -0.000000  -0.000000   0.000000   0.000000  -0.000000
     5  C   -0.000000  -0.000000  -0.000000  -0.000000   0.000000   0.000000
     6  C   -0.000000  -0.000000   0.000000   0.000000  -0.000000   0.000000
     7  H    0.000000  -0.000000   0.000000  -0.000000  -0.000000  -0.000000
     8  H   -0.000000  -0.000000   0.000000  -0.000000   0.000000   0.000000
     9  C    0.000000   0.000000  -0.000001  -0.000000   0.000000  -0.000000
    10  H   -0.000000  -0.000000  -0.000000   0.000000  -0.000000   0.000000
    11  H   -0.000000   0.000000   0.000000  -0.000000   0.000000  -0.000000
    12  C   -0.000000   0.000000  -0.000000   0.000000  -0.000000   0.000000
    13  H    0.000000   0.000000   0.000000  -0.000000  -0.000000  -0.000000
    14  C    0.000000  -0.000000   0.000000   0.000000   0.000000  -0.000000
    15  H   -0.000000   0.000000  -0.000000  -0.000000   0.000000   0.000000
    16  C   -0.000000   0.000000   0.000000  -0.000000  -0.000000   0.000000
    17  H   -0.000000  -0.000000   0.000000   0.000000  -0.000000   0.000000
    18  H    0.000000  -0.000000   0.000000   0.000000  -0.000000  -0.000000
    19  C    0.000000  -0.000000   0.000000   0.000000  -0.000000  -0.000000
    20  H    0.000000   0.000000   0.000000  -0.000000   0.000000   0.000000
    21  C   -0.000000   0.000000  -0.000000   0.000000   0.000000  -0.000000
    22  H    0.000000  -0.000000  -0.000000  -0.000000   0.000000   0.000000
    23  C   -0.000000   0.000000  -0.000000  -0.000000   0.000000   0.000000
    24  H   -0.000000  -0.000000  -0.000000   0.000000  -0.000000  -0.000000
    25  H    0.000000  -0.000000   0.000000  -0.000000  -0.000000  -0.000000
    26  C   -0.000000  -0.000000   0.000000   0.000000  -0.000000  -0.000000
    27  H   -0.000000  -0.000000  -0.000000   0.000000  -0.000000  -0.000000
    28  H    0.000000  -0.000000   0.000000   0.000000  -0.000000  -0.000000
              13         14         15         16         17         18
     1  C    0.000000  -0.000000   0.000000  -0.000000  -0.000000  -0.000000
     2  C    0.000000   0.000000  -0.000000   0.000000  -0.000000   0.000000
     3  H    0.000000  -0.000000  -0.000000   0.000000  -0.000000   0.000000
     4  H    0.000000  -0.000000   0.000000   0.000000   0.000000   0.000000
     5  C    0.000000   0.000000  -0.000000  -0.000000   0.000000   0.000000
     6  C   -0.000000   0.000000  -0.000000  -0.000000   0.000000  -0.000000
     7  H    0.000000   0.000000  -0.000000  -0.000000  -0.000000   0.000000
     8  H    0.000000  -0.000000   0.000000   0.000000  -0.000000  -0.000000
     9  C    0.000000   0.000000  -0.000000   0.000000   0.000000   0.000000
    10  H   -0.000000   0.000000  -0.000000  -0.000000   0.000000   0.000000
    11  H   -0.000000   0.000000   0.000000  -0.000000  -0.000000  -0.000000
    12  C   -0.000000  -0.000000   0.000000   0.000000   0.000000  -0.000000
    13  H   -0.000000   0.000000   0.000000  -0.000000  -0.000000   0.000000
    14  C    0.000000   0.000001  -0.000000  -0.000000  -0.000000  -0.000000
    15  H    0.000000  -0.000000  -0.000000   0.000000   0.000000   0.000000
    16  C   -0.000000  -0.000000   0.000000   0.000001  -0.000000  -0.000000
    17  H   -0.000000  -0.000000   0.000000  -0.000000   0.000000   0.000000
    18  H    0.000000  -0.000000   0.000000  -0.000000   0.000000  -0.000000
    19  C   -0.000000   0.000000   0.000000  -0.000000   0.000000  -0.000000
    20  H   -0.000000   0.000000  -0.000000   0.000000  -0.000000   0.000000
    21  C   -0.000000   0.000000  -0.000000   0.000000   0.000000   0.000000
    22  H    0.000000  -0.000000  -0.000000   0.000000  -0.000000   0.000000
    23  C    0.000000   0.000000   0.000000  -0.000000  -0.000000   0.000000
    24  H   -0.000000  -0.000000  -0.000000   0.000000   0.000000   0.000000
    25  H    0.000000   0.000000   0.000000  -0.000000  -0.000000  -0.000000
    26  C   -0.000000   0.000000  -0.000000  -0.000000   0.000000   0.000000
    27  H   -0.000000   0.000000  -0.000000  -0.000000   0.000000   0.000000
    28  H    0.000000   0.000000   0.000000  -0.000000   0.000000  -0.000000
              19         20         21         22         23         24
     1  C   -0.000000  -0.000000   0.000000  -0.000000  -0.000000  -0.000000
     2  C   -0.000000   0.000000  -0.000000   0.000000  -0.000000   0.000000
     3  H    0.000000   0.000000  -0.000000  -0.000000   0.000000  -0.000000
     4  H    0.000000   0.000000  -0.000000  -0.000000  -0.000000  -0.000000
     5  C   -0.000000  -0.000000   0.000000   0.000000  -0.000000   0.000000
     6  C    0.000000  -0.000000  -0.000000  -0.000000  -0.000000   0.000000
     7  H    0.000000   0.000000  -0.000000   0.000000  -0.000000  -0.000000
     8  H   -0.000000   0.000000   0.000000  -0.000000   0.000000  -0.000000
     9  C    0.000000   0.000000  -0.000000  -0.000000  -0.000000  -0.000000
    10  H    0.000000  -0.000000   0.000000  -0.000000  -0.000000   0.000000
    11  H   -0.000000   0.000000   0.000000   0.000000   0.000000  -0.000000
    12  C   -0.000000   0.000000  -0.000000   0.000000   0.000000  -0.000000
    13  H   -0.000000  -0.000000  -0.000000   0.000000   0.000000  -0.000000
    14  C    0.000000   0.000000   0.000000  -0.000000   0.000000  -0.000000
    15  H    0.000000  -0.000000  -0.000000  -0.000000   0.000000  -0.000000
    16  C   -0.000000   0.000000   0.000000   0.000000  -0.000000   0.000000
    17  H    0.000000  -0.000000   0.000000  -0.000000  -0.000000   0.000000
    18  H   -0.000000   0.000000   0.000000   0.000000   0.000000   0.000000
    19  C    0.000001   0.000000  -0.000000  -0.000000   0.000000  -0.000000
[...]
     5  C   -0.000000   0.000000   0.000000  -0.000000
     6  C    0.000000  -0.000000  -0.000000   0.000000
     7  H    0.000000  -0.000000  -0.000000   0.000000
     8  H   -0.000000  -0.000000  -0.000000  -0.000000
     9  C    0.000000   0.000000  -0.000000   0.000000
    10  H   -0.000000   0.000000   0.000000   0.000000
    11  H   -0.000000  -0.000000  -0.000000  -0.000000
    12  C   -0.000000  -0.000000  -0.000000  -0.000000
    13  H    0.000000  -0.000000  -0.000000   0.000000
    14  C    0.000000   0.000000   0.000000   0.000000
    15  H    0.000000  -0.000000  -0.000000   0.000000
    16  C   -0.000000  -0.000000  -0.000000  -0.000000
    17  H   -0.000000   0.000000   0.000000   0.000000
    18  H   -0.000000   0.000000   0.000000  -0.000000
    19  C    0.000000   0.000000  -0.000000  -0.000000
    20  H    0.000000   0.000000  -0.000000   0.000000
    21  C   -0.000000  -0.000000   0.000000  -0.000000
    22  H    0.000000   0.000000  -0.000000   0.000000
    23  C    0.000000  -0.000000  -0.000000  -0.000000
    24  H    0.000000   0.000000   0.000000   0.000000
    25  H   -0.000000   0.000000  -0.000000  -0.000000
    26  C    0.000000  -0.000001   0.000000   0.000000
    27  H   -0.000000   0.000000   0.000000  -0.000000
    28  H   -0.000000   0.000000  -0.000000  -0.000000
 Mulliken charges and spin densities:
               1          2
     1  C   -0.209875  -0.000001
     2  C   -0.184319  -0.000000
     3  H    0.142425   0.000000
     4  H    0.155941   0.000000
     5  C   -0.166313  -0.000001
     6  C   -0.184309   0.000000
     7  H    0.150621   0.000000
     8  H    0.156070  -0.000000
     9  C   -0.181106  -0.000001
    10  H    0.117285   0.000000
    11  H    0.129897   0.000000
    12  C   -0.157756   0.000000
    13  H    0.145680  -0.000000
    14  C   -0.209765   0.000001
    15  H    0.142410  -0.000000
    16  C   -0.175048   0.000000
    17  H    0.107691  -0.000000
    18  H    0.124650  -0.000000
    19  C   -0.166149   0.000001
    20  H    0.150574  -0.000000
    21  C   -0.157685  -0.000000
    22  H    0.145664   0.000000
    23  C   -0.181143   0.000001
    24  H    0.129929  -0.000000
    25  H    0.117292  -0.000000
    26  C   -0.175046  -0.000000
    27  H    0.124659   0.000000
    28  H    0.107725   0.000000
 Sum of Mulliken charges =  -0.00000  -0.00000
 Mulliken charges and spin densities with hydrogens summed into heavy atoms:
               1          2
     1  C   -0.067450  -0.000001
     2  C   -0.028378  -0.000000
     5  C   -0.015692  -0.000000
     6  C   -0.028239   0.000000
     9  C    0.066076  -0.000000
    12  C   -0.012076  -0.000000
    14  C   -0.067355   0.000001
    16  C    0.057294   0.000000
    19  C   -0.015575   0.000000
    21  C   -0.012021   0.000000
    23  C    0.066079   0.000000
    26  C    0.057337  -0.000000
 Electronic spatial extent (au):  <R**2>=           2362.8119
 Charge=              0.0000 electrons
 Dipole moment (field-independent basis, Debye):
    X=             -0.0003    Y=              0.0007    Z=              0.0001  Tot=              0.0007
 Quadrupole moment (field-independent basis, Debye-Ang):
   XX=            -72.8678   YY=            -69.7343   ZZ=            -76.3874
   XY=             -3.1908   XZ=             -4.0751   YZ=             -1.6837
 Traceless Quadrupole moment (field-independent basis, Debye-Ang):
   XX=              0.1287   YY=              3.2622   ZZ=             -3.3909
   XY=             -3.1908   XZ=             -4.0751   YZ=             -1.6837
 Octapole moment (field-independent basis, Debye-Ang**2):
  XXX=             -0.0061  YYY=              0.0052  ZZZ=              0.0004  XYY=              0.0007
  XXY=              0.0004  XXZ=             -0.0005  XZZ=             -0.0010  YZZ=              0.0003
  YYZ=              0.0003  XYZ=             -0.0000
 Hexadecapole moment (field-independent basis, Debye-Ang**3):
 XXXX=          -2144.6266 YYYY=           -627.8894 ZZZZ=           -476.4811 XXXY=           -124.3730
 XXXZ=           -183.7278 YYYX=            -73.5121 YYYZ=            -11.8516 ZZZX=           -126.3850
 ZZZY=            -25.5381 XXYY=           -455.7424 XXZZ=           -453.4954 YYZZ=           -199.2397
 XXYZ=            -27.3814 YYXZ=            -44.7094 ZZXY=            -48.9617
 N-N= 6.685397194395D+02 E-N=-2.418816228954D+03  KE= 4.641395641130D+02
                          Isotropic Fermi Contact Couplings
        Atom                 a.u.       MegaHertz       Gauss      10(-4) cm-1
     1  C(13)             -0.00000      -0.00003      -0.00001      -0.00001
     2  C(13)             -0.00000      -0.00006      -0.00002      -0.00002
     3  H(1)               0.00000       0.00000       0.00000       0.00000
     4  H(1)               0.00000       0.00007       0.00002       0.00002
     5  C(13)             -0.00000      -0.00018      -0.00006      -0.00006
     6  C(13)              0.00000       0.00006       0.00002       0.00002
     7  H(1)               0.00000       0.00027       0.00010       0.00009
     8  H(1)              -0.00000      -0.00007      -0.00002      -0.00002
     9  C(13)             -0.00000      -0.00023      -0.00008      -0.00008
    10  H(1)               0.00000       0.00011       0.00004       0.00004
    11  H(1)               0.00000       0.00012       0.00004       0.00004
    12  C(13)              0.00000       0.00012       0.00004       0.00004
    13  H(1)              -0.00000      -0.00022      -0.00008      -0.00007
    14  C(13)              0.00000       0.00002       0.00001       0.00001
    15  H(1)              -0.00000      -0.00000      -0.00000      -0.00000
    16  C(13)              0.00000       0.00013       0.00005       0.00004
    17  H(1)              -0.00000      -0.00004      -0.00001      -0.00001
    18  H(1)              -0.00000      -0.00005      -0.00002      -0.00002
    19  C(13)              0.00000       0.00018       0.00006       0.00006
    20  H(1)              -0.00000      -0.00027      -0.00010      -0.00009
    21  C(13)             -0.00000      -0.00012      -0.00004      -0.00004
    22  H(1)               0.00000       0.00022       0.00008       0.00007
    23  C(13)              0.00000       0.00023       0.00008       0.00008
    24  H(1)              -0.00000      -0.00012      -0.00004      -0.00004
    25  H(1)              -0.00000      -0.00010      -0.00004      -0.00004
    26  C(13)             -0.00000      -0.00013      -0.00005      -0.00004
    27  H(1)               0.00000       0.00004       0.00002       0.00001
    28  H(1)               0.00000       0.00003       0.00001       0.00001
 --------------------------------------------------------
       Center         ----  Spin Dipole Couplings  ----
                      3XX-RR        3YY-RR        3ZZ-RR
 --------------------------------------------------------
     1   Atom       -0.000000      0.000000      0.000000
     2   Atom        0.000000     -0.000000     -0.000000
     3   Atom        0.000000      0.000000     -0.000000
     4   Atom       -0.000000     -0.000000      0.000000
     5   Atom       -0.000000     -0.000000      0.000001
     6   Atom       -0.000000      0.000000      0.000000
     7   Atom        0.000000     -0.000000      0.000000
     8   Atom        0.000000     -0.000000     -0.000000
     9   Atom       -0.000000      0.000000     -0.000000
    10   Atom        0.000000      0.000000     -0.000000
    11   Atom        0.000000     -0.000000      0.000000
    12   Atom        0.000000      0.000001     -0.000001
    13   Atom       -0.000000      0.000000     -0.000000
    14   Atom        0.000000     -0.000000     -0.000000
    15   Atom       -0.000000     -0.000000      0.000000
    16   Atom        0.000000     -0.000000      0.000000
    17   Atom        0.000000     -0.000000      0.000000
    18   Atom        0.000000      0.000000     -0.000000
    19   Atom        0.000000      0.000000     -0.000001
    20   Atom       -0.000000      0.000000     -0.000000
    21   Atom       -0.000000     -0.000001      0.000001
    22   Atom        0.000000     -0.000000      0.000000
    23   Atom        0.000000     -0.000000      0.000000
    24   Atom       -0.000000      0.000000     -0.000000
    25   Atom       -0.000000     -0.000000      0.000000
    26   Atom       -0.000000      0.000000     -0.000000
    27   Atom       -0.000000     -0.000000      0.000000
    28   Atom       -0.000000      0.000000     -0.000000
 --------------------------------------------------------
                        XY            XZ            YZ
 --------------------------------------------------------
     1   Atom        0.000000     -0.000001      0.000000
     2   Atom        0.000000      0.000000      0.000000
     3   Atom       -0.000000      0.000000      0.000000
     4   Atom       -0.000000     -0.000000      0.000000
     5   Atom        0.000000     -0.000000     -0.000000
     6   Atom       -0.000000     -0.000000     -0.000000
     7   Atom        0.000000      0.000000     -0.000000
     8   Atom        0.000000      0.000000     -0.000000
     9   Atom       -0.000000      0.000000     -0.000000
    10   Atom        0.000000     -0.000000      0.000000
    11   Atom       -0.000000     -0.000000     -0.000000
    12   Atom        0.000000     -0.000000     -0.000000
    13   Atom        0.000000     -0.000000     -0.000000
    14   Atom       -0.000000      0.000001     -0.000000
    15   Atom        0.000000     -0.000000     -0.000000
    16   Atom       -0.000000     -0.000000     -0.000000
    17   Atom        0.000000      0.000000      0.000000
    18   Atom       -0.000000      0.000000     -0.000000
    19   Atom       -0.000000      0.000000      0.000000
    20   Atom       -0.000000     -0.000000      0.000000
    21   Atom       -0.000000      0.000000      0.000000
    22   Atom       -0.000000      0.000000      0.000000
    23   Atom        0.000000     -0.000000      0.000000
    24   Atom        0.000000      0.000000      0.000000
    25   Atom       -0.000000      0.000000     -0.000000
    26   Atom        0.000000      0.000000      0.000000
    27   Atom        0.000000     -0.000000      0.000000
    28   Atom       -0.000000     -0.000000     -0.000000
 --------------------------------------------------------


 ---------------------------------------------------------------------------------
              Anisotropic Spin Dipole Couplings in Principal Axis System
 ---------------------------------------------------------------------------------

       Atom             a.u.   MegaHertz   Gauss  10(-4) cm-1        Axes

              Baa    -0.0000    -0.000    -0.000    -0.000  0.8100 -0.1477  0.5676
     1 C(13)  Bbb     0.0000     0.000     0.000     0.000  0.1402  0.9885  0.0570
              Bcc     0.0000     0.000     0.000     0.000 -0.5695  0.0334  0.8213
 
              Baa    -0.0000    -0.000    -0.000    -0.000 -0.4401  0.2222  0.8700
     2 C(13)  Bbb    -0.0000    -0.000    -0.000    -0.000 -0.2109  0.9162 -0.3407
              Bcc     0.0000     0.000     0.000     0.000  0.8728  0.3335  0.3564
 
              Baa    -0.0000    -0.000    -0.000    -0.000 -0.3011 -0.1890  0.9347
     3 H(1)   Bbb     0.0000     0.000     0.000     0.000  0.9313  0.1524  0.3308
              Bcc     0.0000     0.000     0.000     0.000 -0.2050  0.9701  0.1302
 
              Baa    -0.0000    -0.000    -0.000    -0.000  0.9789  0.1722  0.1099
     4 H(1)   Bbb    -0.0000    -0.000    -0.000    -0.000 -0.1330  0.9457 -0.2967
              Bcc     0.0000     0.000     0.000     0.000 -0.1551  0.2758  0.9486
 
              Baa    -0.0000    -0.000    -0.000    -0.000  0.7642 -0.6449 -0.0119
     5 C(13)  Bbb    -0.0000    -0.000    -0.000    -0.000  0.6342  0.7478  0.1964
              Bcc     0.0000     0.000     0.000     0.000 -0.1177 -0.1576  0.9805
 
              Baa    -0.0000    -0.000    -0.000    -0.000  0.8785  0.3395  0.3362
     6 C(13)  Bbb     0.0000     0.000     0.000     0.000 -0.2259  0.9152 -0.3337
              Bcc     0.0000     0.000     0.000     0.000 -0.4210  0.2172  0.8807
 
              Baa    -0.0000    -0.000    -0.000    -0.000 -0.4940  0.8344  0.2442
     7 H(1)   Bbb     0.0000     0.000     0.000     0.000  0.8595  0.5111 -0.0077
              Bcc     0.0000     0.000     0.000     0.000  0.1312 -0.2061  0.9697
 
              Baa    -0.0000    -0.000    -0.000    -0.000 -0.1488  0.2824  0.9477
     8 H(1)   Bbb     0.0000     0.000     0.000     0.000 -0.1329  0.9439 -0.3022
              Bcc     0.0000     0.000     0.000     0.000  0.9799  0.1709  0.1030
 
              Baa    -0.0000    -0.000    -0.000    -0.000  0.7816  0.1462 -0.6063
     9 C(13)  Bbb    -0.0000    -0.000    -0.000    -0.000  0.4466  0.5475  0.7077
              Bcc     0.0000     0.000     0.000     0.000 -0.4355  0.8239 -0.3626
 
              Baa    -0.0000    -0.000    -0.000    -0.000  0.5214 -0.1895  0.8320
    10 H(1)   Bbb     0.0000     0.000     0.000     0.000 -0.5943  0.6190  0.5134
              Bcc     0.0000     0.000     0.000     0.000  0.6123  0.7622 -0.2102
 
              Baa    -0.0000    -0.000    -0.000    -0.000  0.5636  0.8236  0.0640
    11 H(1)   Bbb     0.0000     0.000     0.000     0.000 -0.4263  0.2237  0.8765
              Bcc     0.0000     0.000     0.000     0.000  0.7075 -0.5213  0.4772
 
              Baa    -0.0000    -0.000    -0.000    -0.000  0.1628  0.0607  0.9848
    12 C(13)  Bbb     0.0000     0.000     0.000     0.000  0.8797 -0.4608 -0.1171
              Bcc     0.0000     0.000     0.000     0.000  0.4467  0.8854 -0.1284
 
              Baa    -0.0000    -0.000    -0.000    -0.000  0.3348  0.1972  0.9214
    13 H(1)   Bbb    -0.0000    -0.000    -0.000    -0.000  0.9186 -0.2862 -0.2725
              Bcc     0.0000     0.000     0.000     0.000  0.2100  0.9376 -0.2770
 
              Baa    -0.0000    -0.000    -0.000    -0.000 -0.5610  0.0364  0.8270
    14 C(13)  Bbb    -0.0000    -0.000    -0.000    -0.000  0.1447  0.9880  0.0547
              Bcc     0.0000     0.000     0.000     0.000  0.8151 -0.1503  0.5595
 
              Baa    -0.0000    -0.000    -0.000    -0.000 -0.2562  0.9598  0.1143
    15 H(1)   Bbb    -0.0000    -0.000    -0.000    -0.000  0.9206  0.2063  0.3315
              Bcc     0.0000     0.000     0.000     0.000 -0.2946 -0.1902  0.9365
 
              Baa    -0.0000    -0.000    -0.000    -0.000  0.3519  0.8747  0.3332
    16 C(13)  Bbb    -0.0000    -0.000    -0.000    -0.000  0.6536 -0.4844  0.5815
              Bcc     0.0000     0.000     0.000     0.000 -0.6701 -0.0131  0.7422
 
              Baa    -0.0000    -0.000    -0.000    -0.000 -0.4577  0.8197 -0.3445
    17 H(1)   Bbb    -0.0000    -0.000    -0.000    -0.000 -0.6396 -0.0344  0.7680
              Bcc     0.0000     0.000     0.000     0.000  0.6176  0.5718  0.5400
 
              Baa    -0.0000    -0.000    -0.000    -0.000  0.6009  0.6026  0.5252
    18 H(1)   Bbb    -0.0000    -0.000    -0.000    -0.000 -0.5379 -0.1811  0.8233
              Bcc     0.0000     0.000     0.000     0.000 -0.5912  0.7772 -0.2153
 
              Baa    -0.0000    -0.000    -0.000    -0.000 -0.1053 -0.1502  0.9830
    19 C(13)  Bbb     0.0000     0.000     0.000     0.000  0.6752  0.7149  0.1816
              Bcc     0.0000     0.000     0.000     0.000  0.7300 -0.6829 -0.0261
 
              Baa    -0.0000    -0.000    -0.000    -0.000  0.1628 -0.1873  0.9687
    20 H(1)   Bbb    -0.0000    -0.000    -0.000    -0.000  0.8546  0.5174 -0.0436
              Bcc     0.0000     0.000     0.000     0.000 -0.4931  0.8350  0.2443
 
              Baa    -0.0000    -0.000    -0.000    -0.000  0.4407  0.8883 -0.1290
    21 C(13)  Bbb    -0.0000    -0.000    -0.000    -0.000  0.8813 -0.4555 -0.1257
              Bcc     0.0000     0.000     0.000     0.000  0.1704  0.0583  0.9836
 
              Baa    -0.0000    -0.000    -0.000    -0.000  0.2055  0.9390 -0.2759
    22 H(1)   Bbb     0.0000     0.000     0.000     0.000  0.9164 -0.2836 -0.2825
              Bcc     0.0000     0.000     0.000     0.000  0.3435  0.1947  0.9187
 
              Baa    -0.0000    -0.000    -0.000    -0.000 -0.4348  0.8245 -0.3620
    23 C(13)  Bbb     0.0000     0.000     0.000     0.000  0.4468  0.5466  0.7083
              Bcc     0.0000     0.000     0.000     0.000  0.7819  0.1462 -0.6061
 
              Baa    -0.0000    -0.000    -0.000    -0.000  0.7061 -0.5189  0.4817
    24 H(1)   Bbb    -0.0000    -0.000    -0.000    -0.000 -0.4305  0.2255  0.8740
              Bcc     0.0000     0.000     0.000     0.000  0.5621  0.8245  0.0642
 
              Baa    -0.0000    -0.000    -0.000    -0.000  0.6211  0.7527 -0.2183
    25 H(1)   Bbb    -0.0000    -0.000    -0.000    -0.000 -0.5837  0.6302  0.5121
              Bcc     0.0000     0.000     0.000     0.000  0.5230 -0.1906  0.8307
 
              Baa    -0.0000    -0.000    -0.000    -0.000 -0.6700 -0.0133  0.7422
    26 C(13)  Bbb     0.0000     0.000     0.000     0.000  0.6541 -0.4834  0.5818
              Bcc     0.0000     0.000     0.000     0.000  0.3510  0.8753  0.3326
 
              Baa    -0.0000    -0.000    -0.000    -0.000 -0.5884  0.7791 -0.2161
    27 H(1)   Bbb     0.0000     0.000     0.000     0.000 -0.5444 -0.1842  0.8184
              Bcc     0.0000     0.000     0.000     0.000  0.5978  0.5992  0.5325
 
              Baa    -0.0000    -0.000    -0.000    -0.000  0.6191  0.5758  0.5340
    28 H(1)   Bbb     0.0000     0.000     0.000     0.000 -0.6281 -0.0452  0.7768
              Bcc     0.0000     0.000     0.000     0.000 -0.4714  0.8164 -0.3337
 

 ---------------------------------------------------------------------------------

 No NMR shielding tensors so no spin-rotation constants.
 Leave Link  601 at Mon Aug  3 13:57:07 2020, MaxMem=  6442450944 cpu:               8.0 elap:               0.4
 (Enter /scratch/scicomp/CentOS/7.3.1611/Haswell/software/Gaussian/g16/l9999.exe)
 1\1\GINC-ATLAS-205\SP\UwB97XD\def2TZVP\C12H16\BOCHEN\03-Aug-2020\0\\#p
  uwb97xd guess=mix def2tzvp # scrf=(iefpcm,solvent=Cyclohexane,read) n
 osym 6d 10f\\endo-2 xp-pcm for eta=3\\0,1\C,0,-3.11503,-0.43856,0.2854
 45\C,0,-0.828832,-0.276745,-1.3806\H,0,-4.026619,-0.514692,0.866746\H,
 0,0.088953,-0.20593,-1.95195\C,0,1.23629,1.443298,0.887382\C,0,0.82883
 2,0.276745,1.3806\H,0,0.652342,2.342795,1.043029\H,0,-0.088953,0.20593
 ,1.95195\C,0,1.654704,-0.967003,1.216943\H,0,2.279712,-1.077701,2.1128
 93\H,0,1.007187,-1.844793,1.185737\C,0,2.487931,1.536308,0.13365\H,0,2
 .889851,2.517413,-0.089428\C,0,3.11503,0.43856,-0.285445\H,0,4.026619,
 0.514692,-0.866746\C,0,2.54072,-0.928204,-0.030413\H,0,1.955227,-1.223
 717,-0.909655\H,0,3.339904,-1.666148,0.059554\C,0,-1.23629,-1.443298,-
 0.887382\H,0,-0.652342,-2.342795,-1.043029\C,0,-2.487931,-1.536308,-0.
 13365\H,0,-2.889851,-2.517413,0.089428\C,0,-1.654704,0.967003,-1.21694
 3\H,0,-1.007187,1.844793,-1.185737\H,0,-2.279712,1.077701,-2.112893\C,
 0,-2.54072,0.928204,0.030413\H,0,-3.339904,1.666148,-0.059554\H,0,-1.9
 55227,1.223717,0.909655\\Version=ES64L-G16RevB.01\HF=-466.8601756\S2=0
 .\S2-1=0.\S2A=0.\RMSD=9.205e-09\Dipole=-0.0001071,0.0002627,0.0000334\
 Quadrupole=0.095672,2.4253595,-2.5210315,-2.3723155,-3.0297401,-1.2518
 077\PG=CI [X(C12H16)]\\@


 YE HAVE SOWN MUCH, AND BRING IN LITTLE.
 YE EAT, BUT YE HAVE NOT ENOUGH.
 YE DRINK, BUT YE ARE NOT FILLED WITH DRINK.
 YE CLOTHE YOU, BUT THERE IS NONE WARM.
 AND HE THAT EARNETH WAGES EARNETH WAGES TO PUT
 IT INTO A BAG WITH HOLES.
                                     HAGGAI I,6
 Job cpu time:       0 days  1 hours 57 minutes 38.9 seconds.
 Elapsed time:       0 days  0 hours  4 minutes 57.4 seconds.
 File lengths (MBytes):  RWF=    652 Int=      0 D2E=      0 Chk=     24 Scr=      1
 Normal termination of Gaussian 16 at Mon Aug  3 13:57:07 2020.
