 Entering Gaussian System, Link 0=g16
 Input=meso-TS_61_2_xp-Ger.com
 Output=meso-TS_61_2_xp-Ger.log
 Initial command:
 /scratch/scicomp/CentOS/7.3.1611/Haswell/software/Gaussian/g16/l1.exe "/scratch/bochen/cyclohexadiene-dimerization/wb97xd-def2tzvp/xp-pcm/meso/Gau-223750.inp" -scrdir="/scratch/bochen/cyclohexadiene-dimerization/wb97xd-def2tzvp/xp-pcm/meso/"
 Entering Link 1 = /scratch/scicomp/CentOS/7.3.1611/Haswell/software/Gaussian/g16/l1.exe PID=    223752.
  
 Copyright (c) 1988-2017, Gaussian, Inc.  All Rights Reserved.
  
 This is part of the Gaussian(R) 16 program.  It is based on
 the Gaussian(R) 09 system (copyright 2009, Gaussian, Inc.),
 the Gaussian(R) 03 system (copyright 2003, Gaussian, Inc.),
 the Gaussian(R) 98 system (copyright 1998, Gaussian, Inc.),
 the Gaussian(R) 94 system (copyright 1995, Gaussian, Inc.),
 the Gaussian 92(TM) system (copyright 1992, Gaussian, Inc.),
 the Gaussian 90(TM) system (copyright 1990, Gaussian, Inc.),
 the Gaussian 88(TM) system (copyright 1988, Gaussian, Inc.),
 the Gaussian 86(TM) system (copyright 1986, Carnegie Mellon
 University), and the Gaussian 82(TM) system (copyright 1983,
 Carnegie Mellon University). Gaussian is a federally registered
 trademark of Gaussian, Inc.
  
 This software contains proprietary and confidential information,
 including trade secrets, belonging to Gaussian, Inc.
  
 This software is provided under written license and may be
 used, copied, transmitted, or stored only in accord with that
 written license.
  
 The following legend is applicable only to US Government
 contracts under FAR:
  
                    RESTRICTED RIGHTS LEGEND
  
 Use, reproduction and disclosure by the US Government is
 subject to restrictions as set forth in subparagraphs (a)
 and (c) of the Commercial Computer Software - Restricted
 Rights clause in FAR 52.227-19.
  
 Gaussian, Inc.
 340 Quinnipiac St., Bldg. 40, Wallingford CT 06492
  
  
 ---------------------------------------------------------------
 Warning -- This program may not be used in any manner that
 competes with the business of Gaussian, Inc. or will provide
 assistance to any competitor of Gaussian, Inc.  The licensee
 of this program is prohibited from giving any competitor of
 Gaussian, Inc. access to this program.  By using this program,
 the user acknowledges that Gaussian, Inc. is engaged in the
 business of creating and licensing software in the field of
 computational chemistry and represents and warrants to the
 licensee that it is not a competitor of Gaussian, Inc. and that
 it will not use this program in any manner prohibited above.
 ---------------------------------------------------------------
  

 Cite this work as:
 Gaussian 16, Revision B.01,
 M. J. Frisch, G. W. Trucks, H. B. Schlegel, G. E. Scuseria, 
 M. A. Robb, J. R. Cheeseman, G. Scalmani, V. Barone, 
 G. A. Petersson, H. Nakatsuji, X. Li, M. Caricato, A. V. Marenich, 
 J. Bloino, B. G. Janesko, R. Gomperts, B. Mennucci, H. P. Hratchian, 
 J. V. Ortiz, A. F. Izmaylov, J. L. Sonnenberg, D. Williams-Young, 
 F. Ding, F. Lipparini, F. Egidi, J. Goings, B. Peng, A. Petrone, 
 T. Henderson, D. Ranasinghe, V. G. Zakrzewski, J. Gao, N. Rega, 
 G. Zheng, W. Liang, M. Hada, M. Ehara, K. Toyota, R. Fukuda, 
 J. Hasegawa, M. Ishida, T. Nakajima, Y. Honda, O. Kitao, H. Nakai, 
 T. Vreven, K. Throssell, J. A. Montgomery, Jr., J. E. Peralta, 
 F. Ogliaro, M. J. Bearpark, J. J. Heyd, E. N. Brothers, K. N. Kudin, 
 V. N. Staroverov, T. A. Keith, R. Kobayashi, J. Normand, 
 K. Raghavachari, A. P. Rendell, J. C. Burant, S. S. Iyengar, 
 J. Tomasi, M. Cossi, J. M. Millam, M. Klene, C. Adamo, R. Cammi, 
 J. W. Ochterski, R. L. Martin, K. Morokuma, O. Farkas, 
 J. B. Foresman, and D. J. Fox, Gaussian, Inc., Wallingford CT, 2016.
 
 ******************************************
 Gaussian 16:  ES64L-G16RevB.01 20-Dec-2017
                 4-Aug-2020 
 ******************************************
 %chk=meso-TS_61_2_xp-12.chk
 %nproc=24
 Will use up to   24 processors via shared memory.
 %mem=48GB
 ----------------------------------------------------------------------
 #p uwb97xd guess=mix def2tzvp # scrf=(iefpcm,solvent=Cyclohexane,read)
  nosym 6d 10f
 ----------------------------------------------------------------------
 1/38=1,40=2,172=1/1;
 2/12=2,15=1,17=6,18=5,40=1/2;
 3/5=44,7=101,8=22,11=2,25=1,30=1,70=2203,72=17,74=-58,116=2/1,2,3;
 4/13=-1/1;
 5/5=2,38=5,53=17/2;
 6/7=2,8=2,9=2,10=2,28=1/1;
 99/5=1,9=1/99;
 Leave Link    1 at Tue Aug  4 00:05:10 2020, MaxMem=  6442450944 cpu:               4.2 elap:               0.2
 (Enter /scratch/scicomp/CentOS/7.3.1611/Haswell/software/Gaussian/g16/l101.exe)
 -----------------------
 endo-2 xp-pcm for eta=3
 -----------------------
 Symbolic Z-matrix:
 Charge =  0 Multiplicity = 1
 6                    -3.12572  -0.44098   0.2706 
 6                    -0.76496  -0.25924  -1.28641 
 1                    -4.05851  -0.52783   0.81571 
 1                     0.17605  -0.18056  -1.81705 
 6                     1.19084   1.43106   0.82378 
 6                     0.76496   0.25924   1.28641 
 1                     0.59975   2.32807   0.96549 
 1                    -0.17605   0.18056   1.81705 
 6                     1.59488  -0.98463   1.15015 
 1                     2.15622  -1.11379   2.08453 
 1                     0.94626  -1.85741   1.06367 
 6                     2.46818   1.53245   0.11662 
 1                     2.86749   2.51668  -0.09724 
 6                     3.12572   0.44098  -0.2706 
 1                     4.05851   0.52783  -0.81571 
 6                     2.5669   -0.93549  -0.03303 
 1                     2.05986  -1.26226  -0.94921 
 1                     3.3771   -1.64953   0.12636 
 6                    -1.19084  -1.43106  -0.82378 
 1                    -0.59975  -2.32807  -0.96549 
 6                    -2.46818  -1.53245  -0.11662 
 1                    -2.86749  -2.51668   0.09724 
 6                    -1.59488   0.98463  -1.15015 
 1                    -0.94626   1.85741  -1.06367 
 1                    -2.15622   1.11379  -2.08453 
 6                    -2.5669    0.93549   0.03303 
 1                    -3.3771    1.64953  -0.12636 
 1                    -2.05986   1.26226   0.94921 
 
 ITRead=  0  0  0  0  0  0  0  0  0  0  0  0  0  0  0  0  0  0  0  0
 ITRead=  0  0  0  0  0  0  0  0
 MicOpt= -1 -1 -1 -1 -1 -1 -1 -1 -1 -1 -1 -1 -1 -1 -1 -1 -1 -1 -1 -1
 MicOpt= -1 -1 -1 -1 -1 -1 -1 -1
 NAtoms=     28 NQM=       28 NQMF=       0 NMMI=      0 NMMIF=      0
                NMic=       0 NMicF=      0.
                    Isotopes and Nuclear Properties:
 (Nuclear quadrupole moments (NQMom) in fm**2, nuclear magnetic moments (NMagM)
  in nuclear magnetons)

  Atom         1           2           3           4           5           6           7           8           9          10
 IAtWgt=          12          12           1           1          12          12           1           1          12           1
 AtmWgt=  12.0000000  12.0000000   1.0078250   1.0078250  12.0000000  12.0000000   1.0078250   1.0078250  12.0000000   1.0078250
 NucSpn=           0           0           1           1           0           0           1           1           0           1
 AtZEff=  -0.0000000  -0.0000000  -0.0000000  -0.0000000  -0.0000000  -0.0000000  -0.0000000  -0.0000000  -0.0000000  -0.0000000
 NQMom=    0.0000000   0.0000000   0.0000000   0.0000000   0.0000000   0.0000000   0.0000000   0.0000000   0.0000000   0.0000000
 NMagM=    0.0000000   0.0000000   2.7928460   2.7928460   0.0000000   0.0000000   2.7928460   2.7928460   0.0000000   2.7928460
 AtZNuc=   6.0000000   6.0000000   1.0000000   1.0000000   6.0000000   6.0000000   1.0000000   1.0000000   6.0000000   1.0000000

  Atom        11          12          13          14          15          16          17          18          19          20
 IAtWgt=           1          12           1          12           1          12           1           1          12           1
 AtmWgt=   1.0078250  12.0000000   1.0078250  12.0000000   1.0078250  12.0000000   1.0078250   1.0078250  12.0000000   1.0078250
 NucSpn=           1           0           1           0           1           0           1           1           0           1
 AtZEff=  -0.0000000  -0.0000000  -0.0000000  -0.0000000  -0.0000000  -0.0000000  -0.0000000  -0.0000000  -0.0000000  -0.0000000
 NQMom=    0.0000000   0.0000000   0.0000000   0.0000000   0.0000000   0.0000000   0.0000000   0.0000000   0.0000000   0.0000000
 NMagM=    2.7928460   0.0000000   2.7928460   0.0000000   2.7928460   0.0000000   2.7928460   2.7928460   0.0000000   2.7928460
 AtZNuc=   1.0000000   6.0000000   1.0000000   6.0000000   1.0000000   6.0000000   1.0000000   1.0000000   6.0000000   1.0000000

  Atom        21          22          23          24          25          26          27          28
 IAtWgt=          12           1          12           1           1          12           1           1
 AtmWgt=  12.0000000   1.0078250  12.0000000   1.0078250   1.0078250  12.0000000   1.0078250   1.0078250
 NucSpn=           0           1           0           1           1           0           1           1
 AtZEff=  -0.0000000  -0.0000000  -0.0000000  -0.0000000  -0.0000000  -0.0000000  -0.0000000  -0.0000000
 NQMom=    0.0000000   0.0000000   0.0000000   0.0000000   0.0000000   0.0000000   0.0000000   0.0000000
 NMagM=    0.0000000   2.7928460   0.0000000   2.7928460   2.7928460   0.0000000   2.7928460   2.7928460
 AtZNuc=   6.0000000   1.0000000   6.0000000   1.0000000   1.0000000   6.0000000   1.0000000   1.0000000
 Leave Link  101 at Tue Aug  4 00:05:10 2020, MaxMem=  6442450944 cpu:               2.4 elap:               0.1
 (Enter /scratch/scicomp/CentOS/7.3.1611/Haswell/software/Gaussian/g16/l202.exe)
                          Input orientation:                          
 ---------------------------------------------------------------------
 Center     Atomic      Atomic             Coordinates (Angstroms)
 Number     Number       Type             X           Y           Z
 ---------------------------------------------------------------------
      1          6           0       -3.125716   -0.440978    0.270604
      2          6           0       -0.764956   -0.259235   -1.286409
      3          1           0       -4.058512   -0.527829    0.815709
      4          1           0        0.176050   -0.180561   -1.817052
      5          6           0        1.190843    1.431055    0.823776
      6          6           0        0.764956    0.259235    1.286409
      7          1           0        0.599752    2.328066    0.965494
      8          1           0       -0.176050    0.180561    1.817052
      9          6           0        1.594875   -0.984626    1.150152
     10          1           0        2.156222   -1.113793    2.084526
     11          1           0        0.946262   -1.857408    1.063673
     12          6           0        2.468178    1.532445    0.116620
     13          1           0        2.867487    2.516684   -0.097237
     14          6           0        3.125716    0.440978   -0.270604
     15          1           0        4.058512    0.527829   -0.815709
     16          6           0        2.566903   -0.935493   -0.033026
     17          1           0        2.059865   -1.262257   -0.949209
     18          1           0        3.377104   -1.649532    0.126360
     19          6           0       -1.190843   -1.431055   -0.823776
     20          1           0       -0.599752   -2.328066   -0.965494
     21          6           0       -2.468178   -1.532445   -0.116620
     22          1           0       -2.867487   -2.516684    0.097237
     23          6           0       -1.594875    0.984626   -1.150152
     24          1           0       -0.946262    1.857408   -1.063673
     25          1           0       -2.156222    1.113793   -2.084526
     26          6           0       -2.566903    0.935493    0.033026
     27          1           0       -3.377104    1.649532   -0.126360
     28          1           0       -2.059865    1.262257    0.949209
 ---------------------------------------------------------------------
                    Distance matrix (angstroms):
                    1          2          3          4          5
     1  C    0.000000
     2  C    2.833815   0.000000
     3  H    1.083878   3.916447   0.000000
     4  H    3.915071   1.083173   4.998354   0.000000
     5  C    4.737424   3.336931   5.602947   3.255931   0.000000
     6  C    4.081603   3.037900   4.909875   3.189310   1.329876
     7  H    4.693569   3.691561   5.466077   3.770318   1.083560
     8  H    3.387970   3.189310   4.071611   3.668937   2.102077
     9  C    4.832508   3.468692   5.681664   3.385836   2.470886
    10  H    5.625110   4.541669   6.369943   4.473736   2.999616
    11  H    4.383633   3.317425   5.184306   3.421055   3.306261
    12  C    5.933781   3.953702   6.879763   3.453596   1.463535
    13  H    6.693396   4.723822   7.620498   4.180518   2.199543
    14  C    6.336494   4.081603   7.330197   3.387970   2.433445
    15  H    7.330197   4.909875   8.346377   4.071611   3.424508
    16  C    5.722119   3.623476   6.691985   3.077150   2.868484
    17  H    5.390055   3.016516   6.410059   2.339226   3.339552
    18  H    6.615745   4.591895   7.551278   4.022620   3.841372
    19  C    2.433445   1.329876   3.424508   2.102077   4.071674
    20  H    3.386670   2.100081   4.286789   2.436965   4.531965
    21  C    1.331765   2.427022   2.099441   3.422134   4.801574
    22  H    2.098879   3.381004   2.426991   4.287784   5.708112
    23  C    2.528709   1.501506   3.495946   2.222294   3.443242
    24  H    3.436989   2.136039   4.348279   2.445502   2.882960
    25  H    2.983935   2.111354   3.837316   2.680744   4.445416
    26  C    1.504456   2.532844   2.231323   3.491727   3.871889
    27  H    2.142664   3.436920   2.468342   4.339652   4.670828
    28  H    2.120743   2.998285   2.686414   3.838390   3.257503
                    6          7          8          9         10
     6  C    0.000000
     7  H    2.100081   0.000000
     8  H    1.083173   2.436965   0.000000
     9  C    1.501506   3.463856   2.222294   0.000000
    10  H    2.111354   3.939699   2.680744   1.097656   0.000000
    11  H    2.136039   4.200940   2.445502   1.090837   1.749030
    12  C    2.427022   2.201049   3.422134   2.857708   3.312483
    13  H    3.381004   2.511493   4.287784   3.928701   4.294922
    14  C    2.833815   3.386670   3.915071   2.528709   2.983935
    15  H    3.916447   4.286789   4.998354   3.495946   3.837316
    16  C    2.532844   3.939231   3.491727   1.532045   2.164365
    17  H    2.998285   4.323012   3.838390   2.168089   3.038894
    18  H    3.436920   4.923324   4.339652   2.160229   2.368962
    19  C    3.336931   4.531965   3.255931   3.443242   4.445416
    20  H    3.691561   5.181418   3.770318   3.331243   4.286312
    21  C    3.953702   5.048436   3.453596   4.291062   5.138617
    22  H    4.723822   6.020566   4.180518   4.834098   5.581673
    23  C    3.468692   3.331243   3.385836   4.398165   5.379334
    24  H    3.317425   2.594070   3.421055   4.408578   5.325843
    25  H    4.541669   4.286312   4.473736   5.379334   6.398461
    26  C    3.623476   3.582801   3.077150   4.717544   5.542214
    27  H    4.591895   4.179466   4.022620   5.769649   6.568233
    28  H    3.016516   2.865271   2.339226   4.294879   4.970910
                   11         12         13         14         15
    11  H    0.000000
    12  C    3.834611   0.000000
    13  H    4.916452   1.083471   0.000000
    14  C    3.436989   1.331765   2.098879   0.000000
    15  H    4.348279   2.099441   2.426991   1.083878   0.000000
    16  C    2.163135   2.474441   3.465833   1.504456   2.231323
    17  H    2.376133   3.018786   3.957083   2.120743   2.686414
    18  H    2.613572   3.309263   4.203220   2.142664   2.468342
    19  C    2.882960   4.801574   5.708112   4.737424   5.602947
    20  H    2.594070   5.048436   6.020566   4.693569   5.466077
    21  C    3.627271   5.815115   6.698145   5.933781   6.879763
    22  H    3.989151   6.698145   7.632990   6.693396   7.620498
    23  C    4.408578   4.291062   4.834098   4.832508   5.681664
    24  H    4.680503   3.627271   3.989151   4.383633   5.184306
    25  H    5.325843   5.138617   5.581673   5.625110   6.369943
    26  C    4.604873   5.071033   5.661248   5.722119   6.691985
    27  H    5.692653   5.851502   6.304579   6.615745   7.551278
    28  H    4.333845   4.611874   5.191092   5.390055   6.410059
                   16         17         18         19         20
    16  C    0.000000
    17  H    1.096929   0.000000
    18  H    1.091642   1.744118   0.000000
    19  C    3.871889   3.257503   4.670828   0.000000
    20  H    3.582801   2.865271   4.179466   1.083560   0.000000
    21  C    5.071033   4.611874   5.851502   1.463535   2.201049
    22  H    5.661248   5.191092   6.304579   2.199543   2.511493
    23  C    4.717544   4.294879   5.769649   2.470886   3.463856
    24  H    4.604873   4.333845   5.692653   3.306261   4.200940
    25  H    5.542214   4.970910   6.568233   2.999616   3.939699
    26  C    5.464514   5.215541   6.482460   2.868484   3.939231
    27  H    6.482460   6.222237   7.521105   3.841372   4.923324
    28  H    5.215541   5.191275   6.222237   3.339552   4.323012
                   21         22         23         24         25
    21  C    0.000000
    22  H    1.083471   0.000000
    23  C    2.857708   3.928701   0.000000
    24  H    3.834611   4.916452   1.090837   0.000000
    25  H    3.312483   4.294922   1.097656   1.749030   0.000000
    26  C    2.474441   3.465833   1.532045   2.163135   2.164365
    27  H    3.309263   4.203220   2.160229   2.613572   2.368962
    28  H    3.018786   3.957083   2.168089   2.376133   3.038894
                   26         27         28
    26  C    0.000000
    27  H    1.091642   0.000000
    28  H    1.096929   1.744118   0.000000
 Symmetry turned off by external request.
 Stoichiometry    C12H16
 Framework group  CI[X(C12H16)]
 Deg. of freedom    39
 Full point group                 CI      NOp   2
 Rotational constants (GHZ):           1.7262215           0.5856267           0.5325007
 Leave Link  202 at Tue Aug  4 00:05:10 2020, MaxMem=  6442450944 cpu:               0.3 elap:               0.0
 (Enter /scratch/scicomp/CentOS/7.3.1611/Haswell/software/Gaussian/g16/l301.exe)
 Standard basis: def2TZVP (6D, 10F)
 Ernie: Thresh=  0.10000D-02 Tol=  0.10000D-05 Strict=F.
   528 basis functions,   740 primitive gaussians,   528 cartesian basis functions
    44 alpha electrons       44 beta electrons
       nuclear repulsion energy       673.3961460910 Hartrees.
 IExCor= 4639 DFT=T Ex+Corr=wB97XD ExCW=0 ScaHFX=  1.000000
 ScaDFX=  1.000000  1.000000  1.000000  1.000000 ScalE2=  1.000000  1.000000
 IRadAn=      5 IRanWt=     -1 IRanGd=            0 ICorTp=0 IEmpDi=121
 HFx  wShort=  0.000000 wLong=  0.200000 cFull=  0.222036 cShort=  0.000000 cLong=  0.777964
 DFx  wShort=  0.000000 wLong=  0.200000 cFull=  0.000000 cShort=  0.000000 cLong=  1.000000
 NAtoms=   28 NActive=   28 NUniq=   28 SFac= 1.00D+00 NAtFMM=   60 NAOKFM=F Big=F
 Integral buffers will be    131072 words long.
 Raffenetti 2 integral format.
 Two-electron integral symmetry is turned off.
 R6Disp:  Grimme-D2 Dispersion energy=       -0.0217565999 Hartrees.
 Nuclear repulsion after empirical dispersion term =      673.3743894912 Hartrees.
 Using the following non-standard input for PCM:
 qrep pcmdoc geomview  nodis nocav g03defaults tsare=0.075
 Warning! Using old PCM defaults because the g03defaults keyword was found.
 These settings can be overridden by following keywords.
 nsfe=28
 NVESolv=36  SolvMW=84.1595   Rsolv=2.815
 eps=2.0165 RhoS=0.778099999999998
 --- end of non-standard input.
 Reading user-defined spheres from input:
 ISph  on   Nord    Re0     Alpha      Xe            Ye            Ze
 --- end of user-defined spheres data.
 ------------------------------------------------------------------------------
 Polarizable Continuum Model (PCM)
 =================================
 Model                : PCM.
 Atomic radii         : UA0 (Simple United Atom Topological Model).
 Polarization charges : Total charges.
 Charge compensation  : None.
 Solution method      : On-the-fly selection.
 Cavity type          : SES (Solvent Excluding Surface) (Alpha=1.000).
 Cavity algorithm     : GePol (RMin=0.200 OFac=0.890).
                        User-defined sphere list used, NSphG=   28.
                        Tesserae with average area of 0.075 Ang**2.
                        Smoothing algorithm: None.
                        Polarization charges: point-like.
                        Self-potential: constant (ISelfS= 1).
                        Self-field    : global E.n sum rule (ISelfD= 3).
 Solvent              : CycloHexane, Eps=   2.016500 Eps(inf)=   2.035188
                        RSolv=   2.815000 Ang.
 ------------------------------------------------------------------------------
 GePol: Number of generator spheres                  =      28
 GePol: Total number of spheres                      =     189
 GePol: Number of exposed spheres                    =     134 ( 70.90%)
 GePol: Number of tesserae                           =    4659
 GePol: Average area of tesserae                     =       0.05 Ang**2
 GePol: Minimum area of tessera                      =   0.10D-02 Ang**2
 GePol: Maximum area of tessera                      =    0.12497 Ang**2
 GePol: Number of small tesserae                     =       0
 GePol: Fraction of small tesserae (<1% of avg)      =       0.00%
 GePol: Total count of vertices                      =   16492
 GePol: Maximum number of vertices in a tessera      =       7
 GePol: Cavity surface area                          =    223.471 Ang**2
 GePol: Cavity volume                                =    255.188 Ang**3
 Leave Link  301 at Tue Aug  4 00:05:11 2020, MaxMem=  6442450944 cpu:               9.1 elap:               0.4
 (Enter /scratch/scicomp/CentOS/7.3.1611/Haswell/software/Gaussian/g16/l302.exe)
 NPDir=0 NMtPBC=     1 NCelOv=     1 NCel=       1 NClECP=     1 NCelD=      1
         NCelK=      1 NCelE2=     1 NClLst=     1 CellRange=     0.0.
 One-electron integrals computed using PRISM.
   1 Symmetry operations used in ECPInt.
 ECPInt:  NShTT=   19306 NPrTT=   56928 LenC2=   18467 LenP2D=   41831.
 LDataN:  DoStor=T MaxTD1= 6 Len=  172
 NBasis=   528 RedAO= T EigKep=  1.91D-05  NBF=   528
 NBsUse=   528 1.00D-06 EigRej= -1.00D+00 NBFU=   528
 Precomputing XC quadrature grid using
 IXCGrd= 4 IRadAn=           5 IRanWt=          -1 IRanGd=           0 AccXCQ= 0.00D+00.
 Generated NRdTot=       0 NPtTot=           0 NUsed=           0 NTot=          32
 NSgBfM=   525   525   525   525   525 MxSgAt=    28 MxSgA2=    28.
 Leave Link  302 at Tue Aug  4 00:05:12 2020, MaxMem=  6442450944 cpu:              13.7 elap:               0.6
 (Enter /scratch/scicomp/CentOS/7.3.1611/Haswell/software/Gaussian/g16/l303.exe)
 DipDrv:  MaxL=1.
 Leave Link  303 at Tue Aug  4 00:05:12 2020, MaxMem=  6442450944 cpu:               1.5 elap:               0.1
 (Enter /scratch/scicomp/CentOS/7.3.1611/Haswell/software/Gaussian/g16/l401.exe)
 ExpMin= 9.52D-02 ExpMax= 1.36D+04 ExpMxC= 4.63D+02 IAcc=3 IRadAn=         5 AccDes= 0.00D+00
 Harris functional with IExCor= 4639 and IRadAn=       5 diagonalized for initial guess.
 HarFok:  IExCor= 4639 AccDes= 0.00D+00 IRadAn=         5 IDoV= 1 UseB2=F ITyADJ=14
 ICtDFT=  3500011 ScaDFX=  1.000000  1.000000  1.000000  1.000000
 FoFCou: FMM=F IPFlag=           0 FMFlag=      100000 FMFlg1=           0
         NFxFlg=           0 DoJE=T BraDBF=F KetDBF=T FulRan=T
         wScrn=  0.000000 ICntrl=       500 IOpCl=  0 I1Cent=   200000004 NGrid=           0
         NMat0=    1 NMatS0=      1 NMatT0=    0 NMatD0=    1 NMtDS0=    0 NMtDT0=    0
 Symmetry not used in FoFCou.
 Harris En= -444.658930997837    
 JPrj=0 DoOrth=F DoCkMO=T.
 Mixing orbitals, IMix= 1 IMixAn=  0 NRI=1 NE=   44 Coef=  7.07106781D-01  7.07106781D-01
 Mixing orbitals, IMix= 1 IMixAn=  0 NRI=1 NE=   44 Coef= -7.07106781D-01  7.07106781D-01
 Initial guess <Sx>= 0.0000 <Sy>= 0.0000 <Sz>= 0.0000 <S**2>= 1.0000 S= 0.6180
 Leave Link  401 at Tue Aug  4 00:05:14 2020, MaxMem=  6442450944 cpu:              49.2 elap:               2.1
 (Enter /scratch/scicomp/CentOS/7.3.1611/Haswell/software/Gaussian/g16/l502.exe)
 Two-electron integral symmetry not used.
 UHF open shell SCF:
 Using DIIS extrapolation, IDIIS=  1040.
 NGot=  6442450944 LenX=  6441877030 LenY=  6441597718
 Requested convergence on RMS density matrix=1.00D-08 within 128 cycles.
 Requested convergence on MAX density matrix=1.00D-06.
 Requested convergence on             energy=1.00D-06.
 No special actions if energy rises.
 Fock matrices will be formed incrementally for  20 cycles.

 Cycle   1  Pass 1  IDiag  1:
 FoFJK:  IHMeth= 1 ICntrl=       0 DoSepK=T KAlg= 0 I1Cent=           0 FoldK=F
 IRaf=         1 NMat=       1 IRICut=       1 DoRegI=T DoRafI=F ISym2E= 0 IDoP0=0 IntGTp=1.
 FoFCou: FMM=F IPFlag=           0 FMFlag=      100000 FMFlg1=           0
         NFxFlg=           0 DoJE=T BraDBF=F KetDBF=F FulRan=T
         wScrn=  0.000000 ICntrl=       500 IOpCl=  0 I1Cent=           0 NGrid=           0
         NMat0=    1 NMatS0=      1 NMatT0=    0 NMatD0=    1 NMtDS0=    0 NMtDT0=    0
 Symmetry not used in FoFCou.
 Inv3:  Mode=1 IEnd=    65118843.
 Iteration    1 A*A^-1 deviation from unit magnitude is 4.44D-15 for   2893.
 Iteration    1 A*A^-1 deviation from orthogonality  is 1.93D-15 for   4328   3105.
 Iteration    1 A^-1*A deviation from unit magnitude is 4.22D-15 for   2893.
 Iteration    1 A^-1*A deviation from orthogonality  is 3.11D-15 for   2385   1662.
 E= -466.566911158366    
 DIIS: error= 5.27D-02 at cycle   1 NSaved=   1.
 NSaved= 1 IEnMin= 1 EnMin= -466.566911158366     IErMin= 1 ErrMin= 5.27D-02
 ErrMax= 5.27D-02  0.00D+00 EMaxC= 1.00D-01 BMatC= 4.12D+00 BMatP= 4.12D+00
 IDIUse=3 WtCom= 4.73D-01 WtEn= 5.27D-01
 Coeff-Com:  0.100D+01
 Coeff-En:   0.100D+01
 Coeff:      0.100D+01
 Gap=     0.180 Goal=   None    Shift=    0.000
 Gap=     0.180 Goal=   None    Shift=    0.000
 GapD=    0.180 DampG=1.000 DampE=0.500 DampFc=0.5000 IDamp=-1.
 Damping current iteration by 5.00D-01
 RMSDP=1.70D-03 MaxDP=9.31D-02              OVMax= 3.56D-01

 Cycle   2  Pass 1  IDiag  1:
 RMSU=  8.18D-04    CP:  9.63D-01
 E= -466.680178442426     Delta-E=       -0.113267284059 Rises=F Damp=T
 DIIS: error= 2.51D-02 at cycle   2 NSaved=   2.
 NSaved= 2 IEnMin= 2 EnMin= -466.680178442426     IErMin= 2 ErrMin= 2.51D-02
 ErrMax= 2.51D-02  0.00D+00 EMaxC= 1.00D-01 BMatC= 9.37D-01 BMatP= 4.12D+00
 IDIUse=3 WtCom= 7.49D-01 WtEn= 2.51D-01
 Coeff-Com: -0.869D+00 0.187D+01
 Coeff-En:   0.000D+00 0.100D+01
 Coeff:     -0.651D+00 0.165D+01
 Gap=     0.281 Goal=   None    Shift=    0.000
 Gap=     0.281 Goal=   None    Shift=    0.000
 RMSDP=1.21D-03 MaxDP=4.93D-02 DE=-1.13D-01 OVMax= 1.39D-01

 Cycle   3  Pass 1  IDiag  1:
 RMSU=  5.90D-04    CP:  9.07D-01  2.22D+00
 E= -466.828813584997     Delta-E=       -0.148635142571 Rises=F Damp=F
 DIIS: error= 7.85D-03 at cycle   3 NSaved=   3.
 NSaved= 3 IEnMin= 3 EnMin= -466.828813584997     IErMin= 3 ErrMin= 7.85D-03
 ErrMax= 7.85D-03  0.00D+00 EMaxC= 1.00D-01 BMatC= 2.32D-02 BMatP= 9.37D-01
 IDIUse=3 WtCom= 9.21D-01 WtEn= 7.85D-02
 Coeff-Com: -0.312D+00 0.668D+00 0.643D+00
 Coeff-En:   0.000D+00 0.000D+00 0.100D+01
 Coeff:     -0.287D+00 0.616D+00 0.671D+00
 Gap=     0.303 Goal=   None    Shift=    0.000
 Gap=     0.303 Goal=   None    Shift=    0.000
 RMSDP=2.14D-04 MaxDP=1.08D-02 DE=-1.49D-01 OVMax= 6.46D-02

 Cycle   4  Pass 1  IDiag  1:
 RMSU=  1.97D-04    CP:  9.00D-01  2.31D+00  1.01D+00
 E= -466.839426050701     Delta-E=       -0.010612465704 Rises=F Damp=F
 DIIS: error= 5.13D-03 at cycle   4 NSaved=   4.
 NSaved= 4 IEnMin= 4 EnMin= -466.839426050701     IErMin= 4 ErrMin= 5.13D-03
 ErrMax= 5.13D-03  0.00D+00 EMaxC= 1.00D-01 BMatC= 2.06D-03 BMatP= 2.32D-02
 IDIUse=3 WtCom= 9.49D-01 WtEn= 5.13D-02
 Coeff-Com:  0.148D+00-0.316D+00-0.760D-01 0.124D+01
 Coeff-En:   0.000D+00 0.000D+00 0.000D+00 0.100D+01
 Coeff:      0.140D+00-0.300D+00-0.721D-01 0.123D+01
 Gap=     0.314 Goal=   None    Shift=    0.000
 Gap=     0.314 Goal=   None    Shift=    0.000
 RMSDP=2.16D-04 MaxDP=1.28D-02 DE=-1.06D-02 OVMax= 7.73D-02

 Cycle   5  Pass 1  IDiag  1:
 RMSU=  8.54D-05    CP:  8.94D-01  2.36D+00  1.25D+00  1.65D+00
 E= -466.844083337648     Delta-E=       -0.004657286947 Rises=F Damp=F
 DIIS: error= 2.28D-03 at cycle   5 NSaved=   5.
 NSaved= 5 IEnMin= 5 EnMin= -466.844083337648     IErMin= 5 ErrMin= 2.28D-03
 ErrMax= 2.28D-03  0.00D+00 EMaxC= 1.00D-01 BMatC= 8.22D-04 BMatP= 2.06D-03
 IDIUse=3 WtCom= 9.77D-01 WtEn= 2.28D-02
 Coeff-Com:  0.611D-01-0.131D+00-0.662D-01 0.347D+00 0.789D+00
 Coeff-En:   0.000D+00 0.000D+00 0.000D+00 0.000D+00 0.100D+01
 Coeff:      0.597D-01-0.128D+00-0.647D-01 0.339D+00 0.794D+00
 Gap=     0.316 Goal=   None    Shift=    0.000
 Gap=     0.316 Goal=   None    Shift=    0.000
 RMSDP=7.44D-05 MaxDP=3.25D-03 DE=-4.66D-03 OVMax= 2.70D-02

 Cycle   6  Pass 1  IDiag  1:
 RMSU=  3.13D-05    CP:  8.92D-01  2.37D+00  1.28D+00  1.92D+00  1.39D+00
 E= -466.845407339990     Delta-E=       -0.001324002342 Rises=F Damp=F
 DIIS: error= 1.67D-03 at cycle   6 NSaved=   6.
 NSaved= 6 IEnMin= 6 EnMin= -466.845407339990     IErMin= 6 ErrMin= 1.67D-03
 ErrMax= 1.67D-03  0.00D+00 EMaxC= 1.00D-01 BMatC= 5.21D-04 BMatP= 8.22D-04
 IDIUse=3 WtCom= 9.83D-01 WtEn= 1.67D-02
 Coeff-Com: -0.827D-01 0.177D+00 0.574D-01-0.615D+00 0.724D-01 0.139D+01
 Coeff-En:   0.000D+00 0.000D+00 0.000D+00 0.000D+00 0.000D+00 0.100D+01
 Coeff:     -0.813D-01 0.174D+00 0.565D-01-0.605D+00 0.712D-01 0.138D+01
 Gap=     0.313 Goal=   None    Shift=    0.000
 Gap=     0.313 Goal=   None    Shift=    0.000
 RMSDP=1.02D-04 MaxDP=4.06D-03 DE=-1.32D-03 OVMax= 3.76D-02

 Cycle   7  Pass 1  IDiag  1:
 RMSU=  3.16D-05    CP:  8.90D-01  2.37D+00  1.33D+00  2.21D+00  2.11D+00
                    CP:  2.29D+00
 E= -466.847028627163     Delta-E=       -0.001621287173 Rises=F Damp=F
 DIIS: error= 1.06D-03 at cycle   7 NSaved=   7.
 NSaved= 7 IEnMin= 7 EnMin= -466.847028627163     IErMin= 7 ErrMin= 1.06D-03
 ErrMax= 1.06D-03  0.00D+00 EMaxC= 1.00D-01 BMatC= 2.64D-04 BMatP= 5.21D-04
 IDIUse=3 WtCom= 9.89D-01 WtEn= 1.06D-02
 Coeff-Com: -0.234D-01 0.506D-01 0.407D-01 0.616D-02-0.729D+00-0.484D+00
 Coeff-Com:  0.214D+01
 Coeff-En:   0.000D+00 0.000D+00 0.000D+00 0.000D+00 0.000D+00 0.000D+00
 Coeff-En:   0.100D+01
 Coeff:     -0.231D-01 0.501D-01 0.402D-01 0.609D-02-0.721D+00-0.479D+00
 Coeff:      0.213D+01
 Gap=     0.313 Goal=   None    Shift=    0.000
 Gap=     0.313 Goal=   None    Shift=    0.000
 RMSDP=1.39D-04 MaxDP=6.56D-03 DE=-1.62D-03 OVMax= 5.15D-02

 Cycle   8  Pass 1  IDiag  1:
 RMSU=  5.72D-05    CP:  8.88D-01  2.36D+00  1.37D+00  2.53D+00  3.00D+00
                    CP:  3.00D+00  2.69D+00
 E= -466.848425981405     Delta-E=       -0.001397354241 Rises=F Damp=F
 DIIS: error= 3.65D-04 at cycle   8 NSaved=   8.
 NSaved= 8 IEnMin= 8 EnMin= -466.848425981405     IErMin= 8 ErrMin= 3.65D-04
 ErrMax= 3.65D-04  0.00D+00 EMaxC= 1.00D-01 BMatC= 6.19D-05 BMatP= 2.64D-04
 IDIUse=3 WtCom= 9.96D-01 WtEn= 3.65D-03
 Coeff-Com:  0.255D-01-0.548D-01-0.769D-02 0.267D+00-0.235D+00-0.712D+00
 Coeff-Com:  0.608D+00 0.111D+01
 Coeff-En:   0.000D+00 0.000D+00 0.000D+00 0.000D+00 0.000D+00 0.000D+00
 Coeff-En:   0.000D+00 0.100D+01
 Coeff:      0.254D-01-0.546D-01-0.766D-02 0.266D+00-0.234D+00-0.710D+00
 Coeff:      0.606D+00 0.111D+01
 Gap=     0.315 Goal=   None    Shift=    0.000
 Gap=     0.315 Goal=   None    Shift=    0.000
 RMSDP=6.26D-05 MaxDP=3.08D-03 DE=-1.40D-03 OVMax= 2.31D-02

 Cycle   9  Pass 1  IDiag  1:
 RMSU=  3.76D-05    CP:  8.87D-01  2.36D+00  1.38D+00  2.64D+00  3.00D+00
                    CP:  3.00D+00  3.00D+00  1.67D+00
 E= -466.848664052464     Delta-E=       -0.000238071059 Rises=F Damp=F
 DIIS: error= 1.19D-04 at cycle   9 NSaved=   9.
 NSaved= 9 IEnMin= 9 EnMin= -466.848664052464     IErMin= 9 ErrMin= 1.19D-04
 ErrMax= 1.19D-04  0.00D+00 EMaxC= 1.00D-01 BMatC= 9.70D-06 BMatP= 6.19D-05
 IDIUse=3 WtCom= 9.99D-01 WtEn= 1.19D-03
 Coeff-Com:  0.130D-01-0.279D-01-0.886D-02 0.920D-01 0.351D-01-0.165D+00
 Coeff-Com: -0.130D+00 0.318D+00 0.874D+00
 Coeff-En:   0.000D+00 0.000D+00 0.000D+00 0.000D+00 0.000D+00 0.000D+00
 Coeff-En:   0.000D+00 0.000D+00 0.100D+01
 Coeff:      0.129D-01-0.278D-01-0.885D-02 0.919D-01 0.350D-01-0.165D+00
 Coeff:     -0.130D+00 0.318D+00 0.874D+00
 Gap=     0.314 Goal=   None    Shift=    0.000
 Gap=     0.314 Goal=   None    Shift=    0.000
 RMSDP=1.54D-05 MaxDP=7.67D-04 DE=-2.38D-04 OVMax= 5.65D-03

 Cycle  10  Pass 1  IDiag  1:
 RMSU=  5.61D-06    CP:  8.87D-01  2.36D+00  1.39D+00  2.65D+00  3.00D+00
                    CP:  3.00D+00  3.00D+00  1.83D+00  1.27D+00
 E= -466.848681751745     Delta-E=       -0.000017699281 Rises=F Damp=F
 DIIS: error= 5.15D-05 at cycle  10 NSaved=  10.
 NSaved=10 IEnMin=10 EnMin= -466.848681751745     IErMin=10 ErrMin= 5.15D-05
 ErrMax= 5.15D-05  0.00D+00 EMaxC= 1.00D-01 BMatC= 1.56D-06 BMatP= 9.70D-06
 IDIUse=1 WtCom= 1.00D+00 WtEn= 0.00D+00
 Coeff-Com: -0.178D-02 0.384D-02-0.457D-03-0.306D-01 0.456D-01 0.943D-01
 Coeff-Com: -0.122D+00-0.179D+00 0.173D+00 0.102D+01
 Coeff:     -0.178D-02 0.384D-02-0.457D-03-0.306D-01 0.456D-01 0.943D-01
 Coeff:     -0.122D+00-0.179D+00 0.173D+00 0.102D+01
 Gap=     0.314 Goal=   None    Shift=    0.000
 Gap=     0.314 Goal=   None    Shift=    0.000
 RMSDP=6.78D-06 MaxDP=3.26D-04 DE=-1.77D-05 OVMax= 2.52D-03

 Cycle  11  Pass 1  IDiag  1:
 RMSU=  2.10D-06    CP:  8.87D-01  2.36D+00  1.39D+00  2.66D+00  3.00D+00
                    CP:  3.00D+00  3.00D+00  1.89D+00  1.38D+00  1.42D+00
 E= -466.848684168207     Delta-E=       -0.000002416462 Rises=F Damp=F
 DIIS: error= 2.06D-05 at cycle  11 NSaved=  11.
 NSaved=11 IEnMin=11 EnMin= -466.848684168207     IErMin=11 ErrMin= 2.06D-05
 ErrMax= 2.06D-05  0.00D+00 EMaxC= 1.00D-01 BMatC= 3.65D-07 BMatP= 1.56D-06
 IDIUse=1 WtCom= 1.00D+00 WtEn= 0.00D+00
 Coeff-Com: -0.159D-02 0.343D-02 0.415D-03-0.184D-01 0.144D-01 0.469D-01
 Coeff-Com: -0.330D-01-0.958D-01-0.666D-02 0.409D+00 0.682D+00
 Coeff:     -0.159D-02 0.343D-02 0.415D-03-0.184D-01 0.144D-01 0.469D-01
 Coeff:     -0.330D-01-0.958D-01-0.666D-02 0.409D+00 0.682D+00
 Gap=     0.314 Goal=   None    Shift=    0.000
 Gap=     0.314 Goal=   None    Shift=    0.000
 RMSDP=9.87D-07 MaxDP=5.92D-05 DE=-2.42D-06 OVMax= 2.73D-04

 Cycle  12  Pass 1  IDiag  1:
 RMSU=  7.28D-07    CP:  8.87D-01  2.36D+00  1.39D+00  2.66D+00  3.00D+00
                    CP:  3.00D+00  3.00D+00  1.89D+00  1.39D+00  1.45D+00
                    CP:  1.14D+00
 E= -466.848684369490     Delta-E=       -0.000000201284 Rises=F Damp=F
 DIIS: error= 1.40D-05 at cycle  12 NSaved=  12.
 NSaved=12 IEnMin=12 EnMin= -466.848684369490     IErMin=12 ErrMin= 1.40D-05
 ErrMax= 1.40D-05  0.00D+00 EMaxC= 1.00D-01 BMatC= 7.18D-08 BMatP= 3.65D-07
 IDIUse=1 WtCom= 1.00D+00 WtEn= 0.00D+00
 Coeff-Com:  0.557D-03-0.121D-02-0.323D-04 0.835D-02-0.960D-02-0.248D-01
 Coeff-Com:  0.290D-01 0.463D-01-0.385D-01-0.269D+00 0.407D-01 0.122D+01
 Coeff:      0.557D-03-0.121D-02-0.323D-04 0.835D-02-0.960D-02-0.248D-01
 Coeff:      0.290D-01 0.463D-01-0.385D-01-0.269D+00 0.407D-01 0.122D+01
 Gap=     0.314 Goal=   None    Shift=    0.000
 Gap=     0.314 Goal=   None    Shift=    0.000
 RMSDP=8.63D-07 MaxDP=3.09D-05 DE=-2.01D-07 OVMax= 1.64D-04

 Cycle  13  Pass 1  IDiag  1:
 RMSU=  4.86D-07    CP:  8.87D-01  2.36D+00  1.39D+00  2.66D+00  3.00D+00
                    CP:  3.00D+00  3.00D+00  1.89D+00  1.39D+00  1.44D+00
                    CP:  1.33D+00  1.75D+00
 E= -466.848684477354     Delta-E=       -0.000000107864 Rises=F Damp=F
 DIIS: error= 7.45D-06 at cycle  13 NSaved=  13.
 NSaved=13 IEnMin=13 EnMin= -466.848684477354     IErMin=13 ErrMin= 7.45D-06
 ErrMax= 7.45D-06  0.00D+00 EMaxC= 1.00D-01 BMatC= 1.69D-08 BMatP= 7.18D-08
 IDIUse=1 WtCom= 1.00D+00 WtEn= 0.00D+00
 Coeff-Com: -0.584D-04 0.129D-03 0.791D-04-0.403D-03 0.101D-03 0.825D-03
 Coeff-Com: -0.163D-02 0.111D-02 0.332D-02-0.361D-02-0.123D+00-0.253D+00
 Coeff-Com:  0.138D+01
 Coeff:     -0.584D-04 0.129D-03 0.791D-04-0.403D-03 0.101D-03 0.825D-03
 Coeff:     -0.163D-02 0.111D-02 0.332D-02-0.361D-02-0.123D+00-0.253D+00
 Coeff:      0.138D+01
 Gap=     0.314 Goal=   None    Shift=    0.000
 Gap=     0.314 Goal=   None    Shift=    0.000
 RMSDP=4.46D-07 MaxDP=2.46D-05 DE=-1.08D-07 OVMax= 1.08D-04

 Cycle  14  Pass 1  IDiag  1:
 RMSU=  2.85D-07    CP:  8.87D-01  2.36D+00  1.39D+00  2.66D+00  3.00D+00
                    CP:  3.00D+00  3.00D+00  1.89D+00  1.39D+00  1.45D+00
                    CP:  1.39D+00  2.03D+00  1.49D+00
 E= -466.848684514644     Delta-E=       -0.000000037289 Rises=F Damp=F
 DIIS: error= 3.86D-06 at cycle  14 NSaved=  14.
 NSaved=14 IEnMin=14 EnMin= -466.848684514644     IErMin=14 ErrMin= 3.86D-06
 ErrMax= 3.86D-06  0.00D+00 EMaxC= 1.00D-01 BMatC= 4.92D-09 BMatP= 1.69D-08
 IDIUse=1 WtCom= 1.00D+00 WtEn= 0.00D+00
 Coeff-Com: -0.204D-03 0.440D-03 0.724D-04-0.254D-02 0.243D-02 0.715D-02
 Coeff-Com: -0.827D-02-0.126D-01 0.122D-01 0.792D-01-0.359D-01-0.416D+00
 Coeff-Com:  0.152D+00 0.122D+01
 Coeff:     -0.204D-03 0.440D-03 0.724D-04-0.254D-02 0.243D-02 0.715D-02
 Coeff:     -0.827D-02-0.126D-01 0.122D-01 0.792D-01-0.359D-01-0.416D+00
 Coeff:      0.152D+00 0.122D+01
 Gap=     0.314 Goal=   None    Shift=    0.000
 Gap=     0.314 Goal=   None    Shift=    0.000
 RMSDP=3.07D-07 MaxDP=1.41D-05 DE=-3.73D-08 OVMax= 7.32D-05

 Cycle  15  Pass 1  IDiag  1:
 RMSU=  1.02D-07    CP:  8.87D-01  2.36D+00  1.39D+00  2.66D+00  3.00D+00
                    CP:  3.00D+00  3.00D+00  1.89D+00  1.39D+00  1.46D+00
                    CP:  1.40D+00  2.14D+00  1.81D+00  1.77D+00
 E= -466.848684525491     Delta-E=       -0.000000010848 Rises=F Damp=F
 DIIS: error= 1.26D-06 at cycle  15 NSaved=  15.
 NSaved=15 IEnMin=15 EnMin= -466.848684525491     IErMin=15 ErrMin= 1.26D-06
 ErrMax= 1.26D-06  0.00D+00 EMaxC= 1.00D-01 BMatC= 6.89D-10 BMatP= 4.92D-09
 IDIUse=1 WtCom= 1.00D+00 WtEn= 0.00D+00
 Coeff-Com:  0.101D-04-0.222D-04-0.295D-04-0.537D-04 0.307D-03 0.438D-03
 Coeff-Com: -0.105D-02-0.104D-02 0.282D-02 0.115D-01 0.151D-01-0.230D-01
 Coeff-Com: -0.254D+00 0.215D+00 0.103D+01
 Coeff:      0.101D-04-0.222D-04-0.295D-04-0.537D-04 0.307D-03 0.438D-03
 Coeff:     -0.105D-02-0.104D-02 0.282D-02 0.115D-01 0.151D-01-0.230D-01
 Coeff:     -0.254D+00 0.215D+00 0.103D+01
 Gap=     0.314 Goal=   None    Shift=    0.000
 Gap=     0.314 Goal=   None    Shift=    0.000
 RMSDP=1.22D-07 MaxDP=4.64D-06 DE=-1.08D-08 OVMax= 2.67D-05

 Cycle  16  Pass 1  IDiag  1:
 RMSU=  4.52D-08    CP:  8.87D-01  2.36D+00  1.39D+00  2.66D+00  3.00D+00
                    CP:  3.00D+00  3.00D+00  1.89D+00  1.39D+00  1.46D+00
                    CP:  1.40D+00  2.16D+00  1.92D+00  2.06D+00  1.43D+00
 E= -466.848684526562     Delta-E=       -0.000000001070 Rises=F Damp=F
 DIIS: error= 2.60D-07 at cycle  16 NSaved=  16.
 NSaved=16 IEnMin=16 EnMin= -466.848684526562     IErMin=16 ErrMin= 2.60D-07
 ErrMax= 2.60D-07  0.00D+00 EMaxC= 1.00D-01 BMatC= 6.48D-11 BMatP= 6.89D-10
 IDIUse=1 WtCom= 1.00D+00 WtEn= 0.00D+00
 Coeff-Com:  0.883D-05-0.192D-04-0.899D-05 0.104D-03-0.643D-04-0.239D-03
 Coeff-Com:  0.215D-03 0.480D-03-0.323D-03-0.300D-02 0.706D-02 0.267D-01
 Coeff-Com: -0.688D-01-0.592D-01 0.237D+00 0.860D+00
 Coeff:      0.883D-05-0.192D-04-0.899D-05 0.104D-03-0.643D-04-0.239D-03
 Coeff:      0.215D-03 0.480D-03-0.323D-03-0.300D-02 0.706D-02 0.267D-01
 Coeff:     -0.688D-01-0.592D-01 0.237D+00 0.860D+00
 Gap=     0.314 Goal=   None    Shift=    0.000
 Gap=     0.314 Goal=   None    Shift=    0.000
 RMSDP=2.76D-08 MaxDP=1.34D-06 DE=-1.07D-09 OVMax= 4.30D-06

 Cycle  17  Pass 1  IDiag  1:
 RMSU=  1.26D-08    CP:  8.87D-01  2.36D+00  1.39D+00  2.66D+00  3.00D+00
                    CP:  3.00D+00  3.00D+00  1.89D+00  1.39D+00  1.46D+00
                    CP:  1.40D+00  2.16D+00  1.93D+00  2.09D+00  1.53D+00
                    CP:  1.31D+00
 E= -466.848684526611     Delta-E=       -0.000000000050 Rises=F Damp=F
 DIIS: error= 7.72D-08 at cycle  17 NSaved=  17.
 NSaved=17 IEnMin=17 EnMin= -466.848684526611     IErMin=17 ErrMin= 7.72D-08
 ErrMax= 7.72D-08  0.00D+00 EMaxC= 1.00D-01 BMatC= 8.06D-12 BMatP= 6.48D-11
 IDIUse=1 WtCom= 1.00D+00 WtEn= 0.00D+00
 Coeff-Com:  0.214D-06-0.401D-06 0.103D-05 0.132D-04-0.367D-04-0.384D-04
 Coeff-Com:  0.979D-04 0.144D-03-0.389D-03-0.160D-02-0.400D-03 0.635D-02
 Coeff-Com:  0.199D-01-0.357D-01-0.905D-01 0.154D+00 0.948D+00
 Coeff:      0.214D-06-0.401D-06 0.103D-05 0.132D-04-0.367D-04-0.384D-04
 Coeff:      0.979D-04 0.144D-03-0.389D-03-0.160D-02-0.400D-03 0.635D-02
 Coeff:      0.199D-01-0.357D-01-0.905D-01 0.154D+00 0.948D+00
 Gap=     0.314 Goal=   None    Shift=    0.000
 Gap=     0.314 Goal=   None    Shift=    0.000
 RMSDP=9.60D-09 MaxDP=3.31D-07 DE=-4.97D-11 OVMax= 1.42D-06

 Error on total polarization charges =  0.01118
 SCF Done:  E(UwB97XD) =  -466.848684527     A.U. after   17 cycles
            NFock= 17  Conv=0.96D-08     -V/T= 2.0057
 <Sx>= 0.0000 <Sy>= 0.0000 <Sz>= 0.0000 <S**2>= 0.0000 S= 0.0000
 <L.S>=  0.00000000000    
 KE= 4.641894716148D+02 PE=-2.428680634977D+03 EE= 8.242680893442D+02
 --------------------------------------------------------------------
 Variational PCM results
 =======================
 <psi(f)|   H    |psi(f)>                     (a.u.) =    -466.856909
 <psi(f)|H+V(f)/2|psi(f)>                     (a.u.) =    -466.858429
 Total free energy in solution:
 - with all non electrostatic terms           (a.u.) =    -466.848685
 --------------------------------------------------------------------
 (Polarized solute)-Solvent               (kcal/mol) =      -0.95
 --------------------------------------------------------------------
 Quantum repulsion energy                 (kcal/mol) =       6.11
 Total non electrostatic                  (kcal/mol) =       6.11
 --------------------------------------------------------------------
 Partition over spheres:
 Sphere  on Atom  Surface  Charge   GEl     GCav    GDR
    1               7.37   0.012   -0.06    0.00    0.00
    2               5.00   0.007   -0.04    0.00    0.00
    3               7.51  -0.010   -0.04    0.00    0.00
    4               3.87  -0.005   -0.01    0.00    0.00
    5               4.55   0.009   -0.06    0.00    0.00
    6               4.76   0.007   -0.04    0.00    0.00
    7               4.73  -0.007   -0.03    0.00    0.00
    8               4.08  -0.005   -0.01    0.00    0.00
    9               3.56   0.002    0.00    0.00    0.00
   10               7.09  -0.007   -0.01    0.00    0.00
   11               3.06  -0.003   -0.01    0.00    0.00
   12               6.82   0.011   -0.07    0.00    0.00
   13               7.51  -0.010   -0.03    0.00    0.00
   14               7.16   0.012   -0.06    0.00    0.00
   15               7.51  -0.010   -0.04    0.00    0.00
   16               3.70   0.002    0.00    0.00    0.00
   17               2.96  -0.003   -0.01    0.00    0.00
   18               7.30  -0.008   -0.03    0.00    0.00
   19               5.09   0.009   -0.06    0.00    0.00
   20               4.96  -0.007   -0.03    0.00    0.00
   21               7.07   0.012   -0.07    0.00    0.00
   22               7.50  -0.010   -0.03    0.00    0.00
   23               3.82   0.002    0.00    0.00    0.00
   24               4.11  -0.004   -0.01    0.00    0.00
   25               6.90  -0.007   -0.01    0.00    0.00
   26               3.48   0.002    0.00    0.00    0.00
   27               7.31  -0.008   -0.03    0.00    0.00
   28               2.93  -0.003   -0.01    0.00    0.00
 Added spheres:    71.74   0.010   -0.15    0.00    0.00
 --------------------------------------------------------------------
 After PCM corrections, the energy is  -466.848684527     a.u.
 --------------------------------------------------------------------
 Annihilation of the first spin contaminant:
 S**2 before annihilation     0.0000,   after     0.0000
 Leave Link  502 at Tue Aug  4 00:10:28 2020, MaxMem=  6442450944 cpu:            7476.9 elap:             314.3
 (Enter /scratch/scicomp/CentOS/7.3.1611/Haswell/software/Gaussian/g16/l601.exe)
 Copying SCF densities to generalized density rwf, IOpCl= 1 IROHF=0.

 **********************************************************************

            Population analysis using the SCF Density.

 **********************************************************************

 Alpha  occ. eigenvalues --  -10.28318 -10.28316 -10.28126 -10.28123 -10.28092
 Alpha  occ. eigenvalues --  -10.28090 -10.28019 -10.28016 -10.27803 -10.27801
 Alpha  occ. eigenvalues --  -10.27450 -10.27448  -0.94016  -0.93510  -0.84086
 Alpha  occ. eigenvalues --   -0.84007  -0.83732  -0.83581  -0.71262  -0.71094
 Alpha  occ. eigenvalues --   -0.67846  -0.67806  -0.59625  -0.59483  -0.57273
 Alpha  occ. eigenvalues --   -0.56633  -0.53445  -0.52642  -0.50827  -0.50774
 Alpha  occ. eigenvalues --   -0.49789  -0.49326  -0.47209  -0.46806  -0.45021
 Alpha  occ. eigenvalues --   -0.44963  -0.41140  -0.40897  -0.39581  -0.39159
 Alpha  occ. eigenvalues --   -0.39114  -0.38887  -0.29652  -0.27546
 Alpha virt. eigenvalues --    0.03832   0.05021   0.11367   0.12996   0.14322
 Alpha virt. eigenvalues --    0.15342   0.15457   0.16295   0.16464   0.16905
 Alpha virt. eigenvalues --    0.17638   0.17684   0.18066   0.19178   0.20906
 Alpha virt. eigenvalues --    0.21947   0.22400   0.23606   0.24144   0.24292
 Alpha virt. eigenvalues --    0.25574   0.26358   0.26542   0.27524   0.28770
 Alpha virt. eigenvalues --    0.28832   0.29483   0.29821   0.30677   0.31110
 Alpha virt. eigenvalues --    0.32125   0.32289   0.32719   0.32930   0.33785
 Alpha virt. eigenvalues --    0.34245   0.34604   0.36109   0.36264   0.37823
 Alpha virt. eigenvalues --    0.38255   0.39428   0.40038   0.41754   0.42112
 Alpha virt. eigenvalues --    0.42131   0.44026   0.44687   0.45826   0.46563
 Alpha virt. eigenvalues --    0.47004   0.47085   0.48379   0.48599   0.49113
 Alpha virt. eigenvalues --    0.49128   0.49633   0.49856   0.50331   0.50630
 Alpha virt. eigenvalues --    0.51162   0.51315   0.52211   0.52617   0.53276
 Alpha virt. eigenvalues --    0.53716   0.54497   0.54999   0.55305   0.55822
 Alpha virt. eigenvalues --    0.57649   0.58145   0.58486   0.59330   0.60126
 Alpha virt. eigenvalues --    0.60490   0.61136   0.63312   0.63413   0.64723
 Alpha virt. eigenvalues --    0.65832   0.67186   0.68250   0.68752   0.69098
 Alpha virt. eigenvalues --    0.71345   0.72486   0.73111   0.73663   0.75015
 Alpha virt. eigenvalues --    0.77191   0.78556   0.78645   0.81010   0.81228
 Alpha virt. eigenvalues --    0.82133   0.82530   0.83065   0.87878   0.88224
 Alpha virt. eigenvalues --    0.88528   0.89759   0.90741   0.91809   0.92516
 Alpha virt. eigenvalues --    0.92836   0.95361   0.96606   0.99007   0.99022
 Alpha virt. eigenvalues --    1.00987   1.03977   1.04681   1.04888   1.05055
 Alpha virt. eigenvalues --    1.06894   1.07672   1.08109   1.09269   1.11897
 Alpha virt. eigenvalues --    1.13320   1.13850   1.14413   1.15176   1.16013
 Alpha virt. eigenvalues --    1.16046   1.16971   1.17283   1.19099   1.20905
 Alpha virt. eigenvalues --    1.21153   1.22069   1.24307   1.24433   1.25071
 Alpha virt. eigenvalues --    1.25555   1.26007   1.27002   1.27747   1.28823
 Alpha virt. eigenvalues --    1.28893   1.30880   1.32009   1.32812   1.32892
 Alpha virt. eigenvalues --    1.34257   1.34998   1.36946   1.37309   1.38046
 Alpha virt. eigenvalues --    1.38926   1.40153   1.40521   1.41475   1.41539
 Alpha virt. eigenvalues --    1.43002   1.43283   1.44135   1.44207   1.45400
 Alpha virt. eigenvalues --    1.46089   1.46935   1.47158   1.47825   1.48312
 Alpha virt. eigenvalues --    1.49821   1.50853   1.50969   1.54061   1.55812
 Alpha virt. eigenvalues --    1.56926   1.58071   1.58612   1.59090   1.61240
 Alpha virt. eigenvalues --    1.61667   1.63040   1.63735   1.65745   1.67971
 Alpha virt. eigenvalues --    1.68679   1.70435   1.71487   1.74336   1.77158
 Alpha virt. eigenvalues --    1.77163   1.80228   1.80380   1.83593   1.84300
 Alpha virt. eigenvalues --    1.86225   1.87960   1.90089   1.90778   1.91651
 Alpha virt. eigenvalues --    1.93041   1.96456   1.99282   2.00670   2.01417
 Alpha virt. eigenvalues --    2.04082   2.05593   2.06254   2.08216   2.08693
 Alpha virt. eigenvalues --    2.09396   2.11889   2.13096   2.13122   2.15606
 Alpha virt. eigenvalues --    2.18138   2.19943   2.20419   2.21207   2.22608
 Alpha virt. eigenvalues --    2.23333   2.24417   2.24913   2.26711   2.26721
 Alpha virt. eigenvalues --    2.29928   2.34431   2.37405   2.38289   2.41099
 Alpha virt. eigenvalues --    2.43322   2.45588   2.45924   2.49144   2.50105
 Alpha virt. eigenvalues --    2.50287   2.50530   2.54017   2.54035   2.55381
 Alpha virt. eigenvalues --    2.55556   2.57802   2.57926   2.60895   2.61700
 Alpha virt. eigenvalues --    2.62500   2.64617   2.64872   2.65299   2.66255
 Alpha virt. eigenvalues --    2.67378   2.68012   2.70781   2.72413   2.72692
 Alpha virt. eigenvalues --    2.73432   2.73445   2.74872   2.75992   2.77205
 Alpha virt. eigenvalues --    2.77711   2.78221   2.79399   2.80931   2.81338
 Alpha virt. eigenvalues --    2.81394   2.82557   2.82868   2.83953   2.85069
 Alpha virt. eigenvalues --    2.85456   2.86578   2.87472   2.88177   2.89729
 Alpha virt. eigenvalues --    2.90570   2.90744   2.92733   2.92765   2.93777
 Alpha virt. eigenvalues --    2.94945   2.95366   2.95551   2.96394   3.00088
 Alpha virt. eigenvalues --    3.01680   3.02285   3.03133   3.04607   3.06270
 Alpha virt. eigenvalues --    3.07223   3.09058   3.09641   3.09817   3.10748
 Alpha virt. eigenvalues --    3.12119   3.13115   3.13424   3.14584   3.15202
 Alpha virt. eigenvalues --    3.15279   3.16989   3.17293   3.18871   3.19163
 Alpha virt. eigenvalues --    3.20063   3.20092   3.20548   3.21065   3.21648
 Alpha virt. eigenvalues --    3.22182   3.23107   3.23470   3.23872   3.24190
 Alpha virt. eigenvalues --    3.26113   3.26179   3.26944   3.26987   3.28237
 Alpha virt. eigenvalues --    3.28539   3.29846   3.30913   3.31437   3.31580
 Alpha virt. eigenvalues --    3.32438   3.33211   3.33216   3.33669   3.34355
 Alpha virt. eigenvalues --    3.35382   3.36153   3.36373   3.37946   3.38486
 Alpha virt. eigenvalues --    3.39081   3.41022   3.42672   3.43605   3.43870
 Alpha virt. eigenvalues --    3.45141   3.45641   3.46590   3.46681   3.47052
 Alpha virt. eigenvalues --    3.48562   3.49485   3.49693   3.50320   3.51056
 Alpha virt. eigenvalues --    3.51586   3.53101   3.53419   3.55071   3.55242
 Alpha virt. eigenvalues --    3.56332   3.57373   3.57876   3.59480   3.63843
 Alpha virt. eigenvalues --    3.64898   3.65417   3.65446   3.65988   3.67043
 Alpha virt. eigenvalues --    3.68555   3.68674   3.71344   3.72029   3.73207
 Alpha virt. eigenvalues --    3.75629   3.76314   3.77896   3.79987   3.81072
 Alpha virt. eigenvalues --    3.85016   3.85610   3.85891   3.86368   3.86515
 Alpha virt. eigenvalues --    3.88511   3.91227   3.91479   3.93967   3.94101
 Alpha virt. eigenvalues --    3.95951   3.96491   4.00775   4.01044   4.03182
 Alpha virt. eigenvalues --    4.05190   4.08365   4.08793   4.09068   4.10587
 Alpha virt. eigenvalues --    4.11931   4.13080   4.13984   4.15546   4.18303
 Alpha virt. eigenvalues --    4.18649   4.19898   4.20930   4.23213   4.24490
 Alpha virt. eigenvalues --    4.25172   4.27661   4.30818   4.31113   4.34003
 Alpha virt. eigenvalues --    4.35086   4.38146   4.38679   4.39149   4.41982
 Alpha virt. eigenvalues --    4.42989   4.43913   4.46886   4.48491   4.50494
 Alpha virt. eigenvalues --    4.51953   4.58990   4.61088   4.62972   4.66629
 Alpha virt. eigenvalues --    4.68164   4.69133   4.72529   4.73841   4.76108
 Alpha virt. eigenvalues --    4.76269   4.79162   4.79333   4.82181   4.84589
 Alpha virt. eigenvalues --    4.84996   4.85398   4.89950   4.91896   4.93798
 Alpha virt. eigenvalues --    4.94299   4.97020   4.99201   5.06439   5.08039
 Alpha virt. eigenvalues --    5.13118   5.13750   5.18777   5.19439   5.22882
 Alpha virt. eigenvalues --    5.23408   5.31289   5.32592   5.41089   5.41150
 Alpha virt. eigenvalues --    5.43286   5.44623   5.49696   5.49949   5.67989
 Alpha virt. eigenvalues --    5.70908   5.75796   5.78331   5.93612   6.00951
 Alpha virt. eigenvalues --    7.94081   7.95631   8.01581   8.04740   8.06147
 Alpha virt. eigenvalues --    8.06806   8.10284   8.11687   8.18075   8.18246
 Alpha virt. eigenvalues --    8.34648   8.36153  34.76286  34.77840  34.81039
 Alpha virt. eigenvalues --   34.82003  34.86456  34.87540  34.96946  34.98269
 Alpha virt. eigenvalues --   35.00879  35.01973  35.15871  35.18994
  Beta  occ. eigenvalues --  -10.28318 -10.28316 -10.28126 -10.28123 -10.28092
  Beta  occ. eigenvalues --  -10.28090 -10.28019 -10.28016 -10.27803 -10.27801
  Beta  occ. eigenvalues --  -10.27450 -10.27448  -0.94016  -0.93510  -0.84086
  Beta  occ. eigenvalues --   -0.84007  -0.83732  -0.83581  -0.71262  -0.71094
  Beta  occ. eigenvalues --   -0.67846  -0.67806  -0.59625  -0.59483  -0.57273
  Beta  occ. eigenvalues --   -0.56633  -0.53445  -0.52642  -0.50827  -0.50774
  Beta  occ. eigenvalues --   -0.49789  -0.49326  -0.47209  -0.46806  -0.45021
  Beta  occ. eigenvalues --   -0.44963  -0.41140  -0.40897  -0.39581  -0.39159
  Beta  occ. eigenvalues --   -0.39114  -0.38887  -0.29652  -0.27546
  Beta virt. eigenvalues --    0.03832   0.05021   0.11367   0.12996   0.14322
  Beta virt. eigenvalues --    0.15342   0.15457   0.16295   0.16464   0.16905
  Beta virt. eigenvalues --    0.17638   0.17684   0.18066   0.19178   0.20906
  Beta virt. eigenvalues --    0.21947   0.22400   0.23606   0.24144   0.24292
  Beta virt. eigenvalues --    0.25574   0.26358   0.26542   0.27524   0.28770
  Beta virt. eigenvalues --    0.28832   0.29483   0.29821   0.30677   0.31110
  Beta virt. eigenvalues --    0.32125   0.32289   0.32719   0.32930   0.33785
  Beta virt. eigenvalues --    0.34245   0.34604   0.36109   0.36264   0.37823
  Beta virt. eigenvalues --    0.38255   0.39428   0.40038   0.41754   0.42112
  Beta virt. eigenvalues --    0.42131   0.44026   0.44687   0.45826   0.46563
  Beta virt. eigenvalues --    0.47004   0.47085   0.48379   0.48599   0.49113
  Beta virt. eigenvalues --    0.49128   0.49633   0.49856   0.50331   0.50630
  Beta virt. eigenvalues --    0.51162   0.51315   0.52211   0.52617   0.53276
  Beta virt. eigenvalues --    0.53716   0.54497   0.54999   0.55305   0.55822
  Beta virt. eigenvalues --    0.57649   0.58145   0.58486   0.59330   0.60126
  Beta virt. eigenvalues --    0.60490   0.61136   0.63312   0.63413   0.64723
  Beta virt. eigenvalues --    0.65832   0.67186   0.68250   0.68752   0.69098
  Beta virt. eigenvalues --    0.71345   0.72486   0.73111   0.73663   0.75015
  Beta virt. eigenvalues --    0.77191   0.78556   0.78645   0.81010   0.81228
  Beta virt. eigenvalues --    0.82133   0.82530   0.83065   0.87878   0.88224
  Beta virt. eigenvalues --    0.88528   0.89759   0.90741   0.91809   0.92516
  Beta virt. eigenvalues --    0.92836   0.95361   0.96606   0.99007   0.99022
  Beta virt. eigenvalues --    1.00987   1.03977   1.04681   1.04888   1.05055
  Beta virt. eigenvalues --    1.06894   1.07672   1.08109   1.09269   1.11897
  Beta virt. eigenvalues --    1.13320   1.13850   1.14413   1.15176   1.16013
  Beta virt. eigenvalues --    1.16046   1.16971   1.17283   1.19099   1.20905
  Beta virt. eigenvalues --    1.21153   1.22069   1.24307   1.24433   1.25071
  Beta virt. eigenvalues --    1.25555   1.26007   1.27002   1.27747   1.28823
  Beta virt. eigenvalues --    1.28893   1.30880   1.32009   1.32812   1.32892
  Beta virt. eigenvalues --    1.34257   1.34998   1.36946   1.37309   1.38046
  Beta virt. eigenvalues --    1.38926   1.40153   1.40521   1.41475   1.41539
  Beta virt. eigenvalues --    1.43002   1.43283   1.44135   1.44207   1.45400
  Beta virt. eigenvalues --    1.46089   1.46935   1.47158   1.47825   1.48312
  Beta virt. eigenvalues --    1.49821   1.50853   1.50969   1.54061   1.55812
  Beta virt. eigenvalues --    1.56926   1.58071   1.58612   1.59090   1.61240
  Beta virt. eigenvalues --    1.61667   1.63040   1.63735   1.65745   1.67971
  Beta virt. eigenvalues --    1.68679   1.70435   1.71487   1.74336   1.77158
  Beta virt. eigenvalues --    1.77163   1.80228   1.80380   1.83593   1.84300
  Beta virt. eigenvalues --    1.86225   1.87960   1.90089   1.90778   1.91651
  Beta virt. eigenvalues --    1.93041   1.96456   1.99282   2.00670   2.01417
  Beta virt. eigenvalues --    2.04082   2.05593   2.06254   2.08216   2.08693
  Beta virt. eigenvalues --    2.09396   2.11889   2.13096   2.13122   2.15606
  Beta virt. eigenvalues --    2.18138   2.19943   2.20419   2.21207   2.22608
  Beta virt. eigenvalues --    2.23333   2.24417   2.24913   2.26711   2.26721
  Beta virt. eigenvalues --    2.29928   2.34431   2.37405   2.38289   2.41099
  Beta virt. eigenvalues --    2.43322   2.45588   2.45924   2.49144   2.50105
  Beta virt. eigenvalues --    2.50287   2.50530   2.54017   2.54035   2.55381
  Beta virt. eigenvalues --    2.55556   2.57802   2.57926   2.60895   2.61700
  Beta virt. eigenvalues --    2.62500   2.64617   2.64872   2.65299   2.66255
  Beta virt. eigenvalues --    2.67378   2.68012   2.70781   2.72413   2.72692
  Beta virt. eigenvalues --    2.73432   2.73445   2.74872   2.75992   2.77205
  Beta virt. eigenvalues --    2.77711   2.78221   2.79399   2.80931   2.81338
  Beta virt. eigenvalues --    2.81394   2.82557   2.82868   2.83953   2.85069
  Beta virt. eigenvalues --    2.85456   2.86578   2.87472   2.88177   2.89729
  Beta virt. eigenvalues --    2.90570   2.90744   2.92733   2.92765   2.93777
  Beta virt. eigenvalues --    2.94945   2.95366   2.95551   2.96394   3.00088
  Beta virt. eigenvalues --    3.01680   3.02285   3.03133   3.04607   3.06270
  Beta virt. eigenvalues --    3.07223   3.09058   3.09641   3.09817   3.10748
  Beta virt. eigenvalues --    3.12119   3.13115   3.13424   3.14584   3.15202
  Beta virt. eigenvalues --    3.15279   3.16989   3.17293   3.18871   3.19163
  Beta virt. eigenvalues --    3.20063   3.20092   3.20548   3.21065   3.21648
  Beta virt. eigenvalues --    3.22182   3.23107   3.23470   3.23872   3.24190
  Beta virt. eigenvalues --    3.26113   3.26179   3.26944   3.26987   3.28237
  Beta virt. eigenvalues --    3.28539   3.29846   3.30913   3.31437   3.31580
  Beta virt. eigenvalues --    3.32438   3.33211   3.33216   3.33669   3.34355
  Beta virt. eigenvalues --    3.35382   3.36153   3.36373   3.37946   3.38486
  Beta virt. eigenvalues --    3.39081   3.41022   3.42672   3.43605   3.43870
  Beta virt. eigenvalues --    3.45141   3.45641   3.46590   3.46681   3.47052
  Beta virt. eigenvalues --    3.48562   3.49485   3.49693   3.50320   3.51056
  Beta virt. eigenvalues --    3.51586   3.53101   3.53419   3.55071   3.55242
  Beta virt. eigenvalues --    3.56332   3.57373   3.57876   3.59480   3.63843
  Beta virt. eigenvalues --    3.64898   3.65417   3.65446   3.65988   3.67043
  Beta virt. eigenvalues --    3.68555   3.68674   3.71344   3.72029   3.73207
  Beta virt. eigenvalues --    3.75629   3.76314   3.77896   3.79987   3.81072
  Beta virt. eigenvalues --    3.85016   3.85610   3.85891   3.86368   3.86515
  Beta virt. eigenvalues --    3.88511   3.91227   3.91479   3.93967   3.94101
  Beta virt. eigenvalues --    3.95951   3.96491   4.00775   4.01044   4.03182
  Beta virt. eigenvalues --    4.05190   4.08365   4.08793   4.09068   4.10587
  Beta virt. eigenvalues --    4.11931   4.13080   4.13984   4.15546   4.18303
  Beta virt. eigenvalues --    4.18649   4.19898   4.20930   4.23213   4.24490
  Beta virt. eigenvalues --    4.25172   4.27661   4.30818   4.31113   4.34003
  Beta virt. eigenvalues --    4.35086   4.38146   4.38679   4.39149   4.41982
  Beta virt. eigenvalues --    4.42989   4.43913   4.46886   4.48491   4.50494
  Beta virt. eigenvalues --    4.51953   4.58990   4.61088   4.62972   4.66629
  Beta virt. eigenvalues --    4.68164   4.69133   4.72529   4.73841   4.76108
  Beta virt. eigenvalues --    4.76269   4.79162   4.79333   4.82181   4.84589
  Beta virt. eigenvalues --    4.84996   4.85398   4.89950   4.91896   4.93798
  Beta virt. eigenvalues --    4.94299   4.97020   4.99201   5.06439   5.08039
  Beta virt. eigenvalues --    5.13118   5.13750   5.18777   5.19439   5.22882
  Beta virt. eigenvalues --    5.23408   5.31289   5.32592   5.41089   5.41150
  Beta virt. eigenvalues --    5.43286   5.44623   5.49696   5.49949   5.67989
  Beta virt. eigenvalues --    5.70908   5.75796   5.78331   5.93612   6.00951
  Beta virt. eigenvalues --    7.94081   7.95631   8.01581   8.04740   8.06147
  Beta virt. eigenvalues --    8.06806   8.10284   8.11687   8.18075   8.18246
  Beta virt. eigenvalues --    8.34648   8.36153  34.76286  34.77840  34.81039
  Beta virt. eigenvalues --   34.82003  34.86456  34.87540  34.96946  34.98269
  Beta virt. eigenvalues --   35.00879  35.01973  35.15871  35.18994
          Condensed to atoms (all electrons):
               1          2          3          4          5          6
     1  C    5.141543   0.004279   0.422463  -0.001791   0.000698  -0.004035
     2  C    0.004279   5.306359  -0.001977   0.425248  -0.025577  -0.044011
     3  H    0.422463  -0.001977   0.491010   0.000027  -0.000041  -0.000014
     4  H   -0.001791   0.425248   0.000027   0.469839  -0.002470   0.002578
     5  C    0.000698  -0.025577  -0.000041  -0.002470   5.146066   0.515539
     6  C   -0.004035  -0.044011  -0.000014   0.002578   0.515539   5.307209
     7  H    0.000254  -0.001294   0.000000  -0.000069   0.423740  -0.027131
     8  H   -0.001229   0.002581  -0.000010  -0.000022  -0.041219   0.425276
     9  C    0.001368  -0.001855  -0.000005  -0.001214  -0.064087   0.232805
    10  H   -0.000030  -0.000014  -0.000001  -0.000072  -0.003805  -0.034757
    11  H    0.000008  -0.003025   0.000000   0.000118   0.008235  -0.055991
    12  C   -0.000111   0.007935   0.000002   0.001181   0.297053  -0.069982
    13  H   -0.000001   0.000020   0.000000   0.000005  -0.034648   0.004390
    14  C    0.000133  -0.004035  -0.000000  -0.001212  -0.056614   0.004351
    15  H   -0.000000  -0.000014  -0.000000  -0.000010   0.006830  -0.001978
    16  C   -0.000588   0.010466  -0.000000   0.000645   0.003099  -0.064618
    17  H   -0.000056  -0.001122  -0.000001  -0.000801   0.009688  -0.001735
    18  H    0.000002   0.000539   0.000000   0.000155  -0.003061   0.011491
    19  C   -0.056542   0.515941   0.006830  -0.041117  -0.005365  -0.025576
    20  H    0.003451  -0.026653  -0.000086  -0.004510   0.000236  -0.001296
    21  C    0.582451  -0.070005  -0.030908   0.005222   0.000803   0.007946
    22  H   -0.024400   0.004459  -0.005469  -0.000056   0.000015   0.000020
    23  C   -0.081580   0.232993   0.004930  -0.013950   0.006078  -0.001883
    24  H    0.013273  -0.055921  -0.000088  -0.003992   0.001611  -0.003028
    25  H    0.003928  -0.035265  -0.000042  -0.000346   0.000401  -0.000013
    26  C    0.278473  -0.064609  -0.027955   0.003570  -0.003800   0.010449
    27  H   -0.039639   0.011492  -0.004458  -0.000093   0.000307   0.000541
    28  H   -0.036083  -0.001795   0.001005  -0.000124  -0.003017  -0.001166
               7          8          9         10         11         12
     1  C    0.000254  -0.001229   0.001368  -0.000030   0.000008  -0.000111
     2  C   -0.001294   0.002581  -0.001855  -0.000014  -0.003025   0.007935
     3  H    0.000000  -0.000010  -0.000005  -0.000001   0.000000   0.000002
     4  H   -0.000069  -0.000022  -0.001214  -0.000072   0.000118   0.001181
     5  C    0.423740  -0.041219  -0.064087  -0.003805   0.008235   0.297053
     6  C   -0.027131   0.425276   0.232805  -0.034757  -0.055991  -0.069982
     7  H    0.476529  -0.004497   0.002928  -0.000265  -0.000023  -0.028890
     8  H   -0.004497   0.469205  -0.013784  -0.000331  -0.003996   0.005209
     9  C    0.002928  -0.013784   4.967313   0.385285   0.456702   0.036410
    10  H   -0.000265  -0.000331   0.385285   0.569202  -0.020572   0.001594
    11  H   -0.000023  -0.003996   0.456702  -0.020572   0.534636  -0.004341
    12  C   -0.028890   0.005209   0.036410   0.001594  -0.004341   5.005121
    13  H   -0.003080  -0.000055  -0.000269  -0.000050   0.000026   0.423708
    14  C    0.003429  -0.001790  -0.081674   0.003845   0.013287   0.582160
    15  H   -0.000086   0.000027   0.004933  -0.000043  -0.000088  -0.030976
    16  C   -0.000695   0.003564   0.351909  -0.022547  -0.054731  -0.061136
    17  H    0.000022  -0.000123  -0.033991   0.006743  -0.008166  -0.014503
    18  H    0.000027  -0.000092  -0.045004  -0.008177  -0.001026   0.006462
    19  C    0.000237  -0.002447   0.006069   0.000400   0.001630   0.000817
    20  H    0.000008  -0.000068   0.001902   0.000137  -0.000934  -0.000118
    21  C   -0.000119   0.001158  -0.000781   0.000002  -0.000125  -0.000274
    22  H   -0.000001   0.000005  -0.000040  -0.000001   0.000010  -0.000000
    23  C    0.001889  -0.001205   0.000495  -0.000012   0.000112  -0.000779
    24  H   -0.000915   0.000119   0.000113  -0.000001  -0.000016  -0.000109
    25  H    0.000137  -0.000072  -0.000012   0.000002  -0.000001   0.000002
    26  C   -0.001346   0.000636  -0.000721   0.000061  -0.000064   0.000666
    27  H   -0.000021   0.000154  -0.000023   0.000001  -0.000002  -0.000046
    28  H    0.001392  -0.000799   0.000425  -0.000008   0.000019   0.000574
              13         14         15         16         17         18
     1  C   -0.000001   0.000133  -0.000000  -0.000588  -0.000056   0.000002
     2  C    0.000020  -0.004035  -0.000014   0.010466  -0.001122   0.000539
     3  H    0.000000  -0.000000  -0.000000  -0.000000  -0.000001   0.000000
     4  H    0.000005  -0.001212  -0.000010   0.000645  -0.000801   0.000155
     5  C   -0.034648  -0.056614   0.006830   0.003099   0.009688  -0.003061
     6  C    0.004390   0.004351  -0.001978  -0.064618  -0.001735   0.011491
     7  H   -0.003080   0.003429  -0.000086  -0.000695   0.000022   0.000027
     8  H   -0.000055  -0.001790   0.000027   0.003564  -0.000123  -0.000092
     9  C   -0.000269  -0.081674   0.004933   0.351909  -0.033991  -0.045004
    10  H   -0.000050   0.003845  -0.000043  -0.022547   0.006743  -0.008177
    11  H    0.000026   0.013287  -0.000088  -0.054731  -0.008166  -0.001026
    12  C    0.423708   0.582160  -0.030976  -0.061136  -0.014503   0.006462
    13  H    0.488077  -0.024658  -0.005473   0.004008  -0.000365  -0.000089
    14  C   -0.024658   5.141920   0.422489   0.278316  -0.036213  -0.039611
    15  H   -0.005473   0.422489   0.491053  -0.027941   0.001007  -0.004457
    16  C    0.004008   0.278316  -0.027941   4.933560   0.402003   0.437776
    17  H   -0.000365  -0.036213   0.001007   0.402003   0.586222  -0.021844
    18  H   -0.000089  -0.039611  -0.004457   0.437776  -0.021844   0.537505
    19  C    0.000015   0.000698  -0.000041  -0.003808  -0.003050   0.000308
    20  H   -0.000001   0.000254   0.000000  -0.001360   0.001385  -0.000021
    21  C   -0.000000  -0.000112   0.000002   0.000667   0.000574  -0.000046
    22  H    0.000000  -0.000001   0.000000   0.000013  -0.000001  -0.000001
    23  C   -0.000041   0.001352  -0.000005  -0.000718   0.000428  -0.000023
    24  H    0.000011   0.000006   0.000000  -0.000061   0.000019  -0.000002
    25  H   -0.000001  -0.000030  -0.000001   0.000061  -0.000008   0.000001
    26  C    0.000013  -0.000586  -0.000000   0.000962   0.000095  -0.000003
    27  H   -0.000001   0.000002   0.000000  -0.000003   0.000002  -0.000000
    28  H   -0.000001  -0.000056  -0.000001   0.000095  -0.000024   0.000002
              19         20         21         22         23         24
     1  C   -0.056542   0.003451   0.582451  -0.024400  -0.081580   0.013273
     2  C    0.515941  -0.026653  -0.070005   0.004459   0.232993  -0.055921
     3  H    0.006830  -0.000086  -0.030908  -0.005469   0.004930  -0.000088
     4  H   -0.041117  -0.004510   0.005222  -0.000056  -0.013950  -0.003992
     5  C   -0.005365   0.000236   0.000803   0.000015   0.006078   0.001611
     6  C   -0.025576  -0.001296   0.007946   0.000020  -0.001883  -0.003028
     7  H    0.000237   0.000008  -0.000119  -0.000001   0.001889  -0.000915
     8  H   -0.002447  -0.000068   0.001158   0.000005  -0.001205   0.000119
     9  C    0.006069   0.001902  -0.000781  -0.000040   0.000495   0.000113
    10  H    0.000400   0.000137   0.000002  -0.000001  -0.000012  -0.000001
    11  H    0.001630  -0.000934  -0.000125   0.000010   0.000112  -0.000016
    12  C    0.000817  -0.000118  -0.000274  -0.000000  -0.000779  -0.000109
    13  H    0.000015  -0.000001  -0.000000   0.000000  -0.000041   0.000011
    14  C    0.000698   0.000254  -0.000112  -0.000001   0.001352   0.000006
    15  H   -0.000041   0.000000   0.000002   0.000000  -0.000005   0.000000
    16  C   -0.003808  -0.001360   0.000667   0.000013  -0.000718  -0.000061
    17  H   -0.003050   0.001385   0.000574  -0.000001   0.000428   0.000019
    18  H    0.000308  -0.000021  -0.000046  -0.000001  -0.000023  -0.000002
    19  C    5.146021   0.423339   0.296962  -0.034772  -0.064325   0.008234
    20  H    0.423339   0.476349  -0.028966  -0.003073   0.002917  -0.000023
    21  C    0.296962  -0.028966   5.004874   0.423485   0.036493  -0.004325
    22  H   -0.034772  -0.003073   0.423485   0.488020  -0.000268   0.000026
    23  C   -0.064325   0.002917   0.036493  -0.000268   4.967612   0.456573
    24  H    0.008234  -0.000023  -0.004325   0.000026   0.456573   0.534513
    25  H   -0.003602  -0.000263   0.001503  -0.000052   0.385807  -0.020470
    26  C    0.003085  -0.000693  -0.061368   0.004009   0.351867  -0.054653
    27  H   -0.003061   0.000027   0.006476  -0.000089  -0.045027  -0.001034
    28  H    0.009722   0.000023  -0.014498  -0.000365  -0.034036  -0.008146
              25         26         27         28
     1  C    0.003928   0.278473  -0.039639  -0.036083
     2  C   -0.035265  -0.064609   0.011492  -0.001795
     3  H   -0.000042  -0.027955  -0.004458   0.001005
     4  H   -0.000346   0.003570  -0.000093  -0.000124
     5  C    0.000401  -0.003800   0.000307  -0.003017
     6  C   -0.000013   0.010449   0.000541  -0.001166
     7  H    0.000137  -0.001346  -0.000021   0.001392
     8  H   -0.000072   0.000636   0.000154  -0.000799
     9  C   -0.000012  -0.000721  -0.000023   0.000425
    10  H    0.000002   0.000061   0.000001  -0.000008
    11  H   -0.000001  -0.000064  -0.000002   0.000019
    12  C    0.000002   0.000666  -0.000046   0.000574
    13  H   -0.000001   0.000013  -0.000001  -0.000001
    14  C   -0.000030  -0.000586   0.000002  -0.000056
    15  H   -0.000001  -0.000000   0.000000  -0.000001
    16  C    0.000061   0.000962  -0.000003   0.000095
    17  H   -0.000008   0.000095   0.000002  -0.000024
    18  H    0.000001  -0.000003  -0.000000   0.000002
    19  C   -0.003602   0.003085  -0.003061   0.009722
    20  H   -0.000263  -0.000693   0.000027   0.000023
    21  C    0.001503  -0.061368   0.006476  -0.014498
    22  H   -0.000052   0.004009  -0.000089  -0.000365
    23  C    0.385807   0.351867  -0.045027  -0.034036
    24  H   -0.020470  -0.054653  -0.001034  -0.008146
    25  H    0.568955  -0.022768  -0.008170   0.006742
    26  C   -0.022768   4.933888   0.437808   0.401985
    27  H   -0.008170   0.437808   0.537433  -0.021847
    28  H    0.006742   0.401985  -0.021847   0.586053
          Atomic-Atomic Spin Densities.
               1          2          3          4          5          6
     1  C    0.000001   0.000000  -0.000000  -0.000000   0.000000   0.000000
     2  C    0.000000  -0.000001  -0.000000  -0.000000   0.000000   0.000000
     3  H   -0.000000  -0.000000  -0.000000  -0.000000   0.000000  -0.000000
     4  H   -0.000000  -0.000000  -0.000000  -0.000000   0.000000   0.000000
     5  C    0.000000   0.000000   0.000000   0.000000   0.000000   0.000000
     6  C    0.000000   0.000000  -0.000000   0.000000   0.000000   0.000000
     7  H   -0.000000  -0.000000  -0.000000   0.000000   0.000000   0.000000
     8  H   -0.000000  -0.000000   0.000000   0.000000   0.000000   0.000000
     9  C    0.000000  -0.000000   0.000000   0.000000   0.000000  -0.000000
    10  H   -0.000000   0.000000   0.000000  -0.000000   0.000000  -0.000000
    11  H   -0.000000   0.000000  -0.000000  -0.000000  -0.000000   0.000000
    12  C    0.000000  -0.000000  -0.000000   0.000000  -0.000000  -0.000000
    13  H   -0.000000  -0.000000  -0.000000  -0.000000  -0.000000   0.000000
    14  C    0.000000  -0.000000   0.000000   0.000000   0.000000  -0.000000
    15  H   -0.000000   0.000000   0.000000  -0.000000   0.000000   0.000000
    16  C    0.000000  -0.000000  -0.000000  -0.000000   0.000000   0.000000
    17  H    0.000000   0.000000   0.000000  -0.000000  -0.000000   0.000000
    18  H   -0.000000  -0.000000   0.000000  -0.000000   0.000000  -0.000000
    19  C   -0.000000  -0.000000  -0.000000  -0.000000   0.000000  -0.000000
    20  H    0.000000  -0.000000  -0.000000  -0.000000   0.000000   0.000000
    21  C   -0.000000   0.000000   0.000000   0.000000  -0.000000   0.000000
    22  H    0.000000  -0.000000   0.000000   0.000000  -0.000000   0.000000
    23  C    0.000000   0.000000  -0.000000   0.000000   0.000000  -0.000000
    24  H    0.000000  -0.000000   0.000000  -0.000000  -0.000000  -0.000000
    25  H    0.000000   0.000000  -0.000000  -0.000000   0.000000  -0.000000
    26  C   -0.000000  -0.000000   0.000000   0.000000  -0.000000   0.000000
    27  H   -0.000000   0.000000   0.000000  -0.000000  -0.000000   0.000000
    28  H   -0.000000  -0.000000   0.000000  -0.000000   0.000000  -0.000000
               7          8          9         10         11         12
     1  C   -0.000000  -0.000000   0.000000  -0.000000  -0.000000   0.000000
     2  C   -0.000000  -0.000000  -0.000000   0.000000   0.000000  -0.000000
     3  H   -0.000000   0.000000   0.000000   0.000000  -0.000000  -0.000000
     4  H    0.000000   0.000000   0.000000  -0.000000  -0.000000   0.000000
     5  C    0.000000   0.000000   0.000000   0.000000  -0.000000  -0.000000
     6  C    0.000000   0.000000  -0.000000  -0.000000   0.000000  -0.000000
     7  H   -0.000001   0.000000  -0.000000   0.000000   0.000000   0.000000
     8  H    0.000000   0.000000  -0.000000   0.000000  -0.000000  -0.000000
     9  C   -0.000000  -0.000000   0.000002   0.000000  -0.000000   0.000000
    10  H    0.000000   0.000000   0.000000  -0.000000   0.000000  -0.000000
    11  H    0.000000  -0.000000  -0.000000   0.000000  -0.000000   0.000000
    12  C    0.000000  -0.000000   0.000000  -0.000000   0.000000  -0.000000
    13  H   -0.000000  -0.000000  -0.000000   0.000000   0.000000   0.000000
    14  C   -0.000000   0.000000  -0.000000  -0.000000  -0.000000   0.000000
    15  H    0.000000  -0.000000   0.000000   0.000000  -0.000000  -0.000000
    16  C    0.000000  -0.000000  -0.000000   0.000000   0.000000  -0.000000
    17  H    0.000000   0.000000  -0.000000  -0.000000   0.000000  -0.000000
    18  H   -0.000000   0.000000  -0.000000   0.000000   0.000000   0.000000
    19  C   -0.000000  -0.000000  -0.000000   0.000000   0.000000   0.000000
    20  H   -0.000000  -0.000000   0.000000   0.000000  -0.000000  -0.000000
    21  C    0.000000  -0.000000   0.000000  -0.000000  -0.000000   0.000000
    22  H    0.000000   0.000000   0.000000   0.000000  -0.000000  -0.000000
    23  C   -0.000000  -0.000000   0.000000  -0.000000  -0.000000  -0.000000
    24  H    0.000000   0.000000   0.000000  -0.000000   0.000000   0.000000
    25  H   -0.000000   0.000000   0.000000   0.000000   0.000000   0.000000
    26  C    0.000000   0.000000  -0.000000  -0.000000   0.000000   0.000000
    27  H    0.000000   0.000000   0.000000  -0.000000   0.000000   0.000000
    28  H   -0.000000   0.000000  -0.000000  -0.000000   0.000000   0.000000
              13         14         15         16         17         18
     1  C   -0.000000   0.000000  -0.000000   0.000000   0.000000  -0.000000
     2  C   -0.000000  -0.000000   0.000000  -0.000000   0.000000  -0.000000
     3  H   -0.000000   0.000000   0.000000  -0.000000   0.000000   0.000000
     4  H   -0.000000   0.000000  -0.000000  -0.000000  -0.000000  -0.000000
     5  C   -0.000000   0.000000   0.000000   0.000000  -0.000000   0.000000
     6  C    0.000000  -0.000000   0.000000   0.000000   0.000000  -0.000000
     7  H   -0.000000  -0.000000   0.000000   0.000000   0.000000  -0.000000
     8  H   -0.000000   0.000000  -0.000000  -0.000000   0.000000   0.000000
     9  C   -0.000000  -0.000000   0.000000  -0.000000  -0.000000  -0.000000
    10  H    0.000000  -0.000000   0.000000   0.000000  -0.000000   0.000000
    11  H    0.000000  -0.000000  -0.000000   0.000000   0.000000   0.000000
    12  C    0.000000   0.000000  -0.000000  -0.000000  -0.000000   0.000000
    13  H    0.000000  -0.000000  -0.000000   0.000000   0.000000  -0.000000
    14  C   -0.000000  -0.000001   0.000000   0.000000   0.000000   0.000000
    15  H   -0.000000   0.000000   0.000000  -0.000000  -0.000000  -0.000000
    16  C    0.000000   0.000000  -0.000000  -0.000001   0.000000   0.000000
    17  H    0.000000   0.000000  -0.000000   0.000000  -0.000000  -0.000000
    18  H   -0.000000   0.000000  -0.000000   0.000000  -0.000000   0.000000
    19  C    0.000000  -0.000000  -0.000000   0.000000  -0.000000   0.000000
    20  H   -0.000000   0.000000   0.000000  -0.000000   0.000000  -0.000000
    21  C    0.000000  -0.000000   0.000000  -0.000000  -0.000000  -0.000000
    22  H    0.000000   0.000000   0.000000  -0.000000   0.000000  -0.000000
    23  C   -0.000000  -0.000000  -0.000000   0.000000  -0.000000  -0.000000
    24  H    0.000000   0.000000   0.000000   0.000000  -0.000000  -0.000000
    25  H   -0.000000  -0.000000  -0.000000   0.000000   0.000000   0.000000
    26  C    0.000000  -0.000000   0.000000   0.000000  -0.000000  -0.000000
    27  H    0.000000   0.000000  -0.000000   0.000000  -0.000000  -0.000000
    28  H   -0.000000  -0.000000  -0.000000   0.000000  -0.000000   0.000000
              19         20         21         22         23         24
     1  C   -0.000000   0.000000  -0.000000   0.000000   0.000000   0.000000
     2  C   -0.000000  -0.000000   0.000000  -0.000000   0.000000  -0.000000
     3  H   -0.000000  -0.000000   0.000000   0.000000  -0.000000   0.000000
     4  H   -0.000000  -0.000000   0.000000   0.000000   0.000000  -0.000000
     5  C    0.000000   0.000000  -0.000000  -0.000000   0.000000  -0.000000
     6  C   -0.000000   0.000000   0.000000   0.000000  -0.000000  -0.000000
     7  H   -0.000000  -0.000000   0.000000   0.000000  -0.000000   0.000000
     8  H   -0.000000  -0.000000  -0.000000   0.000000  -0.000000   0.000000
     9  C   -0.000000   0.000000   0.000000   0.000000   0.000000   0.000000
    10  H    0.000000   0.000000  -0.000000   0.000000  -0.000000  -0.000000
    11  H    0.000000  -0.000000  -0.000000  -0.000000  -0.000000   0.000000
    12  C    0.000000  -0.000000   0.000000  -0.000000  -0.000000   0.000000
    13  H    0.000000  -0.000000   0.000000   0.000000  -0.000000   0.000000
    14  C   -0.000000   0.000000  -0.000000   0.000000  -0.000000   0.000000
[...]
     2  C    0.000000  -0.000000   0.000000  -0.000000
     3  H   -0.000000   0.000000   0.000000   0.000000
     4  H   -0.000000   0.000000   0.000000  -0.000000
     5  C    0.000000  -0.000000  -0.000000   0.000000
     6  C   -0.000000   0.000000   0.000000  -0.000000
     7  H   -0.000000   0.000000   0.000000  -0.000000
     8  H    0.000000   0.000000   0.000000   0.000000
     9  C    0.000000  -0.000000   0.000000  -0.000000
    10  H   -0.000000  -0.000000  -0.000000  -0.000000
    11  H    0.000000   0.000000   0.000000   0.000000
    12  C    0.000000   0.000000   0.000000   0.000000
    13  H   -0.000000   0.000000   0.000000  -0.000000
    14  C    0.000000  -0.000000  -0.000000  -0.000000
    15  H   -0.000000   0.000000  -0.000000  -0.000000
    16  C    0.000000  -0.000000   0.000000   0.000000
    17  H    0.000000  -0.000000  -0.000000   0.000000
    18  H    0.000000  -0.000000   0.000000   0.000000
    19  C   -0.000000  -0.000000  -0.000000   0.000000
    20  H   -0.000000  -0.000000   0.000000  -0.000000
    21  C    0.000000   0.000000  -0.000000   0.000000
    22  H   -0.000000  -0.000000   0.000000  -0.000000
    23  C   -0.000000   0.000000   0.000000   0.000000
    24  H   -0.000000  -0.000000  -0.000000  -0.000000
    25  H    0.000000  -0.000000  -0.000000   0.000000
    26  C   -0.000000   0.000001  -0.000000  -0.000000
    27  H   -0.000000  -0.000000  -0.000000   0.000000
    28  H    0.000000  -0.000000   0.000000   0.000000
 Mulliken charges and spin densities:
               1          2
     1  C   -0.204542   0.000001
     2  C   -0.195745  -0.000000
     3  H    0.148447  -0.000000
     4  H    0.170936  -0.000000
     5  C   -0.192468   0.000000
     6  C   -0.198108   0.000000
     7  H    0.168098  -0.000000
     8  H    0.170893   0.000000
     9  C   -0.214716   0.000001
    10  H    0.131250  -0.000000
    11  H    0.141525  -0.000000
    12  C   -0.159670   0.000000
    13  H    0.152176   0.000000
    14  C   -0.204439  -0.000001
    15  H    0.148440   0.000000
    16  C   -0.191969  -0.000000
    17  H    0.116067   0.000000
    18  H    0.132882   0.000000
    19  C   -0.192956  -0.000000
    20  H    0.166896   0.000000
    21  C   -0.159675  -0.000000
    22  H    0.151807  -0.000000
    23  C   -0.216269  -0.000001
    24  H    0.141869   0.000000
    25  H    0.131332   0.000000
    26  C   -0.194089   0.000000
    27  H    0.133129  -0.000000
    28  H    0.118897  -0.000000
 Sum of Mulliken charges =  -0.00000   0.00000
 Mulliken charges and spin densities with hydrogens summed into heavy atoms:
               1          2
     1  C   -0.056095   0.000001
     2  C   -0.024809  -0.000000
     5  C   -0.024369  -0.000000
     6  C   -0.027215   0.000000
     9  C    0.058059   0.000001
    12  C   -0.007494   0.000001
    14  C   -0.055999  -0.000001
    16  C    0.056980  -0.000000
    19  C   -0.026060   0.000000
    21  C   -0.007868  -0.000000
    23  C    0.056933  -0.000001
    26  C    0.057937   0.000000
 Electronic spatial extent (au):  <R**2>=           2316.6083
 Charge=              0.0000 electrons
 Dipole moment (field-independent basis, Debye):
    X=             -0.0009    Y=              0.0049    Z=              0.0018  Tot=              0.0053
 Quadrupole moment (field-independent basis, Debye-Ang):
   XX=            -70.3558   YY=            -68.1209   ZZ=            -75.1774
   XY=             -3.3516   XZ=             -3.8481   YZ=             -1.7339
 Traceless Quadrupole moment (field-independent basis, Debye-Ang):
   XX=              0.8623   YY=              3.0971   ZZ=             -3.9594
   XY=             -3.3516   XZ=             -3.8481   YZ=             -1.7339
 Octapole moment (field-independent basis, Debye-Ang**2):
  XXX=              0.0188  YYY=              0.0367  ZZZ=              0.0031  XYY=             -0.0039
  XXY=             -0.0177  XXZ=             -0.0095  XZZ=             -0.0090  YZZ=              0.0135
  YYZ=              0.0214  XYZ=             -0.0127
 Hexadecapole moment (field-independent basis, Debye-Ang**3):
 XXXX=          -2052.9263 YYYY=           -609.9978 ZZZZ=           -420.0444 XXXY=           -115.5928
 XXXZ=           -163.2104 YYYX=            -65.9510 YYYZ=             -7.5760 ZZZX=           -104.7035
 ZZZY=            -20.6710 XXYY=           -439.1373 XXZZ=           -433.8513 YYZZ=           -186.7684
 XXYZ=            -26.1521 YYXZ=            -37.7448 ZZXY=            -47.0887
 N-N= 6.733743894912D+02 E-N=-2.429361047888D+03  KE= 4.643035516758D+02
                          Isotropic Fermi Contact Couplings
        Atom                 a.u.       MegaHertz       Gauss      10(-4) cm-1
     1  C(13)              0.00000       0.00003       0.00001       0.00001
     2  C(13)              0.00000       0.00007       0.00002       0.00002
     3  H(1)              -0.00000      -0.00001      -0.00000      -0.00000
     4  H(1)              -0.00000      -0.00008      -0.00003      -0.00003
     5  C(13)              0.00000       0.00012       0.00004       0.00004
     6  C(13)             -0.00000      -0.00006      -0.00002      -0.00002
     7  H(1)              -0.00000      -0.00023      -0.00008      -0.00008
     8  H(1)               0.00000       0.00008       0.00003       0.00003
     9  C(13)              0.00000       0.00029       0.00010       0.00010
    10  H(1)              -0.00000      -0.00013      -0.00005      -0.00004
    11  H(1)              -0.00000      -0.00017      -0.00006      -0.00006
    12  C(13)             -0.00000      -0.00008      -0.00003      -0.00003
    13  H(1)               0.00000       0.00018       0.00006       0.00006
    14  C(13)             -0.00000      -0.00004      -0.00001      -0.00001
    15  H(1)               0.00000       0.00002       0.00001       0.00001
    16  C(13)             -0.00000      -0.00013      -0.00005      -0.00004
    17  H(1)               0.00000       0.00002       0.00001       0.00001
    18  H(1)               0.00000       0.00003       0.00001       0.00001
    19  C(13)             -0.00000      -0.00013      -0.00005      -0.00004
    20  H(1)               0.00000       0.00023       0.00008       0.00008
    21  C(13)              0.00000       0.00009       0.00003       0.00003
    22  H(1)              -0.00000      -0.00018      -0.00006      -0.00006
    23  C(13)             -0.00000      -0.00030      -0.00011      -0.00010
    24  H(1)               0.00000       0.00018       0.00006       0.00006
    25  H(1)               0.00000       0.00014       0.00005       0.00005
    26  C(13)              0.00000       0.00014       0.00005       0.00005
    27  H(1)              -0.00000      -0.00003      -0.00001      -0.00001
    28  H(1)              -0.00000      -0.00003      -0.00001      -0.00001
 --------------------------------------------------------
       Center         ----  Spin Dipole Couplings  ----
                      3XX-RR        3YY-RR        3ZZ-RR
 --------------------------------------------------------
     1   Atom        0.000000     -0.000000      0.000000
     2   Atom       -0.000000      0.000000     -0.000000
     3   Atom       -0.000000     -0.000000      0.000000
     4   Atom        0.000000      0.000000     -0.000000
     5   Atom        0.000000      0.000000     -0.000001
     6   Atom        0.000000     -0.000000      0.000000
     7   Atom       -0.000000      0.000000     -0.000000
     8   Atom       -0.000000     -0.000000      0.000000
     9   Atom        0.000000     -0.000000      0.000000
    10   Atom       -0.000000     -0.000000      0.000000
    11   Atom       -0.000000      0.000000     -0.000000
    12   Atom       -0.000000     -0.000001      0.000001
    13   Atom        0.000000     -0.000000      0.000000
    14   Atom       -0.000000      0.000000     -0.000000
    15   Atom        0.000000      0.000000     -0.000000
    16   Atom       -0.000000      0.000000     -0.000000
    17   Atom       -0.000000      0.000000     -0.000000
    18   Atom        0.000000     -0.000000      0.000000
    19   Atom       -0.000000     -0.000000      0.000001
    20   Atom        0.000000     -0.000000      0.000000
    21   Atom        0.000000      0.000001     -0.000001
    22   Atom       -0.000000      0.000000     -0.000000
    23   Atom       -0.000000      0.000000     -0.000000
    24   Atom        0.000000     -0.000000      0.000000
    25   Atom        0.000000      0.000000     -0.000000
    26   Atom        0.000000     -0.000000      0.000000
    27   Atom        0.000000      0.000000     -0.000000
    28   Atom        0.000000     -0.000000      0.000000
 --------------------------------------------------------
                        XY            XZ            YZ
 --------------------------------------------------------
     1   Atom       -0.000000      0.000001     -0.000000
     2   Atom       -0.000000     -0.000001      0.000000
     3   Atom        0.000000     -0.000000     -0.000000
     4   Atom        0.000000      0.000000     -0.000000
     5   Atom       -0.000000     -0.000000     -0.000000
     6   Atom        0.000000      0.000001      0.000000
     7   Atom       -0.000000     -0.000000      0.000000
     8   Atom       -0.000000     -0.000000      0.000000
     9   Atom        0.000000     -0.000000      0.000000
    10   Atom       -0.000000      0.000000     -0.000000
    11   Atom        0.000000      0.000000      0.000000
    12   Atom       -0.000000      0.000000      0.000000
    13   Atom       -0.000000      0.000000      0.000000
    14   Atom        0.000000     -0.000001      0.000000
    15   Atom       -0.000000      0.000000      0.000000
    16   Atom        0.000000      0.000000      0.000000
    17   Atom       -0.000000     -0.000000     -0.000000
    18   Atom        0.000000     -0.000000      0.000000
    19   Atom        0.000000      0.000000      0.000000
    20   Atom        0.000000      0.000000     -0.000000
    21   Atom        0.000000     -0.000000     -0.000000
    22   Atom        0.000000     -0.000000     -0.000000
    23   Atom       -0.000000      0.000000     -0.000000
    24   Atom       -0.000000     -0.000000     -0.000000
    25   Atom        0.000000     -0.000000      0.000000
    26   Atom       -0.000000     -0.000000     -0.000000
    27   Atom       -0.000000      0.000000     -0.000000
    28   Atom        0.000000      0.000000      0.000000
 --------------------------------------------------------


 ---------------------------------------------------------------------------------
              Anisotropic Spin Dipole Couplings in Principal Axis System
 ---------------------------------------------------------------------------------

       Atom             a.u.   MegaHertz   Gauss  10(-4) cm-1        Axes

              Baa    -0.0000    -0.000    -0.000    -0.000 -0.5813  0.2089  0.7864
     1 C(13)  Bbb    -0.0000    -0.000    -0.000    -0.000  0.2497  0.9656 -0.0719
              Bcc     0.0000     0.000     0.000     0.000  0.7744 -0.1546  0.6135
 
              Baa    -0.0000    -0.000    -0.000    -0.000  0.7391  0.1445  0.6580
     2 C(13)  Bbb     0.0000     0.000     0.000     0.000  0.2439  0.8531 -0.4613
              Bcc     0.0000     0.000     0.000     0.000  0.6279 -0.5014 -0.5952
 
              Baa    -0.0000    -0.000    -0.000    -0.000  0.0096  0.9802  0.1977
     3 H(1)   Bbb    -0.0000    -0.000    -0.000    -0.000  0.9251 -0.0838  0.3705
              Bcc     0.0000     0.000     0.000     0.000 -0.3797 -0.1793  0.9076
 
              Baa    -0.0000    -0.000    -0.000    -0.000 -0.2184  0.2387  0.9462
     4 H(1)   Bbb     0.0000     0.000     0.000     0.000 -0.4214  0.8515 -0.3121
              Bcc     0.0000     0.000     0.000     0.000  0.8802  0.4669  0.0854
 
              Baa    -0.0000    -0.000    -0.000    -0.000  0.0852  0.0381  0.9956
     5 C(13)  Bbb     0.0000     0.000     0.000     0.000  0.7984  0.5952 -0.0911
              Bcc     0.0000     0.000     0.000     0.000 -0.5961  0.8026  0.0202
 
              Baa    -0.0000    -0.000    -0.000    -0.000  0.6550 -0.5162 -0.5518
     6 C(13)  Bbb    -0.0000    -0.000    -0.000    -0.000  0.2773  0.8436 -0.4599
              Bcc     0.0000     0.000     0.000     0.000  0.7029  0.1482  0.6957
 
              Baa    -0.0000    -0.000    -0.000    -0.000  0.5517  0.0126  0.8340
     7 H(1)   Bbb    -0.0000    -0.000    -0.000    -0.000  0.7098  0.5180 -0.4773
              Bcc     0.0000     0.000     0.000     0.000 -0.4380  0.8553  0.2769
 
              Baa    -0.0000    -0.000    -0.000    -0.000  0.6660  0.7458  0.0150
     8 H(1)   Bbb    -0.0000    -0.000    -0.000    -0.000  0.6986 -0.6307  0.3379
              Bcc     0.0000     0.000     0.000     0.000 -0.2615  0.2145  0.9411
 
              Baa    -0.0000    -0.000    -0.000    -0.000 -0.3884  0.8728 -0.2956
     9 C(13)  Bbb     0.0000     0.000     0.000     0.000  0.0881  0.3545  0.9309
              Bcc     0.0000     0.000     0.000     0.000  0.9173  0.3355 -0.2146
 
              Baa    -0.0000    -0.000    -0.000    -0.000  0.7143  0.6484 -0.2635
    10 H(1)   Bbb    -0.0000    -0.000    -0.000    -0.000 -0.5118  0.7407  0.4353
              Bcc     0.0000     0.000     0.000     0.000  0.4774 -0.1761  0.8608
 
              Baa    -0.0000    -0.000    -0.000    -0.000  0.5758 -0.4822  0.6603
    11 H(1)   Bbb    -0.0000    -0.000    -0.000    -0.000 -0.5944  0.3076  0.7430
              Bcc     0.0000     0.000     0.000     0.000  0.5614  0.8203  0.1095
 
              Baa    -0.0000    -0.000    -0.000    -0.000  0.2583  0.9577 -0.1271
    12 C(13)  Bbb    -0.0000    -0.000    -0.000    -0.000  0.9515 -0.2749 -0.1384
              Bcc     0.0000     0.000     0.000     0.000  0.1674  0.0852  0.9822
 
              Baa    -0.0000    -0.000    -0.000    -0.000  0.1304  0.9618 -0.2408
    13 H(1)   Bbb     0.0000     0.000     0.000     0.000  0.9398 -0.1973 -0.2789
              Bcc     0.0000     0.000     0.000     0.000  0.3158  0.1900  0.9296
 
              Baa    -0.0000    -0.000    -0.000    -0.000  0.7495 -0.1413  0.6468
    14 C(13)  Bbb     0.0000     0.000     0.000     0.000  0.2489  0.9654 -0.0775
              Bcc     0.0000     0.000     0.000     0.000 -0.6135  0.2190  0.7587
 
              Baa    -0.0000    -0.000    -0.000    -0.000 -0.4129 -0.1747  0.8939
    15 H(1)   Bbb     0.0000     0.000     0.000     0.000  0.9100 -0.0388  0.4127
              Bcc     0.0000     0.000     0.000     0.000 -0.0374  0.9838  0.1750
 
              Baa    -0.0000    -0.000    -0.000    -0.000 -0.6940 -0.0162  0.7198
    16 C(13)  Bbb     0.0000     0.000     0.000     0.000  0.6756 -0.3601  0.6433
              Bcc     0.0000     0.000     0.000     0.000  0.2488  0.9328  0.2609
 
              Baa    -0.0000    -0.000    -0.000    -0.000  0.5717  0.5380  0.6194
    17 H(1)   Bbb     0.0000     0.000     0.000     0.000 -0.6467 -0.1691  0.7438
              Bcc     0.0000     0.000     0.000     0.000 -0.5049  0.8258 -0.2513
 
              Baa    -0.0000    -0.000    -0.000    -0.000 -0.5641  0.7687 -0.3015
    18 H(1)   Bbb     0.0000     0.000     0.000     0.000 -0.6541 -0.1931  0.7314
              Bcc     0.0000     0.000     0.000     0.000  0.5040  0.6098  0.6117
 
              Baa    -0.0000    -0.000    -0.000    -0.000 -0.6379  0.7700  0.0088
    19 C(13)  Bbb    -0.0000    -0.000    -0.000    -0.000  0.7697  0.6379 -0.0240
              Bcc     0.0000     0.000     0.000     0.000  0.0241  0.0085  0.9997
 
              Baa    -0.0000    -0.000    -0.000    -0.000 -0.4513  0.8486  0.2760
    20 H(1)   Bbb     0.0000     0.000     0.000     0.000  0.7094  0.5288 -0.4660
              Bcc     0.0000     0.000     0.000     0.000  0.5414  0.0145  0.8406
 
              Baa    -0.0000    -0.000    -0.000    -0.000  0.1289  0.0978  0.9868
    21 C(13)  Bbb     0.0000     0.000     0.000     0.000  0.9494 -0.2995 -0.0944
              Bcc     0.0000     0.000     0.000     0.000  0.2864  0.9491 -0.1315
 
              Baa    -0.0000    -0.000    -0.000    -0.000  0.2721  0.2007  0.9411
    22 H(1)   Bbb    -0.0000    -0.000    -0.000    -0.000  0.9450 -0.2405 -0.2219
              Bcc     0.0000     0.000     0.000     0.000  0.1818  0.9497 -0.2551
 
              Baa    -0.0000    -0.000    -0.000    -0.000  0.9139  0.3298 -0.2368
    23 C(13)  Bbb    -0.0000    -0.000    -0.000    -0.000  0.1077  0.3654  0.9246
              Bcc     0.0000     0.000     0.000     0.000 -0.3915  0.8705 -0.2984
 
              Baa    -0.0000    -0.000    -0.000    -0.000  0.5685  0.8153  0.1095
    24 H(1)   Bbb     0.0000     0.000     0.000     0.000 -0.5644  0.2896  0.7731
              Bcc     0.0000     0.000     0.000     0.000  0.5986 -0.5013  0.6248
 
              Baa    -0.0000    -0.000    -0.000    -0.000  0.4717 -0.1711  0.8650
    25 H(1)   Bbb     0.0000     0.000     0.000     0.000 -0.5350  0.7243  0.4350
              Bcc     0.0000     0.000     0.000     0.000  0.7009  0.6679 -0.2501
 
              Baa    -0.0000    -0.000    -0.000    -0.000  0.2500  0.9326  0.2603
    26 C(13)  Bbb    -0.0000    -0.000    -0.000    -0.000  0.6753 -0.3606  0.6434
              Bcc     0.0000     0.000     0.000     0.000 -0.6939 -0.0149  0.7199
 
              Baa    -0.0000    -0.000    -0.000    -0.000  0.5360  0.6306  0.5613
    27 H(1)   Bbb    -0.0000    -0.000    -0.000    -0.000 -0.6133 -0.1661  0.7722
              Bcc     0.0000     0.000     0.000     0.000 -0.5802  0.7581 -0.2977
 
              Baa    -0.0000    -0.000    -0.000    -0.000 -0.3265  0.8569 -0.3989
    28 H(1)   Bbb    -0.0000    -0.000    -0.000    -0.000  0.7591 -0.0138 -0.6508
              Bcc     0.0000     0.000     0.000     0.000  0.5632  0.5153  0.6460
 

 ---------------------------------------------------------------------------------

 No NMR shielding tensors so no spin-rotation constants.
 Leave Link  601 at Tue Aug  4 00:42:27 2020, MaxMem=  6442450944 cpu:               7.9 elap:               0.4
 (Enter /scratch/scicomp/CentOS/7.3.1611/Haswell/software/Gaussian/g16/l9999.exe)
 1\1\GINC-ATLAS-205\SP\UwB97XD\def2TZVP\C12H16\BOCHEN\04-Aug-2020\0\\#p
  uwb97xd guess=mix def2tzvp # scrf=(iefpcm,solvent=Cyclohexane,read) n
 osym 6d 10f\\endo-2 xp-pcm for eta=3\\0,1\C,0,-3.125716,-0.440978,0.27
 0604\C,0,-0.764956,-0.259235,-1.286409\H,0,-4.058512,-0.527829,0.81570
 9\H,0,0.17605,-0.180561,-1.817052\C,0,1.190843,1.431055,0.823776\C,0,0
 .764956,0.259235,1.286409\H,0,0.599752,2.328066,0.965494\H,0,-0.17605,
 0.180561,1.817052\C,0,1.594875,-0.984626,1.150152\H,0,2.156222,-1.1137
 93,2.084526\H,0,0.946262,-1.857408,1.063673\C,0,2.468178,1.532445,0.11
 662\H,0,2.867487,2.516684,-0.097237\C,0,3.125716,0.440978,-0.270604\H,
 0,4.058512,0.527829,-0.815709\C,0,2.566903,-0.935493,-0.033026\H,0,2.0
 59865,-1.262257,-0.949209\H,0,3.377104,-1.649532,0.12636\C,0,-1.190843
 ,-1.431055,-0.823776\H,0,-0.599752,-2.328066,-0.965494\C,0,-2.468178,-
 1.532445,-0.11662\H,0,-2.867487,-2.516684,0.097237\C,0,-1.594875,0.984
 626,-1.150152\H,0,-0.946262,1.857408,-1.063673\H,0,-2.156222,1.113793,
 -2.084526\C,0,-2.566903,0.935493,0.033026\H,0,-3.377104,1.649532,-0.12
 636\H,0,-2.059865,1.262257,0.949209\\Version=ES64L-G16RevB.01\HF=-466.
 8107692\S2=0.\S2-1=0.\S2A=0.\RMSD=9.041e-09\Dipole=-0.0003616,0.001909
 9,0.0007209\Quadrupole=0.6410875,2.302614,-2.9437015,-2.4918068,-2.860
 9544,-1.2891211\PG=CI [X(C12H16)]\\@


 THE MOST INCOMPREHENSIBLE THING ABOUT THE WORLD
 IS THAT IT IS COMPREHENSIBLE. -- A. EINSTEIN
 Job cpu time:       0 days  2 hours  6 minutes 31.1 seconds.
 Elapsed time:       0 days  0 hours  5 minutes 19.5 seconds.
 File lengths (MBytes):  RWF=    653 Int=      0 D2E=      0 Chk=     24 Scr=      1
 Normal termination of Gaussian 16 at Tue Aug  4 00:42:27 2020.
