 Entering Gaussian System, Link 0=g16
 Input=meso-TS_13_2_xp-Ger.com
 Output=meso-TS_13_2_xp-Ger.log
 Initial command:
 /scratch/scicomp/CentOS/7.3.1611/Haswell/software/Gaussian/g16/l1.exe "/scratch/bochen/cyclohexadiene-dimerization/wb97xd-def2tzvp/xp-pcm/meso/Gau-367801.inp" -scrdir="/scratch/bochen/cyclohexadiene-dimerization/wb97xd-def2tzvp/xp-pcm/meso/"
 Entering Link 1 = /scratch/scicomp/CentOS/7.3.1611/Haswell/software/Gaussian/g16/l1.exe PID=    367805.
  
 Copyright (c) 1988-2017, Gaussian, Inc.  All Rights Reserved.
  
 This is part of the Gaussian(R) 16 program.  It is based on
 the Gaussian(R) 09 system (copyright 2009, Gaussian, Inc.),
 the Gaussian(R) 03 system (copyright 2003, Gaussian, Inc.),
 the Gaussian(R) 98 system (copyright 1998, Gaussian, Inc.),
 the Gaussian(R) 94 system (copyright 1995, Gaussian, Inc.),
 the Gaussian 92(TM) system (copyright 1992, Gaussian, Inc.),
 the Gaussian 90(TM) system (copyright 1990, Gaussian, Inc.),
 the Gaussian 88(TM) system (copyright 1988, Gaussian, Inc.),
 the Gaussian 86(TM) system (copyright 1986, Carnegie Mellon
 University), and the Gaussian 82(TM) system (copyright 1983,
 Carnegie Mellon University). Gaussian is a federally registered
 trademark of Gaussian, Inc.
  
 This software contains proprietary and confidential information,
 including trade secrets, belonging to Gaussian, Inc.
  
 This software is provided under written license and may be
 used, copied, transmitted, or stored only in accord with that
 written license.
  
 The following legend is applicable only to US Government
 contracts under FAR:
  
                    RESTRICTED RIGHTS LEGEND
  
 Use, reproduction and disclosure by the US Government is
 subject to restrictions as set forth in subparagraphs (a)
 and (c) of the Commercial Computer Software - Restricted
 Rights clause in FAR 52.227-19.
  
 Gaussian, Inc.
 340 Quinnipiac St., Bldg. 40, Wallingford CT 06492
  
  
 ---------------------------------------------------------------
 Warning -- This program may not be used in any manner that
 competes with the business of Gaussian, Inc. or will provide
 assistance to any competitor of Gaussian, Inc.  The licensee
 of this program is prohibited from giving any competitor of
 Gaussian, Inc. access to this program.  By using this program,
 the user acknowledges that Gaussian, Inc. is engaged in the
 business of creating and licensing software in the field of
 computational chemistry and represents and warrants to the
 licensee that it is not a competitor of Gaussian, Inc. and that
 it will not use this program in any manner prohibited above.
 ---------------------------------------------------------------
  

 Cite this work as:
 Gaussian 16, Revision B.01,
 M. J. Frisch, G. W. Trucks, H. B. Schlegel, G. E. Scuseria, 
 M. A. Robb, J. R. Cheeseman, G. Scalmani, V. Barone, 
 G. A. Petersson, H. Nakatsuji, X. Li, M. Caricato, A. V. Marenich, 
 J. Bloino, B. G. Janesko, R. Gomperts, B. Mennucci, H. P. Hratchian, 
 J. V. Ortiz, A. F. Izmaylov, J. L. Sonnenberg, D. Williams-Young, 
 F. Ding, F. Lipparini, F. Egidi, J. Goings, B. Peng, A. Petrone, 
 T. Henderson, D. Ranasinghe, V. G. Zakrzewski, J. Gao, N. Rega, 
 G. Zheng, W. Liang, M. Hada, M. Ehara, K. Toyota, R. Fukuda, 
 J. Hasegawa, M. Ishida, T. Nakajima, Y. Honda, O. Kitao, H. Nakai, 
 T. Vreven, K. Throssell, J. A. Montgomery, Jr., J. E. Peralta, 
 F. Ogliaro, M. J. Bearpark, J. J. Heyd, E. N. Brothers, K. N. Kudin, 
 V. N. Staroverov, T. A. Keith, R. Kobayashi, J. Normand, 
 K. Raghavachari, A. P. Rendell, J. C. Burant, S. S. Iyengar, 
 J. Tomasi, M. Cossi, J. M. Millam, M. Klene, C. Adamo, R. Cammi, 
 J. W. Ochterski, R. L. Martin, K. Morokuma, O. Farkas, 
 J. B. Foresman, and D. J. Fox, Gaussian, Inc., Wallingford CT, 2016.
 
 ******************************************
 Gaussian 16:  ES64L-G16RevB.01 20-Dec-2017
                 4-Aug-2020 
 ******************************************
 %chk=meso-TS_13_2_xp-12.chk
 %nproc=24
 Will use up to   24 processors via shared memory.
 %mem=48GB
 ----------------------------------------------------------------------
 #p uwb97xd guess=mix def2tzvp # scrf=(iefpcm,solvent=Cyclohexane,read)
  nosym 6d 10f
 ----------------------------------------------------------------------
 1/38=1,40=2,172=1/1;
 2/12=2,15=1,17=6,18=5,40=1/2;
 3/5=44,7=101,8=22,11=2,25=1,30=1,70=2203,72=17,74=-58,116=2/1,2,3;
 4/13=-1/1;
 5/5=2,38=5,53=17/2;
 6/7=2,8=2,9=2,10=2,28=1/1;
 99/5=1,9=1/99;
 Leave Link    1 at Tue Aug  4 10:41:49 2020, MaxMem=  6442450944 cpu:               3.0 elap:               0.1
 (Enter /scratch/scicomp/CentOS/7.3.1611/Haswell/software/Gaussian/g16/l101.exe)
 -----------------------
 endo-2 xp-pcm for eta=3
 -----------------------
 Symbolic Z-matrix:
 Charge =  0 Multiplicity = 1
 6                    -3.11929  -0.43709   0.24729 
 6                    -0.56937  -0.20248  -0.95934 
 1                    -4.08343  -0.54976   0.72938 
 1                     0.38039  -0.1179   -1.4683 
 6                     1.09108   1.40555   0.69213 
 6                     0.56937   0.20248   0.95934 
 1                     0.51715   2.30851   0.85671 
 1                    -0.38039   0.1179    1.4683 
 6                     1.46965  -0.99958   0.9933 
 1                     1.92056  -0.98803   1.99319 
 1                     0.90648  -1.92861   0.92123 
 6                     2.41974   1.51599   0.11191 
 1                     2.82852   2.50515  -0.05752 
 6                     3.11929   0.43709  -0.24729 
 1                     4.08343   0.54976  -0.72938 
 6                     2.59153  -0.95749  -0.04532 
 1                     2.25157  -1.35467  -1.0098 
 1                     3.40048  -1.61987   0.27023 
 6                    -1.09108  -1.40555  -0.69213 
 1                    -0.51715  -2.30851  -0.85671 
 6                    -2.41974  -1.51599  -0.11191 
 1                    -2.82852  -2.50515   0.05752 
 6                    -1.46965   0.99958  -0.9933 
 1                    -0.90648   1.92861  -0.92123 
 1                    -1.92056   0.98803  -1.99319 
 6                    -2.59153   0.95749   0.04532 
 1                    -3.40048   1.61987  -0.27023 
 1                    -2.25157   1.35467   1.0098 
 
 ITRead=  0  0  0  0  0  0  0  0  0  0  0  0  0  0  0  0  0  0  0  0
 ITRead=  0  0  0  0  0  0  0  0
 MicOpt= -1 -1 -1 -1 -1 -1 -1 -1 -1 -1 -1 -1 -1 -1 -1 -1 -1 -1 -1 -1
 MicOpt= -1 -1 -1 -1 -1 -1 -1 -1
 NAtoms=     28 NQM=       28 NQMF=       0 NMMI=      0 NMMIF=      0
                NMic=       0 NMicF=      0.
                    Isotopes and Nuclear Properties:
 (Nuclear quadrupole moments (NQMom) in fm**2, nuclear magnetic moments (NMagM)
  in nuclear magnetons)

  Atom         1           2           3           4           5           6           7           8           9          10
 IAtWgt=          12          12           1           1          12          12           1           1          12           1
 AtmWgt=  12.0000000  12.0000000   1.0078250   1.0078250  12.0000000  12.0000000   1.0078250   1.0078250  12.0000000   1.0078250
 NucSpn=           0           0           1           1           0           0           1           1           0           1
 AtZEff=  -0.0000000  -0.0000000  -0.0000000  -0.0000000  -0.0000000  -0.0000000  -0.0000000  -0.0000000  -0.0000000  -0.0000000
 NQMom=    0.0000000   0.0000000   0.0000000   0.0000000   0.0000000   0.0000000   0.0000000   0.0000000   0.0000000   0.0000000
 NMagM=    0.0000000   0.0000000   2.7928460   2.7928460   0.0000000   0.0000000   2.7928460   2.7928460   0.0000000   2.7928460
 AtZNuc=   6.0000000   6.0000000   1.0000000   1.0000000   6.0000000   6.0000000   1.0000000   1.0000000   6.0000000   1.0000000

  Atom        11          12          13          14          15          16          17          18          19          20
 IAtWgt=           1          12           1          12           1          12           1           1          12           1
 AtmWgt=   1.0078250  12.0000000   1.0078250  12.0000000   1.0078250  12.0000000   1.0078250   1.0078250  12.0000000   1.0078250
 NucSpn=           1           0           1           0           1           0           1           1           0           1
 AtZEff=  -0.0000000  -0.0000000  -0.0000000  -0.0000000  -0.0000000  -0.0000000  -0.0000000  -0.0000000  -0.0000000  -0.0000000
 NQMom=    0.0000000   0.0000000   0.0000000   0.0000000   0.0000000   0.0000000   0.0000000   0.0000000   0.0000000   0.0000000
 NMagM=    2.7928460   0.0000000   2.7928460   0.0000000   2.7928460   0.0000000   2.7928460   2.7928460   0.0000000   2.7928460
 AtZNuc=   1.0000000   6.0000000   1.0000000   6.0000000   1.0000000   6.0000000   1.0000000   1.0000000   6.0000000   1.0000000

  Atom        21          22          23          24          25          26          27          28
 IAtWgt=          12           1          12           1           1          12           1           1
 AtmWgt=  12.0000000   1.0078250  12.0000000   1.0078250   1.0078250  12.0000000   1.0078250   1.0078250
 NucSpn=           0           1           0           1           1           0           1           1
 AtZEff=  -0.0000000  -0.0000000  -0.0000000  -0.0000000  -0.0000000  -0.0000000  -0.0000000  -0.0000000
 NQMom=    0.0000000   0.0000000   0.0000000   0.0000000   0.0000000   0.0000000   0.0000000   0.0000000
 NMagM=    0.0000000   2.7928460   0.0000000   2.7928460   2.7928460   0.0000000   2.7928460   2.7928460
 AtZNuc=   6.0000000   1.0000000   6.0000000   1.0000000   1.0000000   6.0000000   1.0000000   1.0000000
 Leave Link  101 at Tue Aug  4 10:41:49 2020, MaxMem=  6442450944 cpu:               2.4 elap:               0.1
 (Enter /scratch/scicomp/CentOS/7.3.1611/Haswell/software/Gaussian/g16/l202.exe)
                          Input orientation:                          
 ---------------------------------------------------------------------
 Center     Atomic      Atomic             Coordinates (Angstroms)
 Number     Number       Type             X           Y           Z
 ---------------------------------------------------------------------
      1          6           0       -3.119292   -0.437085    0.247292
      2          6           0       -0.569370   -0.202476   -0.959340
      3          1           0       -4.083426   -0.549760    0.729383
      4          1           0        0.380387   -0.117904   -1.468298
      5          6           0        1.091078    1.405545    0.692127
      6          6           0        0.569370    0.202476    0.959340
      7          1           0        0.517151    2.308513    0.856707
      8          1           0       -0.380387    0.117904    1.468298
      9          6           0        1.469648   -0.999582    0.993300
     10          1           0        1.920562   -0.988028    1.993185
     11          1           0        0.906483   -1.928611    0.921226
     12          6           0        2.419739    1.515988    0.111913
     13          1           0        2.828521    2.505149   -0.057522
     14          6           0        3.119292    0.437085   -0.247292
     15          1           0        4.083426    0.549760   -0.729383
     16          6           0        2.591527   -0.957486   -0.045320
     17          1           0        2.251568   -1.354671   -1.009800
     18          1           0        3.400483   -1.619871    0.270232
     19          6           0       -1.091078   -1.405545   -0.692127
     20          1           0       -0.517151   -2.308513   -0.856707
     21          6           0       -2.419738   -1.515988   -0.111913
     22          1           0       -2.828521   -2.505149    0.057522
     23          6           0       -1.469648    0.999582   -0.993300
     24          1           0       -0.906482    1.928611   -0.921226
     25          1           0       -1.920562    0.988028   -1.993185
     26          6           0       -2.591527    0.957486    0.045320
     27          1           0       -3.400483    1.619871   -0.270232
     28          1           0       -2.251568    1.354671    1.009800
 ---------------------------------------------------------------------
                    Distance matrix (angstroms):
                    1          2          3          4          5
     1  C    0.000000
     2  C    2.830743   0.000000
     3  H    1.083818   3.914202   0.000000
     4  H    3.910611   1.080846   4.994189   0.000000
     5  C    4.617400   2.840803   5.531735   2.737410   0.000000
     6  C    3.810811   2.267608   4.718819   2.455969   1.338266
     7  H    4.597109   3.283842   5.417679   3.363310   1.082511
     8  H    3.049667   2.455969   3.834615   3.042693   2.103728
     9  C    4.683087   2.933560   5.577510   2.832545   2.453295
    10  H    5.362071   3.941352   6.151191   3.887302   2.847804
    11  H    4.345768   2.948595   5.180466   3.043889   3.347112
    12  C    5.874835   3.610467   6.851258   3.053789   1.454024
    13  H    6.642750   4.437361   7.597809   3.855393   2.188564
    14  C    6.318917   3.810811   7.335319   3.049667   2.435996
    15  H    7.335319   4.718819   8.368657   3.834615   3.421579
    16  C    5.741942   3.375906   6.732117   2.760236   2.894666
    17  H    5.591814   3.047588   6.618519   2.289352   3.444138
    18  H    6.626234   4.390967   7.573959   3.794650   3.829424
    19  C    2.435996   1.338266   3.421579   2.103728   3.818402
    20  H    3.390014   2.109183   4.281029   2.445074   4.333534
    21  C    1.335079   2.422253   2.099817   3.411029   4.637636
    22  H    2.097010   3.382318   2.418621   4.280672   5.573106
    23  C    2.514837   1.502197   3.492840   2.212923   3.092376
    24  H    3.443614   2.157922   4.354286   2.478617   2.620449
    25  H    2.913355   2.076501   3.801993   2.606330   4.056501
    26  C    1.504712   2.538498   2.228339   3.504251   3.765726
    27  H    2.139619   3.436716   2.484540   4.330150   4.598499
    28  H    2.131843   3.021921   2.657291   3.903413   3.358093
                    6          7          8          9         10
     6  C    0.000000
     7  H    2.109183   0.000000
     8  H    1.080846   2.445074   0.000000
     9  C    1.502197   3.445200   2.212923   0.000000
    10  H    2.076501   3.758767   2.606330   1.096917   0.000000
    11  H    2.157923   4.255463   2.478618   1.088781   1.749900
    12  C    2.422253   2.191496   3.411030   2.829772   3.171507
    13  H    3.382318   2.493374   4.280672   3.903063   4.151153
    14  C    2.830743   3.390014   3.910611   2.514837   2.913355
    15  H    3.914202   4.281029   4.994189   3.492840   3.801993
    16  C    2.538498   3.972838   3.504251   1.529417   2.146306
    17  H    3.021921   4.462171   3.903413   2.179426   3.043339
    18  H    3.436716   4.908132   4.330150   2.153070   2.357532
    19  C    2.840803   4.333534   2.737410   3.092376   4.056501
    20  H    3.283842   5.032146   3.363310   3.013834   3.975929
    21  C    3.610466   4.918369   3.053788   4.076211   4.852668
    22  H    4.437361   5.916381   3.855393   4.649373   5.348106
    23  C    2.933560   3.013834   2.832545   4.072186   4.935910
    24  H    2.948595   2.309135   3.043889   4.229151   4.999275
    25  H    3.941352   3.975929   3.887302   4.935910   5.877940
    26  C    3.375906   3.485327   2.760236   4.606726   5.285655
    27  H    4.390967   4.134256   3.794650   5.672409   6.343320
    28  H    3.047588   2.932415   2.289352   4.403434   4.884870
                   11         12         13         14         15
    11  H    0.000000
    12  C    3.848401   0.000000
    13  H    4.930558   1.083628   0.000000
    14  C    3.443614   1.335078   2.097010   0.000000
    15  H    4.354285   2.099817   2.418621   1.083818   0.000000
    16  C    2.171789   2.484413   3.470757   1.504712   2.228339
    17  H    2.422297   3.086617   4.017203   2.131843   2.657291
    18  H    2.595987   3.289458   4.177362   2.139619   2.484540
    19  C    2.620450   4.637636   5.573106   4.617400   5.531735
    20  H    2.309135   4.918369   5.916381   4.597109   5.417679
    21  C    3.507332   5.715200   6.611862   5.874834   6.851257
    22  H    3.876678   6.611863   7.557675   6.642750   7.597809
    23  C    4.229152   4.076212   4.649373   4.683087   5.577510
    24  H    4.643235   3.507332   3.876677   4.345767   5.180465
    25  H    4.999276   4.852669   5.348106   5.362071   6.151191
    26  C    4.618749   5.042732   5.637620   5.741942   6.732117
    27  H    5.706247   5.833679   6.295193   6.626234   7.573959
    28  H    4.556432   4.759552   5.316962   5.591814   6.618519
                   16         17         18         19         20
    16  C    0.000000
    17  H    1.097064   0.000000
    18  H    1.092125   1.740350   0.000000
    19  C    3.765726   3.358093   4.598499   0.000000
    20  H    3.485327   2.932415   4.134256   1.082511   0.000000
    21  C    5.042731   4.759551   5.833678   1.454023   2.191495
    22  H    5.637620   5.316962   6.295193   2.188564   2.493374
    23  C    4.606726   4.403434   5.672409   2.453295   3.445200
    24  H    4.618748   4.556431   5.706246   3.347112   4.255463
    25  H    5.285655   4.884870   6.343320   2.847804   3.758767
    26  C    5.526245   5.469453   6.526679   2.894666   3.972838
    27  H    6.526679   6.429661   7.552560   3.829424   4.908132
    28  H    5.469453   5.630058   6.429661   3.444138   4.462171
                   21         22         23         24         25
    21  C    0.000000
    22  H    1.083629   0.000000
    23  C    2.829771   3.903063   0.000000
    24  H    3.848401   4.930559   1.088782   0.000000
    25  H    3.171507   4.151153   1.096917   1.749900   0.000000
    26  C    2.484413   3.470757   1.529417   2.171790   2.146306
    27  H    3.289459   4.177362   2.153070   2.595988   2.357532
    28  H    3.086617   4.017203   2.179426   2.422297   3.043339
                   26         27         28
    26  C    0.000000
    27  H    1.092125   0.000000
    28  H    1.097064   1.740350   0.000000
 Symmetry turned off by external request.
 Stoichiometry    C12H16
 Framework group  CI[X(C12H16)]
 Deg. of freedom    39
 Full point group                 CI      NOp   2
 Rotational constants (GHZ):           1.9208592           0.6303219           0.5509181
 Leave Link  202 at Tue Aug  4 10:41:49 2020, MaxMem=  6442450944 cpu:               0.3 elap:               0.0
 (Enter /scratch/scicomp/CentOS/7.3.1611/Haswell/software/Gaussian/g16/l301.exe)
 Standard basis: def2TZVP (6D, 10F)
 Ernie: Thresh=  0.10000D-02 Tol=  0.10000D-05 Strict=F.
   528 basis functions,   740 primitive gaussians,   528 cartesian basis functions
    44 alpha electrons       44 beta electrons
       nuclear repulsion energy       690.1149952169 Hartrees.
 IExCor= 4639 DFT=T Ex+Corr=wB97XD ExCW=0 ScaHFX=  1.000000
 ScaDFX=  1.000000  1.000000  1.000000  1.000000 ScalE2=  1.000000  1.000000
 IRadAn=      5 IRanWt=     -1 IRanGd=            0 ICorTp=0 IEmpDi=121
 HFx  wShort=  0.000000 wLong=  0.200000 cFull=  0.222036 cShort=  0.000000 cLong=  0.777964
 DFx  wShort=  0.000000 wLong=  0.200000 cFull=  0.000000 cShort=  0.000000 cLong=  1.000000
 NAtoms=   28 NActive=   28 NUniq=   28 SFac= 1.00D+00 NAtFMM=   60 NAOKFM=F Big=F
 Integral buffers will be    131072 words long.
 Raffenetti 2 integral format.
 Two-electron integral symmetry is turned off.
 R6Disp:  Grimme-D2 Dispersion energy=       -0.0229706393 Hartrees.
 Nuclear repulsion after empirical dispersion term =      690.0920245776 Hartrees.
 Using the following non-standard input for PCM:
 qrep pcmdoc geomview  nodis nocav g03defaults tsare=0.075
 Warning! Using old PCM defaults because the g03defaults keyword was found.
 These settings can be overridden by following keywords.
 nsfe=28
 NVESolv=36  SolvMW=84.1595   Rsolv=2.815
 eps=2.0165 RhoS=0.778099999999998
 --- end of non-standard input.
 Reading user-defined spheres from input:
 ISph  on   Nord    Re0     Alpha      Xe            Ye            Ze
 --- end of user-defined spheres data.
 ------------------------------------------------------------------------------
 Polarizable Continuum Model (PCM)
 =================================
 Model                : PCM.
 Atomic radii         : UA0 (Simple United Atom Topological Model).
 Polarization charges : Total charges.
 Charge compensation  : None.
 Solution method      : On-the-fly selection.
 Cavity type          : SES (Solvent Excluding Surface) (Alpha=1.000).
 Cavity algorithm     : GePol (RMin=0.200 OFac=0.890).
                        User-defined sphere list used, NSphG=   28.
                        Tesserae with average area of 0.075 Ang**2.
                        Smoothing algorithm: None.
                        Polarization charges: point-like.
                        Self-potential: constant (ISelfS= 1).
                        Self-field    : global E.n sum rule (ISelfD= 3).
 Solvent              : CycloHexane, Eps=   2.016500 Eps(inf)=   2.035188
                        RSolv=   2.815000 Ang.
 ------------------------------------------------------------------------------
 GePol: Number of generator spheres                  =      28
 GePol: Total number of spheres                      =     182
 GePol: Number of exposed spheres                    =     132 ( 72.53%)
 GePol: Number of tesserae                           =    4655
 GePol: Average area of tesserae                     =       0.05 Ang**2
 GePol: Minimum area of tessera                      =   0.10D-02 Ang**2
 GePol: Maximum area of tessera                      =    0.12698 Ang**2
 GePol: Number of small tesserae                     =       0
 GePol: Fraction of small tesserae (<1% of avg)      =       0.00%
 GePol: Total count of vertices                      =   16512
 GePol: Maximum number of vertices in a tessera      =       7
 GePol: Cavity surface area                          =    218.298 Ang**2
 GePol: Cavity volume                                =    246.239 Ang**3
 Leave Link  301 at Tue Aug  4 10:41:50 2020, MaxMem=  6442450944 cpu:               7.6 elap:               0.4
 (Enter /scratch/scicomp/CentOS/7.3.1611/Haswell/software/Gaussian/g16/l302.exe)
 NPDir=0 NMtPBC=     1 NCelOv=     1 NCel=       1 NClECP=     1 NCelD=      1
         NCelK=      1 NCelE2=     1 NClLst=     1 CellRange=     0.0.
 One-electron integrals computed using PRISM.
   1 Symmetry operations used in ECPInt.
 ECPInt:  NShTT=   19306 NPrTT=   56928 LenC2=   18518 LenP2D=   42248.
 LDataN:  DoStor=T MaxTD1= 6 Len=  172
 NBasis=   528 RedAO= T EigKep=  2.17D-05  NBF=   528
 NBsUse=   528 1.00D-06 EigRej= -1.00D+00 NBFU=   528
 Precomputing XC quadrature grid using
 IXCGrd= 4 IRadAn=           5 IRanWt=          -1 IRanGd=           0 AccXCQ= 0.00D+00.
 Generated NRdTot=       0 NPtTot=           0 NUsed=           0 NTot=          32
 NSgBfM=   526   526   526   526   526 MxSgAt=    28 MxSgA2=    28.
 Leave Link  302 at Tue Aug  4 10:41:50 2020, MaxMem=  6442450944 cpu:              12.7 elap:               0.6
 (Enter /scratch/scicomp/CentOS/7.3.1611/Haswell/software/Gaussian/g16/l303.exe)
 DipDrv:  MaxL=1.
 Leave Link  303 at Tue Aug  4 10:41:50 2020, MaxMem=  6442450944 cpu:               1.5 elap:               0.1
 (Enter /scratch/scicomp/CentOS/7.3.1611/Haswell/software/Gaussian/g16/l401.exe)
 ExpMin= 9.52D-02 ExpMax= 1.36D+04 ExpMxC= 4.63D+02 IAcc=3 IRadAn=         5 AccDes= 0.00D+00
 Harris functional with IExCor= 4639 and IRadAn=       5 diagonalized for initial guess.
 HarFok:  IExCor= 4639 AccDes= 0.00D+00 IRadAn=         5 IDoV= 1 UseB2=F ITyADJ=14
 ICtDFT=  3500011 ScaDFX=  1.000000  1.000000  1.000000  1.000000
 FoFCou: FMM=F IPFlag=           0 FMFlag=      100000 FMFlg1=           0
         NFxFlg=           0 DoJE=T BraDBF=F KetDBF=T FulRan=T
         wScrn=  0.000000 ICntrl=       500 IOpCl=  0 I1Cent=   200000004 NGrid=           0
         NMat0=    1 NMatS0=      1 NMatT0=    0 NMatD0=    1 NMtDS0=    0 NMtDT0=    0
 Symmetry not used in FoFCou.
 Harris En= -444.627486357804    
 JPrj=0 DoOrth=F DoCkMO=T.
 Mixing orbitals, IMix= 1 IMixAn=  0 NRI=1 NE=   44 Coef=  7.07106781D-01  7.07106781D-01
 Mixing orbitals, IMix= 1 IMixAn=  0 NRI=1 NE=   44 Coef= -7.07106781D-01  7.07106781D-01
 Initial guess <Sx>= 0.0000 <Sy>= 0.0000 <Sz>= 0.0000 <S**2>= 1.0000 S= 0.6180
 Leave Link  401 at Tue Aug  4 10:41:53 2020, MaxMem=  6442450944 cpu:              49.8 elap:               2.1
 (Enter /scratch/scicomp/CentOS/7.3.1611/Haswell/software/Gaussian/g16/l502.exe)
 Two-electron integral symmetry not used.
 UHF open shell SCF:
 Using DIIS extrapolation, IDIIS=  1040.
 NGot=  6442450944 LenX=  6441877030 LenY=  6441597718
 Requested convergence on RMS density matrix=1.00D-08 within 128 cycles.
 Requested convergence on MAX density matrix=1.00D-06.
 Requested convergence on             energy=1.00D-06.
 No special actions if energy rises.
 Fock matrices will be formed incrementally for  20 cycles.

 Cycle   1  Pass 1  IDiag  1:
 FoFJK:  IHMeth= 1 ICntrl=       0 DoSepK=T KAlg= 0 I1Cent=           0 FoldK=F
 IRaf=         1 NMat=       1 IRICut=       1 DoRegI=T DoRafI=F ISym2E= 0 IDoP0=0 IntGTp=1.
 FoFCou: FMM=F IPFlag=           0 FMFlag=      100000 FMFlg1=           0
         NFxFlg=           0 DoJE=T BraDBF=F KetDBF=F FulRan=T
         wScrn=  0.000000 ICntrl=       500 IOpCl=  0 I1Cent=           0 NGrid=           0
         NMat0=    1 NMatS0=      1 NMatT0=    0 NMatD0=    1 NMtDS0=    0 NMtDT0=    0
 Symmetry not used in FoFCou.
 Inv3:  Mode=1 IEnd=    65007075.
 Iteration    1 A*A^-1 deviation from unit magnitude is 3.89D-15 for   1129.
 Iteration    1 A*A^-1 deviation from orthogonality  is 2.69D-15 for    468    296.
 Iteration    1 A^-1*A deviation from unit magnitude is 3.66D-15 for    780.
 Iteration    1 A^-1*A deviation from orthogonality  is 2.11D-15 for    735    720.
 E= -466.594555461120    
 DIIS: error= 4.95D-02 at cycle   1 NSaved=   1.
 NSaved= 1 IEnMin= 1 EnMin= -466.594555461120     IErMin= 1 ErrMin= 4.95D-02
 ErrMax= 4.95D-02  0.00D+00 EMaxC= 1.00D-01 BMatC= 4.10D+00 BMatP= 4.10D+00
 IDIUse=3 WtCom= 5.05D-01 WtEn= 4.95D-01
 Coeff-Com:  0.100D+01
 Coeff-En:   0.100D+01
 Coeff:      0.100D+01
 Gap=     0.195 Goal=   None    Shift=    0.000
 Gap=     0.195 Goal=   None    Shift=    0.000
 GapD=    0.195 DampG=1.000 DampE=0.500 DampFc=0.5000 IDamp=-1.
 Damping current iteration by 5.00D-01
 RMSDP=1.63D-03 MaxDP=9.19D-02              OVMax= 2.61D-01

 Cycle   2  Pass 1  IDiag  1:
 RMSU=  7.94D-04    CP:  9.71D-01
 E= -466.687554118533     Delta-E=       -0.092998657413 Rises=F Damp=T
 DIIS: error= 2.35D-02 at cycle   2 NSaved=   2.
 NSaved= 2 IEnMin= 2 EnMin= -466.687554118533     IErMin= 2 ErrMin= 2.35D-02
 ErrMax= 2.35D-02  0.00D+00 EMaxC= 1.00D-01 BMatC= 9.29D-01 BMatP= 4.10D+00
 IDIUse=3 WtCom= 7.65D-01 WtEn= 2.35D-01
 Coeff-Com: -0.867D+00 0.187D+01
 Coeff-En:   0.000D+00 0.100D+01
 Coeff:     -0.663D+00 0.166D+01
 Gap=     0.249 Goal=   None    Shift=    0.000
 Gap=     0.249 Goal=   None    Shift=    0.000
 RMSDP=1.14D-03 MaxDP=4.90D-02 DE=-9.30D-02 OVMax= 1.21D-01

 Cycle   3  Pass 1  IDiag  1:
 RMSU=  6.21D-04    CP:  9.31D-01  2.16D+00
 E= -466.800555013774     Delta-E=       -0.113000895240 Rises=F Damp=F
 DIIS: error= 6.79D-03 at cycle   3 NSaved=   3.
 NSaved= 3 IEnMin= 3 EnMin= -466.800555013774     IErMin= 3 ErrMin= 6.79D-03
 ErrMax= 6.79D-03  0.00D+00 EMaxC= 1.00D-01 BMatC= 2.38D-02 BMatP= 9.29D-01
 IDIUse=3 WtCom= 9.32D-01 WtEn= 6.79D-02
 Coeff-Com: -0.327D+00 0.702D+00 0.625D+00
 Coeff-En:   0.000D+00 0.000D+00 0.100D+01
 Coeff:     -0.305D+00 0.655D+00 0.650D+00
 Gap=     0.262 Goal=   None    Shift=    0.000
 Gap=     0.262 Goal=   None    Shift=    0.000
 RMSDP=2.29D-04 MaxDP=1.58D-02 DE=-1.13D-01 OVMax= 6.19D-02

 Cycle   4  Pass 1  IDiag  1:
 RMSU=  2.11D-04    CP:  9.23D-01  2.25D+00  9.72D-01
 E= -466.810795728420     Delta-E=       -0.010240714646 Rises=F Damp=F
 DIIS: error= 4.89D-03 at cycle   4 NSaved=   4.
 NSaved= 4 IEnMin= 4 EnMin= -466.810795728420     IErMin= 4 ErrMin= 4.89D-03
 ErrMax= 4.89D-03  0.00D+00 EMaxC= 1.00D-01 BMatC= 2.00D-03 BMatP= 2.38D-02
 IDIUse=3 WtCom= 9.51D-01 WtEn= 4.89D-02
 Coeff-Com:  0.963D-01-0.207D+00-0.280D-01 0.114D+01
 Coeff-En:   0.000D+00 0.000D+00 0.000D+00 0.100D+01
 Coeff:      0.916D-01-0.196D+00-0.266D-01 0.113D+01
 Gap=     0.270 Goal=   None    Shift=    0.000
 Gap=     0.270 Goal=   None    Shift=    0.000
 RMSDP=2.24D-04 MaxDP=1.00D-02 DE=-1.02D-02 OVMax= 7.74D-02

 Cycle   5  Pass 1  IDiag  1:
 RMSU=  9.02D-05    CP:  9.16D-01  2.29D+00  1.20D+00  1.64D+00
 E= -466.815506907191     Delta-E=       -0.004711178770 Rises=F Damp=F
 DIIS: error= 2.92D-03 at cycle   5 NSaved=   5.
 NSaved= 5 IEnMin= 5 EnMin= -466.815506907191     IErMin= 5 ErrMin= 2.92D-03
 ErrMax= 2.92D-03  0.00D+00 EMaxC= 1.00D-01 BMatC= 1.04D-03 BMatP= 2.00D-03
 IDIUse=3 WtCom= 9.71D-01 WtEn= 2.92D-02
 Coeff-Com:  0.903D-01-0.194D+00-0.117D+00 0.465D+00 0.755D+00
 Coeff-En:   0.000D+00 0.000D+00 0.000D+00 0.000D+00 0.100D+01
 Coeff:      0.876D-01-0.188D+00-0.113D+00 0.452D+00 0.762D+00
 Gap=     0.274 Goal=   None    Shift=    0.000
 Gap=     0.274 Goal=   None    Shift=    0.000
 RMSDP=1.15D-04 MaxDP=6.40D-03 DE=-4.71D-03 OVMax= 4.16D-02

 Cycle   6  Pass 1  IDiag  1:
 RMSU=  3.82D-05    CP:  9.13D-01  2.30D+00  1.27D+00  2.05D+00  1.49D+00
 E= -466.817376460168     Delta-E=       -0.001869552977 Rises=F Damp=F
 DIIS: error= 2.04D-03 at cycle   6 NSaved=   6.
 NSaved= 6 IEnMin= 6 EnMin= -466.817376460168     IErMin= 6 ErrMin= 2.04D-03
 ErrMax= 2.04D-03  0.00D+00 EMaxC= 1.00D-01 BMatC= 5.10D-04 BMatP= 1.04D-03
 IDIUse=3 WtCom= 9.80D-01 WtEn= 2.04D-02
 Coeff-Com: -0.560D-01 0.120D+00 0.469D-01-0.431D+00 0.386D-01 0.128D+01
 Coeff-En:   0.000D+00 0.000D+00 0.000D+00 0.000D+00 0.000D+00 0.100D+01
 Coeff:     -0.549D-01 0.118D+00 0.459D-01-0.422D+00 0.378D-01 0.128D+01
 Gap=     0.271 Goal=   None    Shift=    0.000
 Gap=     0.271 Goal=   None    Shift=    0.000
 RMSDP=1.18D-04 MaxDP=5.63D-03 DE=-1.87D-03 OVMax= 4.49D-02

 Cycle   7  Pass 1  IDiag  1:
 RMSU=  2.96D-05    CP:  9.10D-01  2.30D+00  1.33D+00  2.41D+00  2.23D+00
                    CP:  1.90D+00
 E= -466.819019570643     Delta-E=       -0.001643110475 Rises=F Damp=F
 DIIS: error= 1.41D-03 at cycle   7 NSaved=   7.
 NSaved= 7 IEnMin= 7 EnMin= -466.819019570643     IErMin= 7 ErrMin= 1.41D-03
 ErrMax= 1.41D-03  0.00D+00 EMaxC= 1.00D-01 BMatC= 3.05D-04 BMatP= 5.10D-04
 IDIUse=3 WtCom= 9.86D-01 WtEn= 1.41D-02
 Coeff-Com: -0.150D-01 0.328D-01 0.423D-01 0.128D+00-0.407D+00-0.957D+00
 Coeff-Com:  0.218D+01
 Coeff-En:   0.000D+00 0.000D+00 0.000D+00 0.000D+00 0.000D+00 0.000D+00
 Coeff-En:   0.100D+01
 Coeff:     -0.148D-01 0.323D-01 0.417D-01 0.127D+00-0.402D+00-0.943D+00
 Coeff:      0.216D+01
 Gap=     0.269 Goal=   None    Shift=    0.000
 Gap=     0.269 Goal=   None    Shift=    0.000
 RMSDP=1.43D-04 MaxDP=5.74D-03 DE=-1.64D-03 OVMax= 5.66D-02

 Cycle   8  Pass 1  IDiag  1:
 RMSU=  3.05D-05    CP:  9.07D-01  2.30D+00  1.38D+00  2.79D+00  3.00D+00
                    CP:  3.00D+00  2.84D+00
 E= -466.820656247610     Delta-E=       -0.001636676967 Rises=F Damp=F
 DIIS: error= 9.20D-04 at cycle   8 NSaved=   8.
 NSaved= 8 IEnMin= 8 EnMin= -466.820656247610     IErMin= 8 ErrMin= 9.20D-04
 ErrMax= 9.20D-04  0.00D+00 EMaxC= 1.00D-01 BMatC= 1.56D-04 BMatP= 3.05D-04
 IDIUse=3 WtCom= 9.91D-01 WtEn= 9.20D-03
 Coeff-Com:  0.471D-01-0.101D+00-0.273D-01 0.471D+00-0.983D-01-0.143D+01
 Coeff-Com:  0.528D+00 0.161D+01
 Coeff-En:   0.000D+00 0.000D+00 0.000D+00 0.000D+00 0.000D+00 0.000D+00
 Coeff-En:   0.000D+00 0.100D+01
 Coeff:      0.466D-01-0.100D+00-0.271D-01 0.467D+00-0.974D-01-0.141D+01
 Coeff:      0.523D+00 0.160D+01
 Gap=     0.269 Goal=   None    Shift=    0.000
 Gap=     0.269 Goal=   None    Shift=    0.000
 RMSDP=1.54D-04 MaxDP=6.72D-03 DE=-1.64D-03 OVMax= 6.22D-02

 Cycle   9  Pass 1  IDiag  1:
 RMSU=  1.00D-04    CP:  9.04D-01  2.29D+00  1.43D+00  3.00D+00  3.00D+00
                    CP:  3.00D+00  3.00D+00  3.00D+00
 E= -466.821772077233     Delta-E=       -0.001115829623 Rises=F Damp=F
 DIIS: error= 5.17D-04 at cycle   9 NSaved=   9.
 NSaved= 9 IEnMin= 9 EnMin= -466.821772077233     IErMin= 9 ErrMin= 5.17D-04
 ErrMax= 5.17D-04  0.00D+00 EMaxC= 1.00D-01 BMatC= 5.82D-05 BMatP= 1.56D-04
 IDIUse=3 WtCom= 9.95D-01 WtEn= 5.17D-03
 Coeff-Com:  0.354D-01-0.762D-01-0.334D-01 0.240D+00 0.917D-01-0.456D+00
 Coeff-Com: -0.495D+00 0.785D+00 0.909D+00
 Coeff-En:   0.000D+00 0.000D+00 0.000D+00 0.000D+00 0.000D+00 0.000D+00
 Coeff-En:   0.000D+00 0.000D+00 0.100D+01
 Coeff:      0.352D-01-0.758D-01-0.332D-01 0.239D+00 0.912D-01-0.454D+00
 Coeff:     -0.493D+00 0.781D+00 0.909D+00
 Gap=     0.271 Goal=   None    Shift=    0.000
 Gap=     0.271 Goal=   None    Shift=    0.000
 RMSDP=7.94D-05 MaxDP=3.46D-03 DE=-1.12D-03 OVMax= 3.24D-02

 Cycle  10  Pass 1  IDiag  1:
 RMSU=  3.99D-05    CP:  9.02D-01  2.29D+00  1.46D+00  3.00D+00  3.00D+00
                    CP:  3.00D+00  3.00D+00  3.00D+00  1.65D+00
 E= -466.822077707154     Delta-E=       -0.000305629921 Rises=F Damp=F
 DIIS: error= 3.02D-04 at cycle  10 NSaved=  10.
 NSaved=10 IEnMin=10 EnMin= -466.822077707154     IErMin=10 ErrMin= 3.02D-04
 ErrMax= 3.02D-04  0.00D+00 EMaxC= 1.00D-01 BMatC= 1.40D-05 BMatP= 5.82D-05
 IDIUse=3 WtCom= 9.97D-01 WtEn= 3.02D-03
 Coeff-Com: -0.162D-02 0.362D-02-0.302D-02-0.553D-01 0.276D-01 0.260D+00
 Coeff-Com: -0.194D+00-0.376D+00 0.337D-01 0.131D+01
 Coeff-En:   0.000D+00 0.000D+00 0.000D+00 0.000D+00 0.000D+00 0.000D+00
 Coeff-En:   0.000D+00 0.000D+00 0.000D+00 0.100D+01
 Coeff:     -0.162D-02 0.361D-02-0.302D-02-0.551D-01 0.275D-01 0.259D+00
 Coeff:     -0.194D+00-0.374D+00 0.336D-01 0.130D+01
 Gap=     0.269 Goal=   None    Shift=    0.000
 Gap=     0.269 Goal=   None    Shift=    0.000
 RMSDP=6.25D-05 MaxDP=2.59D-03 DE=-3.06D-04 OVMax= 2.55D-02

 Cycle  11  Pass 1  IDiag  1:
 RMSU=  1.04D-05    CP:  9.00D-01  2.28D+00  1.48D+00  3.00D+00  3.00D+00
                    CP:  3.00D+00  3.00D+00  3.00D+00  2.15D+00  1.81D+00
 E= -466.822186216313     Delta-E=       -0.000108509159 Rises=F Damp=F
 DIIS: error= 1.01D-04 at cycle  11 NSaved=  11.
 NSaved=11 IEnMin=11 EnMin= -466.822186216313     IErMin=11 ErrMin= 1.01D-04
 ErrMax= 1.01D-04  0.00D+00 EMaxC= 1.00D-01 BMatC= 3.31D-06 BMatP= 1.40D-05
 IDIUse=3 WtCom= 9.99D-01 WtEn= 1.01D-03
 Coeff-Com: -0.408D-02 0.882D-02 0.303D-02-0.389D-01-0.122D-01 0.109D+00
 Coeff-Com:  0.562D-01-0.238D+00-0.195D+00 0.395D+00 0.917D+00
 Coeff-En:   0.000D+00 0.000D+00 0.000D+00 0.000D+00 0.000D+00 0.000D+00
 Coeff-En:   0.000D+00 0.000D+00 0.000D+00 0.000D+00 0.100D+01
 Coeff:     -0.407D-02 0.881D-02 0.303D-02-0.389D-01-0.122D-01 0.109D+00
 Coeff:      0.561D-01-0.238D+00-0.195D+00 0.394D+00 0.917D+00
 Gap=     0.269 Goal=   None    Shift=    0.000
 Gap=     0.269 Goal=   None    Shift=    0.000
 RMSDP=2.31D-05 MaxDP=9.51D-04 DE=-1.09D-04 OVMax= 9.09D-03

 Cycle  12  Pass 1  IDiag  1:
 RMSU=  3.50D-06    CP:  9.00D-01  2.28D+00  1.48D+00  3.00D+00  3.00D+00
                    CP:  3.00D+00  3.00D+00  3.00D+00  2.32D+00  2.11D+00
                    CP:  1.61D+00
 E= -466.822198929762     Delta-E=       -0.000012713449 Rises=F Damp=F
 DIIS: error= 2.93D-05 at cycle  12 NSaved=  12.
 NSaved=12 IEnMin=12 EnMin= -466.822198929762     IErMin=12 ErrMin= 2.93D-05
 ErrMax= 2.93D-05  0.00D+00 EMaxC= 1.00D-01 BMatC= 5.03D-07 BMatP= 3.31D-06
 IDIUse=1 WtCom= 1.00D+00 WtEn= 0.00D+00
 Coeff-Com:  0.307D-02-0.665D-02-0.180D-02 0.300D-01-0.118D-02-0.936D-01
 Coeff-Com:  0.356D-01 0.110D+00 0.812D-02-0.309D+00 0.127D+00 0.110D+01
 Coeff:      0.307D-02-0.665D-02-0.180D-02 0.300D-01-0.118D-02-0.936D-01
 Coeff:      0.356D-01 0.110D+00 0.812D-02-0.309D+00 0.127D+00 0.110D+01
 Gap=     0.268 Goal=   None    Shift=    0.000
 Gap=     0.268 Goal=   None    Shift=    0.000
 RMSDP=6.67D-06 MaxDP=3.10D-04 DE=-1.27D-05 OVMax= 2.29D-03

 Cycle  13  Pass 1  IDiag  1:
 RMSU=  1.47D-06    CP:  9.00D-01  2.28D+00  1.48D+00  3.00D+00  3.00D+00
                    CP:  3.00D+00  3.00D+00  3.00D+00  2.37D+00  2.19D+00
                    CP:  1.90D+00  1.54D+00
 E= -466.822200007109     Delta-E=       -0.000001077347 Rises=F Damp=F
 DIIS: error= 7.83D-06 at cycle  13 NSaved=  13.
 NSaved=13 IEnMin=13 EnMin= -466.822200007109     IErMin=13 ErrMin= 7.83D-06
 ErrMax= 7.83D-06  0.00D+00 EMaxC= 1.00D-01 BMatC= 2.78D-08 BMatP= 5.03D-07
 IDIUse=1 WtCom= 1.00D+00 WtEn= 0.00D+00
 Coeff-Com:  0.443D-03-0.952D-03-0.281D-03 0.405D-02 0.326D-03-0.131D-01
 Coeff-Com:  0.336D-02 0.181D-01 0.550D-02-0.610D-01-0.294D-01 0.163D+00
 Coeff-Com:  0.910D+00
 Coeff:      0.443D-03-0.952D-03-0.281D-03 0.405D-02 0.326D-03-0.131D-01
 Coeff:      0.336D-02 0.181D-01 0.550D-02-0.610D-01-0.294D-01 0.163D+00
 Coeff:      0.910D+00
 Gap=     0.268 Goal=   None    Shift=    0.000
 Gap=     0.268 Goal=   None    Shift=    0.000
 RMSDP=1.86D-06 MaxDP=7.91D-05 DE=-1.08D-06 OVMax= 7.54D-04

 Cycle  14  Pass 1  IDiag  1:
 RMSU=  5.05D-07    CP:  9.00D-01  2.28D+00  1.49D+00  3.00D+00  3.00D+00
                    CP:  3.00D+00  3.00D+00  3.00D+00  2.38D+00  2.21D+00
                    CP:  1.93D+00  1.57D+00  1.09D+00
 E= -466.822200086145     Delta-E=       -0.000000079036 Rises=F Damp=F
 DIIS: error= 2.12D-06 at cycle  14 NSaved=  14.
 NSaved=14 IEnMin=14 EnMin= -466.822200086145     IErMin=14 ErrMin= 2.12D-06
 ErrMax= 2.12D-06  0.00D+00 EMaxC= 1.00D-01 BMatC= 3.30D-09 BMatP= 2.78D-08
 IDIUse=1 WtCom= 1.00D+00 WtEn= 0.00D+00
 Coeff-Com: -0.136D-03 0.294D-03 0.104D-03-0.121D-02-0.287D-03 0.341D-02
 Coeff-Com:  0.220D-03-0.499D-02-0.185D-02 0.112D-01-0.835D-02-0.538D-01
 Coeff-Com:  0.580D-01 0.997D+00
 Coeff:     -0.136D-03 0.294D-03 0.104D-03-0.121D-02-0.287D-03 0.341D-02
 Coeff:      0.220D-03-0.499D-02-0.185D-02 0.112D-01-0.835D-02-0.538D-01
 Coeff:      0.580D-01 0.997D+00
 Gap=     0.268 Goal=   None    Shift=    0.000
 Gap=     0.268 Goal=   None    Shift=    0.000
 RMSDP=3.75D-07 MaxDP=1.72D-05 DE=-7.90D-08 OVMax= 1.38D-04

 Cycle  15  Pass 1  IDiag  1:
 RMSU=  1.10D-07    CP:  9.00D-01  2.28D+00  1.49D+00  3.00D+00  3.00D+00
                    CP:  3.00D+00  3.00D+00  3.00D+00  2.38D+00  2.22D+00
                    CP:  1.93D+00  1.57D+00  1.12D+00  1.36D+00
 E= -466.822200090111     Delta-E=       -0.000000003966 Rises=F Damp=F
 DIIS: error= 8.42D-07 at cycle  15 NSaved=  15.
 NSaved=15 IEnMin=15 EnMin= -466.822200090111     IErMin=15 ErrMin= 8.42D-07
 ErrMax= 8.42D-07  0.00D+00 EMaxC= 1.00D-01 BMatC= 7.13D-10 BMatP= 3.30D-09
 IDIUse=1 WtCom= 1.00D+00 WtEn= 0.00D+00
 Coeff-Com: -0.859D-05 0.178D-04-0.933D-05-0.196D-03-0.681D-04 0.755D-03
 Coeff-Com: -0.139D-03-0.161D-02-0.276D-03 0.850D-02 0.239D-02-0.309D-01
 Coeff-Com: -0.127D+00 0.253D+00 0.896D+00
 Coeff:     -0.859D-05 0.178D-04-0.933D-05-0.196D-03-0.681D-04 0.755D-03
 Coeff:     -0.139D-03-0.161D-02-0.276D-03 0.850D-02 0.239D-02-0.309D-01
 Coeff:     -0.127D+00 0.253D+00 0.896D+00
 Gap=     0.268 Goal=   None    Shift=    0.000
 Gap=     0.268 Goal=   None    Shift=    0.000
 RMSDP=7.61D-08 MaxDP=4.32D-06 DE=-3.97D-09 OVMax= 1.49D-05

 Cycle  16  Pass 1  IDiag  1:
 RMSU=  3.87D-08    CP:  9.00D-01  2.28D+00  1.49D+00  3.00D+00  3.00D+00
                    CP:  3.00D+00  3.00D+00  3.00D+00  2.38D+00  2.22D+00
                    CP:  1.93D+00  1.57D+00  1.14D+00  1.45D+00  1.18D+00
 E= -466.822200090591     Delta-E=       -0.000000000480 Rises=F Damp=F
 DIIS: error= 4.20D-07 at cycle  16 NSaved=  16.
 NSaved=16 IEnMin=16 EnMin= -466.822200090591     IErMin=16 ErrMin= 4.20D-07
 ErrMax= 4.20D-07  0.00D+00 EMaxC= 1.00D-01 BMatC= 9.26D-11 BMatP= 7.13D-10
 IDIUse=1 WtCom= 1.00D+00 WtEn= 0.00D+00
 Coeff-Com:  0.227D-04-0.490D-04-0.196D-04 0.197D-03 0.905D-05-0.537D-03
 Coeff-Com:  0.121D-03 0.560D-03 0.242D-03-0.409D-03 0.657D-03-0.585D-04
 Coeff-Com: -0.271D-01-0.454D-01 0.178D+00 0.893D+00
 Coeff:      0.227D-04-0.490D-04-0.196D-04 0.197D-03 0.905D-05-0.537D-03
 Coeff:      0.121D-03 0.560D-03 0.242D-03-0.409D-03 0.657D-03-0.585D-04
 Coeff:     -0.271D-01-0.454D-01 0.178D+00 0.893D+00
 Gap=     0.268 Goal=   None    Shift=    0.000
 Gap=     0.268 Goal=   None    Shift=    0.000
 RMSDP=2.76D-08 MaxDP=1.39D-06 DE=-4.80D-10 OVMax= 4.81D-06

 Cycle  17  Pass 1  IDiag  1:
 RMSU=  1.61D-08    CP:  9.00D-01  2.28D+00  1.49D+00  3.00D+00  3.00D+00
                    CP:  3.00D+00  3.00D+00  3.00D+00  2.38D+00  2.22D+00
                    CP:  1.93D+00  1.58D+00  1.15D+00  1.46D+00  1.24D+00
                    CP:  1.30D+00
 E= -466.822200090681     Delta-E=       -0.000000000090 Rises=F Damp=F
 DIIS: error= 2.65D-07 at cycle  17 NSaved=  17.
 NSaved=17 IEnMin=17 EnMin= -466.822200090681     IErMin=17 ErrMin= 2.65D-07
 ErrMax= 2.65D-07  0.00D+00 EMaxC= 1.00D-01 BMatC= 2.41D-11 BMatP= 9.26D-11
 IDIUse=1 WtCom= 1.00D+00 WtEn= 0.00D+00
 Coeff-Com:  0.404D-05-0.850D-05-0.185D-05 0.363D-04 0.219D-04-0.126D-03
 Coeff-Com: -0.488D-05 0.265D-03 0.459D-04-0.157D-02-0.276D-03 0.627D-02
 Coeff-Com:  0.240D-01-0.505D-01-0.175D+00-0.181D-01 0.121D+01
 Coeff:      0.404D-05-0.850D-05-0.185D-05 0.363D-04 0.219D-04-0.126D-03
 Coeff:     -0.488D-05 0.265D-03 0.459D-04-0.157D-02-0.276D-03 0.627D-02
 Coeff:      0.240D-01-0.505D-01-0.175D+00-0.181D-01 0.121D+01
 Gap=     0.268 Goal=   None    Shift=    0.000
 Gap=     0.268 Goal=   None    Shift=    0.000
 RMSDP=2.19D-08 MaxDP=1.08D-06 DE=-8.97D-11 OVMax= 5.80D-06

 Cycle  18  Pass 1  IDiag  1:
 RMSU=  8.78D-09    CP:  9.00D-01  2.28D+00  1.49D+00  3.00D+00  3.00D+00
                    CP:  3.00D+00  3.00D+00  3.00D+00  2.38D+00  2.22D+00
                    CP:  1.93D+00  1.58D+00  1.15D+00  1.46D+00  1.29D+00
                    CP:  1.56D+00  1.49D+00
 E= -466.822200090723     Delta-E=       -0.000000000041 Rises=F Damp=F
 DIIS: error= 1.61D-07 at cycle  18 NSaved=  18.
 NSaved=18 IEnMin=18 EnMin= -466.822200090723     IErMin=18 ErrMin= 1.61D-07
 ErrMax= 1.61D-07  0.00D+00 EMaxC= 1.00D-01 BMatC= 8.04D-12 BMatP= 2.41D-11
 IDIUse=1 WtCom= 1.00D+00 WtEn= 0.00D+00
 Coeff-Com: -0.412D-05 0.888D-05 0.292D-05-0.466D-04-0.303D-06 0.139D-03
 Coeff-Com: -0.578D-04-0.132D-03-0.609D-04 0.137D-03-0.103D-03 0.192D-03
 Coeff-Com:  0.692D-02 0.104D-01-0.465D-01-0.231D+00 0.576D-01 0.120D+01
 Coeff:     -0.412D-05 0.888D-05 0.292D-05-0.466D-04-0.303D-06 0.139D-03
 Coeff:     -0.578D-04-0.132D-03-0.609D-04 0.137D-03-0.103D-03 0.192D-03
 Coeff:      0.692D-02 0.104D-01-0.465D-01-0.231D+00 0.576D-01 0.120D+01
 Gap=     0.268 Goal=   None    Shift=    0.000
 Gap=     0.268 Goal=   None    Shift=    0.000
 RMSDP=1.21D-08 MaxDP=6.02D-07 DE=-4.14D-11 OVMax= 3.24D-06

 Cycle  19  Pass 1  IDiag  1:
 RMSU=  4.14D-09    CP:  9.00D-01  2.28D+00  1.49D+00  3.00D+00  3.00D+00
                    CP:  3.00D+00  3.00D+00  3.00D+00  2.38D+00  2.22D+00
                    CP:  1.93D+00  1.58D+00  1.15D+00  1.46D+00  1.30D+00
                    CP:  1.68D+00  1.83D+00  1.70D+00
 E= -466.822200090741     Delta-E=       -0.000000000019 Rises=F Damp=F
 DIIS: error= 9.93D-08 at cycle  19 NSaved=  19.
 NSaved=19 IEnMin=19 EnMin= -466.822200090741     IErMin=19 ErrMin= 9.93D-08
 ErrMax= 9.93D-08  0.00D+00 EMaxC= 1.00D-01 BMatC= 3.45D-12 BMatP= 8.04D-12
 IDIUse=1 WtCom= 1.00D+00 WtEn= 0.00D+00
 Coeff-Com: -0.282D-05 0.601D-05 0.164D-05-0.277D-04-0.997D-05 0.891D-04
 Coeff-Com: -0.647D-05-0.128D-03-0.488D-04 0.554D-03 0.886D-05-0.214D-02
 Coeff-Com: -0.543D-02 0.230D-01 0.444D-01-0.927D-01-0.428D+00 0.529D+00
 Coeff-Com:  0.932D+00
 Coeff:     -0.282D-05 0.601D-05 0.164D-05-0.277D-04-0.997D-05 0.891D-04
 Coeff:     -0.647D-05-0.128D-03-0.488D-04 0.554D-03 0.886D-05-0.214D-02
 Coeff:     -0.543D-02 0.230D-01 0.444D-01-0.927D-01-0.428D+00 0.529D+00
 Coeff:      0.932D+00
 Gap=     0.268 Goal=   None    Shift=    0.000
 Gap=     0.268 Goal=   None    Shift=    0.000
 RMSDP=6.96D-09 MaxDP=3.32D-07 DE=-1.85D-11 OVMax= 1.80D-06

 Error on total polarization charges =  0.01116
 SCF Done:  E(UwB97XD) =  -466.822200091     A.U. after   19 cycles
            NFock= 19  Conv=0.70D-08     -V/T= 2.0054
 <Sx>= 0.0000 <Sy>= 0.0000 <Sz>= 0.0000 <S**2>= 0.0000 S= 0.0000
 <L.S>=  0.00000000000    
 KE= 4.643252615192D+02 PE=-2.462163810106D+03 EE= 8.409243239186D+02
 --------------------------------------------------------------------
 Variational PCM results
 =======================
 <psi(f)|   H    |psi(f)>                     (a.u.) =    -466.830313
 <psi(f)|H+V(f)/2|psi(f)>                     (a.u.) =    -466.831803
 Total free energy in solution:
 - with all non electrostatic terms           (a.u.) =    -466.822200
 --------------------------------------------------------------------
 (Polarized solute)-Solvent               (kcal/mol) =      -0.94
 --------------------------------------------------------------------
 Quantum repulsion energy                 (kcal/mol) =       6.03
 Total non electrostatic                  (kcal/mol) =       6.03
 --------------------------------------------------------------------
 Partition over spheres:
 Sphere  on Atom  Surface  Charge   GEl     GCav    GDR
    1               7.24   0.011   -0.05    0.00    0.00
    2               2.86   0.004   -0.02    0.00    0.00
    3               7.52  -0.010   -0.03    0.00    0.00
    4               2.64  -0.003   -0.01    0.00    0.00
    5               4.75   0.009   -0.06    0.00    0.00
    6               2.65   0.004   -0.02    0.00    0.00
    7               4.73  -0.007   -0.03    0.00    0.00
    8               2.25  -0.003   -0.01    0.00    0.00
    9               3.30   0.002    0.00    0.00    0.00
   10               6.22  -0.006   -0.01    0.00    0.00
   11               3.97  -0.003   -0.01    0.00    0.00
   12               6.81   0.011   -0.07    0.00    0.00
   13               7.50  -0.010   -0.03    0.00    0.00
   14               6.73   0.011   -0.05    0.00    0.00
   15               7.52  -0.010   -0.03    0.00    0.00
   16               3.47   0.001    0.00    0.00    0.00
   17               3.90  -0.004   -0.02    0.00    0.00
   18               7.42  -0.008   -0.03    0.00    0.00
   19               4.92   0.009   -0.06    0.00    0.00
   20               5.02  -0.007   -0.03    0.00    0.00
   21               7.18   0.011   -0.07    0.00    0.00
   22               7.52  -0.010   -0.03    0.00    0.00
   23               3.05   0.002    0.00    0.00    0.00
   24               3.47  -0.003   -0.01    0.00    0.00
   25               6.22  -0.006   -0.01    0.00    0.00
   26               3.29   0.001    0.00    0.00    0.00
   27               7.35  -0.008   -0.03    0.00    0.00
   28               4.10  -0.004   -0.02    0.00    0.00
 Added spheres:    74.71   0.015   -0.21    0.00    0.00
 --------------------------------------------------------------------
 After PCM corrections, the energy is  -466.822200091     a.u.
 --------------------------------------------------------------------
 Annihilation of the first spin contaminant:
 S**2 before annihilation     0.0000,   after     0.0000
 Leave Link  502 at Tue Aug  4 10:47:50 2020, MaxMem=  6442450944 cpu:            8518.3 elap:             357.8
 (Enter /scratch/scicomp/CentOS/7.3.1611/Haswell/software/Gaussian/g16/l601.exe)
 Copying SCF densities to generalized density rwf, IOpCl= 1 IROHF=0.

 **********************************************************************

            Population analysis using the SCF Density.

 **********************************************************************

 Alpha  occ. eigenvalues --  -10.28420 -10.28419 -10.28384 -10.28384 -10.28033
 Alpha  occ. eigenvalues --  -10.28033 -10.28008 -10.28008 -10.27789 -10.27788
 Alpha  occ. eigenvalues --  -10.26975 -10.26973  -0.94755  -0.93325  -0.84871
 Alpha  occ. eigenvalues --   -0.84267  -0.83502  -0.83162  -0.71545  -0.70714
 Alpha  occ. eigenvalues --   -0.68539  -0.67664  -0.59912  -0.59756  -0.57765
 Alpha  occ. eigenvalues --   -0.56222  -0.53370  -0.52998  -0.50961  -0.50600
 Alpha  occ. eigenvalues --   -0.49716  -0.48756  -0.47589  -0.46909  -0.46025
 Alpha  occ. eigenvalues --   -0.44629  -0.41417  -0.40875  -0.39785  -0.39163
 Alpha  occ. eigenvalues --   -0.38961  -0.38176  -0.30654  -0.25319
 Alpha virt. eigenvalues --    0.01515   0.07413   0.11352   0.13317   0.14438
 Alpha virt. eigenvalues --    0.15234   0.15587   0.16574   0.16829   0.17108
 Alpha virt. eigenvalues --    0.17412   0.18239   0.18377   0.19457   0.20877
 Alpha virt. eigenvalues --    0.21926   0.22213   0.23659   0.24156   0.24744
 Alpha virt. eigenvalues --    0.25311   0.26047   0.27010   0.27258   0.28217
 Alpha virt. eigenvalues --    0.29426   0.29672   0.30346   0.31097   0.31229
 Alpha virt. eigenvalues --    0.31485   0.32462   0.33038   0.33486   0.34765
 Alpha virt. eigenvalues --    0.35197   0.35765   0.36543   0.36899   0.38113
 Alpha virt. eigenvalues --    0.38676   0.39462   0.42034   0.42408   0.43077
 Alpha virt. eigenvalues --    0.44660   0.44696   0.44732   0.45516   0.46274
 Alpha virt. eigenvalues --    0.47388   0.48322   0.49091   0.49306   0.49477
 Alpha virt. eigenvalues --    0.49598   0.49718   0.49946   0.50790   0.50908
 Alpha virt. eigenvalues --    0.51208   0.51434   0.52814   0.52884   0.53677
 Alpha virt. eigenvalues --    0.53761   0.54990   0.55335   0.55976   0.56300
 Alpha virt. eigenvalues --    0.57416   0.57987   0.58774   0.60036   0.60898
 Alpha virt. eigenvalues --    0.61181   0.61457   0.62271   0.64237   0.64380
 Alpha virt. eigenvalues --    0.66969   0.67111   0.68395   0.68906   0.69423
 Alpha virt. eigenvalues --    0.71009   0.72802   0.73880   0.76328   0.77027
 Alpha virt. eigenvalues --    0.77821   0.78894   0.79212   0.81238   0.82363
 Alpha virt. eigenvalues --    0.83762   0.84547   0.85627   0.85828   0.88255
 Alpha virt. eigenvalues --    0.89398   0.90744   0.92709   0.94276   0.95048
 Alpha virt. eigenvalues --    0.95653   0.98004   0.98154   0.98987   1.00291
 Alpha virt. eigenvalues --    1.02595   1.03000   1.04455   1.05322   1.05833
 Alpha virt. eigenvalues --    1.07581   1.08211   1.08760   1.09918   1.11336
 Alpha virt. eigenvalues --    1.12939   1.13919   1.15555   1.17027   1.17082
 Alpha virt. eigenvalues --    1.17967   1.19181   1.19530   1.20015   1.20032
 Alpha virt. eigenvalues --    1.20633   1.22042   1.24205   1.25947   1.26198
 Alpha virt. eigenvalues --    1.26632   1.27296   1.28522   1.29345   1.29727
 Alpha virt. eigenvalues --    1.30872   1.30889   1.33336   1.33621   1.33750
 Alpha virt. eigenvalues --    1.35207   1.35407   1.36859   1.38349   1.39555
 Alpha virt. eigenvalues --    1.39749   1.40386   1.40733   1.41811   1.43030
 Alpha virt. eigenvalues --    1.43240   1.43388   1.43748   1.44964   1.45487
 Alpha virt. eigenvalues --    1.45655   1.45890   1.48165   1.49072   1.49169
 Alpha virt. eigenvalues --    1.50939   1.53343   1.54205   1.57417   1.57514
 Alpha virt. eigenvalues --    1.58084   1.59397   1.60507   1.60836   1.62476
 Alpha virt. eigenvalues --    1.64194   1.64862   1.65134   1.66323   1.68459
 Alpha virt. eigenvalues --    1.70124   1.72583   1.76510   1.76813   1.77063
 Alpha virt. eigenvalues --    1.80244   1.82243   1.82384   1.84890   1.86288
 Alpha virt. eigenvalues --    1.89060   1.90162   1.90834   1.94092   1.94201
 Alpha virt. eigenvalues --    1.95667   1.97467   1.97804   2.01260   2.02031
 Alpha virt. eigenvalues --    2.05448   2.06415   2.08767   2.11647   2.12371
 Alpha virt. eigenvalues --    2.12938   2.15416   2.16303   2.17113   2.18796
 Alpha virt. eigenvalues --    2.19019   2.19717   2.20160   2.24360   2.24576
 Alpha virt. eigenvalues --    2.24694   2.25641   2.27002   2.30045   2.32168
 Alpha virt. eigenvalues --    2.36517   2.36661   2.39160   2.41086   2.43887
 Alpha virt. eigenvalues --    2.44619   2.47758   2.48146   2.48625   2.50262
 Alpha virt. eigenvalues --    2.50679   2.52688   2.53328   2.55602   2.57238
 Alpha virt. eigenvalues --    2.60212   2.61174   2.61882   2.62538   2.62705
 Alpha virt. eigenvalues --    2.64900   2.65189   2.65612   2.67490   2.69060
 Alpha virt. eigenvalues --    2.69762   2.71226   2.72727   2.72818   2.74834
 Alpha virt. eigenvalues --    2.75377   2.75541   2.75705   2.76538   2.77120
 Alpha virt. eigenvalues --    2.79760   2.79966   2.81632   2.82087   2.82715
 Alpha virt. eigenvalues --    2.82821   2.83893   2.84792   2.84927   2.86026
 Alpha virt. eigenvalues --    2.86484   2.88411   2.89020   2.90108   2.92397
 Alpha virt. eigenvalues --    2.92680   2.94580   2.95311   2.95481   2.97425
 Alpha virt. eigenvalues --    2.97865   2.98030   2.99429   2.99575   3.01801
 Alpha virt. eigenvalues --    3.02113   3.02708   3.04197   3.04777   3.05914
 Alpha virt. eigenvalues --    3.07403   3.08562   3.09645   3.10963   3.11169
 Alpha virt. eigenvalues --    3.12199   3.12514   3.13492   3.14748   3.15145
 Alpha virt. eigenvalues --    3.16283   3.16630   3.17525   3.17868   3.20094
 Alpha virt. eigenvalues --    3.20440   3.20620   3.20947   3.21766   3.23016
 Alpha virt. eigenvalues --    3.23847   3.24152   3.24177   3.25410   3.25652
 Alpha virt. eigenvalues --    3.26372   3.27676   3.27807   3.29104   3.29832
 Alpha virt. eigenvalues --    3.30205   3.31190   3.32031   3.32190   3.33973
 Alpha virt. eigenvalues --    3.34180   3.34677   3.36109   3.36493   3.37342
 Alpha virt. eigenvalues --    3.37461   3.38739   3.39560   3.42092   3.42441
 Alpha virt. eigenvalues --    3.44111   3.45001   3.45170   3.45994   3.47077
 Alpha virt. eigenvalues --    3.47703   3.48116   3.48143   3.48977   3.50510
 Alpha virt. eigenvalues --    3.52511   3.53071   3.53175   3.53387   3.54951
 Alpha virt. eigenvalues --    3.56114   3.56795   3.57740   3.58299   3.60754
 Alpha virt. eigenvalues --    3.62443   3.63302   3.63929   3.64340   3.64494
 Alpha virt. eigenvalues --    3.65430   3.68064   3.68080   3.70665   3.71230
 Alpha virt. eigenvalues --    3.71942   3.72588   3.75409   3.79307   3.79738
 Alpha virt. eigenvalues --    3.81149   3.81655   3.82876   3.83243   3.83840
 Alpha virt. eigenvalues --    3.85007   3.86780   3.89809   3.90853   3.91122
 Alpha virt. eigenvalues --    3.92977   3.95622   3.96683   4.01086   4.01206
 Alpha virt. eigenvalues --    4.03556   4.04653   4.06574   4.07230   4.09825
 Alpha virt. eigenvalues --    4.10093   4.12271   4.13716   4.14009   4.14143
 Alpha virt. eigenvalues --    4.15867   4.17840   4.18663   4.18907   4.21020
 Alpha virt. eigenvalues --    4.21571   4.23437   4.25647   4.28818   4.28983
 Alpha virt. eigenvalues --    4.30919   4.32337   4.33100   4.34400   4.39150
 Alpha virt. eigenvalues --    4.39214   4.40563   4.42406   4.44781   4.48586
 Alpha virt. eigenvalues --    4.48819   4.50696   4.50925   4.54602   4.56384
 Alpha virt. eigenvalues --    4.57367   4.60887   4.61860   4.68122   4.68344
 Alpha virt. eigenvalues --    4.71290   4.73260   4.74946   4.76735   4.79102
 Alpha virt. eigenvalues --    4.81319   4.81840   4.84139   4.86329   4.87621
 Alpha virt. eigenvalues --    4.90996   4.92556   4.93397   4.94167   4.98309
 Alpha virt. eigenvalues --    4.98813   5.05265   5.07288   5.11584   5.12479
 Alpha virt. eigenvalues --    5.17775   5.20604   5.22604   5.22631   5.25352
 Alpha virt. eigenvalues --    5.28742   5.36650   5.38662   5.40360   5.42339
 Alpha virt. eigenvalues --    5.46301   5.46391   5.51837   5.56921   5.71575
 Alpha virt. eigenvalues --    5.72417   5.75497   5.77408   5.95969   6.02284
 Alpha virt. eigenvalues --    7.95407   7.95927   8.03859   8.03929   8.05556
 Alpha virt. eigenvalues --    8.10244   8.11450   8.14882   8.19128   8.20199
 Alpha virt. eigenvalues --    8.34697   8.39329  34.77911  34.77925  34.81574
 Alpha virt. eigenvalues --   34.81646  34.84965  34.91914  34.97877  34.99984
 Alpha virt. eigenvalues --   35.03140  35.03548  35.17001  35.21135
  Beta  occ. eigenvalues --  -10.28420 -10.28419 -10.28384 -10.28384 -10.28033
  Beta  occ. eigenvalues --  -10.28033 -10.28008 -10.28008 -10.27789 -10.27788
  Beta  occ. eigenvalues --  -10.26975 -10.26973  -0.94755  -0.93325  -0.84871
  Beta  occ. eigenvalues --   -0.84267  -0.83502  -0.83162  -0.71545  -0.70714
  Beta  occ. eigenvalues --   -0.68539  -0.67664  -0.59912  -0.59756  -0.57765
  Beta  occ. eigenvalues --   -0.56222  -0.53370  -0.52998  -0.50961  -0.50600
  Beta  occ. eigenvalues --   -0.49716  -0.48756  -0.47589  -0.46909  -0.46025
  Beta  occ. eigenvalues --   -0.44629  -0.41417  -0.40875  -0.39785  -0.39163
  Beta  occ. eigenvalues --   -0.38961  -0.38176  -0.30654  -0.25319
  Beta virt. eigenvalues --    0.01515   0.07413   0.11352   0.13317   0.14438
  Beta virt. eigenvalues --    0.15234   0.15587   0.16574   0.16829   0.17108
  Beta virt. eigenvalues --    0.17412   0.18239   0.18377   0.19457   0.20877
  Beta virt. eigenvalues --    0.21926   0.22213   0.23659   0.24156   0.24744
  Beta virt. eigenvalues --    0.25311   0.26047   0.27010   0.27258   0.28217
  Beta virt. eigenvalues --    0.29426   0.29672   0.30346   0.31097   0.31229
  Beta virt. eigenvalues --    0.31485   0.32462   0.33038   0.33486   0.34765
  Beta virt. eigenvalues --    0.35197   0.35765   0.36543   0.36899   0.38113
  Beta virt. eigenvalues --    0.38676   0.39462   0.42034   0.42408   0.43077
  Beta virt. eigenvalues --    0.44660   0.44696   0.44732   0.45516   0.46274
  Beta virt. eigenvalues --    0.47388   0.48322   0.49091   0.49306   0.49477
  Beta virt. eigenvalues --    0.49598   0.49718   0.49946   0.50790   0.50908
  Beta virt. eigenvalues --    0.51208   0.51434   0.52814   0.52884   0.53677
  Beta virt. eigenvalues --    0.53761   0.54990   0.55335   0.55976   0.56300
  Beta virt. eigenvalues --    0.57416   0.57987   0.58774   0.60036   0.60898
  Beta virt. eigenvalues --    0.61181   0.61457   0.62271   0.64237   0.64380
  Beta virt. eigenvalues --    0.66969   0.67111   0.68395   0.68906   0.69423
  Beta virt. eigenvalues --    0.71009   0.72802   0.73880   0.76328   0.77027
  Beta virt. eigenvalues --    0.77821   0.78894   0.79212   0.81238   0.82363
  Beta virt. eigenvalues --    0.83762   0.84547   0.85627   0.85828   0.88255
  Beta virt. eigenvalues --    0.89398   0.90744   0.92709   0.94276   0.95048
  Beta virt. eigenvalues --    0.95653   0.98004   0.98154   0.98987   1.00291
  Beta virt. eigenvalues --    1.02595   1.03000   1.04455   1.05322   1.05833
  Beta virt. eigenvalues --    1.07581   1.08211   1.08760   1.09918   1.11336
  Beta virt. eigenvalues --    1.12939   1.13919   1.15555   1.17027   1.17082
  Beta virt. eigenvalues --    1.17967   1.19181   1.19530   1.20015   1.20032
  Beta virt. eigenvalues --    1.20633   1.22042   1.24205   1.25947   1.26198
  Beta virt. eigenvalues --    1.26632   1.27296   1.28522   1.29345   1.29727
  Beta virt. eigenvalues --    1.30872   1.30889   1.33336   1.33621   1.33750
  Beta virt. eigenvalues --    1.35207   1.35407   1.36859   1.38349   1.39555
  Beta virt. eigenvalues --    1.39749   1.40386   1.40733   1.41811   1.43030
  Beta virt. eigenvalues --    1.43240   1.43388   1.43748   1.44964   1.45487
  Beta virt. eigenvalues --    1.45655   1.45890   1.48165   1.49072   1.49169
  Beta virt. eigenvalues --    1.50939   1.53343   1.54205   1.57417   1.57514
  Beta virt. eigenvalues --    1.58084   1.59397   1.60507   1.60836   1.62476
  Beta virt. eigenvalues --    1.64194   1.64862   1.65134   1.66323   1.68459
  Beta virt. eigenvalues --    1.70124   1.72583   1.76510   1.76813   1.77063
  Beta virt. eigenvalues --    1.80244   1.82243   1.82384   1.84890   1.86288
  Beta virt. eigenvalues --    1.89060   1.90162   1.90834   1.94092   1.94201
  Beta virt. eigenvalues --    1.95667   1.97467   1.97804   2.01260   2.02031
  Beta virt. eigenvalues --    2.05448   2.06415   2.08767   2.11647   2.12371
  Beta virt. eigenvalues --    2.12938   2.15416   2.16303   2.17113   2.18796
  Beta virt. eigenvalues --    2.19019   2.19717   2.20160   2.24360   2.24576
  Beta virt. eigenvalues --    2.24694   2.25641   2.27002   2.30045   2.32168
  Beta virt. eigenvalues --    2.36517   2.36661   2.39160   2.41086   2.43887
  Beta virt. eigenvalues --    2.44619   2.47758   2.48146   2.48625   2.50262
  Beta virt. eigenvalues --    2.50679   2.52688   2.53328   2.55602   2.57238
  Beta virt. eigenvalues --    2.60212   2.61174   2.61882   2.62538   2.62705
  Beta virt. eigenvalues --    2.64900   2.65189   2.65612   2.67490   2.69060
  Beta virt. eigenvalues --    2.69762   2.71226   2.72727   2.72818   2.74834
  Beta virt. eigenvalues --    2.75377   2.75541   2.75705   2.76538   2.77120
  Beta virt. eigenvalues --    2.79760   2.79966   2.81632   2.82087   2.82715
  Beta virt. eigenvalues --    2.82821   2.83893   2.84792   2.84927   2.86026
  Beta virt. eigenvalues --    2.86484   2.88411   2.89020   2.90108   2.92397
  Beta virt. eigenvalues --    2.92680   2.94580   2.95311   2.95481   2.97425
  Beta virt. eigenvalues --    2.97865   2.98030   2.99429   2.99575   3.01801
  Beta virt. eigenvalues --    3.02113   3.02708   3.04197   3.04777   3.05914
  Beta virt. eigenvalues --    3.07403   3.08562   3.09645   3.10963   3.11169
  Beta virt. eigenvalues --    3.12199   3.12514   3.13492   3.14748   3.15145
  Beta virt. eigenvalues --    3.16283   3.16630   3.17525   3.17868   3.20094
  Beta virt. eigenvalues --    3.20440   3.20620   3.20947   3.21766   3.23016
  Beta virt. eigenvalues --    3.23847   3.24152   3.24177   3.25410   3.25652
  Beta virt. eigenvalues --    3.26372   3.27676   3.27807   3.29104   3.29832
  Beta virt. eigenvalues --    3.30205   3.31190   3.32031   3.32190   3.33973
  Beta virt. eigenvalues --    3.34180   3.34677   3.36109   3.36493   3.37342
  Beta virt. eigenvalues --    3.37461   3.38739   3.39560   3.42092   3.42441
  Beta virt. eigenvalues --    3.44111   3.45001   3.45170   3.45994   3.47077
  Beta virt. eigenvalues --    3.47703   3.48116   3.48143   3.48977   3.50510
  Beta virt. eigenvalues --    3.52511   3.53071   3.53175   3.53387   3.54951
  Beta virt. eigenvalues --    3.56114   3.56795   3.57740   3.58299   3.60754
  Beta virt. eigenvalues --    3.62443   3.63302   3.63929   3.64340   3.64494
  Beta virt. eigenvalues --    3.65430   3.68064   3.68080   3.70665   3.71230
  Beta virt. eigenvalues --    3.71942   3.72588   3.75409   3.79307   3.79738
  Beta virt. eigenvalues --    3.81149   3.81655   3.82876   3.83243   3.83840
  Beta virt. eigenvalues --    3.85007   3.86780   3.89809   3.90853   3.91122
  Beta virt. eigenvalues --    3.92977   3.95622   3.96683   4.01086   4.01206
  Beta virt. eigenvalues --    4.03556   4.04653   4.06574   4.07230   4.09825
  Beta virt. eigenvalues --    4.10093   4.12271   4.13716   4.14009   4.14143
  Beta virt. eigenvalues --    4.15867   4.17840   4.18663   4.18907   4.21020
  Beta virt. eigenvalues --    4.21571   4.23437   4.25647   4.28818   4.28983
  Beta virt. eigenvalues --    4.30919   4.32337   4.33100   4.34400   4.39150
  Beta virt. eigenvalues --    4.39214   4.40563   4.42406   4.44781   4.48586
  Beta virt. eigenvalues --    4.48819   4.50696   4.50925   4.54602   4.56384
  Beta virt. eigenvalues --    4.57367   4.60887   4.61860   4.68122   4.68344
  Beta virt. eigenvalues --    4.71290   4.73260   4.74946   4.76735   4.79102
  Beta virt. eigenvalues --    4.81319   4.81840   4.84139   4.86329   4.87621
  Beta virt. eigenvalues --    4.90996   4.92556   4.93397   4.94167   4.98309
  Beta virt. eigenvalues --    4.98813   5.05265   5.07288   5.11584   5.12479
  Beta virt. eigenvalues --    5.17775   5.20604   5.22604   5.22631   5.25352
  Beta virt. eigenvalues --    5.28742   5.36650   5.38662   5.40360   5.42339
  Beta virt. eigenvalues --    5.46301   5.46391   5.51837   5.56921   5.71575
  Beta virt. eigenvalues --    5.72417   5.75497   5.77408   5.95969   6.02284
  Beta virt. eigenvalues --    7.95407   7.95927   8.03859   8.03929   8.05556
  Beta virt. eigenvalues --    8.10244   8.11450   8.14882   8.19128   8.20199
  Beta virt. eigenvalues --    8.34697   8.39329  34.77911  34.77925  34.81574
  Beta virt. eigenvalues --   34.81646  34.84965  34.91914  34.97877  34.99984
  Beta virt. eigenvalues --   35.03140  35.03548  35.17001  35.21135
          Condensed to atoms (all electrons):
               1          2          3          4          5          6
     1  C    5.169227  -0.008512   0.424082  -0.002217   0.002003  -0.010433
     2  C   -0.008512   5.424124  -0.002106   0.427072  -0.086481   0.008530
     3  H    0.424082  -0.002106   0.490709   0.000032  -0.000041   0.000051
     4  H   -0.002217   0.427072   0.000032   0.462021  -0.018892  -0.002668
     5  C    0.002003  -0.086481  -0.000041  -0.018892   5.236031   0.485329
     6  C   -0.010433   0.008530   0.000051  -0.002668   0.485329   5.423162
     7  H    0.000159  -0.003446   0.000002   0.000073   0.436174  -0.031536
     8  H   -0.000760  -0.002648  -0.000113   0.000237  -0.030886   0.427181
     9  C    0.002917  -0.023724  -0.000011  -0.004969  -0.060628   0.211083
    10  H   -0.000040   0.003123  -0.000001  -0.000496  -0.007484  -0.049068
    11  H    0.000072  -0.008610   0.000004   0.000779   0.010636  -0.060040
    12  C   -0.000212   0.020799   0.000001   0.006385   0.273594  -0.056472
    13  H   -0.000001   0.000230   0.000000   0.000054  -0.034507   0.004527
    14  C    0.000149  -0.010458  -0.000000  -0.000764  -0.039431  -0.008225
    15  H   -0.000000   0.000053  -0.000000  -0.000115   0.006206  -0.002134
    16  C   -0.000529   0.018653   0.000000   0.000282   0.000281  -0.061420
    17  H    0.000007   0.001612  -0.000000  -0.005123   0.010193  -0.005536
    18  H    0.000003   0.000092   0.000000   0.000510  -0.003700   0.012942
    19  C   -0.039482   0.485039   0.006153  -0.030694  -0.033229  -0.086393
    20  H    0.004340  -0.031812  -0.000106  -0.004731   0.000033  -0.003434
    21  C    0.557950  -0.056374  -0.030629   0.004784   0.004334   0.020736
    22  H   -0.025051   0.004444  -0.005614  -0.000060   0.000052   0.000233
    23  C   -0.082452   0.210730   0.005016  -0.011738   0.013691  -0.023710
    24  H    0.013470  -0.059991  -0.000059  -0.004087   0.001577  -0.008608
    25  H    0.004364  -0.049133  -0.000023  -0.001922   0.000760   0.003129
    26  C    0.267957  -0.061534  -0.028203   0.004965  -0.012169   0.018671
    27  H   -0.036505   0.012997  -0.004270  -0.000050   0.000402   0.000089
    28  H   -0.034304  -0.005575   0.000770  -0.000191  -0.004301   0.001614
               7          8          9         10         11         12
     1  C    0.000159  -0.000760   0.002917  -0.000040   0.000072  -0.000212
     2  C   -0.003446  -0.002648  -0.023724   0.003123  -0.008610   0.020799
     3  H    0.000002  -0.000113  -0.000011  -0.000001   0.000004   0.000001
     4  H    0.000073   0.000237  -0.004969  -0.000496   0.000779   0.006385
     5  C    0.436174  -0.030886  -0.060628  -0.007484   0.010636   0.273594
     6  C   -0.031536   0.427181   0.211083  -0.049068  -0.060040  -0.056472
     7  H    0.477311  -0.004741   0.003036  -0.000121   0.000005  -0.033622
     8  H   -0.004741   0.462193  -0.011728  -0.001917  -0.004099   0.004809
     9  C    0.003036  -0.011728   5.004375   0.402599   0.468042   0.035463
    10  H   -0.000121  -0.001917   0.402599   0.566717  -0.019662   0.000669
    11  H    0.000005  -0.004099   0.468042  -0.019662   0.521532  -0.005203
    12  C   -0.033622   0.004809   0.035463   0.000669  -0.005203   5.039080
    13  H   -0.003263  -0.000059   0.000279  -0.000094   0.000024   0.423334
    14  C    0.004367  -0.002229  -0.082646   0.004307   0.013485   0.557405
    15  H   -0.000106   0.000032   0.005029  -0.000025  -0.000059  -0.030984
    16  C   -0.001222   0.004981   0.328462  -0.023096  -0.056960  -0.051905
    17  H    0.000010  -0.000190  -0.028101   0.006168  -0.006540  -0.012861
    18  H    0.000030  -0.000051  -0.045284  -0.009228  -0.001013   0.005918
    19  C    0.000036  -0.018847   0.013674   0.000765   0.001581   0.004329
    20  H    0.000005   0.000071   0.003396   0.000380  -0.003089  -0.000101
    21  C   -0.000101   0.006362  -0.003987  -0.000152  -0.000097  -0.000466
    22  H   -0.000001   0.000053  -0.000100  -0.000001  -0.000025  -0.000001
    23  C    0.003402  -0.004999   0.002971  -0.000099   0.000300  -0.003981
    24  H   -0.003115   0.000780   0.000298  -0.000030  -0.000007  -0.000090
    25  H    0.000381  -0.000495  -0.000099   0.000014  -0.000030  -0.000153
    26  C   -0.001683   0.000283  -0.001502   0.000046  -0.000125   0.001385
    27  H   -0.000016   0.000512   0.000011  -0.000000  -0.000001  -0.000037
    28  H    0.001987  -0.005105   0.000462   0.000014   0.000002   0.000298
              13         14         15         16         17         18
     1  C   -0.000001   0.000149  -0.000000  -0.000529   0.000007   0.000003
     2  C    0.000230  -0.010458   0.000053   0.018653   0.001612   0.000092
     3  H    0.000000  -0.000000  -0.000000   0.000000  -0.000000   0.000000
     4  H    0.000054  -0.000764  -0.000115   0.000282  -0.005123   0.000510
     5  C   -0.034507  -0.039431   0.006206   0.000281   0.010193  -0.003700
     6  C    0.004527  -0.008225  -0.002134  -0.061420  -0.005536   0.012942
     7  H   -0.003263   0.004367  -0.000106  -0.001222   0.000010   0.000030
     8  H   -0.000059  -0.002229   0.000032   0.004981  -0.000190  -0.000051
     9  C    0.000279  -0.082646   0.005029   0.328462  -0.028101  -0.045284
    10  H   -0.000094   0.004307  -0.000025  -0.023096   0.006168  -0.009228
    11  H    0.000024   0.013485  -0.000059  -0.056960  -0.006540  -0.001013
    12  C    0.423334   0.557405  -0.030984  -0.051905  -0.012861   0.005918
    13  H    0.489180  -0.024883  -0.005627   0.003805  -0.000387  -0.000085
    14  C   -0.024883   5.169482   0.424403   0.267971  -0.034322  -0.036405
    15  H   -0.005627   0.424403   0.490805  -0.028205   0.000763  -0.004252
    16  C    0.003805   0.267971  -0.028205   4.973134   0.400823   0.434680
    17  H   -0.000387  -0.034322   0.000763   0.400823   0.576119  -0.021727
    18  H   -0.000085  -0.036405  -0.004252   0.434680  -0.021727   0.536131
    19  C    0.000053   0.002019  -0.000041  -0.012189  -0.004301   0.000403
    20  H   -0.000001   0.000158   0.000002  -0.001677   0.001983  -0.000016
    21  C   -0.000001  -0.000213   0.000001   0.001388   0.000299  -0.000037
    22  H    0.000000  -0.000001   0.000000   0.000010  -0.000000  -0.000001
    23  C   -0.000097   0.002913  -0.000011  -0.001498   0.000460   0.000011
    24  H   -0.000027   0.000070   0.000004  -0.000125   0.000002  -0.000001
    25  H   -0.000001  -0.000040  -0.000001   0.000046   0.000014  -0.000000
    26  C    0.000009  -0.000529   0.000000   0.000617  -0.000009  -0.000003
    27  H   -0.000001   0.000003   0.000000  -0.000003   0.000001  -0.000000
    28  H   -0.000000   0.000007  -0.000000  -0.000010  -0.000011   0.000001
              19         20         21         22         23         24
     1  C   -0.039482   0.004340   0.557950  -0.025051  -0.082452   0.013470
     2  C    0.485039  -0.031812  -0.056374   0.004444   0.210730  -0.059991
     3  H    0.006153  -0.000106  -0.030629  -0.005614   0.005016  -0.000059
     4  H   -0.030694  -0.004731   0.004784  -0.000060  -0.011738  -0.004087
     5  C   -0.033229   0.000033   0.004334   0.000052   0.013691   0.001577
     6  C   -0.086393  -0.003434   0.020736   0.000233  -0.023710  -0.008608
     7  H    0.000036   0.000005  -0.000101  -0.000001   0.003402  -0.003115
     8  H   -0.018847   0.000071   0.006362   0.000053  -0.004999   0.000780
     9  C    0.013674   0.003396  -0.003987  -0.000100   0.002971   0.000298
    10  H    0.000765   0.000380  -0.000152  -0.000001  -0.000099  -0.000030
    11  H    0.001581  -0.003089  -0.000097  -0.000025   0.000300  -0.000007
    12  C    0.004329  -0.000101  -0.000466  -0.000001  -0.003981  -0.000090
    13  H    0.000053  -0.000001  -0.000001   0.000000  -0.000097  -0.000027
    14  C    0.002019   0.000158  -0.000213  -0.000001   0.002913   0.000070
    15  H   -0.000041   0.000002   0.000001   0.000000  -0.000011   0.000004
    16  C   -0.012189  -0.001677   0.001388   0.000010  -0.001498  -0.000125
    17  H   -0.004301   0.001983   0.000299  -0.000000   0.000460   0.000002
    18  H    0.000403  -0.000016  -0.000037  -0.000001   0.000011  -0.000001
    19  C    5.235679   0.436467   0.274008  -0.034371  -0.060394   0.010617
    20  H    0.436467   0.477160  -0.033600  -0.003261   0.003030   0.000005
    21  C    0.274008  -0.033600   5.038266   0.423454   0.035435  -0.005197
    22  H   -0.034371  -0.003261   0.423454   0.489147   0.000279   0.000024
    23  C   -0.060394   0.003030   0.035435   0.000279   5.004577   0.468000
    24  H    0.010617   0.000005  -0.005197   0.000024   0.468000   0.521523
    25  H   -0.007470  -0.000120   0.000630  -0.000094   0.402678  -0.019687
    26  C    0.000469  -0.001214  -0.052102   0.003804   0.328309  -0.056913
    27  H   -0.003733   0.000030   0.006008  -0.000084  -0.045314  -0.001019
    28  H    0.010192   0.000010  -0.012888  -0.000386  -0.028068  -0.006536
              25         26         27         28
     1  C    0.004364   0.267957  -0.036505  -0.034304
     2  C   -0.049133  -0.061534   0.012997  -0.005575
     3  H   -0.000023  -0.028203  -0.004270   0.000770
     4  H   -0.001922   0.004965  -0.000050  -0.000191
     5  C    0.000760  -0.012169   0.000402  -0.004301
     6  C    0.003129   0.018671   0.000089   0.001614
     7  H    0.000381  -0.001683  -0.000016   0.001987
     8  H   -0.000495   0.000283   0.000512  -0.005105
     9  C   -0.000099  -0.001502   0.000011   0.000462
    10  H    0.000014   0.000046  -0.000000   0.000014
    11  H   -0.000030  -0.000125  -0.000001   0.000002
    12  C   -0.000153   0.001385  -0.000037   0.000298
    13  H   -0.000001   0.000009  -0.000001  -0.000000
    14  C   -0.000040  -0.000529   0.000003   0.000007
    15  H   -0.000001   0.000000   0.000000  -0.000000
    16  C    0.000046   0.000617  -0.000003  -0.000010
    17  H    0.000014  -0.000009   0.000001  -0.000011
    18  H   -0.000000  -0.000003  -0.000000   0.000001
    19  C   -0.007470   0.000469  -0.003733   0.010192
    20  H   -0.000120  -0.001214   0.000030   0.000010
    21  C    0.000630  -0.052102   0.006008  -0.012888
    22  H   -0.000094   0.003804  -0.000084  -0.000386
    23  C    0.402678   0.328309  -0.045314  -0.028068
    24  H   -0.019687  -0.056913  -0.001019  -0.006536
    25  H    0.566680  -0.023162  -0.009223   0.006166
    26  C   -0.023162   4.973505   0.434738   0.400830
    27  H   -0.009223   0.434738   0.535989  -0.021736
    28  H    0.006166   0.400830  -0.021736   0.576046
          Atomic-Atomic Spin Densities.
               1          2          3          4          5          6
     1  C   -0.000004   0.000000   0.000000  -0.000000  -0.000000  -0.000000
     2  C    0.000000  -0.000001  -0.000000   0.000000   0.000000  -0.000000
     3  H    0.000000  -0.000000   0.000000   0.000000  -0.000000   0.000000
     4  H   -0.000000   0.000000   0.000000   0.000000   0.000000  -0.000000
     5  C   -0.000000   0.000000  -0.000000   0.000000  -0.000001  -0.000000
     6  C   -0.000000  -0.000000   0.000000  -0.000000  -0.000000   0.000002
     7  H    0.000000  -0.000000  -0.000000  -0.000000   0.000000  -0.000000
     8  H   -0.000000   0.000000  -0.000000   0.000000   0.000000  -0.000000
     9  C    0.000000   0.000000  -0.000000   0.000000   0.000000  -0.000000
    10  H   -0.000000  -0.000000  -0.000000  -0.000000  -0.000000  -0.000000
    11  H   -0.000000   0.000000   0.000000   0.000000   0.000000  -0.000000
    12  C    0.000000  -0.000000   0.000000  -0.000000   0.000000   0.000000
    13  H    0.000000  -0.000000   0.000000  -0.000000   0.000000  -0.000000
    14  C   -0.000000   0.000000  -0.000000   0.000000  -0.000000  -0.000000
    15  H    0.000000  -0.000000  -0.000000   0.000000  -0.000000   0.000000
    16  C   -0.000000   0.000000   0.000000  -0.000000  -0.000000   0.000000
    17  H   -0.000000   0.000000  -0.000000  -0.000000   0.000000  -0.000000
    18  H    0.000000  -0.000000   0.000000   0.000000  -0.000000   0.000000
    19  C    0.000000   0.000000   0.000000  -0.000000  -0.000000  -0.000000
    20  H   -0.000000   0.000000  -0.000000   0.000000   0.000000   0.000000
    21  C    0.000000  -0.000000  -0.000000   0.000000   0.000000   0.000000
    22  H   -0.000000   0.000000  -0.000000  -0.000000   0.000000   0.000000
    23  C   -0.000000   0.000000   0.000000  -0.000000   0.000000  -0.000000
    24  H   -0.000000   0.000000  -0.000000   0.000000   0.000000  -0.000000
    25  H   -0.000000   0.000000   0.000000  -0.000000  -0.000000   0.000000
    26  C    0.000000  -0.000000  -0.000000   0.000000   0.000000  -0.000000
    27  H    0.000000  -0.000000  -0.000000  -0.000000  -0.000000   0.000000
    28  H    0.000000   0.000000  -0.000000  -0.000000   0.000000  -0.000000
               7          8          9         10         11         12
     1  C    0.000000  -0.000000   0.000000  -0.000000  -0.000000   0.000000
     2  C   -0.000000   0.000000   0.000000  -0.000000   0.000000  -0.000000
     3  H   -0.000000  -0.000000  -0.000000  -0.000000   0.000000   0.000000
     4  H   -0.000000   0.000000   0.000000  -0.000000   0.000000  -0.000000
     5  C    0.000000   0.000000   0.000000  -0.000000   0.000000   0.000000
     6  C   -0.000000  -0.000000  -0.000000  -0.000000  -0.000000   0.000000
     7  H    0.000000  -0.000000  -0.000000   0.000000  -0.000000  -0.000000
     8  H   -0.000000  -0.000000   0.000000   0.000000  -0.000000  -0.000000
     9  C   -0.000000   0.000000  -0.000000   0.000000   0.000000  -0.000000
    10  H    0.000000   0.000000   0.000000   0.000000  -0.000000  -0.000000
    11  H   -0.000000  -0.000000   0.000000  -0.000000   0.000000  -0.000000
    12  C   -0.000000  -0.000000  -0.000000  -0.000000  -0.000000  -0.000003
    13  H   -0.000000   0.000000  -0.000000   0.000000  -0.000000   0.000000
    14  C    0.000000   0.000000   0.000000   0.000000   0.000000  -0.000000
    15  H    0.000000  -0.000000  -0.000000   0.000000   0.000000   0.000000
    16  C   -0.000000  -0.000000   0.000000  -0.000000  -0.000000   0.000000
    17  H    0.000000   0.000000   0.000000   0.000000   0.000000  -0.000000
    18  H   -0.000000   0.000000  -0.000000  -0.000000   0.000000   0.000000
    19  C   -0.000000  -0.000000  -0.000000   0.000000  -0.000000  -0.000000
    20  H    0.000000   0.000000  -0.000000   0.000000  -0.000000  -0.000000
    21  C    0.000000   0.000000   0.000000  -0.000000  -0.000000  -0.000000
    22  H    0.000000   0.000000   0.000000  -0.000000   0.000000  -0.000000
    23  C    0.000000   0.000000  -0.000000   0.000000   0.000000  -0.000000
    24  H    0.000000  -0.000000  -0.000000  -0.000000   0.000000   0.000000
    25  H   -0.000000   0.000000  -0.000000   0.000000   0.000000   0.000000
    26  C   -0.000000   0.000000   0.000000  -0.000000   0.000000   0.000000
    27  H    0.000000  -0.000000   0.000000   0.000000  -0.000000   0.000000
    28  H   -0.000000   0.000000  -0.000000   0.000000  -0.000000  -0.000000
              13         14         15         16         17         18
     1  C    0.000000  -0.000000   0.000000  -0.000000  -0.000000   0.000000
     2  C   -0.000000   0.000000  -0.000000   0.000000   0.000000  -0.000000
     3  H    0.000000  -0.000000  -0.000000   0.000000  -0.000000   0.000000
     4  H   -0.000000   0.000000   0.000000  -0.000000  -0.000000   0.000000
     5  C    0.000000  -0.000000  -0.000000  -0.000000   0.000000  -0.000000
     6  C   -0.000000  -0.000000   0.000000   0.000000  -0.000000   0.000000
     7  H   -0.000000   0.000000   0.000000  -0.000000   0.000000  -0.000000
     8  H    0.000000   0.000000  -0.000000  -0.000000   0.000000   0.000000
[...]
     8  H    0.000000   0.000000  -0.000000   0.000000
     9  C    0.000000  -0.000000  -0.000000  -0.000000
    10  H    0.000000   0.000000   0.000000  -0.000000
    11  H   -0.000000  -0.000000  -0.000000   0.000000
    12  C    0.000000  -0.000000   0.000000  -0.000000
    13  H    0.000000  -0.000000   0.000000  -0.000000
    14  C   -0.000000   0.000000  -0.000000   0.000000
    15  H    0.000000  -0.000000  -0.000000   0.000000
    16  C   -0.000000  -0.000000   0.000000  -0.000000
    17  H    0.000000   0.000000  -0.000000  -0.000000
    18  H   -0.000000  -0.000000   0.000000   0.000000
    19  C    0.000000  -0.000000   0.000000   0.000000
    20  H    0.000000   0.000000  -0.000000  -0.000000
    21  C    0.000000  -0.000000  -0.000000  -0.000000
    22  H   -0.000000  -0.000000  -0.000000   0.000000
    23  C    0.000000  -0.000000   0.000000  -0.000000
    24  H    0.000000   0.000000  -0.000000   0.000000
    25  H   -0.000000  -0.000000   0.000000  -0.000000
    26  C   -0.000000   0.000001  -0.000000  -0.000000
    27  H    0.000000  -0.000000  -0.000000   0.000000
    28  H   -0.000000  -0.000000   0.000000  -0.000001
 Mulliken charges and spin densities:
               1          2
     1  C   -0.202297  -0.000005
     2  C   -0.215802  -0.000002
     3  H    0.147906   0.000000
     4  H    0.189905   0.000000
     5  C   -0.164870  -0.000003
     6  C   -0.217365   0.000003
     7  H    0.162051   0.000000
     8  H    0.189081  -0.000000
     9  C   -0.234995  -0.000000
    10  H    0.134714   0.000000
    11  H    0.154662   0.000000
    12  C   -0.177466  -0.000004
    13  H    0.150723   0.000000
    14  C   -0.202924   0.000004
    15  H    0.147828  -0.000000
    16  C   -0.202046  -0.000001
    17  H    0.125409   0.000000
    18  H    0.135161   0.000000
    19  C   -0.166866   0.000002
    20  H    0.162099  -0.000000
    21  C   -0.177612   0.000005
    22  H    0.150669  -0.000000
    23  C   -0.236501   0.000000
    24  H    0.155869   0.000000
    25  H    0.134598  -0.000000
    26  C   -0.203047   0.000001
    27  H    0.135441  -0.000000
    28  H    0.125673  -0.000000
 Sum of Mulliken charges =  -0.00000   0.00000
 Mulliken charges and spin densities with hydrogens summed into heavy atoms:
               1          2
     1  C   -0.054391  -0.000005
     2  C   -0.025896  -0.000002
     5  C   -0.002819  -0.000003
     6  C   -0.028284   0.000003
     9  C    0.054381  -0.000000
    12  C   -0.026743  -0.000004
    14  C   -0.055096   0.000004
    16  C    0.058524  -0.000000
    19  C   -0.004766   0.000002
    21  C   -0.026943   0.000005
    23  C    0.053966   0.000000
    26  C    0.058067   0.000000
 Electronic spatial extent (au):  <R**2>=           2200.5577
 Charge=             -0.0000 electrons
 Dipole moment (field-independent basis, Debye):
    X=              0.0003    Y=              0.0014    Z=             -0.0054  Tot=              0.0056
 Quadrupole moment (field-independent basis, Debye-Ang):
   XX=            -70.3853   YY=            -68.3970   ZZ=            -75.5287
   XY=             -3.3404   XZ=             -3.2211   YZ=             -1.3160
 Traceless Quadrupole moment (field-independent basis, Debye-Ang):
   XX=              1.0517   YY=              3.0400   ZZ=             -4.0917
   XY=             -3.3404   XZ=             -3.2211   YZ=             -1.3160
 Octapole moment (field-independent basis, Debye-Ang**2):
  XXX=             -0.0087  YYY=              0.0178  ZZZ=             -0.0290  XYY=              0.0102
  XXY=             -0.0116  XXZ=             -0.0252  XZZ=             -0.0066  YZZ=              0.0008
  YYZ=             -0.0112  XYZ=             -0.0033
 Hexadecapole moment (field-independent basis, Debye-Ang**3):
 XXXX=          -1982.4286 YYYY=           -605.9234 ZZZZ=           -320.4642 XXXY=            -99.3454
 XXXZ=           -120.0718 YYYX=            -55.5073 YYYZ=             -1.5212 ZZZX=            -67.3794
 ZZZY=            -11.4062 XXYY=           -428.5747 XXZZ=           -409.8338 YYZZ=           -169.5457
 XXYZ=            -20.6421 YYXZ=            -24.9154 ZZXY=            -41.8316
 N-N= 6.900920245776D+02 E-N=-2.462847920716D+03  KE= 4.644386652559D+02
                          Isotropic Fermi Contact Couplings
        Atom                 a.u.       MegaHertz       Gauss      10(-4) cm-1
     1  C(13)             -0.00000      -0.00047      -0.00017      -0.00016
     2  C(13)             -0.00000      -0.00034      -0.00012      -0.00011
     3  H(1)               0.00000       0.00028       0.00010       0.00009
     4  H(1)               0.00000       0.00024       0.00009       0.00008
     5  C(13)             -0.00000      -0.00023      -0.00008      -0.00008
     6  C(13)              0.00000       0.00043       0.00015       0.00014
     7  H(1)               0.00000       0.00022       0.00008       0.00007
     8  H(1)              -0.00000      -0.00028      -0.00010      -0.00009
     9  C(13)             -0.00000      -0.00007      -0.00003      -0.00002
    10  H(1)               0.00000       0.00016       0.00006       0.00005
    11  H(1)               0.00000       0.00002       0.00001       0.00001
    12  C(13)             -0.00000      -0.00023      -0.00008      -0.00008
    13  H(1)               0.00000       0.00014       0.00005       0.00005
    14  C(13)              0.00000       0.00039       0.00014       0.00013
    15  H(1)              -0.00000      -0.00023      -0.00008      -0.00008
    16  C(13)             -0.00000      -0.00014      -0.00005      -0.00005
    17  H(1)               0.00000       0.00024       0.00008       0.00008
    18  H(1)               0.00000       0.00011       0.00004       0.00004
    19  C(13)              0.00000       0.00017       0.00006       0.00006
    20  H(1)              -0.00000      -0.00019      -0.00007      -0.00006
    21  C(13)              0.00000       0.00031       0.00011       0.00010
    22  H(1)              -0.00000      -0.00018      -0.00007      -0.00006
    23  C(13)              0.00000       0.00004       0.00002       0.00001
    24  H(1)              -0.00000      -0.00001      -0.00000      -0.00000
    25  H(1)              -0.00000      -0.00011      -0.00004      -0.00004
    26  C(13)              0.00000       0.00017       0.00006       0.00006
    27  H(1)              -0.00000      -0.00014      -0.00005      -0.00005
    28  H(1)              -0.00000      -0.00030      -0.00011      -0.00010
 --------------------------------------------------------
       Center         ----  Spin Dipole Couplings  ----
                      3XX-RR        3YY-RR        3ZZ-RR
 --------------------------------------------------------
     1   Atom        0.000001      0.000003     -0.000004
     2   Atom        0.000000      0.000001     -0.000001
     3   Atom       -0.000000      0.000000     -0.000000
     4   Atom       -0.000000      0.000000      0.000000
     5   Atom        0.000001      0.000002     -0.000003
     6   Atom       -0.000001     -0.000001      0.000002
     7   Atom       -0.000000     -0.000000      0.000000
     8   Atom        0.000000     -0.000000      0.000000
     9   Atom        0.000000     -0.000000      0.000000
    10   Atom        0.000000     -0.000000      0.000000
    11   Atom        0.000000     -0.000000     -0.000000
    12   Atom        0.000001      0.000002     -0.000003
    13   Atom        0.000000     -0.000000      0.000000
    14   Atom       -0.000001     -0.000002      0.000003
    15   Atom        0.000000     -0.000000      0.000000
    16   Atom        0.000000     -0.000000      0.000000
    17   Atom        0.000000      0.000000     -0.000000
    18   Atom       -0.000000      0.000000     -0.000000
    19   Atom       -0.000001     -0.000001      0.000002
    20   Atom        0.000000      0.000000     -0.000000
    21   Atom       -0.000001     -0.000003      0.000004
    22   Atom       -0.000000      0.000000     -0.000000
    23   Atom       -0.000000      0.000000     -0.000000
    24   Atom       -0.000000      0.000000      0.000000
    25   Atom       -0.000000      0.000000     -0.000000
    26   Atom       -0.000000      0.000000     -0.000000
    27   Atom        0.000000     -0.000000      0.000000
    28   Atom       -0.000000     -0.000000      0.000000
 --------------------------------------------------------
                        XY            XZ            YZ
 --------------------------------------------------------
     1   Atom       -0.000000     -0.000003      0.000000
     2   Atom       -0.000000     -0.000001     -0.000000
     3   Atom       -0.000000      0.000000      0.000000
     4   Atom       -0.000000      0.000000     -0.000000
     5   Atom       -0.000000     -0.000002     -0.000000
     6   Atom        0.000000      0.000001      0.000001
     7   Atom        0.000000     -0.000000     -0.000000
     8   Atom        0.000000     -0.000000      0.000000
     9   Atom        0.000000     -0.000000      0.000000
    10   Atom       -0.000000     -0.000000      0.000000
    11   Atom       -0.000000      0.000000      0.000000
    12   Atom        0.000000     -0.000002      0.000000
    13   Atom       -0.000000     -0.000000      0.000000
    14   Atom        0.000000      0.000002     -0.000000
    15   Atom        0.000000     -0.000000     -0.000000
    16   Atom       -0.000000     -0.000000     -0.000000
    17   Atom        0.000000     -0.000000     -0.000000
    18   Atom        0.000000     -0.000000     -0.000000
    19   Atom        0.000000      0.000001      0.000000
    20   Atom       -0.000000      0.000000      0.000000
    21   Atom       -0.000000      0.000003     -0.000000
    22   Atom        0.000000      0.000000     -0.000000
    23   Atom       -0.000000      0.000000     -0.000000
    24   Atom       -0.000000     -0.000000     -0.000000
    25   Atom       -0.000000      0.000000     -0.000000
    26   Atom        0.000000      0.000000      0.000000
    27   Atom       -0.000000      0.000000      0.000000
    28   Atom       -0.000000      0.000000      0.000000
 --------------------------------------------------------


 ---------------------------------------------------------------------------------
              Anisotropic Spin Dipole Couplings in Principal Axis System
 ---------------------------------------------------------------------------------

       Atom             a.u.   MegaHertz   Gauss  10(-4) cm-1        Axes

              Baa    -0.0000    -0.001    -0.000    -0.000  0.4389 -0.0161  0.8984
     1 C(13)  Bbb     0.0000     0.000     0.000     0.000  0.7436  0.5677 -0.3531
              Bcc     0.0000     0.000     0.000     0.000 -0.5044  0.8231  0.2611
 
              Baa    -0.0000    -0.000    -0.000    -0.000  0.3157  0.1440  0.9379
     2 C(13)  Bbb     0.0000     0.000     0.000     0.000  0.9118 -0.3195 -0.2579
              Bcc     0.0000     0.000     0.000     0.000  0.2625  0.9366 -0.2321
 
              Baa    -0.0000    -0.000    -0.000    -0.000  0.8712  0.2068 -0.4452
     3 H(1)   Bbb     0.0000     0.000     0.000     0.000  0.4564 -0.0071  0.8898
              Bcc     0.0000     0.000     0.000     0.000 -0.1809  0.9783  0.1006
 
              Baa    -0.0000    -0.000    -0.000    -0.000  0.8909 -0.0485 -0.4517
     4 H(1)   Bbb     0.0000     0.000     0.000     0.000  0.4078  0.5234  0.7481
              Bcc     0.0000     0.000     0.000     0.000 -0.2001  0.8507 -0.4860
 
              Baa    -0.0000    -0.000    -0.000    -0.000  0.3783  0.0665  0.9233
     5 C(13)  Bbb     0.0000     0.000     0.000     0.000 -0.6709  0.7069  0.2240
              Bcc     0.0000     0.000     0.000     0.000  0.6378  0.7042 -0.3121
 
              Baa    -0.0000    -0.000    -0.000    -0.000  0.2550  0.9342 -0.2496
     6 C(13)  Bbb    -0.0000    -0.000    -0.000    -0.000  0.9017 -0.3230 -0.2875
              Bcc     0.0000     0.000     0.000     0.000  0.3492  0.1517  0.9247
 
              Baa    -0.0000    -0.000    -0.000    -0.000 -0.6567  0.7309  0.1858
     7 H(1)   Bbb     0.0000     0.000     0.000     0.000  0.3715  0.0991  0.9231
              Bcc     0.0000     0.000     0.000     0.000  0.6563  0.6752 -0.3366
 
              Baa    -0.0000    -0.000    -0.000    -0.000 -0.1627  0.9348 -0.3157
     8 H(1)   Bbb    -0.0000    -0.000    -0.000    -0.000  0.4867  0.3543  0.7985
              Bcc     0.0000     0.000     0.000     0.000  0.8583 -0.0238 -0.5126
 
              Baa    -0.0000    -0.000    -0.000    -0.000 -0.5191  0.8495 -0.0942
     9 C(13)  Bbb     0.0000     0.000     0.000     0.000  0.2920  0.2799  0.9145
              Bcc     0.0000     0.000     0.000     0.000  0.8033  0.4472 -0.3934
 
              Baa    -0.0000    -0.000    -0.000    -0.000  0.0454  0.9929 -0.1097
    10 H(1)   Bbb     0.0000     0.000     0.000     0.000  0.3089  0.0905  0.9468
              Bcc     0.0000     0.000     0.000     0.000  0.9500 -0.0768 -0.3026
 
              Baa    -0.0000    -0.000    -0.000    -0.000 -0.4218 -0.6075  0.6731
    11 H(1)   Bbb    -0.0000    -0.000    -0.000    -0.000 -0.2072  0.7873  0.5807
              Bcc     0.0000     0.000     0.000     0.000  0.8827 -0.1055  0.4580
 
              Baa    -0.0000    -0.001    -0.000    -0.000  0.4148 -0.0337  0.9093
    12 C(13)  Bbb     0.0000     0.000     0.000     0.000  0.8855  0.2449 -0.3949
              Bcc     0.0000     0.000     0.000     0.000 -0.2094  0.9690  0.1314
 
              Baa    -0.0000    -0.000    -0.000    -0.000  0.5200  0.8280 -0.2097
    13 H(1)   Bbb    -0.0000    -0.000    -0.000    -0.000  0.4139 -0.0295  0.9099
              Bcc     0.0000     0.000     0.000     0.000  0.7472 -0.5599 -0.3580
 
              Baa    -0.0000    -0.000    -0.000    -0.000 -0.5103  0.8201  0.2591
    14 C(13)  Bbb    -0.0000    -0.000    -0.000    -0.000  0.7415  0.5721 -0.3504
              Bcc     0.0000     0.001     0.000     0.000  0.4356 -0.0133  0.9000
 
              Baa    -0.0000    -0.000    -0.000    -0.000 -0.1919  0.9759  0.1037
    15 H(1)   Bbb    -0.0000    -0.000    -0.000    -0.000  0.4519 -0.0059  0.8921
              Bcc     0.0000     0.000     0.000     0.000  0.8712  0.2181 -0.4398
 
              Baa    -0.0000    -0.000    -0.000    -0.000  0.1553  0.9796  0.1273
    16 C(13)  Bbb     0.0000     0.000     0.000     0.000  0.6002 -0.1959  0.7755
              Bcc     0.0000     0.000     0.000     0.000  0.7846 -0.0440 -0.6184
 
              Baa    -0.0000    -0.000    -0.000    -0.000  0.2069  0.0112  0.9783
    17 H(1)   Bbb    -0.0000    -0.000    -0.000    -0.000 -0.6206  0.7745  0.1224
              Bcc     0.0000     0.000     0.000     0.000  0.7563  0.6325 -0.1672
 
              Baa    -0.0000    -0.000    -0.000    -0.000  0.9077 -0.2153  0.3600
    18 H(1)   Bbb    -0.0000    -0.000    -0.000    -0.000 -0.2719  0.3515  0.8958
              Bcc     0.0000     0.000     0.000     0.000  0.3195  0.9111 -0.2605
 
              Baa    -0.0000    -0.000    -0.000    -0.000  0.7875  0.4963 -0.3654
    19 C(13)  Bbb    -0.0000    -0.000    -0.000    -0.000 -0.4851  0.8649  0.1294
              Bcc     0.0000     0.000     0.000     0.000  0.3803  0.0753  0.9218
 
              Baa    -0.0000    -0.000    -0.000    -0.000  0.6406  0.6797 -0.3574
    20 H(1)   Bbb    -0.0000    -0.000    -0.000    -0.000  0.3888  0.1142  0.9142
              Bcc     0.0000     0.000     0.000     0.000 -0.6622  0.7246  0.1911
 
              Baa    -0.0000    -0.000    -0.000    -0.000 -0.4848  0.8376  0.2520
    21 C(13)  Bbb    -0.0000    -0.000    -0.000    -0.000  0.7700  0.5453 -0.3312
              Bcc     0.0000     0.001     0.000     0.000  0.4148 -0.0335  0.9093
 
              Baa    -0.0000    -0.000    -0.000    -0.000  0.7553 -0.5473 -0.3606
    22 H(1)   Bbb     0.0000     0.000     0.000     0.000  0.4127 -0.0303  0.9104
              Bcc     0.0000     0.000     0.000     0.000  0.5091  0.8364 -0.2030
 
              Baa    -0.0000    -0.000    -0.000    -0.000  0.8111  0.4532 -0.3697
    23 C(13)  Bbb    -0.0000    -0.000    -0.000    -0.000  0.2344  0.3272  0.9154
              Bcc     0.0000     0.000     0.000     0.000 -0.5358  0.8292 -0.1591
 
              Baa    -0.0000    -0.000    -0.000    -0.000  0.9240  0.1031  0.3683
    24 H(1)   Bbb     0.0000     0.000     0.000     0.000 -0.3730  0.0301  0.9273
              Bcc     0.0000     0.000     0.000     0.000 -0.0845  0.9942 -0.0663
 
              Baa    -0.0000    -0.000    -0.000    -0.000  0.8221  0.0709 -0.5649
    25 H(1)   Bbb     0.0000     0.000     0.000     0.000  0.5320  0.2578  0.8066
              Bcc     0.0000     0.000     0.000     0.000 -0.2028  0.9636 -0.1742
 
              Baa    -0.0000    -0.000    -0.000    -0.000  0.7710 -0.0167 -0.6366
    26 C(13)  Bbb    -0.0000    -0.000    -0.000    -0.000  0.6250 -0.1720  0.7614
              Bcc     0.0000     0.000     0.000     0.000  0.1222  0.9850  0.1222
 
              Baa    -0.0000    -0.000    -0.000    -0.000  0.2713  0.9308 -0.2449
    27 H(1)   Bbb     0.0000     0.000     0.000     0.000 -0.2171  0.3071  0.9266
              Bcc     0.0000     0.000     0.000     0.000  0.9377 -0.1982  0.2854
 
              Baa    -0.0000    -0.000    -0.000    -0.000  0.6792  0.7253 -0.1122
    28 H(1)   Bbb     0.0000     0.000     0.000     0.000  0.7135 -0.6884 -0.1309
              Bcc     0.0000     0.000     0.000     0.000  0.1722 -0.0088  0.9850
 

 ---------------------------------------------------------------------------------

 No NMR shielding tensors so no spin-rotation constants.
 Leave Link  601 at Tue Aug  4 11:23:54 2020, MaxMem=  6442450944 cpu:               8.0 elap:               0.4
 (Enter /scratch/scicomp/CentOS/7.3.1611/Haswell/software/Gaussian/g16/l9999.exe)
 1\1\GINC-ATLAS-205\SP\UwB97XD\def2TZVP\C12H16\BOCHEN\04-Aug-2020\0\\#p
  uwb97xd guess=mix def2tzvp # scrf=(iefpcm,solvent=Cyclohexane,read) n
 osym 6d 10f\\endo-2 xp-pcm for eta=3\\0,1\C,0,-3.119292,-0.437085,0.24
 7292\C,0,-0.56937,-0.202476,-0.95934\H,0,-4.083426,-0.54976,0.729383\H
 ,0,0.380387,-0.117904,-1.468298\C,0,1.091078,1.405545,0.692127\C,0,0.5
 6937,0.202476,0.95934\H,0,0.517151,2.308513,0.856707\H,0,-0.380387,0.1
 17904,1.468298\C,0,1.469648,-0.999582,0.9933\H,0,1.920562,-0.988028,1.
 993185\H,0,0.906483,-1.928611,0.921226\C,0,2.419739,1.515988,0.111913\
 H,0,2.828521,2.505149,-0.057522\C,0,3.119292,0.437085,-0.247292\H,0,4.
 083426,0.54976,-0.729383\C,0,2.591527,-0.957486,-0.04532\H,0,2.251568,
 -1.354671,-1.0098\H,0,3.400483,-1.619871,0.270232\C,0,-1.091078,-1.405
 545,-0.692127\H,0,-0.517151,-2.308513,-0.856707\C,0,-2.419738,-1.51598
 8,-0.111913\H,0,-2.828521,-2.505149,0.057522\C,0,-1.469648,0.999582,-0
 .9933\H,0,-0.906482,1.928611,-0.921226\H,0,-1.920562,0.988028,-1.99318
 5\C,0,-2.591527,0.957486,0.04532\H,0,-3.400483,1.619871,-0.270232\H,0,
 -2.251568,1.354671,1.0098\\Version=ES64L-G16RevB.01\HF=-466.7836756\S2
 =0.\S2-1=0.\S2A=0.\RMSD=9.017e-09\Dipole=0.0001037,0.0005492,-0.002139
 4\Quadrupole=0.7819169,2.2601358,-3.0420527,-2.483481,-2.3948191,-0.97
 83991\PG=CI [X(C12H16)]\\@


 OUR LITTLE SYSTEMS HAVE THEIR DAY,    
   THEY HAVE THEIR DAY AND CEASE TO BE.
   THEY ARE BUT BROKEN LIGHTS OF THEE, 
 AND THOU, OH LORD, ART MORE THAN THEY.
          -------------------          
 LET KNOWLEDGE GROW FROM MORE TO MORE, 
   BUT MORE OF REVERENCE IN US DWELL.  
   THAT MIND AND SOUL, ACCORDING WELL, 
 MAY MAKE ONE MUSIC AS BEFORE.....     
          -------------------          
                    LORD TENNYSON      
 Job cpu time:       0 days  2 hours 17 minutes 21.1 seconds.
 Elapsed time:       0 days  0 hours  5 minutes 46.6 seconds.
 File lengths (MBytes):  RWF=    621 Int=      0 D2E=      0 Chk=     24 Scr=      1
 Normal termination of Gaussian 16 at Tue Aug  4 11:23:54 2020.
