 Entering Gaussian System, Link 0=g16
 Input=meso-TS_58_2_xp-Ger.com
 Output=meso-TS_58_2_xp-Ger.log
 Initial command:
 /scratch/scicomp/CentOS/7.3.1611/Haswell/software/Gaussian/g16/l1.exe "/scratch/bochen/cyclohexadiene-dimerization/wb97xd-def2tzvp/xp-pcm/meso/Gau-233451.inp" -scrdir="/scratch/bochen/cyclohexadiene-dimerization/wb97xd-def2tzvp/xp-pcm/meso/"
 Entering Link 1 = /scratch/scicomp/CentOS/7.3.1611/Haswell/software/Gaussian/g16/l1.exe PID=    233452.
  
 Copyright (c) 1988-2017, Gaussian, Inc.  All Rights Reserved.
  
 This is part of the Gaussian(R) 16 program.  It is based on
 the Gaussian(R) 09 system (copyright 2009, Gaussian, Inc.),
 the Gaussian(R) 03 system (copyright 2003, Gaussian, Inc.),
 the Gaussian(R) 98 system (copyright 1998, Gaussian, Inc.),
 the Gaussian(R) 94 system (copyright 1995, Gaussian, Inc.),
 the Gaussian 92(TM) system (copyright 1992, Gaussian, Inc.),
 the Gaussian 90(TM) system (copyright 1990, Gaussian, Inc.),
 the Gaussian 88(TM) system (copyright 1988, Gaussian, Inc.),
 the Gaussian 86(TM) system (copyright 1986, Carnegie Mellon
 University), and the Gaussian 82(TM) system (copyright 1983,
 Carnegie Mellon University). Gaussian is a federally registered
 trademark of Gaussian, Inc.
  
 This software contains proprietary and confidential information,
 including trade secrets, belonging to Gaussian, Inc.
  
 This software is provided under written license and may be
 used, copied, transmitted, or stored only in accord with that
 written license.
  
 The following legend is applicable only to US Government
 contracts under FAR:
  
                    RESTRICTED RIGHTS LEGEND
  
 Use, reproduction and disclosure by the US Government is
 subject to restrictions as set forth in subparagraphs (a)
 and (c) of the Commercial Computer Software - Restricted
 Rights clause in FAR 52.227-19.
  
 Gaussian, Inc.
 340 Quinnipiac St., Bldg. 40, Wallingford CT 06492
  
  
 ---------------------------------------------------------------
 Warning -- This program may not be used in any manner that
 competes with the business of Gaussian, Inc. or will provide
 assistance to any competitor of Gaussian, Inc.  The licensee
 of this program is prohibited from giving any competitor of
 Gaussian, Inc. access to this program.  By using this program,
 the user acknowledges that Gaussian, Inc. is engaged in the
 business of creating and licensing software in the field of
 computational chemistry and represents and warrants to the
 licensee that it is not a competitor of Gaussian, Inc. and that
 it will not use this program in any manner prohibited above.
 ---------------------------------------------------------------
  

 Cite this work as:
 Gaussian 16, Revision B.01,
 M. J. Frisch, G. W. Trucks, H. B. Schlegel, G. E. Scuseria, 
 M. A. Robb, J. R. Cheeseman, G. Scalmani, V. Barone, 
 G. A. Petersson, H. Nakatsuji, X. Li, M. Caricato, A. V. Marenich, 
 J. Bloino, B. G. Janesko, R. Gomperts, B. Mennucci, H. P. Hratchian, 
 J. V. Ortiz, A. F. Izmaylov, J. L. Sonnenberg, D. Williams-Young, 
 F. Ding, F. Lipparini, F. Egidi, J. Goings, B. Peng, A. Petrone, 
 T. Henderson, D. Ranasinghe, V. G. Zakrzewski, J. Gao, N. Rega, 
 G. Zheng, W. Liang, M. Hada, M. Ehara, K. Toyota, R. Fukuda, 
 J. Hasegawa, M. Ishida, T. Nakajima, Y. Honda, O. Kitao, H. Nakai, 
 T. Vreven, K. Throssell, J. A. Montgomery, Jr., J. E. Peralta, 
 F. Ogliaro, M. J. Bearpark, J. J. Heyd, E. N. Brothers, K. N. Kudin, 
 V. N. Staroverov, T. A. Keith, R. Kobayashi, J. Normand, 
 K. Raghavachari, A. P. Rendell, J. C. Burant, S. S. Iyengar, 
 J. Tomasi, M. Cossi, J. M. Millam, M. Klene, C. Adamo, R. Cammi, 
 J. W. Ochterski, R. L. Martin, K. Morokuma, O. Farkas, 
 J. B. Foresman, and D. J. Fox, Gaussian, Inc., Wallingford CT, 2016.
 
 ******************************************
 Gaussian 16:  ES64L-G16RevB.01 20-Dec-2017
                 4-Aug-2020 
 ******************************************
 %chk=meso-TS_58_2_xp-12.chk
 %nproc=24
 Will use up to   24 processors via shared memory.
 %mem=48GB
 ----------------------------------------------------------------------
 #p uwb97xd guess=mix def2tzvp # scrf=(iefpcm,solvent=Cyclohexane,read)
  nosym 6d 10f
 ----------------------------------------------------------------------
 1/38=1,40=2,172=1/1;
 2/12=2,15=1,17=6,18=5,40=1/2;
 3/5=44,7=101,8=22,11=2,25=1,30=1,70=2203,72=17,74=-58,116=2/1,2,3;
 4/13=-1/1;
 5/5=2,38=5,53=17/2;
 6/7=2,8=2,9=2,10=2,28=1/1;
 99/5=1,9=1/99;
 Leave Link    1 at Tue Aug  4 00:42:29 2020, MaxMem=  6442450944 cpu:               3.1 elap:               0.1
 (Enter /scratch/scicomp/CentOS/7.3.1611/Haswell/software/Gaussian/g16/l101.exe)
 -----------------------
 endo-2 xp-pcm for eta=3
 -----------------------
 Symbolic Z-matrix:
 Charge =  0 Multiplicity = 1
 6                    -3.12654  -0.44123   0.26819 
 6                    -0.75402  -0.25653  -1.27041 
 1                    -4.06271  -0.52977   0.80722 
 1                     0.19041  -0.17666  -1.79464 
 6                     1.18313   1.42926   0.81338 
 6                     0.75402   0.25653   1.27041 
 1                     0.59129   2.32604   0.95317 
 1                    -0.19041   0.17666   1.79464 
 6                     1.58454  -0.98735   1.13863 
 1                     2.13558  -1.11904   2.0787 
 1                     0.9363   -1.85938   1.04374 
 6                     2.46452   1.53174   0.11406 
 1                     2.86378   2.5164   -0.09795 
 6                     3.12654   0.44123  -0.26819 
 1                     4.06271   0.52977  -0.80722 
 6                     2.56996  -0.93669  -0.03365 
 1                     2.07583  -1.26812  -0.9552 
 1                     3.38118  -1.64698   0.13704 
 6                    -1.18313  -1.42926  -0.81338 
 1                    -0.59129  -2.32604  -0.95317 
 6                    -2.46452  -1.53174  -0.11406 
 1                    -2.86378  -2.5164    0.09795 
 6                    -1.58454   0.98735  -1.13863 
 1                    -0.9363    1.85938  -1.04374 
 1                    -2.13558   1.11904  -2.0787 
 6                    -2.56996   0.93669   0.03365 
 1                    -3.38118   1.64698  -0.13704 
 1                    -2.07583   1.26812   0.9552 
 
 ITRead=  0  0  0  0  0  0  0  0  0  0  0  0  0  0  0  0  0  0  0  0
 ITRead=  0  0  0  0  0  0  0  0
 MicOpt= -1 -1 -1 -1 -1 -1 -1 -1 -1 -1 -1 -1 -1 -1 -1 -1 -1 -1 -1 -1
 MicOpt= -1 -1 -1 -1 -1 -1 -1 -1
 NAtoms=     28 NQM=       28 NQMF=       0 NMMI=      0 NMMIF=      0
                NMic=       0 NMicF=      0.
                    Isotopes and Nuclear Properties:
 (Nuclear quadrupole moments (NQMom) in fm**2, nuclear magnetic moments (NMagM)
  in nuclear magnetons)

  Atom         1           2           3           4           5           6           7           8           9          10
 IAtWgt=          12          12           1           1          12          12           1           1          12           1
 AtmWgt=  12.0000000  12.0000000   1.0078250   1.0078250  12.0000000  12.0000000   1.0078250   1.0078250  12.0000000   1.0078250
 NucSpn=           0           0           1           1           0           0           1           1           0           1
 AtZEff=  -0.0000000  -0.0000000  -0.0000000  -0.0000000  -0.0000000  -0.0000000  -0.0000000  -0.0000000  -0.0000000  -0.0000000
 NQMom=    0.0000000   0.0000000   0.0000000   0.0000000   0.0000000   0.0000000   0.0000000   0.0000000   0.0000000   0.0000000
 NMagM=    0.0000000   0.0000000   2.7928460   2.7928460   0.0000000   0.0000000   2.7928460   2.7928460   0.0000000   2.7928460
 AtZNuc=   6.0000000   6.0000000   1.0000000   1.0000000   6.0000000   6.0000000   1.0000000   1.0000000   6.0000000   1.0000000

  Atom        11          12          13          14          15          16          17          18          19          20
 IAtWgt=           1          12           1          12           1          12           1           1          12           1
 AtmWgt=   1.0078250  12.0000000   1.0078250  12.0000000   1.0078250  12.0000000   1.0078250   1.0078250  12.0000000   1.0078250
 NucSpn=           1           0           1           0           1           0           1           1           0           1
 AtZEff=  -0.0000000  -0.0000000  -0.0000000  -0.0000000  -0.0000000  -0.0000000  -0.0000000  -0.0000000  -0.0000000  -0.0000000
 NQMom=    0.0000000   0.0000000   0.0000000   0.0000000   0.0000000   0.0000000   0.0000000   0.0000000   0.0000000   0.0000000
 NMagM=    2.7928460   0.0000000   2.7928460   0.0000000   2.7928460   0.0000000   2.7928460   2.7928460   0.0000000   2.7928460
 AtZNuc=   1.0000000   6.0000000   1.0000000   6.0000000   1.0000000   6.0000000   1.0000000   1.0000000   6.0000000   1.0000000

  Atom        21          22          23          24          25          26          27          28
 IAtWgt=          12           1          12           1           1          12           1           1
 AtmWgt=  12.0000000   1.0078250  12.0000000   1.0078250   1.0078250  12.0000000   1.0078250   1.0078250
 NucSpn=           0           1           0           1           1           0           1           1
 AtZEff=  -0.0000000  -0.0000000  -0.0000000  -0.0000000  -0.0000000  -0.0000000  -0.0000000  -0.0000000
 NQMom=    0.0000000   0.0000000   0.0000000   0.0000000   0.0000000   0.0000000   0.0000000   0.0000000
 NMagM=    0.0000000   2.7928460   0.0000000   2.7928460   2.7928460   0.0000000   2.7928460   2.7928460
 AtZNuc=   6.0000000   1.0000000   6.0000000   1.0000000   1.0000000   6.0000000   1.0000000   1.0000000
 Leave Link  101 at Tue Aug  4 00:42:29 2020, MaxMem=  6442450944 cpu:               2.4 elap:               0.1
 (Enter /scratch/scicomp/CentOS/7.3.1611/Haswell/software/Gaussian/g16/l202.exe)
                          Input orientation:                          
 ---------------------------------------------------------------------
 Center     Atomic      Atomic             Coordinates (Angstroms)
 Number     Number       Type             X           Y           Z
 ---------------------------------------------------------------------
      1          6           0       -3.126543   -0.441233    0.268190
      2          6           0       -0.754024   -0.256533   -1.270411
      3          1           0       -4.062711   -0.529769    0.807219
      4          1           0        0.190409   -0.176659   -1.794641
      5          6           0        1.183128    1.429264    0.813376
      6          6           0        0.754024    0.256533    1.270411
      7          1           0        0.591290    2.326044    0.953170
      8          1           0       -0.190409    0.176659    1.794641
      9          6           0        1.584536   -0.987345    1.138633
     10          1           0        2.135575   -1.119037    2.078702
     11          1           0        0.936296   -1.859379    1.043739
     12          6           0        2.464520    1.531740    0.114055
     13          1           0        2.863784    2.516400   -0.097950
     14          6           0        3.126543    0.441233   -0.268190
     15          1           0        4.062711    0.529769   -0.807219
     16          6           0        2.569963   -0.936686   -0.033648
     17          1           0        2.075826   -1.268120   -0.955200
     18          1           0        3.381182   -1.646980    0.137036
     19          6           0       -1.183128   -1.429264   -0.813376
     20          1           0       -0.591290   -2.326044   -0.953170
     21          6           0       -2.464520   -1.531740   -0.114055
     22          1           0       -2.863784   -2.516400    0.097950
     23          6           0       -1.584536    0.987345   -1.138633
     24          1           0       -0.936296    1.859379   -1.043739
     25          1           0       -2.135575    1.119037   -2.078702
     26          6           0       -2.569963    0.936686    0.033648
     27          1           0       -3.381182    1.646980   -0.137036
     28          1           0       -2.075826    1.268120    0.955200
 ---------------------------------------------------------------------
                    Distance matrix (angstroms):
                    1          2          3          4          5
     1  C    0.000000
     2  C    2.833770   0.000000
     3  H    1.083883   3.916454   0.000000
     4  H    3.915028   1.083121   4.998339   0.000000
     5  C    4.729614   3.307059   5.599703   3.219663   0.000000
     6  C    4.068184   2.998870   4.902423   3.146404   1.329778
     7  H    4.685008   3.663862   5.462298   3.738274   1.083526
     8  H    3.366411   3.146404   4.058173   3.626679   2.102024
     9  C    4.821843   3.436050   5.675439   3.347372   2.471218
    10  H    5.606002   4.506690   6.354735   4.435598   3.000341
    11  H    4.372559   3.283533   5.178212   3.382942   3.305929
    12  C    5.930967   3.933661   6.880047   3.425395   1.463392
    13  H    6.690715   4.706629   7.620683   4.156713   2.199315
    14  C    6.337786   4.068184   7.333807   3.366411   2.433691
    15  H    7.333807   4.902423   8.351737   4.058173   3.424532
    16  C    5.725972   3.611244   6.698134   3.056307   2.870275
    17  H    5.407871   3.021708   6.429068   2.334683   3.346737
    18  H    6.619782   4.584122   7.557040   4.009271   3.840853
    19  C    2.433691   1.329778   3.424532   2.102024   4.051749
    20  H    3.386996   2.100000   4.286763   2.437003   4.513489
    21  C    1.331762   2.426749   2.099263   3.421880   4.788842
    22  H    2.098652   3.380902   2.426353   4.287701   5.697157
    23  C    2.529382   1.501449   3.497045   2.221639   3.415493
    24  H    3.436736   2.135811   4.348396   2.445152   2.850585
    25  H    2.987367   2.110500   3.841999   2.677633   4.412952
    26  C    1.504477   2.534162   2.230964   3.493112   3.864751
    27  H    2.142354   3.436548   2.468671   4.339306   4.667291
    28  H    2.120820   3.004176   2.683657   3.845105   3.266016
                    6          7          8          9         10
     6  C    0.000000
     7  H    2.100000   0.000000
     8  H    1.083121   2.437003   0.000000
     9  C    1.501449   3.464027   2.221639   0.000000
    10  H    2.110500   3.939571   2.677633   1.097596   0.000000
    11  H    2.135811   4.200595   2.445152   1.090717   1.748578
    12  C    2.426749   2.200914   3.421880   2.858307   3.315820
    13  H    3.380902   2.511039   4.287701   3.929611   4.299361
    14  C    2.833770   3.386996   3.915028   2.529382   2.987367
    15  H    3.916454   4.286763   4.998339   3.497045   3.841999
    16  C    2.534162   3.941366   3.493112   1.532278   2.164248
    17  H    3.004176   4.331713   3.845105   2.168948   3.038150
    18  H    3.436548   4.922854   4.339306   2.160151   2.366501
    19  C    3.307059   4.513489   3.219663   3.415493   4.412952
    20  H    3.663862   5.164741   3.738274   3.301814   4.252635
    21  C    3.933661   5.035816   3.425395   4.273225   5.112669
    22  H    4.706629   6.009842   4.156713   4.817529   5.556041
    23  C    3.436050   3.301814   3.347372   4.373598   5.350450
    24  H    3.283533   2.557135   3.382942   4.384197   5.296885
    25  H    4.506690   4.252635   4.435598   5.350450   6.366766
    26  C    3.611244   3.573424   3.056307   4.709857   5.527235
    27  H    4.584122   4.174950   4.009271   5.764144   6.557054
    28  H    3.021708   2.869271   2.334683   4.303373   4.969575
                   11         12         13         14         15
    11  H    0.000000
    12  C    3.833989   0.000000
    13  H    4.915903   1.083473   0.000000
    14  C    3.436736   1.331762   2.098652   0.000000
    15  H    4.348396   2.099263   2.426353   1.083883   0.000000
    16  C    2.163560   2.475088   3.466160   1.504477   2.230964
    17  H    2.375684   3.022186   3.959589   2.120820   2.683657
    18  H    2.616236   3.308332   4.201982   2.142354   2.468671
    19  C    2.850585   4.788842   5.697157   4.729614   5.599703
    20  H    2.557135   5.035816   6.009842   4.685008   5.462298
    21  C    3.607407   5.807958   6.691675   5.930967   6.880047
    22  H    3.970743   6.691675   7.627089   6.690715   7.620683
    23  C    4.384197   4.273225   4.817529   4.821843   5.675439
    24  H    4.657610   3.607407   3.970743   4.372559   5.178212
    25  H    5.296885   5.112669   5.556041   5.606002   6.354735
    26  C    4.596968   5.070165   5.660249   5.725972   6.698134
    27  H    5.685895   5.852227   6.305317   6.619782   7.557040
    28  H    4.343037   4.625123   5.202603   5.407871   6.429068
                   16         17         18         19         20
    16  C    0.000000
    17  H    1.096940   0.000000
    18  H    1.091662   1.743694   0.000000
    19  C    3.864751   3.266016   4.667291   0.000000
    20  H    3.573424   2.869271   4.174950   1.083526   0.000000
    21  C    5.070165   4.625123   5.852227   1.463392   2.200914
    22  H    5.660249   5.202603   6.305317   2.199315   2.511039
    23  C    4.709857   4.303373   5.764144   2.471218   3.464027
    24  H    4.596968   4.343037   5.685895   3.305929   4.200595
    25  H    5.527235   4.969575   6.557054   3.000341   3.939571
    26  C    5.471096   5.236635   6.488617   2.870275   3.941366
    27  H    6.488617   6.240684   7.526942   3.840853   4.922854
    28  H    5.236635   5.226696   6.240684   3.346737   4.331713
                   21         22         23         24         25
    21  C    0.000000
    22  H    1.083473   0.000000
    23  C    2.858307   3.929611   0.000000
    24  H    3.833989   4.915903   1.090717   0.000000
    25  H    3.315820   4.299361   1.097596   1.748578   0.000000
    26  C    2.475088   3.466160   1.532278   2.163560   2.164248
    27  H    3.308332   4.201982   2.160151   2.616236   2.366501
    28  H    3.022186   3.959589   2.168948   2.375684   3.038150
                   26         27         28
    26  C    0.000000
    27  H    1.091662   0.000000
    28  H    1.096940   1.743694   0.000000
 Symmetry turned off by external request.
 Stoichiometry    C12H16
 Framework group  CI[X(C12H16)]
 Deg. of freedom    39
 Full point group                 CI      NOp   2
 Rotational constants (GHZ):           1.7367947           0.5884357           0.5336477
 Leave Link  202 at Tue Aug  4 00:42:29 2020, MaxMem=  6442450944 cpu:               0.3 elap:               0.0
 (Enter /scratch/scicomp/CentOS/7.3.1611/Haswell/software/Gaussian/g16/l301.exe)
 Standard basis: def2TZVP (6D, 10F)
 Ernie: Thresh=  0.10000D-02 Tol=  0.10000D-05 Strict=F.
   528 basis functions,   740 primitive gaussians,   528 cartesian basis functions
    44 alpha electrons       44 beta electrons
       nuclear repulsion energy       674.3036105176 Hartrees.
 IExCor= 4639 DFT=T Ex+Corr=wB97XD ExCW=0 ScaHFX=  1.000000
 ScaDFX=  1.000000  1.000000  1.000000  1.000000 ScalE2=  1.000000  1.000000
 IRadAn=      5 IRanWt=     -1 IRanGd=            0 ICorTp=0 IEmpDi=121
 HFx  wShort=  0.000000 wLong=  0.200000 cFull=  0.222036 cShort=  0.000000 cLong=  0.777964
 DFx  wShort=  0.000000 wLong=  0.200000 cFull=  0.000000 cShort=  0.000000 cLong=  1.000000
 NAtoms=   28 NActive=   28 NUniq=   28 SFac= 1.00D+00 NAtFMM=   60 NAOKFM=F Big=F
 Integral buffers will be    131072 words long.
 Raffenetti 2 integral format.
 Two-electron integral symmetry is turned off.
 R6Disp:  Grimme-D2 Dispersion energy=       -0.0219030452 Hartrees.
 Nuclear repulsion after empirical dispersion term =      674.2817074724 Hartrees.
 Using the following non-standard input for PCM:
 qrep pcmdoc geomview  nodis nocav g03defaults tsare=0.075
 Warning! Using old PCM defaults because the g03defaults keyword was found.
 These settings can be overridden by following keywords.
 nsfe=28
 NVESolv=36  SolvMW=84.1595   Rsolv=2.815
 eps=2.0165 RhoS=0.778099999999998
 --- end of non-standard input.
 Reading user-defined spheres from input:
 ISph  on   Nord    Re0     Alpha      Xe            Ye            Ze
 --- end of user-defined spheres data.
 ------------------------------------------------------------------------------
 Polarizable Continuum Model (PCM)
 =================================
 Model                : PCM.
 Atomic radii         : UA0 (Simple United Atom Topological Model).
 Polarization charges : Total charges.
 Charge compensation  : None.
 Solution method      : On-the-fly selection.
 Cavity type          : SES (Solvent Excluding Surface) (Alpha=1.000).
 Cavity algorithm     : GePol (RMin=0.200 OFac=0.890).
                        User-defined sphere list used, NSphG=   28.
                        Tesserae with average area of 0.075 Ang**2.
                        Smoothing algorithm: None.
                        Polarization charges: point-like.
                        Self-potential: constant (ISelfS= 1).
                        Self-field    : global E.n sum rule (ISelfD= 3).
 Solvent              : CycloHexane, Eps=   2.016500 Eps(inf)=   2.035188
                        RSolv=   2.815000 Ang.
 ------------------------------------------------------------------------------
 GePol: Number of generator spheres                  =      28
 GePol: Total number of spheres                      =     181
 GePol: Number of exposed spheres                    =     126 ( 69.61%)
 GePol: Number of tesserae                           =    4645
 GePol: Average area of tesserae                     =       0.05 Ang**2
 GePol: Minimum area of tessera                      =   0.10D-02 Ang**2
 GePol: Maximum area of tessera                      =    0.12447 Ang**2
 GePol: Number of small tesserae                     =       0
 GePol: Fraction of small tesserae (<1% of avg)      =       0.00%
 GePol: Total count of vertices                      =   16448
 GePol: Maximum number of vertices in a tessera      =       7
 GePol: Cavity surface area                          =    223.086 Ang**2
 GePol: Cavity volume                                =    253.954 Ang**3
 Leave Link  301 at Tue Aug  4 00:42:30 2020, MaxMem=  6442450944 cpu:               7.9 elap:               0.4
 (Enter /scratch/scicomp/CentOS/7.3.1611/Haswell/software/Gaussian/g16/l302.exe)
 NPDir=0 NMtPBC=     1 NCelOv=     1 NCel=       1 NClECP=     1 NCelD=      1
         NCelK=      1 NCelE2=     1 NClLst=     1 CellRange=     0.0.
 One-electron integrals computed using PRISM.
   1 Symmetry operations used in ECPInt.
 ECPInt:  NShTT=   19306 NPrTT=   56928 LenC2=   18471 LenP2D=   41863.
 LDataN:  DoStor=T MaxTD1= 6 Len=  172
 NBasis=   528 RedAO= T EigKep=  1.89D-05  NBF=   528
 NBsUse=   528 1.00D-06 EigRej= -1.00D+00 NBFU=   528
 Precomputing XC quadrature grid using
 IXCGrd= 4 IRadAn=           5 IRanWt=          -1 IRanGd=           0 AccXCQ= 0.00D+00.
 Generated NRdTot=       0 NPtTot=           0 NUsed=           0 NTot=          32
 NSgBfM=   525   524   524   525   525 MxSgAt=    28 MxSgA2=    28.
 Leave Link  302 at Tue Aug  4 00:42:30 2020, MaxMem=  6442450944 cpu:              12.7 elap:               0.6
 (Enter /scratch/scicomp/CentOS/7.3.1611/Haswell/software/Gaussian/g16/l303.exe)
 DipDrv:  MaxL=1.
 Leave Link  303 at Tue Aug  4 00:42:30 2020, MaxMem=  6442450944 cpu:               1.5 elap:               0.1
 (Enter /scratch/scicomp/CentOS/7.3.1611/Haswell/software/Gaussian/g16/l401.exe)
 ExpMin= 9.52D-02 ExpMax= 1.36D+04 ExpMxC= 4.63D+02 IAcc=3 IRadAn=         5 AccDes= 0.00D+00
 Harris functional with IExCor= 4639 and IRadAn=       5 diagonalized for initial guess.
 HarFok:  IExCor= 4639 AccDes= 0.00D+00 IRadAn=         5 IDoV= 1 UseB2=F ITyADJ=14
 ICtDFT=  3500011 ScaDFX=  1.000000  1.000000  1.000000  1.000000
 FoFCou: FMM=F IPFlag=           0 FMFlag=      100000 FMFlg1=           0
         NFxFlg=           0 DoJE=T BraDBF=F KetDBF=T FulRan=T
         wScrn=  0.000000 ICntrl=       500 IOpCl=  0 I1Cent=   200000004 NGrid=           0
         NMat0=    1 NMatS0=      1 NMatT0=    0 NMatD0=    1 NMtDS0=    0 NMtDT0=    0
 Symmetry not used in FoFCou.
 Harris En= -444.658294739938    
 JPrj=0 DoOrth=F DoCkMO=T.
 Mixing orbitals, IMix= 1 IMixAn=  0 NRI=1 NE=   44 Coef=  7.07106781D-01  7.07106781D-01
 Mixing orbitals, IMix= 1 IMixAn=  0 NRI=1 NE=   44 Coef= -7.07106781D-01  7.07106781D-01
 Initial guess <Sx>= 0.0000 <Sy>= 0.0000 <Sz>= 0.0000 <S**2>= 1.0000 S= 0.6180
 Leave Link  401 at Tue Aug  4 00:42:33 2020, MaxMem=  6442450944 cpu:              48.7 elap:               2.1
 (Enter /scratch/scicomp/CentOS/7.3.1611/Haswell/software/Gaussian/g16/l502.exe)
 Two-electron integral symmetry not used.
 UHF open shell SCF:
 Using DIIS extrapolation, IDIIS=  1040.
 NGot=  6442450944 LenX=  6441877030 LenY=  6441597718
 Requested convergence on RMS density matrix=1.00D-08 within 128 cycles.
 Requested convergence on MAX density matrix=1.00D-06.
 Requested convergence on             energy=1.00D-06.
 No special actions if energy rises.
 Fock matrices will be formed incrementally for  20 cycles.

 Cycle   1  Pass 1  IDiag  1:
 FoFJK:  IHMeth= 1 ICntrl=       0 DoSepK=T KAlg= 0 I1Cent=           0 FoldK=F
 IRaf=         1 NMat=       1 IRICut=       1 DoRegI=T DoRafI=F ISym2E= 0 IDoP0=0 IntGTp=1.
 FoFCou: FMM=F IPFlag=           0 FMFlag=      100000 FMFlg1=           0
         NFxFlg=           0 DoJE=T BraDBF=F KetDBF=F FulRan=T
         wScrn=  0.000000 ICntrl=       500 IOpCl=  0 I1Cent=           0 NGrid=           0
         NMat0=    1 NMatS0=      1 NMatT0=    0 NMatD0=    1 NMtDS0=    0 NMtDT0=    0
 Symmetry not used in FoFCou.
 Inv3:  Mode=1 IEnd=    64728075.
 Iteration    1 A*A^-1 deviation from unit magnitude is 3.55D-15 for   2515.
 Iteration    1 A*A^-1 deviation from orthogonality  is 1.54D-15 for   1757   1748.
 Iteration    1 A^-1*A deviation from unit magnitude is 3.55D-15 for   2515.
 Iteration    1 A^-1*A deviation from orthogonality  is 1.85D-15 for    372    353.
 E= -466.568142051211    
 DIIS: error= 5.29D-02 at cycle   1 NSaved=   1.
 NSaved= 1 IEnMin= 1 EnMin= -466.568142051211     IErMin= 1 ErrMin= 5.29D-02
 ErrMax= 5.29D-02  0.00D+00 EMaxC= 1.00D-01 BMatC= 4.12D+00 BMatP= 4.12D+00
 IDIUse=3 WtCom= 4.71D-01 WtEn= 5.29D-01
 Coeff-Com:  0.100D+01
 Coeff-En:   0.100D+01
 Coeff:      0.100D+01
 Gap=     0.181 Goal=   None    Shift=    0.000
 Gap=     0.181 Goal=   None    Shift=    0.000
 GapD=    0.181 DampG=1.000 DampE=0.500 DampFc=0.5000 IDamp=-1.
 Damping current iteration by 5.00D-01
 RMSDP=1.70D-03 MaxDP=9.30D-02              OVMax= 3.54D-01

 Cycle   2  Pass 1  IDiag  1:
 RMSU=  8.18D-04    CP:  9.63D-01
 E= -466.680881035460     Delta-E=       -0.112738984249 Rises=F Damp=T
 DIIS: error= 2.52D-02 at cycle   2 NSaved=   2.
 NSaved= 2 IEnMin= 2 EnMin= -466.680881035460     IErMin= 2 ErrMin= 2.52D-02
 ErrMax= 2.52D-02  0.00D+00 EMaxC= 1.00D-01 BMatC= 9.37D-01 BMatP= 4.12D+00
 IDIUse=3 WtCom= 7.48D-01 WtEn= 2.52D-01
 Coeff-Com: -0.869D+00 0.187D+01
 Coeff-En:   0.000D+00 0.100D+01
 Coeff:     -0.650D+00 0.165D+01
 Gap=     0.280 Goal=   None    Shift=    0.000
 Gap=     0.280 Goal=   None    Shift=    0.000
 RMSDP=1.21D-03 MaxDP=4.97D-02 DE=-1.13D-01 OVMax= 1.39D-01

 Cycle   3  Pass 1  IDiag  1:
 RMSU=  5.92D-04    CP:  9.08D-01  2.22D+00
 E= -466.828734848316     Delta-E=       -0.147853812856 Rises=F Damp=F
 DIIS: error= 7.86D-03 at cycle   3 NSaved=   3.
 NSaved= 3 IEnMin= 3 EnMin= -466.828734848316     IErMin= 3 ErrMin= 7.86D-03
 ErrMax= 7.86D-03  0.00D+00 EMaxC= 1.00D-01 BMatC= 2.32D-02 BMatP= 9.37D-01
 IDIUse=3 WtCom= 9.21D-01 WtEn= 7.86D-02
 Coeff-Com: -0.312D+00 0.668D+00 0.643D+00
 Coeff-En:   0.000D+00 0.000D+00 0.100D+01
 Coeff:     -0.287D+00 0.616D+00 0.671D+00
 Gap=     0.302 Goal=   None    Shift=    0.000
 Gap=     0.302 Goal=   None    Shift=    0.000
 RMSDP=2.16D-04 MaxDP=1.10D-02 DE=-1.48D-01 OVMax= 6.49D-02

 Cycle   4  Pass 1  IDiag  1:
 RMSU=  1.99D-04    CP:  9.01D-01  2.31D+00  1.01D+00
 E= -466.839372107671     Delta-E=       -0.010637259355 Rises=F Damp=F
 DIIS: error= 5.15D-03 at cycle   4 NSaved=   4.
 NSaved= 4 IEnMin= 4 EnMin= -466.839372107671     IErMin= 4 ErrMin= 5.15D-03
 ErrMax= 5.15D-03  0.00D+00 EMaxC= 1.00D-01 BMatC= 2.07D-03 BMatP= 2.32D-02
 IDIUse=3 WtCom= 9.49D-01 WtEn= 5.15D-02
 Coeff-Com:  0.147D+00-0.315D+00-0.751D-01 0.124D+01
 Coeff-En:   0.000D+00 0.000D+00 0.000D+00 0.100D+01
 Coeff:      0.139D+00-0.298D+00-0.712D-01 0.123D+01
 Gap=     0.313 Goal=   None    Shift=    0.000
 Gap=     0.313 Goal=   None    Shift=    0.000
 RMSDP=2.18D-04 MaxDP=1.27D-02 DE=-1.06D-02 OVMax= 7.76D-02

 Cycle   5  Pass 1  IDiag  1:
 RMSU=  8.69D-05    CP:  8.95D-01  2.36D+00  1.25D+00  1.65D+00
 E= -466.844053127068     Delta-E=       -0.004681019397 Rises=F Damp=F
 DIIS: error= 2.30D-03 at cycle   5 NSaved=   5.
 NSaved= 5 IEnMin= 5 EnMin= -466.844053127068     IErMin= 5 ErrMin= 2.30D-03
 ErrMax= 2.30D-03  0.00D+00 EMaxC= 1.00D-01 BMatC= 8.34D-04 BMatP= 2.07D-03
 IDIUse=3 WtCom= 9.77D-01 WtEn= 2.30D-02
 Coeff-Com:  0.632D-01-0.136D+00-0.684D-01 0.360D+00 0.781D+00
 Coeff-En:   0.000D+00 0.000D+00 0.000D+00 0.000D+00 0.100D+01
 Coeff:      0.617D-01-0.132D+00-0.669D-01 0.351D+00 0.786D+00
 Gap=     0.315 Goal=   None    Shift=    0.000
 Gap=     0.315 Goal=   None    Shift=    0.000
 RMSDP=7.55D-05 MaxDP=3.30D-03 DE=-4.68D-03 OVMax= 2.73D-02

 Cycle   6  Pass 1  IDiag  1:
 RMSU=  3.16D-05    CP:  8.93D-01  2.37D+00  1.28D+00  1.92D+00  1.39D+00
 E= -466.845382556936     Delta-E=       -0.001329429869 Rises=F Damp=F
 DIIS: error= 1.69D-03 at cycle   6 NSaved=   6.
 NSaved= 6 IEnMin= 6 EnMin= -466.845382556936     IErMin= 6 ErrMin= 1.69D-03
 ErrMax= 1.69D-03  0.00D+00 EMaxC= 1.00D-01 BMatC= 5.23D-04 BMatP= 8.34D-04
 IDIUse=3 WtCom= 9.83D-01 WtEn= 1.69D-02
 Coeff-Com: -0.817D-01 0.175D+00 0.573D-01-0.606D+00 0.659D-01 0.139D+01
 Coeff-En:   0.000D+00 0.000D+00 0.000D+00 0.000D+00 0.000D+00 0.100D+01
 Coeff:     -0.803D-01 0.172D+00 0.563D-01-0.596D+00 0.648D-01 0.138D+01
 Gap=     0.312 Goal=   None    Shift=    0.000
 Gap=     0.312 Goal=   None    Shift=    0.000
 RMSDP=1.02D-04 MaxDP=4.06D-03 DE=-1.33D-03 OVMax= 3.77D-02

 Cycle   7  Pass 1  IDiag  1:
 RMSU=  3.11D-05    CP:  8.91D-01  2.37D+00  1.33D+00  2.22D+00  2.09D+00
                    CP:  2.25D+00
 E= -466.847006322765     Delta-E=       -0.001623765828 Rises=F Damp=F
 DIIS: error= 1.08D-03 at cycle   7 NSaved=   7.
 NSaved= 7 IEnMin= 7 EnMin= -466.847006322765     IErMin= 7 ErrMin= 1.08D-03
 ErrMax= 1.08D-03  0.00D+00 EMaxC= 1.00D-01 BMatC= 2.67D-04 BMatP= 5.23D-04
 IDIUse=3 WtCom= 9.89D-01 WtEn= 1.08D-02
 Coeff-Com: -0.237D-01 0.513D-01 0.412D-01 0.608D-02-0.718D+00-0.518D+00
 Coeff-Com:  0.216D+01
 Coeff-En:   0.000D+00 0.000D+00 0.000D+00 0.000D+00 0.000D+00 0.000D+00
 Coeff-En:   0.100D+01
 Coeff:     -0.234D-01 0.508D-01 0.408D-01 0.601D-02-0.711D+00-0.512D+00
 Coeff:      0.215D+01
 Gap=     0.312 Goal=   None    Shift=    0.000
 Gap=     0.312 Goal=   None    Shift=    0.000
 RMSDP=1.40D-04 MaxDP=6.62D-03 DE=-1.62D-03 OVMax= 5.22D-02

 Cycle   8  Pass 1  IDiag  1:
 RMSU=  5.43D-05    CP:  8.89D-01  2.36D+00  1.37D+00  2.54D+00  2.98D+00
                    CP:  3.00D+00  2.72D+00
 E= -466.848427744643     Delta-E=       -0.001421421878 Rises=F Damp=F
 DIIS: error= 3.72D-04 at cycle   8 NSaved=   8.
 NSaved= 8 IEnMin= 8 EnMin= -466.848427744643     IErMin= 8 ErrMin= 3.72D-04
 ErrMax= 3.72D-04  0.00D+00 EMaxC= 1.00D-01 BMatC= 6.40D-05 BMatP= 2.67D-04
 IDIUse=3 WtCom= 9.96D-01 WtEn= 3.72D-03
 Coeff-Com:  0.253D-01-0.543D-01-0.742D-02 0.268D+00-0.236D+00-0.733D+00
 Coeff-Com:  0.633D+00 0.111D+01
 Coeff-En:   0.000D+00 0.000D+00 0.000D+00 0.000D+00 0.000D+00 0.000D+00
 Coeff-En:   0.000D+00 0.100D+01
 Coeff:      0.252D-01-0.541D-01-0.739D-02 0.267D+00-0.235D+00-0.731D+00
 Coeff:      0.630D+00 0.110D+01
 Gap=     0.314 Goal=   None    Shift=    0.000
 Gap=     0.314 Goal=   None    Shift=    0.000
 RMSDP=6.48D-05 MaxDP=3.16D-03 DE=-1.42D-03 OVMax= 2.36D-02

 Cycle   9  Pass 1  IDiag  1:
 RMSU=  3.88D-05    CP:  8.88D-01  2.36D+00  1.38D+00  2.65D+00  3.00D+00
                    CP:  3.00D+00  3.00D+00  1.73D+00
 E= -466.848674567383     Delta-E=       -0.000246822740 Rises=F Damp=F
 DIIS: error= 1.22D-04 at cycle   9 NSaved=   9.
 NSaved= 9 IEnMin= 9 EnMin= -466.848674567383     IErMin= 9 ErrMin= 1.22D-04
 ErrMax= 1.22D-04  0.00D+00 EMaxC= 1.00D-01 BMatC= 1.02D-05 BMatP= 6.40D-05
 IDIUse=3 WtCom= 9.99D-01 WtEn= 1.22D-03
 Coeff-Com:  0.131D-01-0.282D-01-0.892D-02 0.941D-01 0.322D-01-0.172D+00
 Coeff-Com: -0.121D+00 0.317D+00 0.874D+00
 Coeff-En:   0.000D+00 0.000D+00 0.000D+00 0.000D+00 0.000D+00 0.000D+00
 Coeff-En:   0.000D+00 0.000D+00 0.100D+01
 Coeff:      0.131D-01-0.282D-01-0.890D-02 0.940D-01 0.321D-01-0.172D+00
 Coeff:     -0.121D+00 0.317D+00 0.874D+00
 Gap=     0.313 Goal=   None    Shift=    0.000
 Gap=     0.313 Goal=   None    Shift=    0.000
 RMSDP=1.62D-05 MaxDP=8.01D-04 DE=-2.47D-04 OVMax= 5.87D-03

 Cycle  10  Pass 1  IDiag  1:
 RMSU=  4.98D-06    CP:  8.87D-01  2.36D+00  1.39D+00  2.66D+00  3.00D+00
                    CP:  3.00D+00  3.00D+00  1.91D+00  1.28D+00
 E= -466.848693576665     Delta-E=       -0.000019009281 Rises=F Damp=F
 DIIS: error= 5.37D-05 at cycle  10 NSaved=  10.
 NSaved=10 IEnMin=10 EnMin= -466.848693576665     IErMin=10 ErrMin= 5.37D-05
 ErrMax= 5.37D-05  0.00D+00 EMaxC= 1.00D-01 BMatC= 1.72D-06 BMatP= 1.02D-05
 IDIUse=1 WtCom= 1.00D+00 WtEn= 0.00D+00
 Coeff-Com: -0.154D-02 0.333D-02-0.575D-03-0.290D-01 0.448D-01 0.932D-01
 Coeff-Com: -0.123D+00-0.180D+00 0.184D+00 0.101D+01
 Coeff:     -0.154D-02 0.333D-02-0.575D-03-0.290D-01 0.448D-01 0.932D-01
 Coeff:     -0.123D+00-0.180D+00 0.184D+00 0.101D+01
 Gap=     0.313 Goal=   None    Shift=    0.000
 Gap=     0.313 Goal=   None    Shift=    0.000
 RMSDP=7.00D-06 MaxDP=3.43D-04 DE=-1.90D-05 OVMax= 2.68D-03

 Cycle  11  Pass 1  IDiag  1:
 RMSU=  2.44D-06    CP:  8.87D-01  2.36D+00  1.39D+00  2.67D+00  3.00D+00
                    CP:  3.00D+00  3.00D+00  1.97D+00  1.39D+00  1.37D+00
 E= -466.848696259021     Delta-E=       -0.000002682357 Rises=F Damp=F
 DIIS: error= 2.17D-05 at cycle  11 NSaved=  11.
 NSaved=11 IEnMin=11 EnMin= -466.848696259021     IErMin=11 ErrMin= 2.17D-05
 ErrMax= 2.17D-05  0.00D+00 EMaxC= 1.00D-01 BMatC= 3.85D-07 BMatP= 1.72D-06
 IDIUse=1 WtCom= 1.00D+00 WtEn= 0.00D+00
 Coeff-Com: -0.148D-02 0.319D-02 0.364D-03-0.176D-01 0.140D-01 0.457D-01
 Coeff-Com: -0.325D-01-0.952D-01-0.448D-02 0.402D+00 0.686D+00
 Coeff:     -0.148D-02 0.319D-02 0.364D-03-0.176D-01 0.140D-01 0.457D-01
 Coeff:     -0.325D-01-0.952D-01-0.448D-02 0.402D+00 0.686D+00
 Gap=     0.313 Goal=   None    Shift=    0.000
 Gap=     0.313 Goal=   None    Shift=    0.000
 RMSDP=1.15D-06 MaxDP=6.36D-05 DE=-2.68D-06 OVMax= 3.19D-04

 Cycle  12  Pass 1  IDiag  1:
 RMSU=  7.72D-07    CP:  8.87D-01  2.36D+00  1.39D+00  2.67D+00  3.00D+00
                    CP:  3.00D+00  3.00D+00  1.98D+00  1.41D+00  1.41D+00
                    CP:  1.23D+00
 E= -466.848696471489     Delta-E=       -0.000000212468 Rises=F Damp=F
 DIIS: error= 1.37D-05 at cycle  12 NSaved=  12.
 NSaved=12 IEnMin=12 EnMin= -466.848696471489     IErMin=12 ErrMin= 1.37D-05
 ErrMax= 1.37D-05  0.00D+00 EMaxC= 1.00D-01 BMatC= 7.07D-08 BMatP= 3.85D-07
 IDIUse=1 WtCom= 1.00D+00 WtEn= 0.00D+00
 Coeff-Com:  0.532D-03-0.116D-02-0.482D-04 0.794D-02-0.876D-02-0.241D-01
 Coeff-Com:  0.273D-01 0.456D-01-0.389D-01-0.257D+00 0.384D-01 0.121D+01
 Coeff:      0.532D-03-0.116D-02-0.482D-04 0.794D-02-0.876D-02-0.241D-01
 Coeff:      0.273D-01 0.456D-01-0.389D-01-0.257D+00 0.384D-01 0.121D+01
 Gap=     0.313 Goal=   None    Shift=    0.000
 Gap=     0.313 Goal=   None    Shift=    0.000
 RMSDP=9.06D-07 MaxDP=4.22D-05 DE=-2.12D-07 OVMax= 1.58D-04

 Cycle  13  Pass 1  IDiag  1:
 RMSU=  4.54D-07    CP:  8.87D-01  2.36D+00  1.39D+00  2.68D+00  3.00D+00
                    CP:  3.00D+00  3.00D+00  1.97D+00  1.40D+00  1.42D+00
                    CP:  1.47D+00  1.61D+00
 E= -466.848696574953     Delta-E=       -0.000000103463 Rises=F Damp=F
 DIIS: error= 7.27D-06 at cycle  13 NSaved=  13.
 NSaved=13 IEnMin=13 EnMin= -466.848696574953     IErMin=13 ErrMin= 7.27D-06
 ErrMax= 7.27D-06  0.00D+00 EMaxC= 1.00D-01 BMatC= 1.63D-08 BMatP= 7.07D-08
 IDIUse=1 WtCom= 1.00D+00 WtEn= 0.00D+00
 Coeff-Com: -0.944D-04 0.207D-03 0.925D-04-0.738D-03 0.237D-03 0.173D-02
 Coeff-Com: -0.197D-02-0.470D-03 0.313D-02 0.230D-02-0.111D+00-0.259D+00
 Coeff-Com:  0.137D+01
 Coeff:     -0.944D-04 0.207D-03 0.925D-04-0.738D-03 0.237D-03 0.173D-02
 Coeff:     -0.197D-02-0.470D-03 0.313D-02 0.230D-02-0.111D+00-0.259D+00
 Coeff:      0.137D+01
 Gap=     0.313 Goal=   None    Shift=    0.000
 Gap=     0.313 Goal=   None    Shift=    0.000
 RMSDP=4.14D-07 MaxDP=2.33D-05 DE=-1.03D-07 OVMax= 1.02D-04

 Cycle  14  Pass 1  IDiag  1:
 RMSU=  2.82D-07    CP:  8.87D-01  2.36D+00  1.39D+00  2.68D+00  3.00D+00
                    CP:  3.00D+00  3.00D+00  1.97D+00  1.40D+00  1.43D+00
                    CP:  1.51D+00  1.78D+00  1.52D+00
 E= -466.848696610152     Delta-E=       -0.000000035199 Rises=F Damp=F
 DIIS: error= 3.89D-06 at cycle  14 NSaved=  14.
 NSaved=14 IEnMin=14 EnMin= -466.848696610152     IErMin=14 ErrMin= 3.89D-06
 ErrMax= 3.89D-06  0.00D+00 EMaxC= 1.00D-01 BMatC= 5.02D-09 BMatP= 1.63D-08
 IDIUse=1 WtCom= 1.00D+00 WtEn= 0.00D+00
 Coeff-Com: -0.216D-03 0.467D-03 0.852D-04-0.262D-02 0.231D-02 0.751D-02
 Coeff-Com: -0.814D-02-0.135D-01 0.128D-01 0.809D-01-0.340D-01-0.434D+00
 Coeff-Com:  0.151D+00 0.124D+01
 Coeff:     -0.216D-03 0.467D-03 0.852D-04-0.262D-02 0.231D-02 0.751D-02
 Coeff:     -0.814D-02-0.135D-01 0.128D-01 0.809D-01-0.340D-01-0.434D+00
 Coeff:      0.151D+00 0.124D+01
 Gap=     0.313 Goal=   None    Shift=    0.000
 Gap=     0.313 Goal=   None    Shift=    0.000
 RMSDP=3.07D-07 MaxDP=1.39D-05 DE=-3.52D-08 OVMax= 7.34D-05

 Cycle  15  Pass 1  IDiag  1:
 RMSU=  1.15D-07    CP:  8.87D-01  2.36D+00  1.39D+00  2.68D+00  3.00D+00
                    CP:  3.00D+00  3.00D+00  1.97D+00  1.40D+00  1.44D+00
                    CP:  1.52D+00  1.86D+00  1.89D+00  1.75D+00
 E= -466.848696621376     Delta-E=       -0.000000011224 Rises=F Damp=F
 DIIS: error= 1.28D-06 at cycle  15 NSaved=  15.
 NSaved=15 IEnMin=15 EnMin= -466.848696621376     IErMin=15 ErrMin= 1.28D-06
 ErrMax= 1.28D-06  0.00D+00 EMaxC= 1.00D-01 BMatC= 7.16D-10 BMatP= 5.02D-09
 IDIUse=1 WtCom= 1.00D+00 WtEn= 0.00D+00
 Coeff-Com:  0.155D-04-0.340D-04-0.306D-04 0.358D-06 0.264D-03 0.314D-03
 Coeff-Com: -0.953D-03-0.951D-03 0.301D-02 0.108D-01 0.136D-01-0.223D-01
 Coeff-Com: -0.258D+00 0.204D+00 0.105D+01
 Coeff:      0.155D-04-0.340D-04-0.306D-04 0.358D-06 0.264D-03 0.314D-03
 Coeff:     -0.953D-03-0.951D-03 0.301D-02 0.108D-01 0.136D-01-0.223D-01
 Coeff:     -0.258D+00 0.204D+00 0.105D+01
 Gap=     0.313 Goal=   None    Shift=    0.000
 Gap=     0.313 Goal=   None    Shift=    0.000
 RMSDP=1.31D-07 MaxDP=5.65D-06 DE=-1.12D-08 OVMax= 2.79D-05

 Cycle  16  Pass 1  IDiag  1:
 RMSU=  4.98D-08    CP:  8.87D-01  2.36D+00  1.39D+00  2.68D+00  3.00D+00
                    CP:  3.00D+00  3.00D+00  1.97D+00  1.40D+00  1.44D+00
                    CP:  1.52D+00  1.88D+00  2.00D+00  2.03D+00  1.53D+00
 E= -466.848696622552     Delta-E=       -0.000000001176 Rises=F Damp=F
 DIIS: error= 2.48D-07 at cycle  16 NSaved=  16.
 NSaved=16 IEnMin=16 EnMin= -466.848696622552     IErMin=16 ErrMin= 2.48D-07
 ErrMax= 2.48D-07  0.00D+00 EMaxC= 1.00D-01 BMatC= 6.94D-11 BMatP= 7.16D-10
 IDIUse=1 WtCom= 1.00D+00 WtEn= 0.00D+00
 Coeff-Com:  0.121D-04-0.261D-04-0.995D-05 0.140D-03-0.870D-04-0.342D-03
 Coeff-Com:  0.279D-03 0.690D-03-0.442D-03-0.404D-02 0.660D-02 0.316D-01
 Coeff-Com: -0.677D-01-0.736D-01 0.231D+00 0.876D+00
 Coeff:      0.121D-04-0.261D-04-0.995D-05 0.140D-03-0.870D-04-0.342D-03
 Coeff:      0.279D-03 0.690D-03-0.442D-03-0.404D-02 0.660D-02 0.316D-01
 Coeff:     -0.677D-01-0.736D-01 0.231D+00 0.876D+00
 Gap=     0.313 Goal=   None    Shift=    0.000
 Gap=     0.313 Goal=   None    Shift=    0.000
 RMSDP=3.06D-08 MaxDP=1.71D-06 DE=-1.18D-09 OVMax= 4.54D-06

 Cycle  17  Pass 1  IDiag  1:
 RMSU=  1.29D-08    CP:  8.87D-01  2.36D+00  1.39D+00  2.68D+00  3.00D+00
                    CP:  3.00D+00  3.00D+00  1.97D+00  1.40D+00  1.45D+00
                    CP:  1.52D+00  1.88D+00  2.00D+00  2.06D+00  1.66D+00
                    CP:  1.30D+00
 E= -466.848696622603     Delta-E=       -0.000000000050 Rises=F Damp=F
 DIIS: error= 7.39D-08 at cycle  17 NSaved=  17.
 NSaved=17 IEnMin=17 EnMin= -466.848696622603     IErMin=17 ErrMin= 7.39D-08
 ErrMax= 7.39D-08  0.00D+00 EMaxC= 1.00D-01 BMatC= 8.19D-12 BMatP= 6.94D-11
 IDIUse=1 WtCom= 1.00D+00 WtEn= 0.00D+00
 Coeff-Com:  0.128D-06-0.224D-06 0.101D-05 0.129D-04-0.370D-04-0.384D-04
 Coeff-Com:  0.936D-04 0.173D-03-0.440D-03-0.173D-02-0.214D-03 0.731D-02
 Coeff-Com:  0.196D-01-0.362D-01-0.915D-01 0.154D+00 0.949D+00
 Coeff:      0.128D-06-0.224D-06 0.101D-05 0.129D-04-0.370D-04-0.384D-04
 Coeff:      0.936D-04 0.173D-03-0.440D-03-0.173D-02-0.214D-03 0.731D-02
 Coeff:      0.196D-01-0.362D-01-0.915D-01 0.154D+00 0.949D+00
 Gap=     0.313 Goal=   None    Shift=    0.000
 Gap=     0.313 Goal=   None    Shift=    0.000
 RMSDP=1.02D-08 MaxDP=3.77D-07 DE=-5.05D-11 OVMax= 1.61D-06

 Cycle  18  Pass 1  IDiag  1:
 RMSU=  5.30D-09    CP:  8.87D-01  2.36D+00  1.39D+00  2.68D+00  3.00D+00
                    CP:  3.00D+00  3.00D+00  1.97D+00  1.40D+00  1.45D+00
                    CP:  1.52D+00  1.88D+00  2.00D+00  2.07D+00  1.70D+00
                    CP:  1.40D+00  1.21D+00
 E= -466.848696622610     Delta-E=       -0.000000000007 Rises=F Damp=F
 DIIS: error= 2.94D-08 at cycle  18 NSaved=  18.
 NSaved=18 IEnMin=18 EnMin= -466.848696622610     IErMin=18 ErrMin= 2.94D-08
 ErrMax= 2.94D-08  0.00D+00 EMaxC= 1.00D-01 BMatC= 6.58D-13 BMatP= 8.19D-12
 IDIUse=1 WtCom= 1.00D+00 WtEn= 0.00D+00
 Coeff-Com:  0.555D-06-0.121D-05 0.633D-06 0.634D-05-0.179D-04-0.146D-04
 Coeff-Com:  0.301D-04 0.280D-04-0.377D-04-0.796D-04-0.541D-03-0.129D-02
 Coeff-Com:  0.714D-02 0.295D-02-0.276D-01-0.774D-01 0.708D-01 0.103D+01
 Coeff:      0.555D-06-0.121D-05 0.633D-06 0.634D-05-0.179D-04-0.146D-04
 Coeff:      0.301D-04 0.280D-04-0.377D-04-0.796D-04-0.541D-03-0.129D-02
 Coeff:      0.714D-02 0.295D-02-0.276D-01-0.774D-01 0.708D-01 0.103D+01
 Gap=     0.313 Goal=   None    Shift=    0.000
 Gap=     0.313 Goal=   None    Shift=    0.000
 RMSDP=3.16D-09 MaxDP=1.27D-07 DE=-7.16D-12 OVMax= 3.95D-07

 Error on total polarization charges =  0.01124
 SCF Done:  E(UwB97XD) =  -466.848696623     A.U. after   18 cycles
            NFock= 18  Conv=0.32D-08     -V/T= 2.0057
 <Sx>= 0.0000 <Sy>= 0.0000 <Sz>= 0.0000 <S**2>= 0.0000 S= 0.0000
 <L.S>=  0.00000000000    
 KE= 4.641948848453D+02 PE=-2.430499496536D+03 EE= 8.251742075956D+02
 --------------------------------------------------------------------
 Variational PCM results
 =======================
 <psi(f)|   H    |psi(f)>                     (a.u.) =    -466.856423
 <psi(f)|H+V(f)/2|psi(f)>                     (a.u.) =    -466.857948
 Total free energy in solution:
 - with all non electrostatic terms           (a.u.) =    -466.848697
 --------------------------------------------------------------------
 (Polarized solute)-Solvent               (kcal/mol) =      -0.96
 --------------------------------------------------------------------
 Quantum repulsion energy                 (kcal/mol) =       5.81
 Total non electrostatic                  (kcal/mol) =       5.81
 --------------------------------------------------------------------
 Partition over spheres:
 Sphere  on Atom  Surface  Charge   GEl     GCav    GDR
    1               7.07   0.010   -0.05    0.00    0.00
    2               4.99   0.007   -0.04    0.00    0.00
    3               7.52  -0.010   -0.04    0.00    0.00
    4               3.32  -0.004   -0.01    0.00    0.00
    5               4.57   0.009   -0.06    0.00    0.00
    6               4.73   0.007   -0.04    0.00    0.00
    7               4.71  -0.007   -0.03    0.00    0.00
    8               4.11  -0.005   -0.01    0.00    0.00
    9               3.54   0.002    0.00    0.00    0.00
   10               7.08  -0.007   -0.01    0.00    0.00
   11               2.71  -0.002   -0.01    0.00    0.00
   12               6.43   0.010   -0.06    0.00    0.00
   13               7.52  -0.010   -0.03    0.00    0.00
   14               7.25   0.010   -0.05    0.00    0.00
   15               7.52  -0.010   -0.04    0.00    0.00
   16               3.80   0.002    0.00    0.00    0.00
   17               3.07  -0.003   -0.01    0.00    0.00
   18               7.30  -0.008   -0.03    0.00    0.00
   19               5.10   0.009   -0.06    0.00    0.00
   20               5.38  -0.008   -0.03    0.00    0.00
   21               6.18   0.010   -0.06    0.00    0.00
   22               7.51  -0.010   -0.03    0.00    0.00
   23               3.81   0.002    0.00    0.00    0.00
   24               4.06  -0.003   -0.01    0.00    0.00
   25               6.90  -0.007   -0.01    0.00    0.00
   26               3.46   0.002    0.00    0.00    0.00
   27               7.40  -0.008   -0.03    0.00    0.00
   28               3.09  -0.003   -0.01    0.00    0.00
 Added spheres:    72.94   0.015   -0.21    0.00    0.00
 --------------------------------------------------------------------
 After PCM corrections, the energy is  -466.848696623     a.u.
 --------------------------------------------------------------------
 Annihilation of the first spin contaminant:
 S**2 before annihilation     0.0000,   after    -0.0000
 Leave Link  502 at Tue Aug  4 00:48:03 2020, MaxMem=  6442450944 cpu:            7866.0 elap:             330.5
 (Enter /scratch/scicomp/CentOS/7.3.1611/Haswell/software/Gaussian/g16/l601.exe)
 Copying SCF densities to generalized density rwf, IOpCl= 1 IROHF=0.

 **********************************************************************

            Population analysis using the SCF Density.

 **********************************************************************

 Alpha  occ. eigenvalues --  -10.28326 -10.28325 -10.28119 -10.28118 -10.28087
 Alpha  occ. eigenvalues --  -10.28087 -10.28014 -10.28012 -10.27799 -10.27799
 Alpha  occ. eigenvalues --  -10.27428 -10.27427  -0.94027  -0.93491  -0.84109
 Alpha  occ. eigenvalues --   -0.84020  -0.83716  -0.83576  -0.71286  -0.71086
 Alpha  occ. eigenvalues --   -0.67857  -0.67803  -0.59628  -0.59485  -0.57268
 Alpha  occ. eigenvalues --   -0.56601  -0.53475  -0.52652  -0.50832  -0.50783
 Alpha  occ. eigenvalues --   -0.49778  -0.49305  -0.47221  -0.46791  -0.45053
 Alpha  occ. eigenvalues --   -0.44950  -0.41152  -0.40889  -0.39595  -0.39161
 Alpha  occ. eigenvalues --   -0.39109  -0.38870  -0.29660  -0.27499
 Alpha virt. eigenvalues --    0.03780   0.05082   0.11373   0.13018   0.14337
 Alpha virt. eigenvalues --    0.15377   0.15479   0.16313   0.16482   0.16920
 Alpha virt. eigenvalues --    0.17622   0.17686   0.18080   0.19185   0.20915
 Alpha virt. eigenvalues --    0.21997   0.22392   0.23632   0.24219   0.24292
 Alpha virt. eigenvalues --    0.25558   0.26348   0.26537   0.27515   0.28748
 Alpha virt. eigenvalues --    0.28878   0.29514   0.29855   0.30720   0.31131
 Alpha virt. eigenvalues --    0.32163   0.32247   0.32755   0.32987   0.33874
 Alpha virt. eigenvalues --    0.34294   0.34663   0.36190   0.36338   0.37833
 Alpha virt. eigenvalues --    0.38313   0.39644   0.39968   0.41793   0.42164
 Alpha virt. eigenvalues --    0.42167   0.44096   0.44714   0.45836   0.46571
 Alpha virt. eigenvalues --    0.47039   0.47180   0.48421   0.48593   0.49139
 Alpha virt. eigenvalues --    0.49182   0.49637   0.49840   0.50341   0.50676
 Alpha virt. eigenvalues --    0.51162   0.51310   0.52282   0.52659   0.53297
 Alpha virt. eigenvalues --    0.53775   0.54597   0.54982   0.55397   0.55848
 Alpha virt. eigenvalues --    0.57645   0.58156   0.58538   0.59295   0.60218
 Alpha virt. eigenvalues --    0.60561   0.61120   0.63175   0.63463   0.64827
 Alpha virt. eigenvalues --    0.65944   0.67239   0.68261   0.68753   0.69051
 Alpha virt. eigenvalues --    0.71123   0.72678   0.73069   0.73733   0.75002
 Alpha virt. eigenvalues --    0.77302   0.78609   0.78650   0.80962   0.81046
 Alpha virt. eigenvalues --    0.82062   0.82574   0.83200   0.87885   0.88482
 Alpha virt. eigenvalues --    0.88564   0.90038   0.90652   0.91821   0.92744
 Alpha virt. eigenvalues --    0.92912   0.95334   0.96655   0.98953   0.99052
 Alpha virt. eigenvalues --    1.01011   1.03980   1.04846   1.05018   1.05104
 Alpha virt. eigenvalues --    1.06858   1.07902   1.08044   1.09154   1.11883
 Alpha virt. eigenvalues --    1.13264   1.13880   1.14394   1.15183   1.16030
 Alpha virt. eigenvalues --    1.16124   1.17034   1.17469   1.19106   1.20915
 Alpha virt. eigenvalues --    1.20990   1.21952   1.24403   1.24550   1.24995
 Alpha virt. eigenvalues --    1.25547   1.26131   1.27166   1.27916   1.28835
 Alpha virt. eigenvalues --    1.29016   1.30986   1.31944   1.32822   1.32915
 Alpha virt. eigenvalues --    1.34266   1.35025   1.37181   1.37345   1.37978
 Alpha virt. eigenvalues --    1.38915   1.39847   1.40640   1.41444   1.41693
 Alpha virt. eigenvalues --    1.43066   1.43450   1.44024   1.44115   1.45350
 Alpha virt. eigenvalues --    1.46105   1.47018   1.47170   1.47924   1.48248
 Alpha virt. eigenvalues --    1.49690   1.50930   1.51281   1.54190   1.55863
 Alpha virt. eigenvalues --    1.57140   1.58146   1.58686   1.59333   1.61296
 Alpha virt. eigenvalues --    1.61787   1.63166   1.63747   1.65862   1.67961
 Alpha virt. eigenvalues --    1.68698   1.70506   1.71855   1.74414   1.77545
 Alpha virt. eigenvalues --    1.77715   1.80343   1.80505   1.83851   1.84237
 Alpha virt. eigenvalues --    1.86343   1.87909   1.90180   1.90999   1.91692
 Alpha virt. eigenvalues --    1.93104   1.96690   1.99043   2.00615   2.01366
 Alpha virt. eigenvalues --    2.04033   2.05023   2.06554   2.08384   2.08763
 Alpha virt. eigenvalues --    2.09566   2.11919   2.13058   2.13356   2.15620
 Alpha virt. eigenvalues --    2.18032   2.20031   2.20529   2.21278   2.22652
 Alpha virt. eigenvalues --    2.23361   2.24652   2.25081   2.26860   2.26861
 Alpha virt. eigenvalues --    2.30390   2.34801   2.37473   2.38453   2.41264
 Alpha virt. eigenvalues --    2.43409   2.45416   2.45869   2.49227   2.50125
 Alpha virt. eigenvalues --    2.50220   2.50660   2.53929   2.54268   2.55408
 Alpha virt. eigenvalues --    2.55760   2.57844   2.58198   2.60995   2.61793
 Alpha virt. eigenvalues --    2.62570   2.64696   2.64933   2.65364   2.66237
 Alpha virt. eigenvalues --    2.67201   2.68000   2.70856   2.72414   2.72771
 Alpha virt. eigenvalues --    2.73434   2.73566   2.74894   2.75990   2.77160
 Alpha virt. eigenvalues --    2.77673   2.78494   2.79539   2.80913   2.81327
 Alpha virt. eigenvalues --    2.81355   2.82676   2.82990   2.84026   2.85153
 Alpha virt. eigenvalues --    2.85742   2.86600   2.87448   2.88042   2.89941
 Alpha virt. eigenvalues --    2.90761   2.90941   2.92714   2.92761   2.93962
 Alpha virt. eigenvalues --    2.95001   2.95482   2.95677   2.96525   3.00389
 Alpha virt. eigenvalues --    3.01603   3.02333   3.03199   3.04706   3.06201
 Alpha virt. eigenvalues --    3.07426   3.09229   3.09676   3.09960   3.10635
 Alpha virt. eigenvalues --    3.12068   3.13174   3.13504   3.14660   3.15263
 Alpha virt. eigenvalues --    3.15393   3.16900   3.17309   3.18847   3.19300
 Alpha virt. eigenvalues --    3.20108   3.20202   3.20637   3.21049   3.21748
 Alpha virt. eigenvalues --    3.22136   3.23036   3.23520   3.23979   3.24266
 Alpha virt. eigenvalues --    3.26104   3.26237   3.26846   3.26933   3.28222
 Alpha virt. eigenvalues --    3.28341   3.30189   3.30904   3.31515   3.31644
 Alpha virt. eigenvalues --    3.32520   3.33145   3.33355   3.33798   3.34355
 Alpha virt. eigenvalues --    3.35575   3.36143   3.36545   3.37941   3.38826
 Alpha virt. eigenvalues --    3.39100   3.41366   3.42785   3.43519   3.43938
 Alpha virt. eigenvalues --    3.45238   3.45628   3.46685   3.46718   3.47103
 Alpha virt. eigenvalues --    3.48475   3.49523   3.49882   3.50510   3.51156
 Alpha virt. eigenvalues --    3.51744   3.53196   3.53424   3.55103   3.55198
 Alpha virt. eigenvalues --    3.56761   3.57606   3.57691   3.59806   3.64268
 Alpha virt. eigenvalues --    3.65101   3.65553   3.65619   3.66523   3.67501
 Alpha virt. eigenvalues --    3.68556   3.68830   3.71542   3.72062   3.73527
 Alpha virt. eigenvalues --    3.76044   3.76394   3.78181   3.80309   3.81548
 Alpha virt. eigenvalues --    3.85092   3.85725   3.85901   3.86554   3.86572
 Alpha virt. eigenvalues --    3.88662   3.91344   3.91718   3.94023   3.94471
 Alpha virt. eigenvalues --    3.96208   3.97038   4.01088   4.01297   4.03482
 Alpha virt. eigenvalues --    4.05411   4.08301   4.08896   4.09104   4.10598
 Alpha virt. eigenvalues --    4.11964   4.13108   4.14189   4.15336   4.18405
 Alpha virt. eigenvalues --    4.18621   4.19992   4.20830   4.23351   4.24817
 Alpha virt. eigenvalues --    4.25060   4.27643   4.30829   4.31120   4.34205
 Alpha virt. eigenvalues --    4.35102   4.38314   4.38810   4.39222   4.42308
 Alpha virt. eigenvalues --    4.42862   4.44020   4.47141   4.48705   4.50885
 Alpha virt. eigenvalues --    4.52468   4.59041   4.61165   4.63290   4.66929
 Alpha virt. eigenvalues --    4.68031   4.69095   4.72798   4.73756   4.76196
 Alpha virt. eigenvalues --    4.76628   4.79356   4.79748   4.82701   4.84676
 Alpha virt. eigenvalues --    4.85211   4.85738   4.90298   4.92982   4.93760
 Alpha virt. eigenvalues --    4.94482   4.97298   4.99451   5.06585   5.07968
 Alpha virt. eigenvalues --    5.13427   5.14217   5.19187   5.19472   5.22846
 Alpha virt. eigenvalues --    5.23384   5.31711   5.32721   5.41204   5.41557
 Alpha virt. eigenvalues --    5.43326   5.44610   5.49873   5.50359   5.68388
 Alpha virt. eigenvalues --    5.71022   5.76002   5.78602   5.94004   6.01477
 Alpha virt. eigenvalues --    7.94092   7.95607   8.01451   8.04836   8.05919
 Alpha virt. eigenvalues --    8.07212   8.10139   8.11859   8.18138   8.18253
 Alpha virt. eigenvalues --    8.34879   8.36107  34.76289  34.77836  34.81076
 Alpha virt. eigenvalues --   34.81978  34.86221  34.87990  34.96823  34.98446
 Alpha virt. eigenvalues --   35.01013  35.02009  35.16037  35.18967
  Beta  occ. eigenvalues --  -10.28326 -10.28325 -10.28119 -10.28118 -10.28087
  Beta  occ. eigenvalues --  -10.28087 -10.28014 -10.28012 -10.27799 -10.27799
  Beta  occ. eigenvalues --  -10.27428 -10.27427  -0.94027  -0.93491  -0.84109
  Beta  occ. eigenvalues --   -0.84020  -0.83716  -0.83576  -0.71286  -0.71086
  Beta  occ. eigenvalues --   -0.67857  -0.67803  -0.59628  -0.59485  -0.57268
  Beta  occ. eigenvalues --   -0.56601  -0.53475  -0.52652  -0.50832  -0.50783
  Beta  occ. eigenvalues --   -0.49778  -0.49305  -0.47221  -0.46791  -0.45053
  Beta  occ. eigenvalues --   -0.44950  -0.41152  -0.40889  -0.39595  -0.39161
  Beta  occ. eigenvalues --   -0.39109  -0.38870  -0.29660  -0.27499
  Beta virt. eigenvalues --    0.03780   0.05082   0.11373   0.13018   0.14337
  Beta virt. eigenvalues --    0.15377   0.15479   0.16313   0.16482   0.16920
  Beta virt. eigenvalues --    0.17622   0.17686   0.18080   0.19185   0.20915
  Beta virt. eigenvalues --    0.21997   0.22392   0.23632   0.24219   0.24292
  Beta virt. eigenvalues --    0.25558   0.26348   0.26537   0.27515   0.28748
  Beta virt. eigenvalues --    0.28878   0.29514   0.29855   0.30720   0.31131
  Beta virt. eigenvalues --    0.32163   0.32247   0.32755   0.32987   0.33874
  Beta virt. eigenvalues --    0.34294   0.34663   0.36190   0.36338   0.37833
  Beta virt. eigenvalues --    0.38313   0.39644   0.39968   0.41793   0.42164
  Beta virt. eigenvalues --    0.42167   0.44096   0.44714   0.45836   0.46571
  Beta virt. eigenvalues --    0.47039   0.47180   0.48421   0.48593   0.49139
  Beta virt. eigenvalues --    0.49182   0.49637   0.49840   0.50341   0.50676
  Beta virt. eigenvalues --    0.51162   0.51310   0.52282   0.52659   0.53297
  Beta virt. eigenvalues --    0.53775   0.54597   0.54982   0.55397   0.55848
  Beta virt. eigenvalues --    0.57645   0.58156   0.58538   0.59295   0.60218
  Beta virt. eigenvalues --    0.60561   0.61120   0.63175   0.63463   0.64827
  Beta virt. eigenvalues --    0.65944   0.67239   0.68261   0.68753   0.69051
  Beta virt. eigenvalues --    0.71123   0.72678   0.73069   0.73733   0.75002
  Beta virt. eigenvalues --    0.77302   0.78609   0.78650   0.80962   0.81046
  Beta virt. eigenvalues --    0.82062   0.82574   0.83200   0.87885   0.88482
  Beta virt. eigenvalues --    0.88564   0.90038   0.90652   0.91821   0.92744
  Beta virt. eigenvalues --    0.92912   0.95334   0.96655   0.98953   0.99052
  Beta virt. eigenvalues --    1.01011   1.03980   1.04846   1.05018   1.05104
  Beta virt. eigenvalues --    1.06858   1.07902   1.08044   1.09154   1.11883
  Beta virt. eigenvalues --    1.13264   1.13880   1.14394   1.15183   1.16030
  Beta virt. eigenvalues --    1.16124   1.17034   1.17469   1.19106   1.20915
  Beta virt. eigenvalues --    1.20990   1.21952   1.24403   1.24550   1.24995
  Beta virt. eigenvalues --    1.25547   1.26131   1.27166   1.27916   1.28835
  Beta virt. eigenvalues --    1.29016   1.30986   1.31944   1.32822   1.32915
  Beta virt. eigenvalues --    1.34266   1.35025   1.37181   1.37345   1.37978
  Beta virt. eigenvalues --    1.38915   1.39847   1.40640   1.41444   1.41693
  Beta virt. eigenvalues --    1.43066   1.43450   1.44024   1.44115   1.45350
  Beta virt. eigenvalues --    1.46105   1.47018   1.47170   1.47924   1.48248
  Beta virt. eigenvalues --    1.49690   1.50930   1.51281   1.54190   1.55863
  Beta virt. eigenvalues --    1.57140   1.58146   1.58686   1.59333   1.61296
  Beta virt. eigenvalues --    1.61787   1.63166   1.63747   1.65862   1.67961
  Beta virt. eigenvalues --    1.68698   1.70506   1.71855   1.74414   1.77545
  Beta virt. eigenvalues --    1.77715   1.80343   1.80505   1.83851   1.84237
  Beta virt. eigenvalues --    1.86343   1.87909   1.90180   1.90999   1.91692
  Beta virt. eigenvalues --    1.93104   1.96690   1.99043   2.00615   2.01366
  Beta virt. eigenvalues --    2.04033   2.05023   2.06554   2.08384   2.08763
  Beta virt. eigenvalues --    2.09566   2.11919   2.13058   2.13356   2.15620
  Beta virt. eigenvalues --    2.18032   2.20031   2.20529   2.21278   2.22652
  Beta virt. eigenvalues --    2.23361   2.24652   2.25081   2.26860   2.26861
  Beta virt. eigenvalues --    2.30390   2.34801   2.37473   2.38453   2.41264
  Beta virt. eigenvalues --    2.43409   2.45416   2.45869   2.49227   2.50125
  Beta virt. eigenvalues --    2.50220   2.50660   2.53929   2.54268   2.55408
  Beta virt. eigenvalues --    2.55760   2.57844   2.58198   2.60995   2.61793
  Beta virt. eigenvalues --    2.62570   2.64696   2.64933   2.65364   2.66237
  Beta virt. eigenvalues --    2.67201   2.68000   2.70856   2.72414   2.72771
  Beta virt. eigenvalues --    2.73434   2.73566   2.74894   2.75990   2.77160
  Beta virt. eigenvalues --    2.77673   2.78494   2.79539   2.80913   2.81327
  Beta virt. eigenvalues --    2.81355   2.82676   2.82990   2.84026   2.85153
  Beta virt. eigenvalues --    2.85742   2.86600   2.87448   2.88042   2.89941
  Beta virt. eigenvalues --    2.90761   2.90941   2.92714   2.92761   2.93962
  Beta virt. eigenvalues --    2.95001   2.95482   2.95677   2.96525   3.00389
  Beta virt. eigenvalues --    3.01603   3.02333   3.03199   3.04706   3.06201
  Beta virt. eigenvalues --    3.07426   3.09229   3.09676   3.09960   3.10635
  Beta virt. eigenvalues --    3.12068   3.13174   3.13504   3.14660   3.15263
  Beta virt. eigenvalues --    3.15393   3.16900   3.17309   3.18847   3.19300
  Beta virt. eigenvalues --    3.20108   3.20202   3.20637   3.21049   3.21748
  Beta virt. eigenvalues --    3.22136   3.23036   3.23520   3.23979   3.24266
  Beta virt. eigenvalues --    3.26104   3.26237   3.26846   3.26933   3.28222
  Beta virt. eigenvalues --    3.28341   3.30189   3.30904   3.31515   3.31644
  Beta virt. eigenvalues --    3.32520   3.33145   3.33355   3.33798   3.34355
  Beta virt. eigenvalues --    3.35575   3.36143   3.36545   3.37941   3.38826
  Beta virt. eigenvalues --    3.39100   3.41366   3.42785   3.43519   3.43938
  Beta virt. eigenvalues --    3.45238   3.45628   3.46685   3.46718   3.47103
  Beta virt. eigenvalues --    3.48475   3.49523   3.49882   3.50510   3.51156
  Beta virt. eigenvalues --    3.51744   3.53196   3.53424   3.55103   3.55198
  Beta virt. eigenvalues --    3.56761   3.57606   3.57691   3.59806   3.64268
  Beta virt. eigenvalues --    3.65101   3.65553   3.65619   3.66523   3.67501
  Beta virt. eigenvalues --    3.68556   3.68830   3.71542   3.72062   3.73527
  Beta virt. eigenvalues --    3.76044   3.76394   3.78181   3.80309   3.81548
  Beta virt. eigenvalues --    3.85092   3.85725   3.85901   3.86554   3.86572
  Beta virt. eigenvalues --    3.88662   3.91344   3.91718   3.94023   3.94471
  Beta virt. eigenvalues --    3.96208   3.97038   4.01088   4.01297   4.03482
  Beta virt. eigenvalues --    4.05411   4.08301   4.08896   4.09104   4.10598
  Beta virt. eigenvalues --    4.11964   4.13108   4.14189   4.15336   4.18405
  Beta virt. eigenvalues --    4.18621   4.19992   4.20830   4.23351   4.24817
  Beta virt. eigenvalues --    4.25060   4.27643   4.30829   4.31120   4.34205
  Beta virt. eigenvalues --    4.35102   4.38314   4.38810   4.39222   4.42308
  Beta virt. eigenvalues --    4.42862   4.44020   4.47141   4.48705   4.50885
  Beta virt. eigenvalues --    4.52468   4.59041   4.61165   4.63290   4.66929
  Beta virt. eigenvalues --    4.68031   4.69095   4.72798   4.73756   4.76196
  Beta virt. eigenvalues --    4.76628   4.79356   4.79748   4.82701   4.84676
  Beta virt. eigenvalues --    4.85211   4.85738   4.90298   4.92982   4.93760
  Beta virt. eigenvalues --    4.94482   4.97298   4.99451   5.06585   5.07968
  Beta virt. eigenvalues --    5.13427   5.14217   5.19187   5.19472   5.22846
  Beta virt. eigenvalues --    5.23384   5.31711   5.32721   5.41204   5.41557
  Beta virt. eigenvalues --    5.43326   5.44610   5.49873   5.50359   5.68388
  Beta virt. eigenvalues --    5.71022   5.76002   5.78602   5.94004   6.01477
  Beta virt. eigenvalues --    7.94092   7.95607   8.01451   8.04836   8.05919
  Beta virt. eigenvalues --    8.07212   8.10139   8.11859   8.18138   8.18253
  Beta virt. eigenvalues --    8.34879   8.36107  34.76289  34.77836  34.81076
  Beta virt. eigenvalues --   34.81978  34.86221  34.87990  34.96823  34.98446
  Beta virt. eigenvalues --   35.01013  35.02009  35.16037  35.18967
          Condensed to atoms (all electrons):
               1          2          3          4          5          6
     1  C    5.141651   0.003643   0.423180  -0.001798   0.000800  -0.004358
     2  C    0.003643   5.316295  -0.002030   0.425680  -0.027301  -0.043330
     3  H    0.423180  -0.002030   0.491313   0.000027  -0.000041  -0.000009
     4  H   -0.001798   0.425680   0.000027   0.469342  -0.002751   0.002747
     5  C    0.000800  -0.027301  -0.000041  -0.002751   5.153199   0.511198
     6  C   -0.004358  -0.043330  -0.000009   0.002747   0.511198   5.317843
     7  H    0.000265  -0.001424   0.000000  -0.000070   0.423889  -0.027000
     8  H   -0.001359   0.002763  -0.000015  -0.000021  -0.041058   0.425586
     9  C    0.001474  -0.002538  -0.000005  -0.001288  -0.062757   0.228003
    10  H   -0.000033   0.000065  -0.000001  -0.000080  -0.004033  -0.034740
    11  H    0.000016  -0.003453   0.000001   0.000136   0.008413  -0.057005
    12  C   -0.000121   0.008404   0.000002   0.001245   0.295160  -0.069617
    13  H   -0.000001   0.000022   0.000000   0.000007  -0.035171   0.004494
    14  C    0.000139  -0.004300  -0.000000  -0.001322  -0.055365   0.003379
    15  H   -0.000000  -0.000009  -0.000000  -0.000013   0.006842  -0.002014
    16  C   -0.000597   0.010981  -0.000000   0.000651   0.002212  -0.063281
    17  H   -0.000053  -0.001001  -0.000001  -0.000861   0.009496  -0.001636
    18  H    0.000002   0.000531   0.000000   0.000168  -0.003079   0.011499
    19  C   -0.055236   0.511784   0.006868  -0.041218  -0.006879  -0.027331
    20  H    0.003474  -0.026267  -0.000084  -0.004452   0.000253  -0.001429
    21  C    0.581590  -0.069933  -0.031352   0.005156   0.000938   0.008486
    22  H   -0.024554   0.004557  -0.005514  -0.000054   0.000016   0.000023
    23  C   -0.081441   0.228376   0.004978  -0.013869   0.006839  -0.002611
    24  H    0.013334  -0.056927  -0.000086  -0.003996   0.001440  -0.003471
    25  H    0.003787  -0.035233  -0.000047  -0.000387   0.000438   0.000068
    26  C    0.277921  -0.063161  -0.028283   0.003594  -0.004318   0.011012
    27  H   -0.039421   0.011470  -0.004435  -0.000092   0.000301   0.000530
    28  H   -0.036126  -0.001671   0.001009  -0.000124  -0.003131  -0.001021
               7          8          9         10         11         12
     1  C    0.000265  -0.001359   0.001474  -0.000033   0.000016  -0.000121
     2  C   -0.001424   0.002763  -0.002538   0.000065  -0.003453   0.008404
     3  H    0.000000  -0.000015  -0.000005  -0.000001   0.000001   0.000002
     4  H   -0.000070  -0.000021  -0.001288  -0.000080   0.000136   0.001245
     5  C    0.423889  -0.041058  -0.062757  -0.004033   0.008413   0.295160
     6  C   -0.027000   0.425586   0.228003  -0.034740  -0.057005  -0.069617
     7  H    0.476224  -0.004436   0.002914  -0.000265  -0.000022  -0.028968
     8  H   -0.004436   0.468400  -0.013738  -0.000373  -0.003982   0.005123
     9  C    0.002914  -0.013738   4.973020   0.385166   0.458344   0.036482
    10  H   -0.000265  -0.000373   0.385166   0.569194  -0.020636   0.001625
    11  H   -0.000022  -0.003982   0.458344  -0.020636   0.534465  -0.004416
    12  C   -0.028968   0.005123   0.036482   0.001625  -0.004416   5.005591
    13  H   -0.003098  -0.000054  -0.000287  -0.000049   0.000026   0.424205
    14  C    0.003465  -0.001785  -0.081401   0.003723   0.013348   0.582093
    15  H   -0.000085   0.000027   0.004973  -0.000047  -0.000087  -0.030995
    16  C   -0.000718   0.003565   0.349792  -0.022075  -0.055406  -0.060480
    17  H    0.000020  -0.000123  -0.033742   0.006699  -0.008227  -0.014382
    18  H    0.000027  -0.000091  -0.044897  -0.008307  -0.000941   0.006428
    19  C    0.000255  -0.002770   0.006710   0.000439   0.001466   0.000959
    20  H    0.000008  -0.000070   0.002036   0.000152  -0.001030  -0.000123
    21  C   -0.000126   0.001278  -0.000989  -0.000002  -0.000091  -0.000282
    22  H   -0.000001   0.000008  -0.000042  -0.000001   0.000010  -0.000000
    23  C    0.002029  -0.001282   0.000638  -0.000014   0.000136  -0.000998
    24  H   -0.001016   0.000138   0.000141  -0.000003  -0.000017  -0.000095
    25  H    0.000152  -0.000080  -0.000015   0.000002  -0.000003  -0.000001
    26  C   -0.001419   0.000639  -0.000749   0.000064  -0.000074   0.000719
    27  H   -0.000022   0.000167  -0.000023   0.000001  -0.000002  -0.000046
    28  H    0.001424  -0.000903   0.000442  -0.000008   0.000018   0.000562
              13         14         15         16         17         18
     1  C   -0.000001   0.000139  -0.000000  -0.000597  -0.000053   0.000002
     2  C    0.000022  -0.004300  -0.000009   0.010981  -0.001001   0.000531
     3  H    0.000000  -0.000000  -0.000000  -0.000000  -0.000001   0.000000
     4  H    0.000007  -0.001322  -0.000013   0.000651  -0.000861   0.000168
     5  C   -0.035171  -0.055365   0.006842   0.002212   0.009496  -0.003079
     6  C    0.004494   0.003379  -0.002014  -0.063281  -0.001636   0.011499
     7  H   -0.003098   0.003465  -0.000085  -0.000718   0.000020   0.000027
     8  H   -0.000054  -0.001785   0.000027   0.003565  -0.000123  -0.000091
     9  C   -0.000287  -0.081401   0.004973   0.349792  -0.033742  -0.044897
    10  H   -0.000049   0.003723  -0.000047  -0.022075   0.006699  -0.008307
    11  H    0.000026   0.013348  -0.000087  -0.055406  -0.008227  -0.000941
    12  C    0.424205   0.582093  -0.030995  -0.060480  -0.014382   0.006428
    13  H    0.488240  -0.024750  -0.005502   0.004042  -0.000365  -0.000089
    14  C   -0.024750   5.141501   0.422795   0.278039  -0.036232  -0.039542
    15  H   -0.005502   0.422795   0.491230  -0.028287   0.001011  -0.004447
    16  C    0.004042   0.278039  -0.028287   4.934951   0.402091   0.437710
    17  H   -0.000365  -0.036232   0.001011   0.402091   0.585811  -0.021931
    18  H   -0.000089  -0.039542  -0.004447   0.437710  -0.021931   0.537474
    19  C    0.000016   0.000778  -0.000041  -0.004271  -0.003166   0.000300
    20  H   -0.000001   0.000263   0.000000  -0.001431   0.001406  -0.000022
    21  C   -0.000000  -0.000120   0.000002   0.000713   0.000561  -0.000046
    22  H    0.000000  -0.000001   0.000000   0.000013  -0.000001  -0.000001
    23  C   -0.000043   0.001471  -0.000005  -0.000756   0.000443  -0.000023
    24  H    0.000011   0.000017   0.000000  -0.000072   0.000018  -0.000002
    25  H   -0.000001  -0.000033  -0.000001   0.000065  -0.000008   0.000001
    26  C    0.000013  -0.000597  -0.000000   0.000953   0.000089  -0.000003
    27  H   -0.000001   0.000002   0.000000  -0.000003   0.000002  -0.000000
    28  H   -0.000001  -0.000053  -0.000001   0.000088  -0.000023   0.000002
              19         20         21         22         23         24
     1  C   -0.055236   0.003474   0.581590  -0.024554  -0.081441   0.013334
     2  C    0.511784  -0.026267  -0.069933   0.004557   0.228376  -0.056927
     3  H    0.006868  -0.000084  -0.031352  -0.005514   0.004978  -0.000086
     4  H   -0.041218  -0.004452   0.005156  -0.000054  -0.013869  -0.003996
     5  C   -0.006879   0.000253   0.000938   0.000016   0.006839   0.001440
     6  C   -0.027331  -0.001429   0.008486   0.000023  -0.002611  -0.003471
     7  H    0.000255   0.000008  -0.000126  -0.000001   0.002029  -0.001016
     8  H   -0.002770  -0.000070   0.001278   0.000008  -0.001282   0.000138
     9  C    0.006710   0.002036  -0.000989  -0.000042   0.000638   0.000141
    10  H    0.000439   0.000152  -0.000002  -0.000001  -0.000014  -0.000003
    11  H    0.001466  -0.001030  -0.000091   0.000010   0.000136  -0.000017
    12  C    0.000959  -0.000123  -0.000282  -0.000000  -0.000998  -0.000095
    13  H    0.000016  -0.000001  -0.000000   0.000000  -0.000043   0.000011
    14  C    0.000778   0.000263  -0.000120  -0.000001   0.001471   0.000017
    15  H   -0.000041   0.000000   0.000002   0.000000  -0.000005   0.000000
    16  C   -0.004271  -0.001431   0.000713   0.000013  -0.000756  -0.000072
    17  H   -0.003166   0.001406   0.000561  -0.000001   0.000443   0.000018
    18  H    0.000300  -0.000022  -0.000046  -0.000001  -0.000023  -0.000002
    19  C    5.153699   0.423428   0.294613  -0.035350  -0.063106   0.008429
    20  H    0.423428   0.475823  -0.029195  -0.003091   0.002899  -0.000021
    21  C    0.294613  -0.029195   5.006788   0.424098   0.036689  -0.004407
    22  H   -0.035350  -0.003091   0.424098   0.488115  -0.000284   0.000026
    23  C   -0.063106   0.002899   0.036689  -0.000284   4.973606   0.458304
    24  H    0.008429  -0.000021  -0.004407   0.000026   0.458304   0.534012
    25  H   -0.003839  -0.000263   0.001553  -0.000050   0.385615  -0.020521
    26  C    0.001999  -0.000725  -0.060452   0.004050   0.349682  -0.055337
    27  H   -0.003051   0.000027   0.006326  -0.000090  -0.044885  -0.000945
    28  H    0.009524   0.000021  -0.014353  -0.000365  -0.033834  -0.008196
              25         26         27         28
     1  C    0.003787   0.277921  -0.039421  -0.036126
     2  C   -0.035233  -0.063161   0.011470  -0.001671
     3  H   -0.000047  -0.028283  -0.004435   0.001009
     4  H   -0.000387   0.003594  -0.000092  -0.000124
     5  C    0.000438  -0.004318   0.000301  -0.003131
     6  C    0.000068   0.011012   0.000530  -0.001021
     7  H    0.000152  -0.001419  -0.000022   0.001424
     8  H   -0.000080   0.000639   0.000167  -0.000903
     9  C   -0.000015  -0.000749  -0.000023   0.000442
    10  H    0.000002   0.000064   0.000001  -0.000008
    11  H   -0.000003  -0.000074  -0.000002   0.000018
    12  C   -0.000001   0.000719  -0.000046   0.000562
    13  H   -0.000001   0.000013  -0.000001  -0.000001
    14  C   -0.000033  -0.000597   0.000002  -0.000053
    15  H   -0.000001  -0.000000   0.000000  -0.000001
    16  C    0.000065   0.000953  -0.000003   0.000088
    17  H   -0.000008   0.000089   0.000002  -0.000023
    18  H    0.000001  -0.000003  -0.000000   0.000002
    19  C   -0.003839   0.001999  -0.003051   0.009524
    20  H   -0.000263  -0.000725   0.000027   0.000021
    21  C    0.001553  -0.060452   0.006326  -0.014353
    22  H   -0.000050   0.004050  -0.000090  -0.000365
    23  C    0.385615   0.349682  -0.044885  -0.033834
    24  H   -0.020521  -0.055337  -0.000945  -0.008196
    25  H    0.568989  -0.022267  -0.008312   0.006698
    26  C   -0.022267   4.935291   0.437632   0.402127
    27  H   -0.008312   0.437632   0.537504  -0.021919
    28  H    0.006698   0.402127  -0.021919   0.585596
          Atomic-Atomic Spin Densities.
               1          2          3          4          5          6
     1  C    0.000000   0.000000   0.000000   0.000000  -0.000000  -0.000000
     2  C    0.000000  -0.000000  -0.000000  -0.000000   0.000000   0.000000
     3  H    0.000000  -0.000000  -0.000000   0.000000   0.000000  -0.000000
     4  H    0.000000  -0.000000   0.000000   0.000000  -0.000000   0.000000
     5  C   -0.000000   0.000000   0.000000  -0.000000   0.000000  -0.000000
     6  C   -0.000000   0.000000  -0.000000   0.000000  -0.000000  -0.000000
     7  H    0.000000  -0.000000  -0.000000   0.000000   0.000000   0.000000
     8  H   -0.000000   0.000000   0.000000   0.000000  -0.000000   0.000000
     9  C    0.000000  -0.000000   0.000000   0.000000  -0.000000  -0.000000
    10  H   -0.000000   0.000000   0.000000  -0.000000   0.000000   0.000000
    11  H   -0.000000   0.000000  -0.000000  -0.000000  -0.000000   0.000000
    12  C    0.000000  -0.000000  -0.000000   0.000000   0.000000   0.000000
    13  H   -0.000000  -0.000000  -0.000000   0.000000  -0.000000   0.000000
    14  C    0.000000   0.000000   0.000000   0.000000  -0.000000  -0.000000
    15  H   -0.000000   0.000000   0.000000  -0.000000  -0.000000   0.000000
    16  C    0.000000  -0.000000  -0.000000  -0.000000   0.000000   0.000000
    17  H   -0.000000   0.000000   0.000000  -0.000000  -0.000000   0.000000
    18  H    0.000000  -0.000000   0.000000  -0.000000  -0.000000   0.000000
    19  C   -0.000000   0.000000   0.000000   0.000000  -0.000000  -0.000000
    20  H   -0.000000  -0.000000  -0.000000  -0.000000   0.000000   0.000000
    21  C   -0.000000   0.000000  -0.000000   0.000000  -0.000000   0.000000
    22  H    0.000000  -0.000000   0.000000   0.000000  -0.000000   0.000000
    23  C    0.000000   0.000000  -0.000000   0.000000   0.000000   0.000000
    24  H    0.000000   0.000000   0.000000  -0.000000  -0.000000  -0.000000
    25  H    0.000000  -0.000000  -0.000000  -0.000000   0.000000  -0.000000
    26  C   -0.000000  -0.000000   0.000000   0.000000  -0.000000   0.000000
    27  H   -0.000000  -0.000000   0.000000  -0.000000  -0.000000   0.000000
    28  H   -0.000000  -0.000000  -0.000000  -0.000000   0.000000  -0.000000
               7          8          9         10         11         12
     1  C    0.000000  -0.000000   0.000000  -0.000000  -0.000000   0.000000
     2  C   -0.000000   0.000000  -0.000000   0.000000   0.000000  -0.000000
     3  H   -0.000000   0.000000   0.000000   0.000000  -0.000000  -0.000000
     4  H    0.000000   0.000000   0.000000  -0.000000  -0.000000   0.000000
     5  C    0.000000  -0.000000  -0.000000   0.000000  -0.000000   0.000000
     6  C    0.000000   0.000000  -0.000000   0.000000   0.000000   0.000000
     7  H   -0.000000   0.000000  -0.000000   0.000000   0.000000   0.000000
     8  H    0.000000  -0.000000  -0.000000   0.000000  -0.000000  -0.000000
     9  C   -0.000000  -0.000000   0.000001   0.000000  -0.000000   0.000000
    10  H    0.000000   0.000000   0.000000  -0.000000   0.000000  -0.000000
    11  H    0.000000  -0.000000  -0.000000   0.000000  -0.000000   0.000000
    12  C    0.000000  -0.000000   0.000000  -0.000000   0.000000  -0.000000
    13  H   -0.000000  -0.000000  -0.000000   0.000000   0.000000   0.000000
    14  C    0.000000  -0.000000  -0.000000  -0.000000  -0.000000   0.000000
    15  H    0.000000  -0.000000   0.000000   0.000000  -0.000000   0.000000
    16  C   -0.000000  -0.000000  -0.000000   0.000000   0.000000  -0.000000
    17  H    0.000000   0.000000  -0.000000  -0.000000   0.000000  -0.000000
    18  H   -0.000000   0.000000  -0.000000   0.000000   0.000000   0.000000
    19  C   -0.000000   0.000000  -0.000000   0.000000   0.000000   0.000000
    20  H   -0.000000  -0.000000  -0.000000   0.000000  -0.000000  -0.000000
    21  C    0.000000  -0.000000   0.000000  -0.000000  -0.000000   0.000000
    22  H    0.000000   0.000000   0.000000  -0.000000  -0.000000  -0.000000
    23  C    0.000000  -0.000000   0.000000   0.000000  -0.000000  -0.000000
    24  H    0.000000   0.000000   0.000000  -0.000000   0.000000   0.000000
    25  H   -0.000000   0.000000  -0.000000   0.000000   0.000000  -0.000000
    26  C    0.000000   0.000000  -0.000000  -0.000000   0.000000   0.000000
    27  H    0.000000   0.000000   0.000000  -0.000000  -0.000000   0.000000
    28  H   -0.000000   0.000000  -0.000000   0.000000   0.000000  -0.000000
              13         14         15         16         17         18
     1  C   -0.000000   0.000000  -0.000000   0.000000  -0.000000   0.000000
     2  C   -0.000000   0.000000   0.000000  -0.000000   0.000000  -0.000000
     3  H   -0.000000   0.000000   0.000000  -0.000000   0.000000   0.000000
     4  H    0.000000   0.000000  -0.000000  -0.000000  -0.000000  -0.000000
     5  C   -0.000000  -0.000000  -0.000000   0.000000  -0.000000  -0.000000
     6  C    0.000000  -0.000000   0.000000   0.000000   0.000000   0.000000
     7  H   -0.000000   0.000000   0.000000  -0.000000   0.000000  -0.000000
     8  H   -0.000000  -0.000000  -0.000000  -0.000000   0.000000   0.000000
     9  C   -0.000000  -0.000000   0.000000  -0.000000  -0.000000  -0.000000
    10  H    0.000000  -0.000000   0.000000   0.000000  -0.000000   0.000000
    11  H    0.000000  -0.000000  -0.000000   0.000000   0.000000   0.000000
    12  C    0.000000   0.000000   0.000000  -0.000000  -0.000000   0.000000
    13  H    0.000000  -0.000000  -0.000000   0.000000   0.000000  -0.000000
    14  C   -0.000000   0.000000  -0.000000   0.000000  -0.000000   0.000000
    15  H   -0.000000  -0.000000   0.000000  -0.000000  -0.000000  -0.000000
    16  C    0.000000   0.000000  -0.000000  -0.000000   0.000000   0.000000
    17  H    0.000000  -0.000000  -0.000000   0.000000   0.000000  -0.000000
    18  H   -0.000000   0.000000  -0.000000   0.000000  -0.000000   0.000000
    19  C    0.000000   0.000000  -0.000000   0.000000  -0.000000   0.000000
    20  H   -0.000000  -0.000000   0.000000   0.000000   0.000000  -0.000000
    21  C    0.000000  -0.000000   0.000000  -0.000000   0.000000  -0.000000
    22  H    0.000000   0.000000   0.000000  -0.000000   0.000000  -0.000000
    23  C   -0.000000  -0.000000  -0.000000   0.000000   0.000000  -0.000000
    24  H    0.000000   0.000000   0.000000  -0.000000  -0.000000   0.000000
    25  H    0.000000   0.000000  -0.000000   0.000000  -0.000000   0.000000
    26  C    0.000000  -0.000000   0.000000   0.000000  -0.000000  -0.000000
    27  H    0.000000  -0.000000   0.000000   0.000000  -0.000000  -0.000000
[...]
     2  C    0.000000  -0.000000   0.000000  -0.000000
     3  H   -0.000000   0.000000   0.000000   0.000000
     4  H   -0.000000   0.000000   0.000000  -0.000000
     5  C   -0.000000  -0.000000  -0.000000   0.000000
     6  C   -0.000000   0.000000   0.000000  -0.000000
     7  H   -0.000000   0.000000   0.000000  -0.000000
     8  H    0.000000   0.000000   0.000000   0.000000
     9  C    0.000000  -0.000000   0.000000   0.000000
    10  H   -0.000000  -0.000000  -0.000000  -0.000000
    11  H    0.000000   0.000000   0.000000   0.000000
    12  C    0.000000   0.000000   0.000000   0.000000
    13  H    0.000000   0.000000   0.000000   0.000000
    14  C   -0.000000  -0.000000  -0.000000  -0.000000
    15  H   -0.000000   0.000000  -0.000000  -0.000000
    16  C    0.000000  -0.000000   0.000000   0.000000
    17  H   -0.000000  -0.000000  -0.000000   0.000000
    18  H    0.000000  -0.000000   0.000000   0.000000
    19  C   -0.000000  -0.000000   0.000000   0.000000
    20  H   -0.000000  -0.000000   0.000000  -0.000000
    21  C    0.000000   0.000000  -0.000000   0.000000
    22  H   -0.000000  -0.000000   0.000000  -0.000000
    23  C   -0.000000   0.000000   0.000000   0.000000
    24  H   -0.000000  -0.000000  -0.000000  -0.000000
    25  H    0.000000  -0.000000   0.000000   0.000000
    26  C   -0.000000   0.000001  -0.000000  -0.000000
    27  H    0.000000  -0.000000  -0.000000   0.000000
    28  H    0.000000  -0.000000   0.000000  -0.000000
 Mulliken charges and spin densities:
               1          2
     1  C   -0.203662  -0.000000
     2  C   -0.197052   0.000001
     3  H    0.148298  -0.000000
     4  H    0.171442  -0.000000
     5  C   -0.190189  -0.000001
     6  C   -0.197198   0.000001
     7  H    0.166992  -0.000000
     8  H    0.171333   0.000000
     9  C   -0.217396   0.000001
    10  H    0.131300  -0.000000
    11  H    0.142306  -0.000000
    12  C   -0.161354   0.000001
    13  H    0.151973   0.000000
    14  C   -0.203261  -0.000002
    15  H    0.148347   0.000000
    16  C   -0.193231  -0.000000
    17  H    0.117302  -0.000000
    18  H    0.133292   0.000000
    19  C   -0.191732  -0.000001
    20  H    0.167442   0.000000
    21  C   -0.160153   0.000001
    22  H    0.151687  -0.000000
    23  C   -0.217472  -0.000001
    24  H    0.142064   0.000000
    25  H    0.131326   0.000000
    26  C   -0.193259   0.000000
    27  H    0.133271  -0.000000
    28  H    0.117584  -0.000000
 Sum of Mulliken charges =  -0.00000  -0.00000
 Mulliken charges and spin densities with hydrogens summed into heavy atoms:
               1          2
     1  C   -0.055364  -0.000000
     2  C   -0.025609   0.000000
     5  C   -0.023197  -0.000001
     6  C   -0.025865   0.000001
     9  C    0.056209   0.000000
    12  C   -0.009380   0.000001
    14  C   -0.054914  -0.000002
    16  C    0.057363  -0.000000
    19  C   -0.024290  -0.000000
    21  C   -0.008466   0.000000
    23  C    0.055918  -0.000000
    26  C    0.057596   0.000000
 Electronic spatial extent (au):  <R**2>=           2308.9770
 Charge=             -0.0000 electrons
 Dipole moment (field-independent basis, Debye):
    X=             -0.0006    Y=             -0.0009    Z=              0.0002  Tot=              0.0011
 Quadrupole moment (field-independent basis, Debye-Ang):
   XX=            -70.3286   YY=            -68.1304   ZZ=            -75.2330
   XY=             -3.3414   XZ=             -3.8010   YZ=             -1.7348
 Traceless Quadrupole moment (field-independent basis, Debye-Ang):
   XX=              0.9020   YY=              3.1003   ZZ=             -4.0023
   XY=             -3.3414   XZ=             -3.8010   YZ=             -1.7348
 Octapole moment (field-independent basis, Debye-Ang**2):
  XXX=              0.0110  YYY=             -0.0069  ZZZ=              0.0005  XYY=              0.0042
  XXY=              0.0006  XXZ=             -0.0054  XZZ=             -0.0061  YZZ=             -0.0028
  YYZ=              0.0056  XYZ=             -0.0019
 Hexadecapole moment (field-independent basis, Debye-Ang**3):
 XXXX=          -2047.5187 YYYY=           -610.2752 ZZZZ=           -413.1875 XXXY=           -114.3705
 XXXZ=           -159.6666 YYYX=            -65.0680 YYYZ=             -7.0039 ZZZX=           -101.6778
 ZZZY=            -19.9192 XXYY=           -438.5292 XXZZ=           -432.2927 YYZZ=           -185.6579
 XXYZ=            -25.8327 YYXZ=            -36.7278 ZZXY=            -46.7709
 N-N= 6.742817074724D+02 E-N=-2.431178003943D+03  KE= 4.643086563480D+02
                          Isotropic Fermi Contact Couplings
        Atom                 a.u.       MegaHertz       Gauss      10(-4) cm-1
     1  C(13)             -0.00000      -0.00002      -0.00001      -0.00001
     2  C(13)              0.00000       0.00012       0.00004       0.00004
     3  H(1)               0.00000       0.00002       0.00001       0.00001
     4  H(1)              -0.00000      -0.00012      -0.00004      -0.00004
     5  C(13)              0.00000       0.00008       0.00003       0.00003
     6  C(13)              0.00000       0.00000       0.00000       0.00000
     7  H(1)              -0.00000      -0.00020      -0.00007      -0.00007
     8  H(1)               0.00000       0.00004       0.00001       0.00001
     9  C(13)              0.00000       0.00027       0.00010       0.00009
    10  H(1)              -0.00000      -0.00009      -0.00003      -0.00003
    11  H(1)              -0.00000      -0.00014      -0.00005      -0.00005
    12  C(13)             -0.00000      -0.00003      -0.00001      -0.00001
    13  H(1)               0.00000       0.00015       0.00005       0.00005
    14  C(13)             -0.00000      -0.00010      -0.00003      -0.00003
    15  H(1)               0.00000       0.00006       0.00002       0.00002
    16  C(13)             -0.00000      -0.00011      -0.00004      -0.00004
    17  H(1)              -0.00000      -0.00003      -0.00001      -0.00001
    18  H(1)               0.00000       0.00000       0.00000       0.00000
    19  C(13)             -0.00000      -0.00020      -0.00007      -0.00007
    20  H(1)               0.00000       0.00027       0.00009       0.00009
    21  C(13)              0.00000       0.00015       0.00005       0.00005
    22  H(1)              -0.00000      -0.00022      -0.00008      -0.00007
    23  C(13)             -0.00000      -0.00032      -0.00011      -0.00011
    24  H(1)               0.00000       0.00017       0.00006       0.00006
    25  H(1)               0.00000       0.00019       0.00007       0.00006
    26  C(13)              0.00000       0.00016       0.00006       0.00005
    27  H(1)              -0.00000      -0.00005      -0.00002      -0.00002
    28  H(1)              -0.00000      -0.00007      -0.00002      -0.00002
 --------------------------------------------------------
       Center         ----  Spin Dipole Couplings  ----
                      3XX-RR        3YY-RR        3ZZ-RR
 --------------------------------------------------------
     1   Atom        0.000000      0.000000     -0.000001
     2   Atom       -0.000000     -0.000000      0.000001
     3   Atom       -0.000000      0.000000      0.000000
     4   Atom        0.000000     -0.000000     -0.000000
     5   Atom        0.000000      0.000001     -0.000001
     6   Atom        0.000000     -0.000001      0.000001
     7   Atom       -0.000000      0.000000     -0.000000
     8   Atom        0.000000     -0.000000      0.000000
     9   Atom        0.000000     -0.000000      0.000000
    10   Atom       -0.000000     -0.000000      0.000000
    11   Atom       -0.000000      0.000000     -0.000000
    12   Atom       -0.000001     -0.000001      0.000001
    13   Atom       -0.000000     -0.000000      0.000000
    14   Atom       -0.000000      0.000001     -0.000001
    15   Atom       -0.000000      0.000000     -0.000000
    16   Atom       -0.000000      0.000000     -0.000000
    17   Atom        0.000000     -0.000000      0.000000
    18   Atom        0.000000     -0.000000      0.000000
    19   Atom       -0.000000     -0.000000      0.000000
    20   Atom        0.000000     -0.000000      0.000000
    21   Atom        0.000000      0.000000     -0.000000
    22   Atom       -0.000000      0.000000     -0.000000
    23   Atom       -0.000000      0.000000     -0.000000
    24   Atom       -0.000000     -0.000000      0.000000
    25   Atom        0.000000      0.000000     -0.000000
    26   Atom        0.000000     -0.000000      0.000000
    27   Atom        0.000000      0.000000     -0.000000
    28   Atom        0.000000     -0.000000      0.000000
 --------------------------------------------------------
                        XY            XZ            YZ
 --------------------------------------------------------
     1   Atom       -0.000000      0.000000     -0.000000
     2   Atom       -0.000000      0.000000      0.000000
     3   Atom       -0.000000     -0.000000     -0.000000
     4   Atom        0.000000     -0.000000     -0.000000
     5   Atom       -0.000000     -0.000000     -0.000000
     6   Atom        0.000000      0.000001      0.000000
     7   Atom       -0.000000     -0.000000      0.000000
     8   Atom       -0.000000     -0.000000      0.000000
     9   Atom        0.000000     -0.000000      0.000000
    10   Atom       -0.000000      0.000000     -0.000000
    11   Atom        0.000000      0.000000      0.000000
    12   Atom        0.000000      0.000001      0.000000
    13   Atom        0.000000      0.000000      0.000000
    14   Atom        0.000000     -0.000001      0.000000
    15   Atom       -0.000000      0.000000      0.000000
    16   Atom        0.000000      0.000000      0.000000
    17   Atom       -0.000000     -0.000000     -0.000000
    18   Atom        0.000000     -0.000000      0.000000
    19   Atom        0.000000     -0.000000     -0.000000
    20   Atom        0.000000      0.000000     -0.000000
    21   Atom        0.000000      0.000000     -0.000000
    22   Atom        0.000000     -0.000000     -0.000000
    23   Atom       -0.000000      0.000000     -0.000000
    24   Atom       -0.000000     -0.000000     -0.000000
    25   Atom        0.000000     -0.000000      0.000000
    26   Atom       -0.000000     -0.000000     -0.000000
    27   Atom       -0.000000      0.000000     -0.000000
    28   Atom        0.000000      0.000000      0.000000
 --------------------------------------------------------


 ---------------------------------------------------------------------------------
              Anisotropic Spin Dipole Couplings in Principal Axis System
 ---------------------------------------------------------------------------------

       Atom             a.u.   MegaHertz   Gauss  10(-4) cm-1        Axes

              Baa    -0.0000    -0.000    -0.000    -0.000 -0.1429  0.1468  0.9788
     1 C(13)  Bbb     0.0000     0.000     0.000     0.000  0.3142  0.9445 -0.0958
              Bcc     0.0000     0.000     0.000     0.000  0.9385 -0.2939  0.1811
 
              Baa    -0.0000    -0.000    -0.000    -0.000  0.7823  0.5970 -0.1778
     2 C(13)  Bbb    -0.0000    -0.000    -0.000    -0.000 -0.6227  0.7566 -0.1993
              Bcc     0.0000     0.000     0.000     0.000  0.0155  0.2666  0.9637
 
              Baa    -0.0000    -0.000    -0.000    -0.000  0.9771  0.1055  0.1848
     3 H(1)   Bbb     0.0000     0.000     0.000     0.000 -0.1511  0.9555  0.2535
              Bcc     0.0000     0.000     0.000     0.000 -0.1498 -0.2756  0.9495
 
              Baa    -0.0000    -0.000    -0.000    -0.000 -0.1206  0.9282  0.3520
     4 H(1)   Bbb    -0.0000    -0.000    -0.000    -0.000  0.1719 -0.3297  0.9283
              Bcc     0.0000     0.000     0.000     0.000  0.9777  0.1725 -0.1198
 
              Baa    -0.0000    -0.000    -0.000    -0.000  0.2389  0.0758  0.9681
     5 C(13)  Bbb     0.0000     0.000     0.000     0.000  0.8683  0.4297 -0.2479
              Bcc     0.0000     0.000     0.000     0.000 -0.4348  0.8998  0.0368
 
              Baa    -0.0000    -0.000    -0.000    -0.000  0.7325 -0.5224 -0.4364
     6 C(13)  Bbb    -0.0000    -0.000    -0.000    -0.000  0.3279  0.8326 -0.4463
              Bcc     0.0000     0.000     0.000     0.000  0.5966  0.1838  0.7812
 
              Baa    -0.0000    -0.000    -0.000    -0.000  0.5546 -0.0062  0.8321
     7 H(1)   Bbb     0.0000     0.000     0.000     0.000  0.7608  0.4089 -0.5040
              Bcc     0.0000     0.000     0.000     0.000 -0.3372  0.9125  0.2315
 
              Baa    -0.0000    -0.000    -0.000    -0.000 -0.0709  0.9810 -0.1805
     8 H(1)   Bbb    -0.0000    -0.000    -0.000    -0.000  0.8704  0.1493  0.4692
              Bcc     0.0000     0.000     0.000     0.000 -0.4873  0.1238  0.8644
 
              Baa    -0.0000    -0.000    -0.000    -0.000 -0.3457  0.9097 -0.2303
     9 C(13)  Bbb     0.0000     0.000     0.000     0.000 -0.1804  0.1764  0.9676
              Bcc     0.0000     0.000     0.000     0.000  0.9208  0.3760  0.1031
 
              Baa    -0.0000    -0.000    -0.000    -0.000  0.7514  0.5926 -0.2903
    10 H(1)   Bbb    -0.0000    -0.000    -0.000    -0.000 -0.4375  0.7767  0.4530
              Bcc     0.0000     0.000     0.000     0.000  0.4939 -0.2134  0.8429
 
              Baa    -0.0000    -0.000    -0.000    -0.000  0.5008 -0.4257  0.7536
    11 H(1)   Bbb    -0.0000    -0.000    -0.000    -0.000  0.6869 -0.3342 -0.6453
              Bcc     0.0000     0.000     0.000     0.000  0.5266  0.8409  0.1251
 
              Baa    -0.0000    -0.000    -0.000    -0.000  0.1457  0.9851 -0.0909
    12 C(13)  Bbb    -0.0000    -0.000    -0.000    -0.000  0.9441 -0.1659 -0.2849
              Bcc     0.0000     0.000     0.000     0.000  0.2958  0.0443  0.9542
 
              Baa    -0.0000    -0.000    -0.000    -0.000 -0.6367  0.7539  0.1619
    13 H(1)   Bbb    -0.0000    -0.000    -0.000    -0.000  0.6293  0.6293 -0.4561
              Bcc     0.0000     0.000     0.000     0.000  0.4458  0.1885  0.8751
 
              Baa    -0.0000    -0.000    -0.000    -0.000  0.6511 -0.0944  0.7531
    14 C(13)  Bbb     0.0000     0.000     0.000     0.000  0.4599  0.8384 -0.2924
              Bcc     0.0000     0.000     0.000     0.000  0.6038 -0.5367 -0.5893
 
              Baa    -0.0000    -0.000    -0.000    -0.000 -0.5702 -0.1618  0.8054
    15 H(1)   Bbb     0.0000     0.000     0.000     0.000  0.8167 -0.0064  0.5770
              Bcc     0.0000     0.000     0.000     0.000 -0.0881  0.9868  0.1358
 
              Baa    -0.0000    -0.000    -0.000    -0.000 -0.7027 -0.0234  0.7111
    16 C(13)  Bbb     0.0000     0.000     0.000     0.000  0.6762 -0.3327  0.6573
              Bcc     0.0000     0.000     0.000     0.000  0.2212  0.9427  0.2496
 
              Baa    -0.0000    -0.000    -0.000    -0.000  0.5884  0.6618  0.4646
    17 H(1)   Bbb     0.0000     0.000     0.000     0.000 -0.2042 -0.4343  0.8773
              Bcc     0.0000     0.000     0.000     0.000  0.7823 -0.6111 -0.1204
 
              Baa    -0.0000    -0.000    -0.000    -0.000 -0.4599  0.8271 -0.3231
    18 H(1)   Bbb     0.0000     0.000     0.000     0.000  0.8832  0.3883 -0.2631
              Bcc     0.0000     0.000     0.000     0.000  0.0921  0.4064  0.9090
 
              Baa    -0.0000    -0.000    -0.000    -0.000  0.8121  0.2253  0.5383
    19 C(13)  Bbb    -0.0000    -0.000    -0.000    -0.000 -0.3655  0.9155  0.1683
              Bcc     0.0000     0.000     0.000     0.000 -0.4549 -0.3334  0.8258
 
              Baa    -0.0000    -0.000    -0.000    -0.000 -0.5145  0.8214  0.2462
    20 H(1)   Bbb     0.0000     0.000     0.000     0.000  0.5979  0.1378  0.7896
              Bcc     0.0000     0.000     0.000     0.000  0.6147  0.5535 -0.5620
 
              Baa    -0.0000    -0.000    -0.000    -0.000 -0.2720  0.2351  0.9331
    21 C(13)  Bbb     0.0000     0.000     0.000     0.000  0.1237  0.9702 -0.2084
              Bcc     0.0000     0.000     0.000     0.000  0.9543 -0.0587  0.2930
 
              Baa    -0.0000    -0.000    -0.000    -0.000 -0.3844  0.3745  0.8438
    22 H(1)   Bbb    -0.0000    -0.000    -0.000    -0.000  0.8712 -0.1551  0.4657
              Bcc     0.0000     0.000     0.000     0.000  0.3053  0.9142 -0.2666
 
              Baa    -0.0000    -0.000    -0.000    -0.000  0.9187  0.3429 -0.1960
    23 C(13)  Bbb    -0.0000    -0.000    -0.000    -0.000  0.0843  0.3144  0.9455
              Bcc     0.0000     0.000     0.000     0.000 -0.3858  0.8852 -0.2599
 
              Baa    -0.0000    -0.000    -0.000    -0.000  0.6176  0.7769  0.1224
    24 H(1)   Bbb     0.0000     0.000     0.000     0.000 -0.3990  0.1754  0.9000
              Bcc     0.0000     0.000     0.000     0.000  0.6778 -0.6047  0.4184
 
              Baa    -0.0000    -0.000    -0.000    -0.000  0.4169 -0.1532  0.8960
    25 H(1)   Bbb     0.0000     0.000     0.000     0.000  0.8441  0.4310 -0.3191
              Bcc     0.0000     0.000     0.000     0.000 -0.3372  0.8893  0.3090
 
              Baa    -0.0000    -0.000    -0.000    -0.000  0.2890  0.9114  0.2930
    26 C(13)  Bbb    -0.0000    -0.000    -0.000    -0.000  0.6483 -0.4116  0.6405
              Bcc     0.0000     0.000     0.000     0.000 -0.7044 -0.0048  0.7098
 
              Baa    -0.0000    -0.000    -0.000    -0.000  0.5953  0.7227  0.3511
    27 H(1)   Bbb    -0.0000    -0.000    -0.000    -0.000 -0.4487 -0.0635  0.8914
              Bcc     0.0000     0.000     0.000     0.000 -0.6665  0.6882 -0.2865
 
              Baa    -0.0000    -0.000    -0.000    -0.000  0.1597  0.8294 -0.5354
    28 H(1)   Bbb    -0.0000    -0.000    -0.000    -0.000  0.8589 -0.3841 -0.3387
              Bcc     0.0000     0.000     0.000     0.000  0.4866  0.4058  0.7737
 

 ---------------------------------------------------------------------------------

 No NMR shielding tensors so no spin-rotation constants.
 Leave Link  601 at Tue Aug  4 01:20:49 2020, MaxMem=  6442450944 cpu:               8.0 elap:               0.4
 (Enter /scratch/scicomp/CentOS/7.3.1611/Haswell/software/Gaussian/g16/l9999.exe)
 1\1\GINC-ATLAS-205\SP\UwB97XD\def2TZVP\C12H16\BOCHEN\04-Aug-2020\0\\#p
  uwb97xd guess=mix def2tzvp # scrf=(iefpcm,solvent=Cyclohexane,read) n
 osym 6d 10f\\endo-2 xp-pcm for eta=3\\0,1\C,0,-3.126543,-0.441233,0.26
 819\C,0,-0.754024,-0.256533,-1.270411\H,0,-4.062711,-0.529769,0.807219
 \H,0,0.190409,-0.176659,-1.794641\C,0,1.183128,1.429264,0.813376\C,0,0
 .754024,0.256533,1.270411\H,0,0.59129,2.326044,0.95317\H,0,-0.190409,0
 .176659,1.794641\C,0,1.584536,-0.987345,1.138633\H,0,2.135575,-1.11903
 7,2.078702\H,0,0.936296,-1.859379,1.043739\C,0,2.46452,1.53174,0.11405
 5\H,0,2.863784,2.5164,-0.09795\C,0,3.126543,0.441233,-0.26819\H,0,4.06
 2711,0.529769,-0.807219\C,0,2.569963,-0.936686,-0.033648\H,0,2.075826,
 -1.26812,-0.9552\H,0,3.381182,-1.64698,0.137036\C,0,-1.183128,-1.42926
 4,-0.813376\H,0,-0.59129,-2.326044,-0.95317\C,0,-2.46452,-1.53174,-0.1
 14055\H,0,-2.863784,-2.5164,0.09795\C,0,-1.584536,0.987345,-1.138633\H
 ,0,-0.936296,1.859379,-1.043739\H,0,-2.135575,1.119037,-2.078702\C,0,-
 2.569963,0.936686,0.033648\H,0,-3.381182,1.64698,-0.137036\H,0,-2.0758
 26,1.26812,0.9552\\Version=ES64L-G16RevB.01\HF=-466.809567\S2=0.\S2-1=
 0.\S2A=0.\RMSD=9.659e-09\Dipole=-0.0002279,-0.0003635,0.0000922\Quadru
 pole=0.6706451,2.3049996,-2.9756447,-2.4842669,-2.8259262,-1.2897856\P
 G=CI [X(C12H16)]\\@


 You don't have to suffer to be a poet.
 Adolescence is enough suffering for anyone.
                             -- John Ciardi
 Job cpu time:       0 days  2 hours  6 minutes 54.2 seconds.
 Elapsed time:       0 days  0 hours  5 minutes 20.4 seconds.
 File lengths (MBytes):  RWF=    648 Int=      0 D2E=      0 Chk=     25 Scr=      1
 Normal termination of Gaussian 16 at Tue Aug  4 01:20:50 2020.
