 Entering Gaussian System, Link 0=g16
 Input=meso-TS_82_2_xp-Ger.com
 Output=meso-TS_82_2_xp-Ger.log
 Initial command:
 /scratch/scicomp/CentOS/7.3.1611/Haswell/software/Gaussian/g16/l1.exe "/scratch/bochen/cyclohexadiene-dimerization/wb97xd-def2tzvp/xp-pcm/meso/Gau-156383.inp" -scrdir="/scratch/bochen/cyclohexadiene-dimerization/wb97xd-def2tzvp/xp-pcm/meso/"
 Entering Link 1 = /scratch/scicomp/CentOS/7.3.1611/Haswell/software/Gaussian/g16/l1.exe PID=    156384.
  
 Copyright (c) 1988-2017, Gaussian, Inc.  All Rights Reserved.
  
 This is part of the Gaussian(R) 16 program.  It is based on
 the Gaussian(R) 09 system (copyright 2009, Gaussian, Inc.),
 the Gaussian(R) 03 system (copyright 2003, Gaussian, Inc.),
 the Gaussian(R) 98 system (copyright 1998, Gaussian, Inc.),
 the Gaussian(R) 94 system (copyright 1995, Gaussian, Inc.),
 the Gaussian 92(TM) system (copyright 1992, Gaussian, Inc.),
 the Gaussian 90(TM) system (copyright 1990, Gaussian, Inc.),
 the Gaussian 88(TM) system (copyright 1988, Gaussian, Inc.),
 the Gaussian 86(TM) system (copyright 1986, Carnegie Mellon
 University), and the Gaussian 82(TM) system (copyright 1983,
 Carnegie Mellon University). Gaussian is a federally registered
 trademark of Gaussian, Inc.
  
 This software contains proprietary and confidential information,
 including trade secrets, belonging to Gaussian, Inc.
  
 This software is provided under written license and may be
 used, copied, transmitted, or stored only in accord with that
 written license.
  
 The following legend is applicable only to US Government
 contracts under FAR:
  
                    RESTRICTED RIGHTS LEGEND
  
 Use, reproduction and disclosure by the US Government is
 subject to restrictions as set forth in subparagraphs (a)
 and (c) of the Commercial Computer Software - Restricted
 Rights clause in FAR 52.227-19.
  
 Gaussian, Inc.
 340 Quinnipiac St., Bldg. 40, Wallingford CT 06492
  
  
 ---------------------------------------------------------------
 Warning -- This program may not be used in any manner that
 competes with the business of Gaussian, Inc. or will provide
 assistance to any competitor of Gaussian, Inc.  The licensee
 of this program is prohibited from giving any competitor of
 Gaussian, Inc. access to this program.  By using this program,
 the user acknowledges that Gaussian, Inc. is engaged in the
 business of creating and licensing software in the field of
 computational chemistry and represents and warrants to the
 licensee that it is not a competitor of Gaussian, Inc. and that
 it will not use this program in any manner prohibited above.
 ---------------------------------------------------------------
  

 Cite this work as:
 Gaussian 16, Revision B.01,
 M. J. Frisch, G. W. Trucks, H. B. Schlegel, G. E. Scuseria, 
 M. A. Robb, J. R. Cheeseman, G. Scalmani, V. Barone, 
 G. A. Petersson, H. Nakatsuji, X. Li, M. Caricato, A. V. Marenich, 
 J. Bloino, B. G. Janesko, R. Gomperts, B. Mennucci, H. P. Hratchian, 
 J. V. Ortiz, A. F. Izmaylov, J. L. Sonnenberg, D. Williams-Young, 
 F. Ding, F. Lipparini, F. Egidi, J. Goings, B. Peng, A. Petrone, 
 T. Henderson, D. Ranasinghe, V. G. Zakrzewski, J. Gao, N. Rega, 
 G. Zheng, W. Liang, M. Hada, M. Ehara, K. Toyota, R. Fukuda, 
 J. Hasegawa, M. Ishida, T. Nakajima, Y. Honda, O. Kitao, H. Nakai, 
 T. Vreven, K. Throssell, J. A. Montgomery, Jr., J. E. Peralta, 
 F. Ogliaro, M. J. Bearpark, J. J. Heyd, E. N. Brothers, K. N. Kudin, 
 V. N. Staroverov, T. A. Keith, R. Kobayashi, J. Normand, 
 K. Raghavachari, A. P. Rendell, J. C. Burant, S. S. Iyengar, 
 J. Tomasi, M. Cossi, J. M. Millam, M. Klene, C. Adamo, R. Cammi, 
 J. W. Ochterski, R. L. Martin, K. Morokuma, O. Farkas, 
 J. B. Foresman, and D. J. Fox, Gaussian, Inc., Wallingford CT, 2016.
 
 ******************************************
 Gaussian 16:  ES64L-G16RevB.01 20-Dec-2017
                 3-Aug-2020 
 ******************************************
 %chk=meso-TS_82_2_xp-12.chk
 %nproc=24
 Will use up to   24 processors via shared memory.
 %mem=48GB
 ----------------------------------------------------------------------
 #p uwb97xd guess=mix def2tzvp # scrf=(iefpcm,solvent=Cyclohexane,read)
  nosym 6d 10f
 ----------------------------------------------------------------------
 1/38=1,40=2,172=1/1;
 2/12=2,15=1,17=6,18=5,40=1/2;
 3/5=44,7=101,8=22,11=2,25=1,30=1,70=2203,72=17,74=-58,116=2/1,2,3;
 4/13=-1/1;
 5/5=2,38=5,53=17/2;
 6/7=2,8=2,9=2,10=2,28=1/1;
 99/5=1,9=1/99;
 Leave Link    1 at Mon Aug  3 19:43:50 2020, MaxMem=  6442450944 cpu:               3.0 elap:               0.1
 (Enter /scratch/scicomp/CentOS/7.3.1611/Haswell/software/Gaussian/g16/l101.exe)
 -----------------------
 endo-2 xp-pcm for eta=3
 -----------------------
 Symbolic Z-matrix:
 Charge =  0 Multiplicity = 1
 6                    -3.11135  -0.43802   0.28848 
 6                    -0.83889  -0.28004  -1.39646 
 1                    -4.01885  -0.51218   0.87639 
 1                     0.07429  -0.21086  -1.9754 
 6                     1.24359   1.44575   0.89871 
 6                     0.83889   0.28004   1.39646 
 1                     0.66168   2.34598   1.05776 
 1                    -0.07429   0.21086   1.9754 
 6                     1.6632   -0.96411   1.22734 
 1                     2.29857  -1.0725    2.11632 
 1                     1.01584  -1.84232   1.20508 
 6                     2.49012   1.53696   0.13628 
 1                     2.89263   2.5174   -0.08862 
 6                     3.11135   0.43802  -0.28848 
 1                     4.01885   0.51218  -0.87639 
 6                     2.53443  -0.92699  -0.03016 
 1                     1.93625  -1.21723  -0.90259 
 1                     3.33118  -1.66882   0.04844 
 6                    -1.24359  -1.44575  -0.89871 
 1                    -0.66168  -2.34598  -1.05776 
 6                    -2.49012  -1.53696  -0.13628 
 1                    -2.89263  -2.5174    0.08862 
 6                    -1.6632    0.96411  -1.22734 
 1                    -1.01584   1.84232  -1.20508 
 1                    -2.29857   1.0725   -2.11632 
 6                    -2.53443   0.92699   0.03016 
 1                    -3.33118   1.66882  -0.04844 
 1                    -1.93625   1.21723   0.90259 
 
 ITRead=  0  0  0  0  0  0  0  0  0  0  0  0  0  0  0  0  0  0  0  0
 ITRead=  0  0  0  0  0  0  0  0
 MicOpt= -1 -1 -1 -1 -1 -1 -1 -1 -1 -1 -1 -1 -1 -1 -1 -1 -1 -1 -1 -1
 MicOpt= -1 -1 -1 -1 -1 -1 -1 -1
 NAtoms=     28 NQM=       28 NQMF=       0 NMMI=      0 NMMIF=      0
                NMic=       0 NMicF=      0.
                    Isotopes and Nuclear Properties:
 (Nuclear quadrupole moments (NQMom) in fm**2, nuclear magnetic moments (NMagM)
  in nuclear magnetons)

  Atom         1           2           3           4           5           6           7           8           9          10
 IAtWgt=          12          12           1           1          12          12           1           1          12           1
 AtmWgt=  12.0000000  12.0000000   1.0078250   1.0078250  12.0000000  12.0000000   1.0078250   1.0078250  12.0000000   1.0078250
 NucSpn=           0           0           1           1           0           0           1           1           0           1
 AtZEff=  -0.0000000  -0.0000000  -0.0000000  -0.0000000  -0.0000000  -0.0000000  -0.0000000  -0.0000000  -0.0000000  -0.0000000
 NQMom=    0.0000000   0.0000000   0.0000000   0.0000000   0.0000000   0.0000000   0.0000000   0.0000000   0.0000000   0.0000000
 NMagM=    0.0000000   0.0000000   2.7928460   2.7928460   0.0000000   0.0000000   2.7928460   2.7928460   0.0000000   2.7928460
 AtZNuc=   6.0000000   6.0000000   1.0000000   1.0000000   6.0000000   6.0000000   1.0000000   1.0000000   6.0000000   1.0000000

  Atom        11          12          13          14          15          16          17          18          19          20
 IAtWgt=           1          12           1          12           1          12           1           1          12           1
 AtmWgt=   1.0078250  12.0000000   1.0078250  12.0000000   1.0078250  12.0000000   1.0078250   1.0078250  12.0000000   1.0078250
 NucSpn=           1           0           1           0           1           0           1           1           0           1
 AtZEff=  -0.0000000  -0.0000000  -0.0000000  -0.0000000  -0.0000000  -0.0000000  -0.0000000  -0.0000000  -0.0000000  -0.0000000
 NQMom=    0.0000000   0.0000000   0.0000000   0.0000000   0.0000000   0.0000000   0.0000000   0.0000000   0.0000000   0.0000000
 NMagM=    2.7928460   0.0000000   2.7928460   0.0000000   2.7928460   0.0000000   2.7928460   2.7928460   0.0000000   2.7928460
 AtZNuc=   1.0000000   6.0000000   1.0000000   6.0000000   1.0000000   6.0000000   1.0000000   1.0000000   6.0000000   1.0000000

  Atom        21          22          23          24          25          26          27          28
 IAtWgt=          12           1          12           1           1          12           1           1
 AtmWgt=  12.0000000   1.0078250  12.0000000   1.0078250   1.0078250  12.0000000   1.0078250   1.0078250
 NucSpn=           0           1           0           1           1           0           1           1
 AtZEff=  -0.0000000  -0.0000000  -0.0000000  -0.0000000  -0.0000000  -0.0000000  -0.0000000  -0.0000000
 NQMom=    0.0000000   0.0000000   0.0000000   0.0000000   0.0000000   0.0000000   0.0000000   0.0000000
 NMagM=    0.0000000   2.7928460   0.0000000   2.7928460   2.7928460   0.0000000   2.7928460   2.7928460
 AtZNuc=   6.0000000   1.0000000   6.0000000   1.0000000   1.0000000   6.0000000   1.0000000   1.0000000
 Leave Link  101 at Mon Aug  3 19:43:50 2020, MaxMem=  6442450944 cpu:               2.4 elap:               0.1
 (Enter /scratch/scicomp/CentOS/7.3.1611/Haswell/software/Gaussian/g16/l202.exe)
                          Input orientation:                          
 ---------------------------------------------------------------------
 Center     Atomic      Atomic             Coordinates (Angstroms)
 Number     Number       Type             X           Y           Z
 ---------------------------------------------------------------------
      1          6           0       -3.111354   -0.438024    0.288476
      2          6           0       -0.838887   -0.280035   -1.396455
      3          1           0       -4.018848   -0.512178    0.876391
      4          1           0        0.074286   -0.210856   -1.975395
      5          6           0        1.243587    1.445746    0.898709
      6          6           0        0.838887    0.280035    1.396455
      7          1           0        0.661682    2.345979    1.057759
      8          1           0       -0.074286    0.210856    1.975395
      9          6           0        1.663200   -0.964107    1.227344
     10          1           0        2.298573   -1.072496    2.116318
     11          1           0        1.015835   -1.842319    1.205078
     12          6           0        2.490124    1.536957    0.136281
     13          1           0        2.892627    2.517404   -0.088621
     14          6           0        3.111354    0.438024   -0.288476
     15          1           0        4.018848    0.512178   -0.876391
     16          6           0        2.534434   -0.926987   -0.030159
     17          1           0        1.936253   -1.217234   -0.902586
     18          1           0        3.331183   -1.668816    0.048441
     19          6           0       -1.243587   -1.445746   -0.898709
     20          1           0       -0.661682   -2.345979   -1.057759
     21          6           0       -2.490124   -1.536957   -0.136281
     22          1           0       -2.892627   -2.517404    0.088621
     23          6           0       -1.663200    0.964107   -1.227344
     24          1           0       -1.015835    1.842319   -1.205078
     25          1           0       -2.298573    1.072496   -2.116318
     26          6           0       -2.534434    0.926987    0.030159
     27          1           0       -3.331183    1.668816   -0.048441
     28          1           0       -1.936253    1.217234    0.902586
 ---------------------------------------------------------------------
                    Distance matrix (angstroms):
                    1          2          3          4          5
     1  C    0.000000
     2  C    2.833383   0.000000
     3  H    1.083830   3.915593   0.000000
     4  H    3.914718   1.083440   4.997722   0.000000
     5  C    4.783982   3.547224   5.614908   3.517395   0.000000
     6  C    4.165049   3.305896   4.949309   3.492128   1.330570
     7  H    4.751660   3.894974   5.487196   4.010295   1.083665
     8  H    3.534193   3.492128   4.158143   3.976010   2.102616
     9  C    4.894344   3.689541   5.710786   3.653707   2.468090
    10  H    5.745509   4.776110   6.462289   4.736242   2.989500
    11  H    4.454873   3.556501   5.217791   3.696430   3.310152
    12  C    5.941403   4.090606   6.863923   3.653806   1.464060
    13  H    6.702577   4.843583   7.607766   4.352742   2.200592
    14  C    6.310501   4.165049   7.286946   3.534193   2.431762
    15  H    7.286946   4.949309   8.290121   4.158143   3.424121
    16  C    5.675873   3.696567   6.628680   3.217004   2.856386
    17  H    5.244438   2.970463   6.255005   2.372896   3.288755
    18  H    6.563440   4.626653   7.486406   4.102309   3.844673
    19  C    2.431762   1.330570   3.424121   2.102616   4.216334
    20  H    3.384307   2.101010   4.286528   2.437715   4.672793
    21  C    1.331916   2.427854   2.100636   3.423022   4.889613
    22  H    2.100382   3.380698   2.431026   4.287528   5.785418
    23  C    2.522069   1.501992   3.486287   2.226876   3.633385
    24  H    3.438294   2.138299   4.346752   2.448934   3.112584
    25  H    2.953865   2.116182   3.798269   2.701354   4.666541
    26  C    1.504267   2.523293   2.234007   3.481717   3.911129
    27  H    2.144904   3.438997   2.466766   4.340914   4.677112
    28  H    2.120819   2.954931   2.707167   3.790050   3.188043
                    6          7          8          9         10
     6  C    0.000000
     7  H    2.101010   0.000000
     8  H    1.083440   2.437715   0.000000
     9  C    1.501992   3.462437   2.226876   0.000000
    10  H    2.116182   3.935217   2.701354   1.098054   0.000000
    11  H    2.138299   4.205825   2.448934   1.091253   1.751686
    12  C    2.427854   2.201554   3.423022   2.851235   3.281232
    13  H    3.380698   2.514098   4.287528   3.919716   4.254649
    14  C    2.833383   3.384307   3.914718   2.522069   2.953865
    15  H    3.915593   4.286528   4.997722   3.486287   3.798269
    16  C    2.523293   3.924675   3.481717   1.530275   2.164294
    17  H    2.954931   4.261921   3.790050   2.162229   3.044012
    18  H    3.438997   4.925803   4.340914   2.160693   2.387048
    19  C    3.547224   4.672793   3.517395   3.633385   4.666541
    20  H    3.894974   5.314243   4.010295   3.540670   4.523233
    21  C    4.090606   5.141673   3.653806   4.408824   5.312395
    22  H    4.843583   6.101216   4.352742   4.946209   5.757419
    23  C    3.689541   3.540670   3.653707   4.561627   5.569872
    24  H    3.556501   2.861498   3.696430   4.579294   5.523868
    25  H    4.776110   4.523233   4.736242   5.569872   6.606811
    26  C    3.696567   3.644812   3.217004   4.757060   5.630981
    27  H    4.626653   4.198238   4.102309   5.788244   6.625340
    28  H    2.970463   2.836796   2.372896   4.221348   4.964852
                   11         12         13         14         15
    11  H    0.000000
    12  C    3.838667   0.000000
    13  H    4.919674   1.083451   0.000000
    14  C    3.438294   1.331916   2.100382   0.000000
    15  H    4.346752   2.100636   2.431026   1.083830   0.000000
    16  C    2.160969   2.469957   3.463459   1.504267   2.234007
    17  H    2.383306   2.995261   3.940141   2.120819   2.707167
    18  H    2.593983   3.315430   4.211360   2.144904   2.466766
    19  C    3.112584   4.889613   5.785418   4.783982   5.614908
    20  H    2.861498   5.141673   6.101216   4.751660   5.487196
    21  C    3.766197   5.858849   6.739000   5.941403   6.863923
    22  H    4.120472   6.739000   7.671367   6.702577   7.607766
    23  C    4.579294   4.408824   4.946209   4.894344   5.710786
    24  H    4.849030   3.766197   4.120472   4.454873   5.217791
    25  H    5.523868   5.312395   5.757419   5.745509   6.462289
    26  C    4.653375   5.062559   5.656547   5.675873   6.628680
    27  H    5.726774   5.825729   6.281523   6.563440   7.486406
    28  H    4.262299   4.503583   5.098138   5.244438   6.255005
                   16         17         18         19         20
    16  C    0.000000
    17  H    1.096901   0.000000
    18  H    1.091466   1.747629   0.000000
    19  C    3.911129   3.188043   4.677112   0.000000
    20  H    3.644812   2.836796   4.198238   1.083665   0.000000
    21  C    5.062559   4.503583   5.825729   1.464060   2.201554
    22  H    5.656547   5.098138   6.281523   2.200592   2.514098
    23  C    4.757060   4.221348   5.788244   2.468090   3.462437
    24  H    4.653375   4.262299   5.726774   3.310152   4.205825
    25  H    5.630981   4.964852   6.625340   2.989500   3.935217
    26  C    5.397618   5.045269   6.414358   2.856386   3.924675
    27  H    6.414358   6.066690   7.452268   3.844673   4.925803
    28  H    5.045269   4.917477   6.066690   3.288755   4.261921
                   21         22         23         24         25
    21  C    0.000000
    22  H    1.083451   0.000000
    23  C    2.851235   3.919716   0.000000
    24  H    3.838667   4.919674   1.091253   0.000000
    25  H    3.281232   4.254649   1.098054   1.751686   0.000000
    26  C    2.469957   3.463459   1.530275   2.160969   2.164294
    27  H    3.315430   4.211360   2.160693   2.593983   2.387048
    28  H    2.995261   3.940141   2.162229   2.383306   3.044012
                   26         27         28
    26  C    0.000000
    27  H    1.091466   0.000000
    28  H    1.096901   1.747629   0.000000
 Symmetry turned off by external request.
 Stoichiometry    C12H16
 Framework group  CI[X(C12H16)]
 Deg. of freedom    39
 Full point group                 CI      NOp   2
 Rotational constants (GHZ):           1.6560474           0.5684855           0.5262131
 Leave Link  202 at Mon Aug  3 19:43:50 2020, MaxMem=  6442450944 cpu:               0.3 elap:               0.0
 (Enter /scratch/scicomp/CentOS/7.3.1611/Haswell/software/Gaussian/g16/l301.exe)
 Standard basis: def2TZVP (6D, 10F)
 Ernie: Thresh=  0.10000D-02 Tol=  0.10000D-05 Strict=F.
   528 basis functions,   740 primitive gaussians,   528 cartesian basis functions
    44 alpha electrons       44 beta electrons
       nuclear repulsion energy       667.8831843297 Hartrees.
 IExCor= 4639 DFT=T Ex+Corr=wB97XD ExCW=0 ScaHFX=  1.000000
 ScaDFX=  1.000000  1.000000  1.000000  1.000000 ScalE2=  1.000000  1.000000
 IRadAn=      5 IRanWt=     -1 IRanGd=            0 ICorTp=0 IEmpDi=121
 HFx  wShort=  0.000000 wLong=  0.200000 cFull=  0.222036 cShort=  0.000000 cLong=  0.777964
 DFx  wShort=  0.000000 wLong=  0.200000 cFull=  0.000000 cShort=  0.000000 cLong=  1.000000
 NAtoms=   28 NActive=   28 NUniq=   28 SFac= 1.00D+00 NAtFMM=   60 NAOKFM=F Big=F
 Integral buffers will be    131072 words long.
 Raffenetti 2 integral format.
 Two-electron integral symmetry is turned off.
 R6Disp:  Grimme-D2 Dispersion energy=       -0.0207030569 Hartrees.
 Nuclear repulsion after empirical dispersion term =      667.8624812728 Hartrees.
 Using the following non-standard input for PCM:
 qrep pcmdoc geomview  nodis nocav g03defaults tsare=0.075
 Warning! Using old PCM defaults because the g03defaults keyword was found.
 These settings can be overridden by following keywords.
 nsfe=28
 NVESolv=36  SolvMW=84.1595   Rsolv=2.815
 eps=2.0165 RhoS=0.778099999999998
 --- end of non-standard input.
 Reading user-defined spheres from input:
 ISph  on   Nord    Re0     Alpha      Xe            Ye            Ze
 --- end of user-defined spheres data.
 ------------------------------------------------------------------------------
 Polarizable Continuum Model (PCM)
 =================================
 Model                : PCM.
 Atomic radii         : UA0 (Simple United Atom Topological Model).
 Polarization charges : Total charges.
 Charge compensation  : None.
 Solution method      : On-the-fly selection.
 Cavity type          : SES (Solvent Excluding Surface) (Alpha=1.000).
 Cavity algorithm     : GePol (RMin=0.200 OFac=0.890).
                        User-defined sphere list used, NSphG=   28.
                        Tesserae with average area of 0.075 Ang**2.
                        Smoothing algorithm: None.
                        Polarization charges: point-like.
                        Self-potential: constant (ISelfS= 1).
                        Self-field    : global E.n sum rule (ISelfD= 3).
 Solvent              : CycloHexane, Eps=   2.016500 Eps(inf)=   2.035188
                        RSolv=   2.815000 Ang.
 ------------------------------------------------------------------------------
 GePol: Number of generator spheres                  =      28
 GePol: Total number of spheres                      =     191
 GePol: Number of exposed spheres                    =     129 ( 67.54%)
 GePol: Number of tesserae                           =    4764
 GePol: Average area of tesserae                     =       0.05 Ang**2
 GePol: Minimum area of tessera                      =   0.10D-02 Ang**2
 GePol: Maximum area of tessera                      =    0.12555 Ang**2
 GePol: Number of small tesserae                     =       0
 GePol: Fraction of small tesserae (<1% of avg)      =       0.00%
 GePol: Total count of vertices                      =   16856
 GePol: Maximum number of vertices in a tessera      =       8
 GePol: Cavity surface area                          =    225.602 Ang**2
 GePol: Cavity volume                                =    258.848 Ang**3
 Leave Link  301 at Mon Aug  3 19:43:50 2020, MaxMem=  6442450944 cpu:               8.4 elap:               0.4
 (Enter /scratch/scicomp/CentOS/7.3.1611/Haswell/software/Gaussian/g16/l302.exe)
 NPDir=0 NMtPBC=     1 NCelOv=     1 NCel=       1 NClECP=     1 NCelD=      1
         NCelK=      1 NCelE2=     1 NClLst=     1 CellRange=     0.0.
 One-electron integrals computed using PRISM.
   1 Symmetry operations used in ECPInt.
 ECPInt:  NShTT=   19306 NPrTT=   56928 LenC2=   18446 LenP2D=   41622.
 LDataN:  DoStor=T MaxTD1= 6 Len=  172
 NBasis=   528 RedAO= T EigKep=  2.08D-05  NBF=   528
 NBsUse=   528 1.00D-06 EigRej= -1.00D+00 NBFU=   528
 Precomputing XC quadrature grid using
 IXCGrd= 4 IRadAn=           5 IRanWt=          -1 IRanGd=           0 AccXCQ= 0.00D+00.
 Generated NRdTot=       0 NPtTot=           0 NUsed=           0 NTot=          32
 NSgBfM=   526   526   526   526   526 MxSgAt=    28 MxSgA2=    28.
 Leave Link  302 at Mon Aug  3 19:43:51 2020, MaxMem=  6442450944 cpu:              12.7 elap:               0.6
 (Enter /scratch/scicomp/CentOS/7.3.1611/Haswell/software/Gaussian/g16/l303.exe)
 DipDrv:  MaxL=1.
 Leave Link  303 at Mon Aug  3 19:43:51 2020, MaxMem=  6442450944 cpu:               1.5 elap:               0.1
 (Enter /scratch/scicomp/CentOS/7.3.1611/Haswell/software/Gaussian/g16/l401.exe)
 ExpMin= 9.52D-02 ExpMax= 1.36D+04 ExpMxC= 4.63D+02 IAcc=3 IRadAn=         5 AccDes= 0.00D+00
 Harris functional with IExCor= 4639 and IRadAn=       5 diagonalized for initial guess.
 HarFok:  IExCor= 4639 AccDes= 0.00D+00 IRadAn=         5 IDoV= 1 UseB2=F ITyADJ=14
 ICtDFT=  3500011 ScaDFX=  1.000000  1.000000  1.000000  1.000000
 FoFCou: FMM=F IPFlag=           0 FMFlag=      100000 FMFlg1=           0
         NFxFlg=           0 DoJE=T BraDBF=F KetDBF=T FulRan=T
         wScrn=  0.000000 ICntrl=       500 IOpCl=  0 I1Cent=   200000004 NGrid=           0
         NMat0=    1 NMatS0=      1 NMatT0=    0 NMatD0=    1 NMtDS0=    0 NMtDT0=    0
 Symmetry not used in FoFCou.
 Harris En= -444.661336703175    
 JPrj=0 DoOrth=F DoCkMO=T.
 Mixing orbitals, IMix= 1 IMixAn=  0 NRI=1 NE=   44 Coef=  7.07106781D-01  7.07106781D-01
 Mixing orbitals, IMix= 1 IMixAn=  0 NRI=1 NE=   44 Coef= -7.07106781D-01  7.07106781D-01
 Initial guess <Sx>= 0.0000 <Sy>= 0.0000 <Sz>= 0.0000 <S**2>= 1.0000 S= 0.6180
 Leave Link  401 at Mon Aug  3 19:43:53 2020, MaxMem=  6442450944 cpu:              49.0 elap:               2.1
 (Enter /scratch/scicomp/CentOS/7.3.1611/Haswell/software/Gaussian/g16/l502.exe)
 Two-electron integral symmetry not used.
 UHF open shell SCF:
 Using DIIS extrapolation, IDIIS=  1040.
 NGot=  6442450944 LenX=  6441877030 LenY=  6441597718
 Requested convergence on RMS density matrix=1.00D-08 within 128 cycles.
 Requested convergence on MAX density matrix=1.00D-06.
 Requested convergence on             energy=1.00D-06.
 No special actions if energy rises.
 Fock matrices will be formed incrementally for  20 cycles.

 Cycle   1  Pass 1  IDiag  1:
 FoFJK:  IHMeth= 1 ICntrl=       0 DoSepK=T KAlg= 0 I1Cent=           0 FoldK=F
 IRaf=         1 NMat=       1 IRICut=       1 DoRegI=T DoRafI=F ISym2E= 0 IDoP0=0 IntGTp=1.
 FoFCou: FMM=F IPFlag=           0 FMFlag=      100000 FMFlg1=           0
         NFxFlg=           0 DoJE=T BraDBF=F KetDBF=F FulRan=T
         wScrn=  0.000000 ICntrl=       500 IOpCl=  0 I1Cent=           0 NGrid=           0
         NMat0=    1 NMatS0=      1 NMatT0=    0 NMatD0=    1 NMtDS0=    0 NMtDT0=    0
 Symmetry not used in FoFCou.
 Inv3:  Mode=1 IEnd=    68087088.
 Iteration    1 A*A^-1 deviation from unit magnitude is 3.55D-15 for   3826.
 Iteration    1 A*A^-1 deviation from orthogonality  is 1.88D-15 for    129    120.
 Iteration    1 A^-1*A deviation from unit magnitude is 3.33D-15 for    570.
 Iteration    1 A^-1*A deviation from orthogonality  is 1.33D-14 for   4533    788.
 E= -466.561958321000    
 DIIS: error= 5.37D-02 at cycle   1 NSaved=   1.
 NSaved= 1 IEnMin= 1 EnMin= -466.561958321000     IErMin= 1 ErrMin= 5.37D-02
 ErrMax= 5.37D-02  0.00D+00 EMaxC= 1.00D-01 BMatC= 4.12D+00 BMatP= 4.12D+00
 IDIUse=3 WtCom= 4.63D-01 WtEn= 5.37D-01
 Coeff-Com:  0.100D+01
 Coeff-En:   0.100D+01
 Coeff:      0.100D+01
 Gap=     0.179 Goal=   None    Shift=    0.000
 Gap=     0.179 Goal=   None    Shift=    0.000
 GapD=    0.179 DampG=1.000 DampE=0.500 DampFc=0.5000 IDamp=-1.
 Damping current iteration by 5.00D-01
 RMSDP=1.72D-03 MaxDP=9.35D-02              OVMax= 3.68D-01

 Cycle   2  Pass 1  IDiag  1:
 RMSU=  8.22D-04    CP:  9.60D-01
 E= -466.678219070718     Delta-E=       -0.116260749718 Rises=F Damp=T
 DIIS: error= 2.56D-02 at cycle   2 NSaved=   2.
 NSaved= 2 IEnMin= 2 EnMin= -466.678219070718     IErMin= 2 ErrMin= 2.56D-02
 ErrMax= 2.56D-02  0.00D+00 EMaxC= 1.00D-01 BMatC= 9.38D-01 BMatP= 4.12D+00
 IDIUse=3 WtCom= 7.44D-01 WtEn= 2.56D-01
 Coeff-Com: -0.870D+00 0.187D+01
 Coeff-En:   0.000D+00 0.100D+01
 Coeff:     -0.647D+00 0.165D+01
 Gap=     0.286 Goal=   None    Shift=    0.000
 Gap=     0.286 Goal=   None    Shift=    0.000
 RMSDP=1.23D-03 MaxDP=4.94D-02 DE=-1.16D-01 OVMax= 1.39D-01

 Cycle   3  Pass 1  IDiag  1:
 RMSU=  5.86D-04    CP:  9.01D-01  2.23D+00
 E= -466.831200706542     Delta-E=       -0.152981635824 Rises=F Damp=F
 DIIS: error= 7.82D-03 at cycle   3 NSaved=   3.
 NSaved= 3 IEnMin= 3 EnMin= -466.831200706542     IErMin= 3 ErrMin= 7.82D-03
 ErrMax= 7.82D-03  0.00D+00 EMaxC= 1.00D-01 BMatC= 2.29D-02 BMatP= 9.38D-01
 IDIUse=3 WtCom= 9.22D-01 WtEn= 7.82D-02
 Coeff-Com: -0.309D+00 0.662D+00 0.647D+00
 Coeff-En:   0.000D+00 0.000D+00 0.100D+01
 Coeff:     -0.285D+00 0.610D+00 0.675D+00
 Gap=     0.309 Goal=   None    Shift=    0.000
 Gap=     0.309 Goal=   None    Shift=    0.000
 RMSDP=2.04D-04 MaxDP=9.80D-03 DE=-1.53D-01 OVMax= 6.37D-02

 Cycle   4  Pass 1  IDiag  1:
 RMSU=  1.85D-04    CP:  8.94D-01  2.32D+00  1.02D+00
 E= -466.841600604616     Delta-E=       -0.010399898074 Rises=F Damp=F
 DIIS: error= 5.04D-03 at cycle   4 NSaved=   4.
 NSaved= 4 IEnMin= 4 EnMin= -466.841600604616     IErMin= 4 ErrMin= 5.04D-03
 ErrMax= 5.04D-03  0.00D+00 EMaxC= 1.00D-01 BMatC= 2.00D-03 BMatP= 2.29D-02
 IDIUse=3 WtCom= 9.50D-01 WtEn= 5.04D-02
 Coeff-Com:  0.152D+00-0.325D+00-0.813D-01 0.125D+01
 Coeff-En:   0.000D+00 0.000D+00 0.000D+00 0.100D+01
 Coeff:      0.144D+00-0.308D+00-0.772D-01 0.124D+01
 Gap=     0.320 Goal=   None    Shift=    0.000
 Gap=     0.320 Goal=   None    Shift=    0.000
 RMSDP=2.09D-04 MaxDP=1.14D-02 DE=-1.04D-02 OVMax= 7.53D-02

 Cycle   5  Pass 1  IDiag  1:
 RMSU=  8.06D-05    CP:  8.87D-01  2.38D+00  1.25D+00  1.65D+00
 E= -466.846081677955     Delta-E=       -0.004481073339 Rises=F Damp=F
 DIIS: error= 2.14D-03 at cycle   5 NSaved=   5.
 NSaved= 5 IEnMin= 5 EnMin= -466.846081677955     IErMin= 5 ErrMin= 2.14D-03
 ErrMax= 2.14D-03  0.00D+00 EMaxC= 1.00D-01 BMatC= 7.41D-04 BMatP= 2.00D-03
 IDIUse=3 WtCom= 9.79D-01 WtEn= 2.14D-02
 Coeff-Com:  0.464D-01-0.998D-01-0.537D-01 0.250D+00 0.857D+00
 Coeff-En:   0.000D+00 0.000D+00 0.000D+00 0.000D+00 0.100D+01
 Coeff:      0.454D-01-0.976D-01-0.525D-01 0.245D+00 0.860D+00
 Gap=     0.321 Goal=   None    Shift=    0.000
 Gap=     0.321 Goal=   None    Shift=    0.000
 RMSDP=6.98D-05 MaxDP=2.71D-03 DE=-4.48D-03 OVMax= 2.63D-02

 Cycle   6  Pass 1  IDiag  1:
 RMSU=  3.11D-05    CP:  8.86D-01  2.38D+00  1.29D+00  1.90D+00  1.43D+00
 E= -466.847380302461     Delta-E=       -0.001298624506 Rises=F Damp=F
 DIIS: error= 1.47D-03 at cycle   6 NSaved=   6.
 NSaved= 6 IEnMin= 6 EnMin= -466.847380302461     IErMin= 6 ErrMin= 1.47D-03
 ErrMax= 1.47D-03  0.00D+00 EMaxC= 1.00D-01 BMatC= 4.99D-04 BMatP= 7.41D-04
 IDIUse=3 WtCom= 9.85D-01 WtEn= 1.47D-02
 Coeff-Com: -0.860D-01 0.185D+00 0.567D-01-0.652D+00 0.130D+00 0.137D+01
 Coeff-En:   0.000D+00 0.000D+00 0.000D+00 0.000D+00 0.000D+00 0.100D+01
 Coeff:     -0.848D-01 0.182D+00 0.558D-01-0.642D+00 0.128D+00 0.136D+01
 Gap=     0.318 Goal=   None    Shift=    0.000
 Gap=     0.318 Goal=   None    Shift=    0.000
 RMSDP=9.62D-05 MaxDP=3.90D-03 DE=-1.30D-03 OVMax= 3.62D-02

 Cycle   7  Pass 1  IDiag  1:
 RMSU=  2.89D-05    CP:  8.84D-01  2.38D+00  1.33D+00  2.17D+00  2.15D+00
                    CP:  2.37D+00
 E= -466.848939984603     Delta-E=       -0.001559682142 Rises=F Damp=F
 DIIS: error= 1.04D-03 at cycle   7 NSaved=   7.
 NSaved= 7 IEnMin= 7 EnMin= -466.848939984603     IErMin= 7 ErrMin= 1.04D-03
 ErrMax= 1.04D-03  0.00D+00 EMaxC= 1.00D-01 BMatC= 2.46D-04 BMatP= 4.99D-04
 IDIUse=3 WtCom= 9.90D-01 WtEn= 1.04D-02
 Coeff-Com: -0.232D-01 0.502D-01 0.393D-01-0.319D-02-0.817D+00-0.273D+00
 Coeff-Com:  0.203D+01
 Coeff-En:   0.000D+00 0.000D+00 0.000D+00 0.000D+00 0.000D+00 0.000D+00
 Coeff-En:   0.100D+01
 Coeff:     -0.229D-01 0.497D-01 0.389D-01-0.316D-02-0.809D+00-0.270D+00
 Coeff:      0.202D+01
 Gap=     0.318 Goal=   None    Shift=    0.000
 Gap=     0.318 Goal=   None    Shift=    0.000
 RMSDP=1.30D-04 MaxDP=5.99D-03 DE=-1.56D-03 OVMax= 4.83D-02

 Cycle   8  Pass 1  IDiag  1:
 RMSU=  5.93D-05    CP:  8.82D-01  2.38D+00  1.36D+00  2.47D+00  3.00D+00
                    CP:  3.00D+00  2.49D+00
 E= -466.850214782485     Delta-E=       -0.001274797882 Rises=F Damp=F
 DIIS: error= 3.59D-04 at cycle   8 NSaved=   8.
 NSaved= 8 IEnMin= 8 EnMin= -466.850214782485     IErMin= 8 ErrMin= 3.59D-04
 ErrMax= 3.59D-04  0.00D+00 EMaxC= 1.00D-01 BMatC= 5.28D-05 BMatP= 2.46D-04
 IDIUse=3 WtCom= 9.96D-01 WtEn= 3.59D-03
 Coeff-Com:  0.241D-01-0.518D-01-0.643D-02 0.254D+00-0.273D+00-0.592D+00
 Coeff-Com:  0.553D+00 0.109D+01
 Coeff-En:   0.000D+00 0.000D+00 0.000D+00 0.000D+00 0.000D+00 0.000D+00
 Coeff-En:   0.000D+00 0.100D+01
 Coeff:      0.240D-01-0.516D-01-0.641D-02 0.254D+00-0.272D+00-0.590D+00
 Coeff:      0.551D+00 0.109D+01
 Gap=     0.320 Goal=   None    Shift=    0.000
 Gap=     0.320 Goal=   None    Shift=    0.000
 RMSDP=5.50D-05 MaxDP=2.61D-03 DE=-1.27D-03 OVMax= 2.00D-02

 Cycle   9  Pass 1  IDiag  1:
 RMSU=  2.75D-05    CP:  8.81D-01  2.38D+00  1.38D+00  2.56D+00  3.00D+00
                    CP:  3.00D+00  3.00D+00  1.63D+00
 E= -466.850405255826     Delta-E=       -0.000190473341 Rises=F Damp=F
 DIIS: error= 1.06D-04 at cycle   9 NSaved=   9.
 NSaved= 9 IEnMin= 9 EnMin= -466.850405255826     IErMin= 9 ErrMin= 1.06D-04
 ErrMax= 1.06D-04  0.00D+00 EMaxC= 1.00D-01 BMatC= 7.32D-06 BMatP= 5.28D-05
 IDIUse=3 WtCom= 9.99D-01 WtEn= 1.06D-03
 Coeff-Com:  0.110D-01-0.238D-01-0.752D-02 0.770D-01 0.398D-01-0.132D+00
 Coeff-Com: -0.138D+00 0.265D+00 0.909D+00
 Coeff-En:   0.000D+00 0.000D+00 0.000D+00 0.000D+00 0.000D+00 0.000D+00
 Coeff-En:   0.000D+00 0.000D+00 0.100D+01
 Coeff:      0.110D-01-0.237D-01-0.751D-02 0.769D-01 0.397D-01-0.132D+00
 Coeff:     -0.138D+00 0.264D+00 0.909D+00
 Gap=     0.319 Goal=   None    Shift=    0.000
 Gap=     0.319 Goal=   None    Shift=    0.000
 RMSDP=1.37D-05 MaxDP=6.19D-04 DE=-1.90D-04 OVMax= 4.75D-03

 Cycle  10  Pass 1  IDiag  1:
 RMSU=  6.17D-06    CP:  8.81D-01  2.38D+00  1.38D+00  2.58D+00  3.00D+00
                    CP:  3.00D+00  3.00D+00  1.79D+00  1.27D+00
 E= -466.850418057450     Delta-E=       -0.000012801624 Rises=F Damp=F
 DIIS: error= 4.37D-05 at cycle  10 NSaved=  10.
 NSaved=10 IEnMin=10 EnMin= -466.850418057450     IErMin=10 ErrMin= 4.37D-05
 ErrMax= 4.37D-05  0.00D+00 EMaxC= 1.00D-01 BMatC= 1.03D-06 BMatP= 7.32D-06
 IDIUse=1 WtCom= 1.00D+00 WtEn= 0.00D+00
 Coeff-Com: -0.215D-02 0.465D-02-0.117D-03-0.314D-01 0.454D-01 0.791D-01
 Coeff-Com: -0.975D-01-0.182D+00 0.138D+00 0.105D+01
 Coeff:     -0.215D-02 0.465D-02-0.117D-03-0.314D-01 0.454D-01 0.791D-01
 Coeff:     -0.975D-01-0.182D+00 0.138D+00 0.105D+01
 Gap=     0.319 Goal=   None    Shift=    0.000
 Gap=     0.319 Goal=   None    Shift=    0.000
 RMSDP=5.35D-06 MaxDP=2.37D-04 DE=-1.28D-05 OVMax= 1.92D-03

 Cycle  11  Pass 1  IDiag  1:
 RMSU=  1.73D-06    CP:  8.81D-01  2.38D+00  1.39D+00  2.58D+00  3.00D+00
                    CP:  3.00D+00  3.00D+00  1.83D+00  1.38D+00  1.36D+00
 E= -466.850419542410     Delta-E=       -0.000001484960 Rises=F Damp=F
 DIIS: error= 1.56D-05 at cycle  11 NSaved=  11.
 NSaved=11 IEnMin=11 EnMin= -466.850419542410     IErMin=11 ErrMin= 1.56D-05
 ErrMax= 1.56D-05  0.00D+00 EMaxC= 1.00D-01 BMatC= 1.58D-07 BMatP= 1.03D-06
 IDIUse=1 WtCom= 1.00D+00 WtEn= 0.00D+00
 Coeff-Com: -0.916D-03 0.197D-02 0.171D-03-0.106D-01 0.979D-02 0.242D-01
 Coeff-Com: -0.156D-01-0.583D-01-0.137D-01 0.261D+00 0.802D+00
 Coeff:     -0.916D-03 0.197D-02 0.171D-03-0.106D-01 0.979D-02 0.242D-01
 Coeff:     -0.156D-01-0.583D-01-0.137D-01 0.261D+00 0.802D+00
 Gap=     0.319 Goal=   None    Shift=    0.000
 Gap=     0.319 Goal=   None    Shift=    0.000
 RMSDP=7.95D-07 MaxDP=3.38D-05 DE=-1.48D-06 OVMax= 1.41D-04

 Cycle  12  Pass 1  IDiag  1:
 RMSU=  6.56D-07    CP:  8.81D-01  2.38D+00  1.39D+00  2.58D+00  3.00D+00
                    CP:  3.00D+00  3.00D+00  1.83D+00  1.38D+00  1.34D+00
                    CP:  1.21D+00
 E= -466.850419649726     Delta-E=       -0.000000107316 Rises=F Damp=F
 DIIS: error= 1.09D-05 at cycle  12 NSaved=  12.
 NSaved=12 IEnMin=12 EnMin= -466.850419649726     IErMin=12 ErrMin= 1.09D-05
 ErrMax= 1.09D-05  0.00D+00 EMaxC= 1.00D-01 BMatC= 6.58D-08 BMatP= 1.58D-07
 IDIUse=1 WtCom= 1.00D+00 WtEn= 0.00D+00
 Coeff-Com:  0.388D-03-0.841D-03 0.442D-05 0.603D-02-0.873D-02-0.156D-01
 Coeff-Com:  0.221D-01 0.345D-01-0.437D-01-0.233D+00 0.318D+00 0.921D+00
 Coeff:      0.388D-03-0.841D-03 0.442D-05 0.603D-02-0.873D-02-0.156D-01
 Coeff:      0.221D-01 0.345D-01-0.437D-01-0.233D+00 0.318D+00 0.921D+00
 Gap=     0.319 Goal=   None    Shift=    0.000
 Gap=     0.319 Goal=   None    Shift=    0.000
 RMSDP=6.73D-07 MaxDP=2.96D-05 DE=-1.07D-07 OVMax= 1.24D-04

 Cycle  13  Pass 1  IDiag  1:
 RMSU=  3.35D-07    CP:  8.81D-01  2.38D+00  1.39D+00  2.58D+00  3.00D+00
                    CP:  3.00D+00  3.00D+00  1.83D+00  1.38D+00  1.32D+00
                    CP:  1.40D+00  1.62D+00
 E= -466.850419715144     Delta-E=       -0.000000065417 Rises=F Damp=F
 DIIS: error= 6.29D-06 at cycle  13 NSaved=  13.
 NSaved=13 IEnMin=13 EnMin= -466.850419715144     IErMin=13 ErrMin= 6.29D-06
 ErrMax= 6.29D-06  0.00D+00 EMaxC= 1.00D-01 BMatC= 1.31D-08 BMatP= 6.58D-08
 IDIUse=1 WtCom= 1.00D+00 WtEn= 0.00D+00
 Coeff-Com: -0.523D-04 0.115D-03 0.633D-04-0.460D-03 0.561D-03 0.702D-03
 Coeff-Com: -0.244D-02 0.763D-03 0.728D-02 0.202D-03-0.229D+00-0.148D+00
 Coeff-Com:  0.137D+01
 Coeff:     -0.523D-04 0.115D-03 0.633D-04-0.460D-03 0.561D-03 0.702D-03
 Coeff:     -0.244D-02 0.763D-03 0.728D-02 0.202D-03-0.229D+00-0.148D+00
 Coeff:      0.137D+01
 Gap=     0.319 Goal=   None    Shift=    0.000
 Gap=     0.319 Goal=   None    Shift=    0.000
 RMSDP=3.65D-07 MaxDP=2.04D-05 DE=-6.54D-08 OVMax= 9.26D-05

 Cycle  14  Pass 1  IDiag  1:
 RMSU=  2.34D-07    CP:  8.81D-01  2.38D+00  1.39D+00  2.58D+00  3.00D+00
                    CP:  3.00D+00  3.00D+00  1.83D+00  1.38D+00  1.32D+00
                    CP:  1.46D+00  1.91D+00  1.50D+00
 E= -466.850419742632     Delta-E=       -0.000000027488 Rises=F Damp=F
 DIIS: error= 3.33D-06 at cycle  14 NSaved=  14.
 NSaved=14 IEnMin=14 EnMin= -466.850419742632     IErMin=14 ErrMin= 3.33D-06
 ErrMax= 3.33D-06  0.00D+00 EMaxC= 1.00D-01 BMatC= 3.76D-09 BMatP= 1.31D-08
 IDIUse=1 WtCom= 1.00D+00 WtEn= 0.00D+00
 Coeff-Com: -0.135D-03 0.292D-03 0.450D-04-0.172D-02 0.208D-02 0.417D-02
 Coeff-Com: -0.591D-02-0.869D-02 0.133D-01 0.643D-01-0.127D+00-0.290D+00
 Coeff-Com:  0.132D+00 0.122D+01
 Coeff:     -0.135D-03 0.292D-03 0.450D-04-0.172D-02 0.208D-02 0.417D-02
 Coeff:     -0.591D-02-0.869D-02 0.133D-01 0.643D-01-0.127D+00-0.290D+00
 Coeff:      0.132D+00 0.122D+01
 Gap=     0.319 Goal=   None    Shift=    0.000
 Gap=     0.319 Goal=   None    Shift=    0.000
 RMSDP=2.44D-07 MaxDP=1.18D-05 DE=-2.75D-08 OVMax= 6.33D-05

 Cycle  15  Pass 1  IDiag  1:
 RMSU=  8.42D-08    CP:  8.81D-01  2.38D+00  1.39D+00  2.58D+00  3.00D+00
                    CP:  3.00D+00  3.00D+00  1.83D+00  1.38D+00  1.32D+00
                    CP:  1.48D+00  2.03D+00  1.82D+00  1.76D+00
 E= -466.850419750882     Delta-E=       -0.000000008250 Rises=F Damp=F
 DIIS: error= 1.19D-06 at cycle  15 NSaved=  15.
 NSaved=15 IEnMin=15 EnMin= -466.850419750882     IErMin=15 ErrMin= 1.19D-06
 ErrMax= 1.19D-06  0.00D+00 EMaxC= 1.00D-01 BMatC= 6.24D-10 BMatP= 3.76D-09
 IDIUse=1 WtCom= 1.00D+00 WtEn= 0.00D+00
 Coeff-Com:  0.149D-04-0.326D-04-0.266D-04 0.476D-04 0.115D-03 0.113D-03
 Coeff-Com: -0.376D-03-0.683D-03 0.145D-02 0.882D-02 0.310D-01-0.190D-01
 Coeff-Com: -0.317D+00 0.225D+00 0.107D+01
 Coeff:      0.149D-04-0.326D-04-0.266D-04 0.476D-04 0.115D-03 0.113D-03
 Coeff:     -0.376D-03-0.683D-03 0.145D-02 0.882D-02 0.310D-01-0.190D-01
 Coeff:     -0.317D+00 0.225D+00 0.107D+01
 Gap=     0.319 Goal=   None    Shift=    0.000
 Gap=     0.319 Goal=   None    Shift=    0.000
 RMSDP=1.15D-07 MaxDP=5.02D-06 DE=-8.25D-09 OVMax= 2.72D-05

 Cycle  16  Pass 1  IDiag  1:
 RMSU=  3.88D-08    CP:  8.81D-01  2.38D+00  1.39D+00  2.58D+00  3.00D+00
                    CP:  3.00D+00  3.00D+00  1.83D+00  1.38D+00  1.32D+00
                    CP:  1.48D+00  2.07D+00  1.95D+00  2.11D+00  1.48D+00
 E= -466.850419751942     Delta-E=       -0.000000001060 Rises=F Damp=F
 DIIS: error= 2.11D-07 at cycle  16 NSaved=  16.
 NSaved=16 IEnMin=16 EnMin= -466.850419751942     IErMin=16 ErrMin= 2.11D-07
 ErrMax= 2.11D-07  0.00D+00 EMaxC= 1.00D-01 BMatC= 5.26D-11 BMatP= 6.24D-10
 IDIUse=1 WtCom= 1.00D+00 WtEn= 0.00D+00
 Coeff-Com:  0.760D-05-0.164D-04-0.764D-05 0.875D-04-0.863D-04-0.158D-03
 Coeff-Com:  0.233D-03 0.343D-03-0.752D-03-0.257D-02 0.171D-01 0.177D-01
 Coeff-Com: -0.774D-01-0.548D-01 0.231D+00 0.869D+00
 Coeff:      0.760D-05-0.164D-04-0.764D-05 0.875D-04-0.863D-04-0.158D-03
 Coeff:      0.233D-03 0.343D-03-0.752D-03-0.257D-02 0.171D-01 0.177D-01
 Coeff:     -0.774D-01-0.548D-01 0.231D+00 0.869D+00
 Gap=     0.319 Goal=   None    Shift=    0.000
 Gap=     0.319 Goal=   None    Shift=    0.000
 RMSDP=2.42D-08 MaxDP=1.04D-06 DE=-1.06D-09 OVMax= 3.93D-06

 Cycle  17  Pass 1  IDiag  1:
 RMSU=  1.11D-08    CP:  8.81D-01  2.38D+00  1.39D+00  2.58D+00  3.00D+00
                    CP:  3.00D+00  3.00D+00  1.83D+00  1.38D+00  1.33D+00
                    CP:  1.48D+00  2.07D+00  1.96D+00  2.15D+00  1.59D+00
                    CP:  1.32D+00
 E= -466.850419751980     Delta-E=       -0.000000000038 Rises=F Damp=F
 DIIS: error= 9.18D-08 at cycle  17 NSaved=  17.
 NSaved=17 IEnMin=17 EnMin= -466.850419751980     IErMin=17 ErrMin= 9.18D-08
 ErrMax= 9.18D-08  0.00D+00 EMaxC= 1.00D-01 BMatC= 7.16D-12 BMatP= 5.26D-11
 IDIUse=1 WtCom= 1.00D+00 WtEn= 0.00D+00
 Coeff-Com: -0.366D-06 0.840D-06 0.135D-05 0.332D-05-0.220D-04-0.820D-05
 Coeff-Com:  0.397D-04 0.118D-03-0.312D-03-0.139D-02-0.173D-02 0.468D-02
 Coeff-Com:  0.338D-01-0.400D-01-0.121D+00 0.146D+00 0.980D+00
 Coeff:     -0.366D-06 0.840D-06 0.135D-05 0.332D-05-0.220D-04-0.820D-05
 Coeff:      0.397D-04 0.118D-03-0.312D-03-0.139D-02-0.173D-02 0.468D-02
 Coeff:      0.338D-01-0.400D-01-0.121D+00 0.146D+00 0.980D+00
 Gap=     0.319 Goal=   None    Shift=    0.000
 Gap=     0.319 Goal=   None    Shift=    0.000
 RMSDP=8.89D-09 MaxDP=2.99D-07 DE=-3.76D-11 OVMax= 1.32D-06

 Error on total polarization charges =  0.01117
 SCF Done:  E(UwB97XD) =  -466.850419752     A.U. after   17 cycles
            NFock= 17  Conv=0.89D-08     -V/T= 2.0058
 <Sx>= 0.0000 <Sy>= 0.0000 <Sz>= 0.0000 <S**2>= 0.0000 S= 0.0000
 <L.S>=  0.00000000000    
 KE= 4.641672958061D+02 PE=-2.417645431110D+03 EE= 8.187652342789D+02
 --------------------------------------------------------------------
 Variational PCM results
 =======================
 <psi(f)|   H    |psi(f)>                     (a.u.) =    -466.858647
 <psi(f)|H+V(f)/2|psi(f)>                     (a.u.) =    -466.860142
 Total free energy in solution:
 - with all non electrostatic terms           (a.u.) =    -466.850420
 --------------------------------------------------------------------
 (Polarized solute)-Solvent               (kcal/mol) =      -0.94
 --------------------------------------------------------------------
 Quantum repulsion energy                 (kcal/mol) =       6.10
 Total non electrostatic                  (kcal/mol) =       6.10
 --------------------------------------------------------------------
 Partition over spheres:
 Sphere  on Atom  Surface  Charge   GEl     GCav    GDR
    1               6.91   0.010   -0.05    0.00    0.00
    2               4.72   0.007   -0.04    0.00    0.00
    3               7.52  -0.010   -0.04    0.00    0.00
    4               3.70  -0.005   -0.01    0.00    0.00
    5               4.07   0.007   -0.04    0.00    0.00
    6               4.28   0.005   -0.03    0.00    0.00
    7               5.19  -0.007   -0.03    0.00    0.00
    8               4.44  -0.006   -0.02    0.00    0.00
    9               3.59   0.002    0.00    0.00    0.00
   10               7.16  -0.007   -0.01    0.00    0.00
   11               3.38  -0.003   -0.01    0.00    0.00
   12               6.33   0.010   -0.05    0.00    0.00
   13               7.52  -0.010   -0.03    0.00    0.00
   14               6.91   0.010   -0.05    0.00    0.00
   15               7.52  -0.010   -0.04    0.00    0.00
   16               3.60   0.002    0.00    0.00    0.00
   17               2.86  -0.002   -0.01    0.00    0.00
   18               7.33  -0.008   -0.03    0.00    0.00
   19               5.00   0.009   -0.06    0.00    0.00
   20               5.12  -0.007   -0.03    0.00    0.00
   21               6.46   0.010   -0.06    0.00    0.00
   22               7.51  -0.010   -0.03    0.00    0.00
   23               3.60   0.002    0.00    0.00    0.00
   24               3.39  -0.003   -0.01    0.00    0.00
   25               7.16  -0.007   -0.01    0.00    0.00
   26               3.44   0.002    0.00    0.00    0.00
   27               7.44  -0.008   -0.03    0.00    0.00
   28               2.02  -0.002   -0.00    0.00    0.00
 Added spheres:    77.45   0.021   -0.23    0.00    0.00
 --------------------------------------------------------------------
 After PCM corrections, the energy is  -466.850419752     a.u.
 --------------------------------------------------------------------
 Annihilation of the first spin contaminant:
 S**2 before annihilation     0.0000,   after    -0.0000
 Leave Link  502 at Mon Aug  3 19:49:04 2020, MaxMem=  6442450944 cpu:            7391.5 elap:             310.8
 (Enter /scratch/scicomp/CentOS/7.3.1611/Haswell/software/Gaussian/g16/l601.exe)
 Copying SCF densities to generalized density rwf, IOpCl= 1 IROHF=0.

 **********************************************************************

            Population analysis using the SCF Density.

 **********************************************************************

 Alpha  occ. eigenvalues --  -10.28230 -10.28229 -10.28137 -10.28135 -10.28096
 Alpha  occ. eigenvalues --  -10.28095 -10.28044 -10.28042 -10.27804 -10.27802
 Alpha  occ. eigenvalues --  -10.27563 -10.27560  -0.93972  -0.93625  -0.83951
 Alpha  occ. eigenvalues --   -0.83938  -0.83785  -0.83591  -0.71114  -0.71101
 Alpha  occ. eigenvalues --   -0.67803  -0.67779  -0.59613  -0.59480  -0.57336
 Alpha  occ. eigenvalues --   -0.56836  -0.53232  -0.52555  -0.50762  -0.50702
 Alpha  occ. eigenvalues --   -0.49847  -0.49435  -0.47148  -0.46897  -0.45030
 Alpha  occ. eigenvalues --   -0.44827  -0.41068  -0.40935  -0.39484  -0.39127
 Alpha  occ. eigenvalues --   -0.39083  -0.38970  -0.29622  -0.27787
 Alpha virt. eigenvalues --    0.04126   0.04710   0.11365   0.12907   0.14249
 Alpha virt. eigenvalues --    0.15197   0.15254   0.16239   0.16387   0.16898
 Alpha virt. eigenvalues --    0.17757   0.17767   0.18071   0.19202   0.20877
 Alpha virt. eigenvalues --    0.21609   0.22471   0.23380   0.23579   0.24348
 Alpha virt. eigenvalues --    0.25746   0.26481   0.26645   0.27527   0.28500
 Alpha virt. eigenvalues --    0.28716   0.29565   0.29631   0.30454   0.31006
 Alpha virt. eigenvalues --    0.31750   0.32199   0.32437   0.32728   0.33272
 Alpha virt. eigenvalues --    0.33761   0.34592   0.35480   0.35847   0.37901
 Alpha virt. eigenvalues --    0.37954   0.38566   0.40451   0.41499   0.41798
 Alpha virt. eigenvalues --    0.42071   0.43585   0.44505   0.45730   0.46296
 Alpha virt. eigenvalues --    0.46590   0.46891   0.48151   0.48607   0.48761
 Alpha virt. eigenvalues --    0.49170   0.49607   0.49893   0.50328   0.50437
 Alpha virt. eigenvalues --    0.51345   0.51352   0.51818   0.52392   0.53098
 Alpha virt. eigenvalues --    0.53238   0.53811   0.54861   0.55053   0.55675
 Alpha virt. eigenvalues --    0.57649   0.57656   0.57999   0.59748   0.59764
 Alpha virt. eigenvalues --    0.60431   0.61632   0.63067   0.63586   0.64603
 Alpha virt. eigenvalues --    0.64795   0.66676   0.68166   0.68795   0.69666
 Alpha virt. eigenvalues --    0.70793   0.72772   0.73453   0.73745   0.75478
 Alpha virt. eigenvalues --    0.76823   0.78418   0.78637   0.80633   0.81714
 Alpha virt. eigenvalues --    0.82190   0.82539   0.83646   0.86674   0.86748
 Alpha virt. eigenvalues --    0.86880   0.89030   0.91150   0.91433   0.92717
 Alpha virt. eigenvalues --    0.92821   0.95487   0.96346   0.98636   0.99233
 Alpha virt. eigenvalues --    1.01187   1.03252   1.04092   1.04118   1.04529
 Alpha virt. eigenvalues --    1.06784   1.07507   1.08690   1.10067   1.11568
 Alpha virt. eigenvalues --    1.13239   1.13490   1.14445   1.14880   1.15770
 Alpha virt. eigenvalues --    1.16241   1.16443   1.17060   1.19263   1.20505
 Alpha virt. eigenvalues --    1.21660   1.23095   1.23269   1.23808   1.24746
 Alpha virt. eigenvalues --    1.25067   1.25954   1.26887   1.27447   1.28777
 Alpha virt. eigenvalues --    1.29145   1.30486   1.32371   1.32535   1.33064
 Alpha virt. eigenvalues --    1.34760   1.34994   1.35451   1.37118   1.38794
 Alpha virt. eigenvalues --    1.38884   1.39417   1.40702   1.41051   1.41969
 Alpha virt. eigenvalues --    1.42193   1.42673   1.43887   1.45261   1.45598
 Alpha virt. eigenvalues --    1.45862   1.46554   1.46738   1.47047   1.48428
 Alpha virt. eigenvalues --    1.50173   1.50579   1.51836   1.53037   1.55643
 Alpha virt. eigenvalues --    1.56168   1.57504   1.57543   1.58512   1.60634
 Alpha virt. eigenvalues --    1.61047   1.62401   1.63049   1.64902   1.66817
 Alpha virt. eigenvalues --    1.68627   1.69391   1.69922   1.71563   1.75336
 Alpha virt. eigenvalues --    1.75821   1.79749   1.80897   1.82215   1.83132
 Alpha virt. eigenvalues --    1.87072   1.88008   1.89033   1.89496   1.91365
 Alpha virt. eigenvalues --    1.92288   1.95932   2.00207   2.01403   2.01629
 Alpha virt. eigenvalues --    2.03980   2.04883   2.06841   2.07543   2.08992
 Alpha virt. eigenvalues --    2.09060   2.11746   2.12343   2.13347   2.15463
 Alpha virt. eigenvalues --    2.19020   2.19580   2.20102   2.20445   2.22279
 Alpha virt. eigenvalues --    2.23036   2.23317   2.23752   2.25227   2.26131
 Alpha virt. eigenvalues --    2.28722   2.31817   2.37274   2.38041   2.40169
 Alpha virt. eigenvalues --    2.42399   2.46118   2.47300   2.48572   2.49425
 Alpha virt. eigenvalues --    2.50169   2.50290   2.52212   2.54152   2.55002
 Alpha virt. eigenvalues --    2.55116   2.57370   2.57444   2.60319   2.60492
 Alpha virt. eigenvalues --    2.62002   2.64006   2.64426   2.65292   2.66744
 Alpha virt. eigenvalues --    2.67775   2.68863   2.70063   2.72248   2.72409
 Alpha virt. eigenvalues --    2.73279   2.73326   2.75068   2.76033   2.76539
 Alpha virt. eigenvalues --    2.77505   2.78035   2.78898   2.80219   2.81056
 Alpha virt. eigenvalues --    2.81382   2.81816   2.82640   2.83850   2.84131
 Alpha virt. eigenvalues --    2.84983   2.85780   2.86836   2.88854   2.89021
 Alpha virt. eigenvalues --    2.89825   2.89872   2.92243   2.92688   2.93204
 Alpha virt. eigenvalues --    2.94206   2.94765   2.94970   2.95999   2.98805
 Alpha virt. eigenvalues --    3.01592   3.01931   3.03051   3.03891   3.06330
 Alpha virt. eigenvalues --    3.06670   3.08134   3.08695   3.09570   3.10909
 Alpha virt. eigenvalues --    3.12134   3.12346   3.12565   3.13945   3.14857
 Alpha virt. eigenvalues --    3.15038   3.16982   3.17291   3.18496   3.18750
 Alpha virt. eigenvalues --    3.19486   3.19527   3.20084   3.21041   3.21067
 Alpha virt. eigenvalues --    3.22282   3.22523   3.23491   3.23608   3.24285
 Alpha virt. eigenvalues --    3.25458   3.25758   3.27142   3.28072   3.28311
 Alpha virt. eigenvalues --    3.28856   3.29482   3.29843   3.31332   3.31367
 Alpha virt. eigenvalues --    3.32699   3.33096   3.33429   3.33786   3.34528
 Alpha virt. eigenvalues --    3.34813   3.35337   3.36143   3.38011   3.38720
 Alpha virt. eigenvalues --    3.38847   3.39197   3.41766   3.43556   3.43747
 Alpha virt. eigenvalues --    3.44945   3.45844   3.46366   3.46990   3.47162
 Alpha virt. eigenvalues --    3.48018   3.48701   3.49236   3.49440   3.51063
 Alpha virt. eigenvalues --    3.51493   3.51646   3.53233   3.53368   3.53996
 Alpha virt. eigenvalues --    3.54827   3.55666   3.59891   3.60036   3.61046
 Alpha virt. eigenvalues --    3.63111   3.64329   3.64491   3.64724   3.64883
 Alpha virt. eigenvalues --    3.67671   3.68507   3.69774   3.71459   3.71648
 Alpha virt. eigenvalues --    3.73678   3.75985   3.76356   3.77733   3.78091
 Alpha virt. eigenvalues --    3.83897   3.84602   3.85108   3.86229   3.86385
 Alpha virt. eigenvalues --    3.87596   3.88966   3.89917   3.92462   3.93589
 Alpha virt. eigenvalues --    3.93845   3.95355   3.99041   3.99123   4.01544
 Alpha virt. eigenvalues --    4.03851   4.08129   4.09253   4.09481   4.10799
 Alpha virt. eigenvalues --    4.11959   4.12635   4.13209   4.15545   4.18404
 Alpha virt. eigenvalues --    4.19441   4.20324   4.21909   4.22758   4.22805
 Alpha virt. eigenvalues --    4.24741   4.26961   4.30928   4.31209   4.33404
 Alpha virt. eigenvalues --    4.35621   4.36609   4.37272   4.39336   4.39671
 Alpha virt. eigenvalues --    4.43808   4.45394   4.45425   4.47039   4.47966
 Alpha virt. eigenvalues --    4.48317   4.59270   4.60501   4.61372   4.64291
 Alpha virt. eigenvalues --    4.69295   4.69741   4.71602   4.72994   4.74264
 Alpha virt. eigenvalues --    4.74598   4.76535   4.77723   4.79121   4.81713
 Alpha virt. eigenvalues --    4.83584   4.84428   4.88909   4.89154   4.94415
 Alpha virt. eigenvalues --    4.94616   4.94849   4.96514   5.05134   5.08467
 Alpha virt. eigenvalues --    5.08867   5.10575   5.17990   5.18950   5.23209
 Alpha virt. eigenvalues --    5.23933   5.28843   5.31470   5.39685   5.40155
 Alpha virt. eigenvalues --    5.43591   5.44815   5.47923   5.48607   5.66131
 Alpha virt. eigenvalues --    5.69863   5.74634   5.76170   5.91379   5.96310
 Alpha virt. eigenvalues --    7.94210   7.95860   8.01591   8.02368   8.05983
 Alpha virt. eigenvalues --    8.07469   8.11136   8.11339   8.17296   8.18140
 Alpha virt. eigenvalues --    8.33512   8.35723  34.76342  34.77958  34.81139
 Alpha virt. eigenvalues --   34.82084  34.84445  34.87100  34.97505  34.97876
 Alpha virt. eigenvalues --   35.00340  35.01284  35.15301  35.18329
  Beta  occ. eigenvalues --  -10.28230 -10.28229 -10.28137 -10.28135 -10.28096
  Beta  occ. eigenvalues --  -10.28095 -10.28044 -10.28042 -10.27804 -10.27802
  Beta  occ. eigenvalues --  -10.27563 -10.27560  -0.93972  -0.93625  -0.83951
  Beta  occ. eigenvalues --   -0.83938  -0.83785  -0.83591  -0.71114  -0.71101
  Beta  occ. eigenvalues --   -0.67803  -0.67779  -0.59613  -0.59480  -0.57336
  Beta  occ. eigenvalues --   -0.56836  -0.53232  -0.52555  -0.50762  -0.50702
  Beta  occ. eigenvalues --   -0.49847  -0.49435  -0.47148  -0.46897  -0.45030
  Beta  occ. eigenvalues --   -0.44827  -0.41068  -0.40935  -0.39484  -0.39127
  Beta  occ. eigenvalues --   -0.39083  -0.38970  -0.29622  -0.27787
  Beta virt. eigenvalues --    0.04126   0.04710   0.11365   0.12907   0.14249
  Beta virt. eigenvalues --    0.15197   0.15254   0.16239   0.16387   0.16898
  Beta virt. eigenvalues --    0.17757   0.17767   0.18071   0.19202   0.20877
  Beta virt. eigenvalues --    0.21609   0.22471   0.23380   0.23579   0.24348
  Beta virt. eigenvalues --    0.25746   0.26481   0.26645   0.27527   0.28500
  Beta virt. eigenvalues --    0.28716   0.29565   0.29631   0.30454   0.31006
  Beta virt. eigenvalues --    0.31750   0.32199   0.32437   0.32728   0.33272
  Beta virt. eigenvalues --    0.33761   0.34592   0.35480   0.35847   0.37901
  Beta virt. eigenvalues --    0.37954   0.38566   0.40451   0.41499   0.41798
  Beta virt. eigenvalues --    0.42071   0.43585   0.44505   0.45730   0.46296
  Beta virt. eigenvalues --    0.46590   0.46891   0.48151   0.48607   0.48761
  Beta virt. eigenvalues --    0.49170   0.49607   0.49893   0.50328   0.50437
  Beta virt. eigenvalues --    0.51345   0.51352   0.51818   0.52392   0.53098
  Beta virt. eigenvalues --    0.53238   0.53811   0.54861   0.55053   0.55675
  Beta virt. eigenvalues --    0.57649   0.57656   0.57999   0.59748   0.59764
  Beta virt. eigenvalues --    0.60431   0.61632   0.63067   0.63586   0.64603
  Beta virt. eigenvalues --    0.64795   0.66676   0.68166   0.68795   0.69666
  Beta virt. eigenvalues --    0.70793   0.72772   0.73453   0.73745   0.75478
  Beta virt. eigenvalues --    0.76823   0.78418   0.78637   0.80633   0.81714
  Beta virt. eigenvalues --    0.82190   0.82539   0.83646   0.86674   0.86748
  Beta virt. eigenvalues --    0.86880   0.89030   0.91150   0.91433   0.92717
  Beta virt. eigenvalues --    0.92821   0.95487   0.96346   0.98636   0.99233
  Beta virt. eigenvalues --    1.01187   1.03252   1.04092   1.04118   1.04529
  Beta virt. eigenvalues --    1.06784   1.07507   1.08690   1.10067   1.11568
  Beta virt. eigenvalues --    1.13239   1.13490   1.14445   1.14880   1.15770
  Beta virt. eigenvalues --    1.16241   1.16443   1.17060   1.19263   1.20505
  Beta virt. eigenvalues --    1.21660   1.23095   1.23269   1.23808   1.24747
  Beta virt. eigenvalues --    1.25067   1.25954   1.26887   1.27447   1.28777
  Beta virt. eigenvalues --    1.29145   1.30486   1.32371   1.32535   1.33064
  Beta virt. eigenvalues --    1.34760   1.34994   1.35451   1.37118   1.38794
  Beta virt. eigenvalues --    1.38884   1.39417   1.40702   1.41051   1.41969
  Beta virt. eigenvalues --    1.42193   1.42673   1.43887   1.45261   1.45598
  Beta virt. eigenvalues --    1.45862   1.46554   1.46738   1.47047   1.48428
  Beta virt. eigenvalues --    1.50173   1.50579   1.51836   1.53037   1.55643
  Beta virt. eigenvalues --    1.56168   1.57504   1.57543   1.58512   1.60634
  Beta virt. eigenvalues --    1.61047   1.62401   1.63049   1.64902   1.66817
  Beta virt. eigenvalues --    1.68627   1.69391   1.69922   1.71563   1.75336
  Beta virt. eigenvalues --    1.75821   1.79749   1.80897   1.82215   1.83132
  Beta virt. eigenvalues --    1.87072   1.88008   1.89033   1.89496   1.91365
  Beta virt. eigenvalues --    1.92288   1.95932   2.00207   2.01403   2.01629
  Beta virt. eigenvalues --    2.03980   2.04883   2.06841   2.07543   2.08992
  Beta virt. eigenvalues --    2.09060   2.11746   2.12343   2.13347   2.15463
  Beta virt. eigenvalues --    2.19020   2.19580   2.20102   2.20445   2.22279
  Beta virt. eigenvalues --    2.23036   2.23317   2.23752   2.25227   2.26131
  Beta virt. eigenvalues --    2.28722   2.31817   2.37274   2.38041   2.40169
  Beta virt. eigenvalues --    2.42399   2.46118   2.47300   2.48572   2.49425
  Beta virt. eigenvalues --    2.50169   2.50290   2.52212   2.54152   2.55002
  Beta virt. eigenvalues --    2.55116   2.57370   2.57444   2.60319   2.60492
  Beta virt. eigenvalues --    2.62002   2.64006   2.64426   2.65292   2.66744
  Beta virt. eigenvalues --    2.67775   2.68863   2.70063   2.72248   2.72409
  Beta virt. eigenvalues --    2.73279   2.73326   2.75068   2.76033   2.76539
  Beta virt. eigenvalues --    2.77505   2.78035   2.78898   2.80219   2.81056
  Beta virt. eigenvalues --    2.81382   2.81816   2.82640   2.83850   2.84131
  Beta virt. eigenvalues --    2.84983   2.85780   2.86836   2.88854   2.89021
  Beta virt. eigenvalues --    2.89825   2.89872   2.92243   2.92688   2.93204
  Beta virt. eigenvalues --    2.94206   2.94765   2.94970   2.95999   2.98805
  Beta virt. eigenvalues --    3.01592   3.01931   3.03051   3.03891   3.06330
  Beta virt. eigenvalues --    3.06670   3.08134   3.08695   3.09570   3.10909
  Beta virt. eigenvalues --    3.12134   3.12346   3.12565   3.13945   3.14857
  Beta virt. eigenvalues --    3.15038   3.16982   3.17291   3.18496   3.18750
  Beta virt. eigenvalues --    3.19486   3.19527   3.20084   3.21041   3.21067
  Beta virt. eigenvalues --    3.22282   3.22523   3.23491   3.23608   3.24285
  Beta virt. eigenvalues --    3.25458   3.25758   3.27142   3.28072   3.28311
  Beta virt. eigenvalues --    3.28856   3.29482   3.29843   3.31332   3.31367
  Beta virt. eigenvalues --    3.32699   3.33096   3.33429   3.33786   3.34528
  Beta virt. eigenvalues --    3.34813   3.35337   3.36143   3.38011   3.38720
  Beta virt. eigenvalues --    3.38847   3.39197   3.41766   3.43556   3.43747
  Beta virt. eigenvalues --    3.44945   3.45844   3.46366   3.46990   3.47162
  Beta virt. eigenvalues --    3.48018   3.48701   3.49236   3.49440   3.51063
  Beta virt. eigenvalues --    3.51493   3.51646   3.53233   3.53368   3.53996
  Beta virt. eigenvalues --    3.54827   3.55666   3.59891   3.60036   3.61046
  Beta virt. eigenvalues --    3.63111   3.64329   3.64491   3.64724   3.64883
  Beta virt. eigenvalues --    3.67671   3.68507   3.69774   3.71459   3.71648
  Beta virt. eigenvalues --    3.73678   3.75985   3.76356   3.77733   3.78091
  Beta virt. eigenvalues --    3.83897   3.84602   3.85108   3.86229   3.86385
  Beta virt. eigenvalues --    3.87596   3.88966   3.89917   3.92462   3.93589
  Beta virt. eigenvalues --    3.93845   3.95355   3.99041   3.99123   4.01544
  Beta virt. eigenvalues --    4.03851   4.08129   4.09253   4.09481   4.10799
  Beta virt. eigenvalues --    4.11959   4.12635   4.13209   4.15545   4.18404
  Beta virt. eigenvalues --    4.19441   4.20324   4.21909   4.22758   4.22805
  Beta virt. eigenvalues --    4.24741   4.26961   4.30928   4.31209   4.33404
  Beta virt. eigenvalues --    4.35621   4.36609   4.37272   4.39336   4.39671
  Beta virt. eigenvalues --    4.43808   4.45394   4.45425   4.47039   4.47966
  Beta virt. eigenvalues --    4.48317   4.59270   4.60501   4.61372   4.64291
  Beta virt. eigenvalues --    4.69295   4.69741   4.71602   4.72994   4.74264
  Beta virt. eigenvalues --    4.74598   4.76535   4.77723   4.79121   4.81713
  Beta virt. eigenvalues --    4.83584   4.84428   4.88909   4.89154   4.94415
  Beta virt. eigenvalues --    4.94616   4.94849   4.96514   5.05134   5.08467
  Beta virt. eigenvalues --    5.08867   5.10575   5.17990   5.18950   5.23209
  Beta virt. eigenvalues --    5.23933   5.28843   5.31470   5.39685   5.40155
  Beta virt. eigenvalues --    5.43591   5.44815   5.47923   5.48607   5.66131
  Beta virt. eigenvalues --    5.69863   5.74634   5.76170   5.91379   5.96310
  Beta virt. eigenvalues --    7.94210   7.95860   8.01591   8.02368   8.05983
  Beta virt. eigenvalues --    8.07469   8.11136   8.11339   8.17296   8.18140
  Beta virt. eigenvalues --    8.33512   8.35723  34.76342  34.77958  34.81139
  Beta virt. eigenvalues --   34.82084  34.84445  34.87100  34.97505  34.97876
  Beta virt. eigenvalues --   35.00340  35.01284  35.15301  35.18329
          Condensed to atoms (all electrons):
               1          2          3          4          5          6
     1  C    5.144375   0.011311   0.421468  -0.001817   0.000116  -0.002764
     2  C    0.011311   5.242611  -0.001655   0.423197  -0.016216  -0.036628
     3  H    0.421468  -0.001655   0.490483   0.000028  -0.000041  -0.000044
     4  H   -0.001817   0.423197   0.000028   0.473219  -0.001104   0.000986
     5  C    0.000116  -0.016216  -0.000041  -0.001104   5.097592   0.541092
     6  C   -0.002764  -0.036628  -0.000044   0.000986   0.541092   5.243433
     7  H    0.000188  -0.000683  -0.000000  -0.000046   0.422480  -0.027374
     8  H   -0.000332   0.000977   0.000009  -0.000010  -0.040771   0.423211
     9  C    0.000829   0.000311  -0.000001  -0.000579  -0.072728   0.261645
    10  H   -0.000012  -0.000262  -0.000001  -0.000035  -0.003049  -0.034414
    11  H   -0.000011  -0.001015  -0.000000   0.000018   0.007607  -0.050938
    12  C   -0.000076   0.005563   0.000002   0.000694   0.310690  -0.073333
    13  H   -0.000000   0.000020   0.000000  -0.000008  -0.033108   0.003869
    14  C    0.000103  -0.002764   0.000000  -0.000341  -0.065628   0.011034
    15  H    0.000000  -0.000044  -0.000000   0.000009   0.006341  -0.001637
    16  C   -0.000489   0.005888  -0.000001   0.000470   0.009472  -0.072254
    17  H   -0.000076  -0.001424  -0.000001  -0.000455   0.010428  -0.001653
    18  H    0.000000   0.000601   0.000000   0.000079  -0.002786   0.011232
    19  C   -0.065512   0.541521   0.006379  -0.040785   0.000513  -0.016246
    20  H    0.003217  -0.027072  -0.000097  -0.004773   0.000090  -0.000687
    21  C    0.581299  -0.073548  -0.030585   0.005409   0.000388   0.005578
    22  H   -0.023509   0.003935  -0.005290  -0.000063   0.000007   0.000021
    23  C   -0.083732   0.262002   0.004595  -0.014017   0.001442   0.000341
    24  H    0.012856  -0.050952  -0.000096  -0.003965   0.002622  -0.001014
    25  H    0.004905  -0.034444   0.000003  -0.000172   0.000185  -0.000262
    26  C    0.279872  -0.072148  -0.026589   0.003645  -0.001450   0.005870
    27  H   -0.039656   0.011182  -0.004499  -0.000104   0.000349   0.000600
    28  H   -0.036098  -0.001581   0.001078  -0.000128  -0.001814  -0.001430
               7          8          9         10         11         12
     1  C    0.000188  -0.000332   0.000829  -0.000012  -0.000011  -0.000076
     2  C   -0.000683   0.000977   0.000311  -0.000262  -0.001015   0.005563
     3  H   -0.000000   0.000009  -0.000001  -0.000001  -0.000000   0.000002
     4  H   -0.000046  -0.000010  -0.000579  -0.000035   0.000018   0.000694
     5  C    0.422480  -0.040771  -0.072728  -0.003049   0.007607   0.310690
     6  C   -0.027374   0.423211   0.261645  -0.034414  -0.050938  -0.073333
     7  H    0.479043  -0.004783   0.002985  -0.000264  -0.000033  -0.027994
     8  H   -0.004783   0.473261  -0.014061  -0.000173  -0.003963   0.005411
     9  C    0.002985  -0.014061   4.936502   0.386088   0.447687   0.036349
    10  H   -0.000264  -0.000173   0.386088   0.569338  -0.019863   0.001474
    11  H   -0.000033  -0.003963   0.447687  -0.019863   0.536812  -0.003923
    12  C   -0.027994   0.005411   0.036349   0.001474  -0.003923   5.004030
    13  H   -0.003000  -0.000063  -0.000194  -0.000056   0.000027   0.422239
    14  C    0.003186  -0.001813  -0.083587   0.004925   0.012858   0.581676
    15  H   -0.000097   0.000028   0.004585   0.000004  -0.000096  -0.030221
    16  C   -0.000571   0.003639   0.363500  -0.026207  -0.050724  -0.065319
    17  H    0.000030  -0.000129  -0.036064   0.007070  -0.007675  -0.014657
    18  H    0.000028  -0.000103  -0.045142  -0.007299  -0.001635   0.006539
    19  C    0.000090  -0.001106   0.001393   0.000184   0.002662   0.000387
    20  H    0.000006  -0.000046   0.001004   0.000056  -0.000301  -0.000071
    21  C   -0.000072   0.000701  -0.000024   0.000021  -0.000390  -0.000214
    22  H   -0.000000  -0.000008  -0.000025  -0.000000  -0.000001  -0.000000
    23  C    0.001009  -0.000581  -0.000021  -0.000004   0.000012  -0.000007
    24  H   -0.000304   0.000018   0.000013   0.000004  -0.000011  -0.000389
    25  H    0.000056  -0.000035  -0.000004   0.000000   0.000004   0.000022
    26  C   -0.000883   0.000463  -0.000466   0.000028   0.000004   0.000451
    27  H   -0.000016   0.000079  -0.000022   0.000001  -0.000001  -0.000048
    28  H    0.001162  -0.000472   0.000262  -0.000006   0.000028   0.000574
              13         14         15         16         17         18
     1  C   -0.000000   0.000103   0.000000  -0.000489  -0.000076   0.000000
     2  C    0.000020  -0.002764  -0.000044   0.005888  -0.001424   0.000601
     3  H    0.000000   0.000000  -0.000000  -0.000001  -0.000001   0.000000
     4  H   -0.000008  -0.000341   0.000009   0.000470  -0.000455   0.000079
     5  C   -0.033108  -0.065628   0.006341   0.009472   0.010428  -0.002786
     6  C    0.003869   0.011034  -0.001637  -0.072254  -0.001653   0.011232
     7  H   -0.003000   0.003186  -0.000097  -0.000571   0.000030   0.000028
     8  H   -0.000063  -0.001813   0.000028   0.003639  -0.000129  -0.000103
     9  C   -0.000194  -0.083587   0.004585   0.363500  -0.036064  -0.045142
    10  H   -0.000056   0.004925   0.000004  -0.026207   0.007070  -0.007299
    11  H    0.000027   0.012858  -0.000096  -0.050724  -0.007675  -0.001635
    12  C    0.422239   0.581676  -0.030221  -0.065319  -0.014657   0.006539
    13  H    0.487758  -0.023720  -0.005280   0.003653  -0.000354  -0.000090
    14  C   -0.023720   5.144172   0.421106   0.279907  -0.035981  -0.039804
    15  H   -0.005280   0.421106   0.490402  -0.026588   0.001077  -0.004511
    16  C    0.003653   0.279907  -0.026588   4.925753   0.400355   0.437323
    17  H   -0.000354  -0.035981   0.001077   0.400355   0.590464  -0.021133
    18  H   -0.000090  -0.039804  -0.004511   0.437323  -0.021133   0.537964
    19  C    0.000007   0.000114  -0.000041  -0.001414  -0.001827   0.000348
    20  H   -0.000000   0.000187  -0.000000  -0.000878   0.001158  -0.000016
    21  C   -0.000000  -0.000076   0.000002   0.000451   0.000574  -0.000048
    22  H    0.000000  -0.000001   0.000000   0.000007  -0.000004  -0.000001
    23  C   -0.000025   0.000832  -0.000001  -0.000471   0.000259  -0.000021
    24  H   -0.000001  -0.000012  -0.000000   0.000004   0.000028  -0.000001
    25  H   -0.000000  -0.000012  -0.000001   0.000028  -0.000007   0.000001
    26  C    0.000007  -0.000490  -0.000001   0.000949   0.000132  -0.000001
    27  H   -0.000001   0.000000   0.000000  -0.000001   0.000003  -0.000000
    28  H   -0.000004  -0.000075  -0.000001   0.000132  -0.000025   0.000003
              19         20         21         22         23         24
     1  C   -0.065512   0.003217   0.581299  -0.023509  -0.083732   0.012856
     2  C    0.541521  -0.027072  -0.073548   0.003935   0.262002  -0.050952
     3  H    0.006379  -0.000097  -0.030585  -0.005290   0.004595  -0.000096
     4  H   -0.040785  -0.004773   0.005409  -0.000063  -0.014017  -0.003965
     5  C    0.000513   0.000090   0.000388   0.000007   0.001442   0.002622
     6  C   -0.016246  -0.000687   0.005578   0.000021   0.000341  -0.001014
     7  H    0.000090   0.000006  -0.000072  -0.000000   0.001009  -0.000304
     8  H   -0.001106  -0.000046   0.000701  -0.000008  -0.000581   0.000018
     9  C    0.001393   0.001004  -0.000024  -0.000025  -0.000021   0.000013
    10  H    0.000184   0.000056   0.000021  -0.000000  -0.000004   0.000004
    11  H    0.002662  -0.000301  -0.000390  -0.000001   0.000012  -0.000011
    12  C    0.000387  -0.000071  -0.000214  -0.000000  -0.000007  -0.000389
    13  H    0.000007  -0.000000  -0.000000   0.000000  -0.000025  -0.000001
    14  C    0.000114   0.000187  -0.000076  -0.000001   0.000832  -0.000012
    15  H   -0.000041  -0.000000   0.000002   0.000000  -0.000001  -0.000000
    16  C   -0.001414  -0.000878   0.000451   0.000007  -0.000471   0.000004
    17  H   -0.001827   0.001158   0.000574  -0.000004   0.000259   0.000028
    18  H    0.000348  -0.000016  -0.000048  -0.000001  -0.000021  -0.000001
    19  C    5.097628   0.422219   0.310433  -0.033252  -0.072963   0.007605
    20  H    0.422219   0.479116  -0.028085  -0.003010   0.002973  -0.000033
    21  C    0.310433  -0.028085   5.004560   0.422082   0.036531  -0.003919
    22  H   -0.033252  -0.003010   0.422082   0.487659  -0.000192   0.000027
    23  C   -0.072963   0.002973   0.036531  -0.000192   4.936390   0.447735
    24  H    0.007605  -0.000033  -0.003919   0.000027   0.447735   0.536911
    25  H   -0.003040  -0.000264   0.001495  -0.000056   0.386074  -0.019868
    26  C    0.009272  -0.000578  -0.065268   0.003658   0.363506  -0.050754
    27  H   -0.002742   0.000028   0.006410  -0.000091  -0.045053  -0.001629
    28  H    0.010376   0.000030  -0.014531  -0.000353  -0.036218  -0.007671
              25         26         27         28
     1  C    0.004905   0.279872  -0.039656  -0.036098
     2  C   -0.034444  -0.072148   0.011182  -0.001581
     3  H    0.000003  -0.026589  -0.004499   0.001078
     4  H   -0.000172   0.003645  -0.000104  -0.000128
     5  C    0.000185  -0.001450   0.000349  -0.001814
     6  C   -0.000262   0.005870   0.000600  -0.001430
     7  H    0.000056  -0.000883  -0.000016   0.001162
     8  H   -0.000035   0.000463   0.000079  -0.000472
     9  C   -0.000004  -0.000466  -0.000022   0.000262
    10  H    0.000000   0.000028   0.000001  -0.000006
    11  H    0.000004   0.000004  -0.000001   0.000028
    12  C    0.000022   0.000451  -0.000048   0.000574
    13  H   -0.000000   0.000007  -0.000001  -0.000004
    14  C   -0.000012  -0.000490   0.000000  -0.000075
    15  H   -0.000001  -0.000001   0.000000  -0.000001
    16  C    0.000028   0.000949  -0.000001   0.000132
    17  H   -0.000007   0.000132   0.000003  -0.000025
    18  H    0.000001  -0.000001  -0.000000   0.000003
    19  C   -0.003040   0.009272  -0.002742   0.010376
    20  H   -0.000264  -0.000578   0.000028   0.000030
    21  C    0.001495  -0.065268   0.006410  -0.014531
    22  H   -0.000056   0.003658  -0.000091  -0.000353
    23  C    0.386074   0.363506  -0.045053  -0.036218
    24  H   -0.019868  -0.050754  -0.001629  -0.007671
    25  H    0.569354  -0.026202  -0.007313   0.007076
    26  C   -0.026202   4.925597   0.437202   0.400456
    27  H   -0.007313   0.437202   0.538108  -0.021160
    28  H    0.007076   0.400456  -0.021160   0.590662
          Atomic-Atomic Spin Densities.
               1          2          3          4          5          6
     1  C   -0.000001  -0.000000   0.000000  -0.000000   0.000000  -0.000000
     2  C   -0.000000   0.000000   0.000000   0.000000  -0.000000  -0.000000
     3  H    0.000000   0.000000   0.000000  -0.000000  -0.000000  -0.000000
     4  H   -0.000000   0.000000  -0.000000   0.000000   0.000000  -0.000000
     5  C    0.000000  -0.000000  -0.000000   0.000000  -0.000001   0.000000
     6  C   -0.000000  -0.000000  -0.000000  -0.000000   0.000000   0.000000
     7  H   -0.000000   0.000000   0.000000  -0.000000  -0.000000  -0.000000
     8  H    0.000000   0.000000  -0.000000  -0.000000  -0.000000  -0.000000
     9  C   -0.000000   0.000000  -0.000000  -0.000000   0.000000   0.000000
    10  H   -0.000000  -0.000000  -0.000000   0.000000  -0.000000   0.000000
    11  H    0.000000  -0.000000   0.000000   0.000000   0.000000  -0.000000
    12  C   -0.000000   0.000000   0.000000  -0.000000   0.000000  -0.000000
    13  H    0.000000   0.000000   0.000000   0.000000   0.000000  -0.000000
    14  C    0.000000   0.000000  -0.000000  -0.000000   0.000000   0.000000
    15  H    0.000000  -0.000000   0.000000   0.000000  -0.000000  -0.000000
    16  C   -0.000000   0.000000   0.000000   0.000000  -0.000000  -0.000000
    17  H    0.000000  -0.000000  -0.000000   0.000000   0.000000   0.000000
    18  H   -0.000000  -0.000000  -0.000000   0.000000   0.000000  -0.000000
    19  C    0.000000  -0.000000   0.000000   0.000000  -0.000000   0.000000
    20  H   -0.000000   0.000000   0.000000   0.000000  -0.000000  -0.000000
    21  C    0.000000  -0.000000  -0.000000  -0.000000   0.000000  -0.000000
    22  H   -0.000000   0.000000  -0.000000  -0.000000   0.000000  -0.000000
    23  C   -0.000000  -0.000000   0.000000  -0.000000   0.000000  -0.000000
    24  H   -0.000000   0.000000  -0.000000   0.000000   0.000000   0.000000
    25  H   -0.000000  -0.000000   0.000000   0.000000  -0.000000   0.000000
    26  C    0.000000   0.000000  -0.000000  -0.000000  -0.000000  -0.000000
    27  H    0.000000   0.000000  -0.000000   0.000000   0.000000   0.000000
    28  H    0.000000   0.000000  -0.000000   0.000000  -0.000000   0.000000
               7          8          9         10         11         12
     1  C   -0.000000   0.000000  -0.000000  -0.000000   0.000000  -0.000000
     2  C    0.000000   0.000000   0.000000  -0.000000  -0.000000   0.000000
     3  H    0.000000  -0.000000  -0.000000  -0.000000   0.000000   0.000000
     4  H   -0.000000  -0.000000  -0.000000   0.000000   0.000000  -0.000000
     5  C   -0.000000  -0.000000   0.000000  -0.000000   0.000000   0.000000
     6  C   -0.000000  -0.000000   0.000000   0.000000  -0.000000  -0.000000
     7  H    0.000000  -0.000000   0.000000  -0.000000  -0.000000  -0.000000
     8  H   -0.000000  -0.000000   0.000000  -0.000000  -0.000000   0.000000
     9  C    0.000000   0.000000  -0.000001  -0.000000   0.000000  -0.000000
    10  H   -0.000000  -0.000000  -0.000000   0.000000  -0.000000   0.000000
    11  H   -0.000000  -0.000000   0.000000  -0.000000   0.000000  -0.000000
    12  C   -0.000000   0.000000  -0.000000   0.000000  -0.000000   0.000000
    13  H    0.000000   0.000000   0.000000  -0.000000  -0.000000  -0.000000
    14  C    0.000000   0.000000   0.000000   0.000000   0.000000  -0.000000
    15  H   -0.000000   0.000000  -0.000000  -0.000000   0.000000   0.000000
    16  C   -0.000000   0.000000   0.000000  -0.000000  -0.000000   0.000000
    17  H   -0.000000  -0.000000   0.000000   0.000000  -0.000000   0.000000
    18  H    0.000000  -0.000000   0.000000   0.000000  -0.000000  -0.000000
    19  C    0.000000  -0.000000  -0.000000   0.000000  -0.000000  -0.000000
    20  H    0.000000   0.000000  -0.000000  -0.000000   0.000000   0.000000
    21  C   -0.000000   0.000000  -0.000000   0.000000   0.000000  -0.000000
    22  H    0.000000  -0.000000  -0.000000  -0.000000   0.000000   0.000000
    23  C    0.000000   0.000000  -0.000000   0.000000   0.000000   0.000000
    24  H   -0.000000  -0.000000  -0.000000   0.000000  -0.000000  -0.000000
    25  H    0.000000  -0.000000  -0.000000  -0.000000  -0.000000   0.000000
    26  C   -0.000000  -0.000000   0.000000   0.000000  -0.000000  -0.000000
    27  H   -0.000000  -0.000000  -0.000000   0.000000  -0.000000  -0.000000
    28  H    0.000000  -0.000000   0.000000   0.000000  -0.000000  -0.000000
              13         14         15         16         17         18
     1  C    0.000000   0.000000   0.000000  -0.000000   0.000000  -0.000000
     2  C    0.000000   0.000000  -0.000000   0.000000  -0.000000  -0.000000
     3  H    0.000000  -0.000000   0.000000   0.000000  -0.000000  -0.000000
     4  H    0.000000  -0.000000   0.000000   0.000000   0.000000   0.000000
     5  C    0.000000   0.000000  -0.000000  -0.000000   0.000000   0.000000
     6  C   -0.000000   0.000000  -0.000000  -0.000000   0.000000  -0.000000
     7  H    0.000000   0.000000  -0.000000  -0.000000  -0.000000   0.000000
     8  H    0.000000   0.000000   0.000000   0.000000  -0.000000  -0.000000
     9  C    0.000000   0.000000  -0.000000   0.000000   0.000000   0.000000
    10  H   -0.000000   0.000000  -0.000000  -0.000000   0.000000   0.000000
    11  H   -0.000000   0.000000   0.000000  -0.000000  -0.000000  -0.000000
    12  C   -0.000000  -0.000000   0.000000   0.000000   0.000000  -0.000000
    13  H   -0.000000   0.000000   0.000000  -0.000000  -0.000000   0.000000
    14  C    0.000000   0.000000  -0.000000  -0.000000  -0.000000  -0.000000
    15  H    0.000000  -0.000000  -0.000000  -0.000000   0.000000   0.000000
    16  C   -0.000000  -0.000000  -0.000000   0.000001  -0.000000  -0.000000
    17  H   -0.000000  -0.000000   0.000000  -0.000000   0.000000   0.000000
    18  H    0.000000  -0.000000   0.000000  -0.000000   0.000000  -0.000000
    19  C   -0.000000  -0.000000   0.000000  -0.000000   0.000000  -0.000000
    20  H   -0.000000   0.000000  -0.000000   0.000000  -0.000000   0.000000
    21  C   -0.000000   0.000000  -0.000000   0.000000   0.000000   0.000000
    22  H    0.000000  -0.000000  -0.000000   0.000000  -0.000000   0.000000
    23  C    0.000000   0.000000   0.000000  -0.000000   0.000000   0.000000
    24  H   -0.000000  -0.000000  -0.000000   0.000000   0.000000   0.000000
    25  H    0.000000   0.000000   0.000000  -0.000000  -0.000000  -0.000000
    26  C   -0.000000   0.000000  -0.000000  -0.000000   0.000000   0.000000
    27  H   -0.000000   0.000000  -0.000000  -0.000000   0.000000   0.000000
    28  H    0.000000   0.000000   0.000000  -0.000000   0.000000  -0.000000
              19         20         21         22         23         24
     1  C    0.000000  -0.000000   0.000000  -0.000000  -0.000000  -0.000000
     2  C   -0.000000   0.000000  -0.000000   0.000000  -0.000000   0.000000
     3  H    0.000000   0.000000  -0.000000  -0.000000   0.000000  -0.000000
     4  H    0.000000   0.000000  -0.000000  -0.000000  -0.000000   0.000000
     5  C   -0.000000  -0.000000   0.000000   0.000000   0.000000   0.000000
     6  C    0.000000  -0.000000  -0.000000  -0.000000  -0.000000   0.000000
     7  H    0.000000   0.000000  -0.000000   0.000000   0.000000  -0.000000
     8  H   -0.000000   0.000000   0.000000  -0.000000   0.000000  -0.000000
     9  C   -0.000000  -0.000000  -0.000000  -0.000000  -0.000000  -0.000000
    10  H    0.000000  -0.000000   0.000000  -0.000000   0.000000   0.000000
    11  H   -0.000000   0.000000   0.000000   0.000000   0.000000  -0.000000
    12  C   -0.000000   0.000000  -0.000000   0.000000   0.000000  -0.000000
    13  H   -0.000000  -0.000000  -0.000000   0.000000   0.000000  -0.000000
    14  C   -0.000000   0.000000   0.000000  -0.000000   0.000000  -0.000000
[...]
     2  C   -0.000000   0.000000  -0.000000   0.000000
     3  H    0.000000  -0.000000  -0.000000  -0.000000
     4  H    0.000000  -0.000000   0.000000   0.000000
     5  C   -0.000000  -0.000000   0.000000  -0.000000
     6  C    0.000000  -0.000000   0.000000   0.000000
     7  H    0.000000  -0.000000  -0.000000   0.000000
     8  H   -0.000000  -0.000000  -0.000000  -0.000000
     9  C   -0.000000   0.000000  -0.000000   0.000000
    10  H   -0.000000   0.000000   0.000000   0.000000
    11  H   -0.000000  -0.000000  -0.000000  -0.000000
    12  C    0.000000  -0.000000  -0.000000  -0.000000
    13  H    0.000000  -0.000000  -0.000000   0.000000
    14  C    0.000000   0.000000   0.000000   0.000000
    15  H    0.000000  -0.000000  -0.000000   0.000000
    16  C   -0.000000  -0.000000  -0.000000  -0.000000
    17  H   -0.000000   0.000000   0.000000   0.000000
    18  H   -0.000000   0.000000   0.000000  -0.000000
    19  C    0.000000   0.000000   0.000000  -0.000000
    20  H    0.000000   0.000000  -0.000000   0.000000
    21  C   -0.000000  -0.000000   0.000000  -0.000000
    22  H    0.000000   0.000000  -0.000000   0.000000
    23  C    0.000000  -0.000000  -0.000000  -0.000000
    24  H    0.000000   0.000000   0.000000   0.000000
    25  H   -0.000000   0.000000  -0.000000  -0.000000
    26  C    0.000000  -0.000001   0.000000   0.000000
    27  H   -0.000000   0.000000   0.000000   0.000000
    28  H   -0.000000   0.000000   0.000000  -0.000000
 Mulliken charges and spin densities:
               1          2
     1  C   -0.203796  -0.000001
     2  C   -0.199731   0.000001
     3  H    0.148775   0.000000
     4  H    0.169169   0.000000
     5  C   -0.188848  -0.000001
     6  C   -0.199773   0.000001
     7  H    0.165902   0.000000
     8  H    0.169285  -0.000000
     9  C   -0.202153  -0.000001
    10  H    0.130688   0.000000
    11  H    0.136340   0.000000
    12  C   -0.164387   0.000001
    13  H    0.152332  -0.000000
    14  C   -0.204638  -0.000000
    15  H    0.148857   0.000000
    16  C   -0.189789   0.000001
    17  H    0.113839  -0.000000
    18  H    0.132371  -0.000000
    19  C   -0.188730  -0.000000
    20  H    0.165978  -0.000000
    21  C   -0.164702   0.000001
    22  H    0.152179   0.000000
    23  C   -0.202346   0.000001
    24  H    0.137506  -0.000000
    25  H    0.130489  -0.000000
    26  C   -0.189017  -0.000000
    27  H    0.132374   0.000000
    28  H    0.111824  -0.000000
 Sum of Mulliken charges =  -0.00000   0.00000
 Mulliken charges and spin densities with hydrogens summed into heavy atoms:
               1          2
     1  C   -0.055021  -0.000001
     2  C   -0.030561   0.000001
     5  C   -0.022945  -0.000001
     6  C   -0.030488   0.000001
     9  C    0.064875  -0.000000
    12  C   -0.012055   0.000000
    14  C   -0.055781  -0.000000
    16  C    0.056421   0.000000
    19  C   -0.022753  -0.000001
    21  C   -0.012523   0.000001
    23  C    0.065649   0.000000
    26  C    0.055181  -0.000000
 Electronic spatial extent (au):  <R**2>=           2364.3718
 Charge=             -0.0000 electrons
 Dipole moment (field-independent basis, Debye):
    X=             -0.0000    Y=              0.0003    Z=             -0.0019  Tot=              0.0019
 Quadrupole moment (field-independent basis, Debye-Ang):
   XX=            -70.7184   YY=            -68.0514   ZZ=            -74.7093
   XY=             -3.2371   XZ=             -4.0528   YZ=             -1.6716
 Traceless Quadrupole moment (field-independent basis, Debye-Ang):
   XX=              0.4413   YY=              3.1083   ZZ=             -3.5496
   XY=             -3.2371   XZ=             -4.0528   YZ=             -1.6716
 Octapole moment (field-independent basis, Debye-Ang**2):
  XXX=              0.0020  YYY=              0.0101  ZZZ=             -0.0094  XYY=              0.0088
  XXY=             -0.0008  XXZ=              0.0014  XZZ=             -0.0055  YZZ=             -0.0014
  YYZ=             -0.0049  XYZ=              0.0076
 Hexadecapole moment (field-independent basis, Debye-Ang**3):
 XXXX=          -2086.0684 YYYY=           -608.0390 ZZZZ=           -468.9653 XXXY=           -123.0227
 XXXZ=           -186.7889 YYYX=            -71.8236 YYYZ=            -12.1285 ZZZX=           -126.2997
 ZZZY=            -26.5767 XXYY=           -441.6003 XXZZ=           -443.3971 YYZZ=           -194.5659
 XXYZ=            -28.3132 YYXZ=            -44.5873 ZZXY=            -49.1371
 N-N= 6.678624812728D+02 E-N=-2.418322982201D+03  KE= 4.642811213887D+02
                          Isotropic Fermi Contact Couplings
        Atom                 a.u.       MegaHertz       Gauss      10(-4) cm-1
     1  C(13)             -0.00000      -0.00007      -0.00003      -0.00002
     2  C(13)              0.00000       0.00000       0.00000       0.00000
     3  H(1)               0.00000       0.00003       0.00001       0.00001
     4  H(1)               0.00000       0.00003       0.00001       0.00001
     5  C(13)             -0.00000      -0.00019      -0.00007      -0.00006
     6  C(13)              0.00000       0.00010       0.00004       0.00003
     7  H(1)               0.00000       0.00025       0.00009       0.00008
     8  H(1)              -0.00000      -0.00009      -0.00003      -0.00003
     9  C(13)             -0.00000      -0.00024      -0.00008      -0.00008
    10  H(1)               0.00000       0.00013       0.00005       0.00004
    11  H(1)               0.00000       0.00012       0.00004       0.00004
    12  C(13)              0.00000       0.00015       0.00005       0.00005
    13  H(1)              -0.00000      -0.00022      -0.00008      -0.00007
    14  C(13)             -0.00000      -0.00003      -0.00001      -0.00001
    15  H(1)               0.00000       0.00003       0.00001       0.00001
    16  C(13)              0.00000       0.00015       0.00005       0.00005
    17  H(1)              -0.00000      -0.00008      -0.00003      -0.00003
    18  H(1)              -0.00000      -0.00006      -0.00002      -0.00002
    19  C(13)              0.00000       0.00008       0.00003       0.00003
    20  H(1)              -0.00000      -0.00020      -0.00007      -0.00007
    21  C(13)             -0.00000      -0.00004      -0.00002      -0.00001
    22  H(1)               0.00000       0.00016       0.00006       0.00005
    23  C(13)              0.00000       0.00019       0.00007       0.00006
    24  H(1)              -0.00000      -0.00009      -0.00003      -0.00003
    25  H(1)              -0.00000      -0.00005      -0.00002      -0.00002
    26  C(13)             -0.00000      -0.00011      -0.00004      -0.00004
    27  H(1)               0.00000       0.00003       0.00001       0.00001
    28  H(1)              -0.00000      -0.00001      -0.00000      -0.00000
 --------------------------------------------------------
       Center         ----  Spin Dipole Couplings  ----
                      3XX-RR        3YY-RR        3ZZ-RR
 --------------------------------------------------------
     1   Atom       -0.000000      0.000001     -0.000000
     2   Atom        0.000000     -0.000000      0.000000
     3   Atom       -0.000000      0.000000     -0.000000
     4   Atom       -0.000000     -0.000000      0.000000
     5   Atom       -0.000000     -0.000000      0.000000
     6   Atom       -0.000000     -0.000000      0.000001
     7   Atom        0.000000     -0.000000      0.000000
     8   Atom        0.000000     -0.000000     -0.000000
     9   Atom       -0.000000      0.000000     -0.000000
    10   Atom        0.000000      0.000000     -0.000000
    11   Atom       -0.000000     -0.000000      0.000000
    12   Atom        0.000000      0.000000     -0.000000
    13   Atom       -0.000000      0.000000     -0.000000
    14   Atom        0.000000      0.000000     -0.000001
    15   Atom       -0.000000      0.000000      0.000000
    16   Atom        0.000000     -0.000000      0.000000
    17   Atom        0.000000     -0.000000      0.000000
    18   Atom        0.000000      0.000000     -0.000000
    19   Atom        0.000000      0.000001     -0.000001
    20   Atom       -0.000000      0.000000     -0.000000
    21   Atom       -0.000000     -0.000001      0.000001
    22   Atom        0.000000     -0.000000      0.000000
    23   Atom        0.000000     -0.000000      0.000000
    24   Atom       -0.000000      0.000000     -0.000000
    25   Atom       -0.000000     -0.000000      0.000000
    26   Atom       -0.000000      0.000000     -0.000000
    27   Atom        0.000000     -0.000000      0.000000
    28   Atom       -0.000000      0.000000     -0.000000
 --------------------------------------------------------
                        XY            XZ            YZ
 --------------------------------------------------------
     1   Atom        0.000000     -0.000001      0.000000
     2   Atom        0.000000      0.000001      0.000000
     3   Atom       -0.000000      0.000000      0.000000
     4   Atom       -0.000000     -0.000000      0.000000
     5   Atom       -0.000000     -0.000000     -0.000000
     6   Atom       -0.000000      0.000000      0.000000
     7   Atom        0.000000      0.000000     -0.000000
     8   Atom        0.000000     -0.000000     -0.000000
     9   Atom       -0.000000      0.000000     -0.000000
    10   Atom        0.000000     -0.000000      0.000000
    11   Atom       -0.000000     -0.000000     -0.000000
    12   Atom        0.000000      0.000000     -0.000000
    13   Atom        0.000000     -0.000000     -0.000000
    14   Atom       -0.000000      0.000000     -0.000000
    15   Atom       -0.000000     -0.000000     -0.000000
    16   Atom       -0.000000     -0.000000     -0.000000
    17   Atom        0.000000      0.000000      0.000000
    18   Atom       -0.000000      0.000000     -0.000000
    19   Atom       -0.000000     -0.000000     -0.000000
    20   Atom       -0.000000     -0.000000      0.000000
    21   Atom       -0.000000      0.000001      0.000000
    22   Atom        0.000000      0.000000      0.000000
    23   Atom        0.000000     -0.000000      0.000000
    24   Atom        0.000000      0.000000      0.000000
    25   Atom       -0.000000      0.000000     -0.000000
    26   Atom        0.000000      0.000000      0.000000
    27   Atom        0.000000     -0.000000      0.000000
    28   Atom       -0.000000     -0.000000     -0.000000
 --------------------------------------------------------


 ---------------------------------------------------------------------------------
              Anisotropic Spin Dipole Couplings in Principal Axis System
 ---------------------------------------------------------------------------------

       Atom             a.u.   MegaHertz   Gauss  10(-4) cm-1        Axes

              Baa    -0.0000    -0.000    -0.000    -0.000  0.7193 -0.1035  0.6869
     1 C(13)  Bbb     0.0000     0.000     0.000     0.000  0.0522  0.9941  0.0951
              Bcc     0.0000     0.000     0.000     0.000 -0.6927 -0.0325  0.7205
 
              Baa    -0.0000    -0.000    -0.000    -0.000  0.7071 -0.4180 -0.5703
     2 C(13)  Bbb    -0.0000    -0.000    -0.000    -0.000  0.1467  0.8757 -0.4600
              Bcc     0.0000     0.000     0.000     0.000  0.6917  0.2416  0.6805
 
              Baa    -0.0000    -0.000    -0.000    -0.000 -0.4417 -0.1635  0.8821
     3 H(1)   Bbb     0.0000     0.000     0.000     0.000  0.8930  0.0146  0.4498
              Bcc     0.0000     0.000     0.000     0.000 -0.0864  0.9864  0.1396
 
              Baa    -0.0000    -0.000    -0.000    -0.000 -0.1006  0.9735 -0.2055
     4 H(1)   Bbb    -0.0000    -0.000    -0.000    -0.000  0.9237  0.1681  0.3444
              Bcc     0.0000     0.000     0.000     0.000 -0.3698  0.1551  0.9161
 
              Baa    -0.0000    -0.000    -0.000    -0.000  0.8110  0.2720  0.5180
     5 C(13)  Bbb    -0.0000    -0.000    -0.000    -0.000 -0.4001  0.9039  0.1517
              Bcc     0.0000     0.000     0.000     0.000 -0.4269 -0.3302  0.8418
 
              Baa    -0.0000    -0.000    -0.000    -0.000  0.7850  0.5780 -0.2231
     6 C(13)  Bbb    -0.0000    -0.000    -0.000    -0.000 -0.6018  0.7969 -0.0530
              Bcc     0.0000     0.000     0.000     0.000  0.1471  0.1758  0.9734
 
              Baa    -0.0000    -0.000    -0.000    -0.000 -0.5061  0.8225  0.2597
     7 H(1)   Bbb     0.0000     0.000     0.000     0.000  0.6940  0.2096  0.6888
              Bcc     0.0000     0.000     0.000     0.000 -0.5121 -0.5288  0.6769
 
              Baa    -0.0000    -0.000    -0.000    -0.000 -0.1036  0.9441  0.3131
     8 H(1)   Bbb    -0.0000    -0.000    -0.000    -0.000  0.1313 -0.2990  0.9452
              Bcc     0.0000     0.000     0.000     0.000  0.9859  0.1390 -0.0930
 
              Baa    -0.0000    -0.000    -0.000    -0.000  0.7532  0.1262 -0.6456
     9 C(13)  Bbb     0.0000     0.000     0.000     0.000  0.4642  0.5933  0.6576
              Bcc     0.0000     0.000     0.000     0.000 -0.4661  0.7950 -0.3883
 
              Baa    -0.0000    -0.000    -0.000    -0.000  0.4847 -0.1369  0.8639
    10 H(1)   Bbb     0.0000     0.000     0.000     0.000  0.8452  0.3276 -0.4223
              Bcc     0.0000     0.000     0.000     0.000 -0.2252  0.9348  0.2745
 
              Baa    -0.0000    -0.000    -0.000    -0.000  0.6129  0.7871  0.0688
    11 H(1)   Bbb     0.0000     0.000     0.000     0.000 -0.3384  0.1828  0.9231
              Bcc     0.0000     0.000     0.000     0.000  0.7140 -0.5891  0.3784
 
              Baa    -0.0000    -0.000    -0.000    -0.000 -0.2650  0.1870  0.9459
    12 C(13)  Bbb     0.0000     0.000     0.000     0.000 -0.1277  0.9656 -0.2266
              Bcc     0.0000     0.000     0.000     0.000  0.9558  0.1808  0.2320
 
              Baa    -0.0000    -0.000    -0.000    -0.000 -0.3506  0.4083  0.8428
    13 H(1)   Bbb    -0.0000    -0.000    -0.000    -0.000  0.8959 -0.1159  0.4289
              Bcc     0.0000     0.000     0.000     0.000  0.2728  0.9054 -0.3252
 
              Baa    -0.0000    -0.000    -0.000    -0.000 -0.0603  0.0473  0.9971
    14 C(13)  Bbb     0.0000     0.000     0.000     0.000  0.2786  0.9600 -0.0287
              Bcc     0.0000     0.000     0.000     0.000  0.9585 -0.2760  0.0711
 
              Baa    -0.0000    -0.000    -0.000    -0.000  0.9943  0.0458  0.0966
    15 H(1)   Bbb     0.0000     0.000     0.000     0.000 -0.0709  0.9587  0.2755
              Bcc     0.0000     0.000     0.000     0.000 -0.0799 -0.2808  0.9564
 
              Baa    -0.0000    -0.000    -0.000    -0.000  0.3609  0.8769  0.3176
    16 C(13)  Bbb    -0.0000    -0.000    -0.000    -0.000  0.6585 -0.4807  0.5790
              Bcc     0.0000     0.000     0.000     0.000 -0.6604 -0.0002  0.7509
 
              Baa    -0.0000    -0.000    -0.000    -0.000  0.0770  0.8910 -0.4474
    17 H(1)   Bbb    -0.0000    -0.000    -0.000    -0.000  0.8355 -0.3025 -0.4588
              Bcc     0.0000     0.000     0.000     0.000  0.5441  0.3384  0.7677
 
              Baa    -0.0000    -0.000    -0.000    -0.000  0.6456  0.6983  0.3091
    18 H(1)   Bbb    -0.0000    -0.000    -0.000    -0.000 -0.3459 -0.0934  0.9336
              Bcc     0.0000     0.000     0.000     0.000 -0.6808  0.7097 -0.1812
 
              Baa    -0.0000    -0.000    -0.000    -0.000  0.2182  0.0554  0.9743
    19 C(13)  Bbb     0.0000     0.000     0.000     0.000  0.8604  0.4603 -0.2188
              Bcc     0.0000     0.000     0.000     0.000 -0.4606  0.8860  0.0527
 
              Baa    -0.0000    -0.000    -0.000    -0.000  0.5325 -0.0199  0.8462
    20 H(1)   Bbb    -0.0000    -0.000    -0.000    -0.000  0.7507  0.4728 -0.4613
              Bcc     0.0000     0.000     0.000     0.000 -0.3909  0.8809  0.2668
 
              Baa    -0.0000    -0.000    -0.000    -0.000  0.3024  0.9470 -0.1082
    21 C(13)  Bbb    -0.0000    -0.000    -0.000    -0.000  0.9027 -0.3210 -0.2866
              Bcc     0.0000     0.000     0.000     0.000  0.3061  0.0110  0.9519
 
              Baa    -0.0000    -0.000    -0.000    -0.000 -0.3299  0.9420 -0.0610
    22 H(1)   Bbb    -0.0000    -0.000    -0.000    -0.000  0.7888  0.2396 -0.5661
              Bcc     0.0000     0.000     0.000     0.000  0.5186  0.2349  0.8221
 
              Baa    -0.0000    -0.000    -0.000    -0.000 -0.4119  0.8433 -0.3453
    23 C(13)  Bbb     0.0000     0.000     0.000     0.000  0.5018  0.5262  0.6865
              Bcc     0.0000     0.000     0.000     0.000  0.7606  0.1095 -0.6399
 
              Baa    -0.0000    -0.000    -0.000    -0.000  0.5551 -0.4012  0.7286
    24 H(1)   Bbb    -0.0000    -0.000    -0.000    -0.000 -0.6571  0.3256  0.6799
              Bcc     0.0000     0.000     0.000     0.000  0.5100  0.8562  0.0829
 
              Baa    -0.0000    -0.000    -0.000    -0.000  0.6959  0.6304 -0.3440
    25 H(1)   Bbb    -0.0000    -0.000    -0.000    -0.000 -0.4144  0.7437  0.5246
              Bcc     0.0000     0.000     0.000     0.000  0.5865 -0.2225  0.7788
 
              Baa    -0.0000    -0.000    -0.000    -0.000 -0.6617 -0.0167  0.7496
    26 C(13)  Bbb     0.0000     0.000     0.000     0.000  0.6878 -0.4115  0.5980
              Bcc     0.0000     0.000     0.000     0.000  0.2985  0.9113  0.2838
 
              Baa    -0.0000    -0.000    -0.000    -0.000 -0.5145  0.8260 -0.2303
    27 H(1)   Bbb     0.0000     0.000     0.000     0.000  0.8004  0.3662 -0.4746
              Bcc     0.0000     0.000     0.000     0.000  0.3076  0.4285  0.8495
 
              Baa    -0.0000    -0.000    -0.000    -0.000  0.6388  0.5995  0.4822
    28 H(1)   Bbb     0.0000     0.000     0.000     0.000 -0.2692 -0.4130  0.8700
              Bcc     0.0000     0.000     0.000     0.000  0.7207 -0.6856 -0.1024
 

 ---------------------------------------------------------------------------------

 No NMR shielding tensors so no spin-rotation constants.
 Leave Link  601 at Mon Aug  3 20:20:47 2020, MaxMem=  6442450944 cpu:               7.9 elap:               0.4
 (Enter /scratch/scicomp/CentOS/7.3.1611/Haswell/software/Gaussian/g16/l9999.exe)
 1\1\GINC-ATLAS-205\SP\UwB97XD\def2TZVP\C12H16\BOCHEN\03-Aug-2020\0\\#p
  uwb97xd guess=mix def2tzvp # scrf=(iefpcm,solvent=Cyclohexane,read) n
 osym 6d 10f\\endo-2 xp-pcm for eta=3\\0,1\C,0,-3.111354,-0.438024,0.28
 8476\C,0,-0.838887,-0.280035,-1.396455\H,0,-4.018848,-0.512178,0.87639
 1\H,0,0.074286,-0.210856,-1.975395\C,0,1.243587,1.445746,0.898709\C,0,
 0.838887,0.280035,1.396455\H,0,0.661682,2.345979,1.057759\H,0,-0.07428
 6,0.210856,1.975395\C,0,1.6632,-0.964107,1.227344\H,0,2.298573,-1.0724
 96,2.116318\H,0,1.015835,-1.842319,1.205078\C,0,2.490124,1.536957,0.13
 6281\H,0,2.892627,2.517404,-0.088621\C,0,3.111354,0.438024,-0.288476\H
 ,0,4.018848,0.512178,-0.876391\C,0,2.534434,-0.926987,-0.030159\H,0,1.
 936253,-1.217234,-0.902586\H,0,3.331183,-1.668816,0.048441\C,0,-1.2435
 87,-1.445746,-0.898709\H,0,-0.661682,-2.345979,-1.057759\C,0,-2.490124
 ,-1.536957,-0.136281\H,0,-2.892627,-2.517404,0.088621\C,0,-1.6632,0.96
 4107,-1.227344\H,0,-1.015835,1.842319,-1.205078\H,0,-2.298573,1.072496
 ,-2.116318\C,0,-2.534434,0.926987,0.030159\H,0,-3.331183,1.668816,-0.0
 48441\H,0,-1.936253,1.217234,0.902586\\Version=ES64L-G16RevB.01\HF=-46
 6.8116897\S2=0.\S2-1=0.\S2A=0.\RMSD=8.348e-09\Dipole=-0.000018,0.00013
 05,-0.0007438\Quadrupole=0.3280903,2.310916,-2.6390062,-2.406709,-3.01
 31593,-1.2427676\PG=CI [X(C12H16)]\\@


 Democracy is the recurrent suspicion that more than half of the people
 are right more than half of the time.
 -- E. B. White
 Job cpu time:       0 days  2 hours  5 minutes 23.0 seconds.
 Elapsed time:       0 days  0 hours  5 minutes 16.7 seconds.
 File lengths (MBytes):  RWF=    641 Int=      0 D2E=      0 Chk=     24 Scr=      1
 Normal termination of Gaussian 16 at Mon Aug  3 20:20:47 2020.
