 Entering Gaussian System, Link 0=g16
 Input=meso-TS_43_2_pcm.com
 Output=meso-TS_43_2_pcm.log
 Initial command:
 /scratch/scicomp/CentOS/7.3.1611/Haswell/software/Gaussian/g16/l1.exe "/scratch/bochen/cyclohexadiene-dimerization/wb97xd-def2tzvp/xp-pcm/meso/Gau-28770.inp" -scrdir="/scratch/bochen/cyclohexadiene-dimerization/wb97xd-def2tzvp/xp-pcm/meso/"
 Entering Link 1 = /scratch/scicomp/CentOS/7.3.1611/Haswell/software/Gaussian/g16/l1.exe PID=     28771.
  
 Copyright (c) 1988-2017, Gaussian, Inc.  All Rights Reserved.
  
 This is part of the Gaussian(R) 16 program.  It is based on
 the Gaussian(R) 09 system (copyright 2009, Gaussian, Inc.),
 the Gaussian(R) 03 system (copyright 2003, Gaussian, Inc.),
 the Gaussian(R) 98 system (copyright 1998, Gaussian, Inc.),
 the Gaussian(R) 94 system (copyright 1995, Gaussian, Inc.),
 the Gaussian 92(TM) system (copyright 1992, Gaussian, Inc.),
 the Gaussian 90(TM) system (copyright 1990, Gaussian, Inc.),
 the Gaussian 88(TM) system (copyright 1988, Gaussian, Inc.),
 the Gaussian 86(TM) system (copyright 1986, Carnegie Mellon
 University), and the Gaussian 82(TM) system (copyright 1983,
 Carnegie Mellon University). Gaussian is a federally registered
 trademark of Gaussian, Inc.
  
 This software contains proprietary and confidential information,
 including trade secrets, belonging to Gaussian, Inc.
  
 This software is provided under written license and may be
 used, copied, transmitted, or stored only in accord with that
 written license.
  
 The following legend is applicable only to US Government
 contracts under FAR:
  
                    RESTRICTED RIGHTS LEGEND
  
 Use, reproduction and disclosure by the US Government is
 subject to restrictions as set forth in subparagraphs (a)
 and (c) of the Commercial Computer Software - Restricted
 Rights clause in FAR 52.227-19.
  
 Gaussian, Inc.
 340 Quinnipiac St., Bldg. 40, Wallingford CT 06492
  
  
 ---------------------------------------------------------------
 Warning -- This program may not be used in any manner that
 competes with the business of Gaussian, Inc. or will provide
 assistance to any competitor of Gaussian, Inc.  The licensee
 of this program is prohibited from giving any competitor of
 Gaussian, Inc. access to this program.  By using this program,
 the user acknowledges that Gaussian, Inc. is engaged in the
 business of creating and licensing software in the field of
 computational chemistry and represents and warrants to the
 licensee that it is not a competitor of Gaussian, Inc. and that
 it will not use this program in any manner prohibited above.
 ---------------------------------------------------------------
  

 Cite this work as:
 Gaussian 16, Revision B.01,
 M. J. Frisch, G. W. Trucks, H. B. Schlegel, G. E. Scuseria, 
 M. A. Robb, J. R. Cheeseman, G. Scalmani, V. Barone, 
 G. A. Petersson, H. Nakatsuji, X. Li, M. Caricato, A. V. Marenich, 
 J. Bloino, B. G. Janesko, R. Gomperts, B. Mennucci, H. P. Hratchian, 
 J. V. Ortiz, A. F. Izmaylov, J. L. Sonnenberg, D. Williams-Young, 
 F. Ding, F. Lipparini, F. Egidi, J. Goings, B. Peng, A. Petrone, 
 T. Henderson, D. Ranasinghe, V. G. Zakrzewski, J. Gao, N. Rega, 
 G. Zheng, W. Liang, M. Hada, M. Ehara, K. Toyota, R. Fukuda, 
 J. Hasegawa, M. Ishida, T. Nakajima, Y. Honda, O. Kitao, H. Nakai, 
 T. Vreven, K. Throssell, J. A. Montgomery, Jr., J. E. Peralta, 
 F. Ogliaro, M. J. Bearpark, J. J. Heyd, E. N. Brothers, K. N. Kudin, 
 V. N. Staroverov, T. A. Keith, R. Kobayashi, J. Normand, 
 K. Raghavachari, A. P. Rendell, J. C. Burant, S. S. Iyengar, 
 J. Tomasi, M. Cossi, J. M. Millam, M. Klene, C. Adamo, R. Cammi, 
 J. W. Ochterski, R. L. Martin, K. Morokuma, O. Farkas, 
 J. B. Foresman, and D. J. Fox, Gaussian, Inc., Wallingford CT, 2016.
 
 ******************************************
 Gaussian 16:  ES64L-G16RevB.01 20-Dec-2017
                 3-Aug-2020 
 ******************************************
 %nproc=24
 Will use up to   24 processors via shared memory.
 %mem=48GB
 ----------------------------------------------------------------------
 #p uwb97xd guess=mix def2tzvp # scrf=(iefpcm,solvent=Cyclohexane,read)
  nosym 6d 10f
 ----------------------------------------------------------------------
 1/38=1,40=2,172=1/1;
 2/12=2,15=1,17=6,18=5,40=1/2;
 3/5=44,7=101,8=22,11=2,25=1,30=1,70=2203,72=17,74=-58,116=2/1,2,3;
 4/13=-1/1;
 5/5=2,38=5,53=17/2;
 6/7=2,8=2,9=2,10=2,28=1/1;
 99/5=1,9=1/99;
 Leave Link    1 at Mon Aug  3 14:54:22 2020, MaxMem=  6442450944 cpu:               1.6 elap:               0.1
 (Enter /scratch/scicomp/CentOS/7.3.1611/Haswell/software/Gaussian/g16/l101.exe)
 -----------------------
 endo-2 xp-pcm for eta=3
 -----------------------
 Symbolic Z-matrix:
 Charge =  0 Multiplicity = 1
 6                    -3.12738  -0.4412    0.25695 
 6                    -0.69651  -0.2427   -1.18434 
 1                    -4.07908  -0.53852   0.7665 
 1                     0.26436  -0.15591  -1.67548 
 6                     1.14464   1.42119   0.76251 
 6                     0.69651   0.2427    1.18434 
 1                     0.55123   2.31787   0.89388 
 1                    -0.26436   0.15591   1.67548 
 6                     1.53593  -0.99774   1.08164 
 1                     2.04315  -1.12432   2.04652 
 1                     0.89882  -1.8736    0.96055 
 6                     2.4466    1.52719   0.10551 
 1                     2.84835   2.51348  -0.09397 
 6                     3.12738   0.4412   -0.25695 
 1                     4.07908   0.53852  -0.7665 
 6                     2.58115  -0.94349  -0.03837 
 1                     2.15004  -1.29813  -0.98272 
 1                     3.39465  -1.63541   0.18847 
 6                    -1.14464  -1.42119  -0.76251 
 1                    -0.55123  -2.31787  -0.89388 
 6                    -2.4466   -1.52719  -0.10551 
 1                    -2.84835  -2.51348   0.09397 
 6                    -1.53593   0.99774  -1.08164 
 1                    -0.89882   1.8736   -0.96055 
 1                    -2.04315   1.12432  -2.04652 
 6                    -2.58115   0.94349   0.03837 
 1                    -3.39465   1.63541  -0.18847 
 1                    -2.15004   1.29813   0.98272 
 
 ITRead=  0  0  0  0  0  0  0  0  0  0  0  0  0  0  0  0  0  0  0  0
 ITRead=  0  0  0  0  0  0  0  0
 MicOpt= -1 -1 -1 -1 -1 -1 -1 -1 -1 -1 -1 -1 -1 -1 -1 -1 -1 -1 -1 -1
 MicOpt= -1 -1 -1 -1 -1 -1 -1 -1
 NAtoms=     28 NQM=       28 NQMF=       0 NMMI=      0 NMMIF=      0
                NMic=       0 NMicF=      0.
                    Isotopes and Nuclear Properties:
 (Nuclear quadrupole moments (NQMom) in fm**2, nuclear magnetic moments (NMagM)
  in nuclear magnetons)

  Atom         1           2           3           4           5           6           7           8           9          10
 IAtWgt=          12          12           1           1          12          12           1           1          12           1
 AtmWgt=  12.0000000  12.0000000   1.0078250   1.0078250  12.0000000  12.0000000   1.0078250   1.0078250  12.0000000   1.0078250
 NucSpn=           0           0           1           1           0           0           1           1           0           1
 AtZEff=  -0.0000000  -0.0000000  -0.0000000  -0.0000000  -0.0000000  -0.0000000  -0.0000000  -0.0000000  -0.0000000  -0.0000000
 NQMom=    0.0000000   0.0000000   0.0000000   0.0000000   0.0000000   0.0000000   0.0000000   0.0000000   0.0000000   0.0000000
 NMagM=    0.0000000   0.0000000   2.7928460   2.7928460   0.0000000   0.0000000   2.7928460   2.7928460   0.0000000   2.7928460
 AtZNuc=   6.0000000   6.0000000   1.0000000   1.0000000   6.0000000   6.0000000   1.0000000   1.0000000   6.0000000   1.0000000

  Atom        11          12          13          14          15          16          17          18          19          20
 IAtWgt=           1          12           1          12           1          12           1           1          12           1
 AtmWgt=   1.0078250  12.0000000   1.0078250  12.0000000   1.0078250  12.0000000   1.0078250   1.0078250  12.0000000   1.0078250
 NucSpn=           1           0           1           0           1           0           1           1           0           1
 AtZEff=  -0.0000000  -0.0000000  -0.0000000  -0.0000000  -0.0000000  -0.0000000  -0.0000000  -0.0000000  -0.0000000  -0.0000000
 NQMom=    0.0000000   0.0000000   0.0000000   0.0000000   0.0000000   0.0000000   0.0000000   0.0000000   0.0000000   0.0000000
 NMagM=    2.7928460   0.0000000   2.7928460   0.0000000   2.7928460   0.0000000   2.7928460   2.7928460   0.0000000   2.7928460
 AtZNuc=   1.0000000   6.0000000   1.0000000   6.0000000   1.0000000   6.0000000   1.0000000   1.0000000   6.0000000   1.0000000

  Atom        21          22          23          24          25          26          27          28
 IAtWgt=          12           1          12           1           1          12           1           1
 AtmWgt=  12.0000000   1.0078250  12.0000000   1.0078250   1.0078250  12.0000000   1.0078250   1.0078250
 NucSpn=           0           1           0           1           1           0           1           1
 AtZEff=  -0.0000000  -0.0000000  -0.0000000  -0.0000000  -0.0000000  -0.0000000  -0.0000000  -0.0000000
 NQMom=    0.0000000   0.0000000   0.0000000   0.0000000   0.0000000   0.0000000   0.0000000   0.0000000
 NMagM=    0.0000000   2.7928460   0.0000000   2.7928460   2.7928460   0.0000000   2.7928460   2.7928460
 AtZNuc=   6.0000000   1.0000000   6.0000000   1.0000000   1.0000000   6.0000000   1.0000000   1.0000000
 Leave Link  101 at Mon Aug  3 14:54:22 2020, MaxMem=  6442450944 cpu:               2.4 elap:               0.1
 (Enter /scratch/scicomp/CentOS/7.3.1611/Haswell/software/Gaussian/g16/l202.exe)
                          Input orientation:                          
 ---------------------------------------------------------------------
 Center     Atomic      Atomic             Coordinates (Angstroms)
 Number     Number       Type             X           Y           Z
 ---------------------------------------------------------------------
      1          6           0       -3.127383   -0.441200    0.256946
      2          6           0       -0.696508   -0.242696   -1.184341
      3          1           0       -4.079078   -0.538518    0.766502
      4          1           0        0.264362   -0.155913   -1.675481
      5          6           0        1.144636    1.421194    0.762509
      6          6           0        0.696508    0.242696    1.184341
      7          1           0        0.551234    2.317867    0.893879
      8          1           0       -0.264362    0.155913    1.675481
      9          6           0        1.535929   -0.997742    1.081645
     10          1           0        2.043151   -1.124317    2.046516
     11          1           0        0.898815   -1.873600    0.960552
     12          6           0        2.446597    1.527191    0.105512
     13          1           0        2.848349    2.513477   -0.093966
     14          6           0        3.127383    0.441200   -0.256946
     15          1           0        4.079078    0.538518   -0.766502
     16          6           0        2.581145   -0.943485   -0.038369
     17          1           0        2.150037   -1.298130   -0.982721
     18          1           0        3.394647   -1.635414    0.188466
     19          6           0       -1.144636   -1.421194   -0.762509
     20          1           0       -0.551234   -2.317867   -0.893879
     21          6           0       -2.446597   -1.527191   -0.105512
     22          1           0       -2.848349   -2.513477    0.093966
     23          6           0       -1.535929    0.997742   -1.081645
     24          1           0       -0.898815    1.873600   -0.960552
     25          1           0       -2.043151    1.124317   -2.046516
     26          6           0       -2.581145    0.943485    0.038369
     27          1           0       -3.394647    1.635414   -0.188467
     28          1           0       -2.150037    1.298130    0.982721
 ---------------------------------------------------------------------
                    Distance matrix (angstroms):
                    1          2          3          4          5
     1  C    0.000000
     2  C    2.832996   0.000000
     3  H    1.083901   3.916003   0.000000
     4  H    3.914026   1.082599   4.997513   0.000000
     5  C    4.687670   3.154135   5.579218   3.034130   0.000000
     6  C    3.993735   2.790475   4.857068   2.919627   1.329518
     7  H    4.642236   3.525953   5.441962   3.578197   1.083239
     8  H    3.250488   2.919627   3.982529   3.406718   2.102315
     9  C    4.768264   3.269337   5.642562   3.150762   2.471075
    10  H    5.513949   4.326826   6.281981   4.237353   2.989252
    11  H    4.330947   3.131369   5.157472   3.209618   3.309882
    12  C    5.913269   3.830839   6.876663   3.281299   1.462184
    13  H    6.675525   4.620760   7.618683   4.037799   2.197560
    14  C    6.337571   3.993735   7.344411   3.250488   2.435357
    15  H    7.344411   4.857068   8.370521   3.982529   3.424608
    16  C    5.738187   3.542226   6.720892   2.944128   2.880394
    17  H    5.488375   3.042599   6.514497   2.310919   3.383989
    18  H    6.630815   4.534513   7.575874   3.932163   3.838610
    19  C    2.435357   1.329518   3.424608   2.102315   3.955454
    20  H    3.388631   2.100430   4.285864   2.439292   4.427208
    21  C    1.331999   2.424172   2.098303   3.419723   4.726879
    22  H    2.097321   3.379487   2.422284   4.286959   5.645575
    23  C    2.528855   1.501286   3.499050   2.219146   3.281104
    24  H    3.436148   2.137690   4.349150   2.446023   2.710960
    25  H    2.988702   2.103691   3.850077   2.664821   4.259195
    26  C    1.504495   2.540453   2.229420   3.498981   3.825445
    27  H    2.140595   3.434970   2.471111   4.336866   4.642772
    28  H    2.123022   3.030355   2.672307   3.874223   3.304317
                    6          7          8          9         10
     6  C    0.000000
     7  H    2.100430   0.000000
     8  H    1.082599   2.439292   0.000000
     9  C    1.501286   3.463834   2.219146   0.000000
    10  H    2.103691   3.924668   2.664821   1.097393   0.000000
    11  H    2.137690   4.206382   2.446023   1.089819   1.746496
    12  C    2.424172   2.199794   3.419723   2.856123   3.310704
    13  H    3.379487   2.508154   4.286959   3.928507   4.296924
    14  C    2.832996   3.388631   3.914026   2.528855   2.988702
    15  H    3.916003   4.285864   4.997513   3.499050   3.850077
    16  C    2.540453   3.952979   3.498981   1.532923   2.160760
    17  H    3.030355   4.376441   3.874223   2.174619   3.036102
    18  H    3.434970   4.920471   4.336867   2.158524   2.353744
    19  C    3.154135   4.427208   3.034130   3.281104   4.259195
    20  H    3.525953   5.089356   3.578197   3.162542   4.098941
    21  C    3.830839   4.976971   3.281299   4.189292   4.995135
    22  H    4.620760   5.961452   4.037799   4.742874   5.446925
    23  C    3.269337   3.162542   3.150762   4.254185   5.205607
    24  H    3.131369   2.395606   3.209618   4.282891   5.165765
    25  H    4.326826   4.098941   4.237353   5.205607   6.205411
    26  C    3.542226   3.525992   2.944128   4.669806   5.449089
    27  H    4.534514   4.148155   3.932163   5.732127   6.494683
    28  H    3.042599   2.888706   2.310919   4.343634   4.958098
                   11         12         13         14         15
    11  H    0.000000
    12  C    3.833028   0.000000
    13  H    4.915194   1.083493   0.000000
    14  C    3.436148   1.331999   2.097321   0.000000
    15  H    4.349150   2.098303   2.422284   1.083901   0.000000
    16  C    2.166377   2.478517   3.467719   1.504495   2.229420
    17  H    2.381813   3.042144   3.975660   2.123022   2.672307
    18  H    2.623362   3.302688   4.194223   2.140595   2.471111
    19  C    2.710960   4.726879   5.645575   4.687670   5.579218
    20  H    2.395606   4.976971   5.961452   4.642236   5.441962
    21  C    3.528211   5.772099   6.660599   5.913269   6.876663
    22  H    3.898930   6.660599   7.599865   6.675525   7.618683
    23  C    4.282891   4.189292   4.742874   4.768264   5.642562
    24  H    4.578605   3.528211   3.898930   4.330947   5.157472
    25  H    5.165765   4.995135   5.446925   5.513949   6.281981
    26  C    4.571270   5.061957   5.653476   5.738187   6.720892
    27  H    5.662794   5.849638   6.305151   6.630815   7.575874
    28  H    4.399530   4.685190   5.255491   5.488375   6.514497
                   16         17         18         19         20
    16  C    0.000000
    17  H    1.097009   0.000000
    18  H    1.091790   1.741980   0.000000
    19  C    3.825445   3.304317   4.642772   0.000000
    20  H    3.525992   2.888706   4.148155   1.083239   0.000000
    21  C    5.061957   4.685190   5.849638   1.462184   2.199794
    22  H    5.653476   5.255491   6.305151   2.197560   2.508154
    23  C    4.669806   4.343634   5.732126   2.471075   3.463834
    24  H    4.571270   4.399530   5.662794   3.309882   4.206382
    25  H    5.449089   4.958098   6.494683   2.989252   3.924668
    26  C    5.496888   5.333999   6.510249   2.880394   3.952979
    27  H    6.510249   6.322977   7.545522   3.838610   4.920471
    28  H    5.333999   5.393901   6.322977   3.383989   4.376441
                   21         22         23         24         25
    21  C    0.000000
    22  H    1.083493   0.000000
    23  C    2.856123   3.928507   0.000000
    24  H    3.833028   4.915194   1.089819   0.000000
    25  H    3.310704   4.296924   1.097393   1.746496   0.000000
    26  C    2.478517   3.467719   1.532923   2.166377   2.160760
    27  H    3.302688   4.194223   2.158524   2.623361   2.353743
    28  H    3.042144   3.975660   2.174619   2.381813   3.036102
                   26         27         28
    26  C    0.000000
    27  H    1.091790   0.000000
    28  H    1.097009   1.741980   0.000000
 Symmetry turned off by external request.
 Stoichiometry    C12H16
 Framework group  CI[X(C12H16)]
 Deg. of freedom    39
 Full point group                 CI      NOp   2
 Rotational constants (GHZ):           1.7937670           0.6031513           0.5397262
 Leave Link  202 at Mon Aug  3 14:54:22 2020, MaxMem=  6442450944 cpu:               0.3 elap:               0.0
 (Enter /scratch/scicomp/CentOS/7.3.1611/Haswell/software/Gaussian/g16/l301.exe)
 Standard basis: def2TZVP (6D, 10F)
 Ernie: Thresh=  0.10000D-02 Tol=  0.10000D-05 Strict=F.
   528 basis functions,   740 primitive gaussians,   528 cartesian basis functions
    44 alpha electrons       44 beta electrons
       nuclear repulsion energy       679.2698202763 Hartrees.
 IExCor= 4639 DFT=T Ex+Corr=wB97XD ExCW=0 ScaHFX=  1.000000
 ScaDFX=  1.000000  1.000000  1.000000  1.000000 ScalE2=  1.000000  1.000000
 IRadAn=      5 IRanWt=     -1 IRanGd=            0 ICorTp=0 IEmpDi=121
 HFx  wShort=  0.000000 wLong=  0.200000 cFull=  0.222036 cShort=  0.000000 cLong=  0.777964
 DFx  wShort=  0.000000 wLong=  0.200000 cFull=  0.000000 cShort=  0.000000 cLong=  1.000000
 NAtoms=   28 NActive=   28 NUniq=   28 SFac= 1.00D+00 NAtFMM=   60 NAOKFM=F Big=F
 Integral buffers will be    131072 words long.
 Raffenetti 2 integral format.
 Two-electron integral symmetry is turned off.
 R6Disp:  Grimme-D2 Dispersion energy=       -0.0225391543 Hartrees.
 Nuclear repulsion after empirical dispersion term =      679.2472811219 Hartrees.
 Using the following non-standard input for PCM:
 norep pcmdoc geomview  nodis nocav g03defaults tsare=0.075
 Warning! Using old PCM defaults because the g03defaults keyword was found.
 These settings can be overridden by following keywords.
 nsfe=28
 NVESolv=36  SolvMW=84.1595   Rsolv=2.815
 eps=2.0165 RhoS=0.7781
 --- end of non-standard input.
 Reading user-defined spheres from input:
 ISph  on   Nord    Re0     Alpha      Xe            Ye            Ze
 --- end of user-defined spheres data.
 ------------------------------------------------------------------------------
 Polarizable Continuum Model (PCM)
 =================================
 Model                : PCM.
 Atomic radii         : UA0 (Simple United Atom Topological Model).
 Polarization charges : Total charges.
 Charge compensation  : None.
 Solution method      : On-the-fly selection.
 Cavity type          : SES (Solvent Excluding Surface) (Alpha=1.000).
 Cavity algorithm     : GePol (RMin=0.200 OFac=0.890).
                        User-defined sphere list used, NSphG=   28.
                        Tesserae with average area of 0.075 Ang**2.
                        Smoothing algorithm: None.
                        Polarization charges: point-like.
                        Self-potential: constant (ISelfS= 1).
                        Self-field    : global E.n sum rule (ISelfD= 3).
 Solvent              : CycloHexane, Eps=   2.016500 Eps(inf)=   2.035188
                        RSolv=   2.815000 Ang.
 ------------------------------------------------------------------------------
 GePol: Number of generator spheres                  =      28
 GePol: Total number of spheres                      =     188
 GePol: Number of exposed spheres                    =     135 ( 71.81%)
 GePol: Number of tesserae                           =    4699
 GePol: Average area of tesserae                     =       0.05 Ang**2
 GePol: Minimum area of tessera                      =   0.10D-02 Ang**2
 GePol: Maximum area of tessera                      =    0.12395 Ang**2
 GePol: Number of small tesserae                     =       0
 GePol: Fraction of small tesserae (<1% of avg)      =       0.00%
 GePol: Total count of vertices                      =   16672
 GePol: Maximum number of vertices in a tessera      =       8
 GePol: Cavity surface area                          =    221.166 Ang**2
 GePol: Cavity volume                                =    251.062 Ang**3
 Leave Link  301 at Mon Aug  3 14:54:23 2020, MaxMem=  6442450944 cpu:               8.1 elap:               0.4
 (Enter /scratch/scicomp/CentOS/7.3.1611/Haswell/software/Gaussian/g16/l302.exe)
 NPDir=0 NMtPBC=     1 NCelOv=     1 NCel=       1 NClECP=     1 NCelD=      1
         NCelK=      1 NCelE2=     1 NClLst=     1 CellRange=     0.0.
 One-electron integrals computed using PRISM.
   1 Symmetry operations used in ECPInt.
 ECPInt:  NShTT=   19306 NPrTT=   56928 LenC2=   18486 LenP2D=   41994.
 LDataN:  DoStor=T MaxTD1= 6 Len=  172
 NBasis=   528 RedAO= T EigKep=  1.80D-05  NBF=   528
 NBsUse=   528 1.00D-06 EigRej= -1.00D+00 NBFU=   528
 Precomputing XC quadrature grid using
 IXCGrd= 4 IRadAn=           5 IRanWt=          -1 IRanGd=           0 AccXCQ= 0.00D+00.
 Generated NRdTot=       0 NPtTot=           0 NUsed=           0 NTot=          32
 NSgBfM=   526   526   526   526   526 MxSgAt=    28 MxSgA2=    28.
 Leave Link  302 at Mon Aug  3 14:54:24 2020, MaxMem=  6442450944 cpu:              12.7 elap:               0.6
 (Enter /scratch/scicomp/CentOS/7.3.1611/Haswell/software/Gaussian/g16/l303.exe)
 DipDrv:  MaxL=1.
 Leave Link  303 at Mon Aug  3 14:54:24 2020, MaxMem=  6442450944 cpu:               1.5 elap:               0.1
 (Enter /scratch/scicomp/CentOS/7.3.1611/Haswell/software/Gaussian/g16/l401.exe)
 ExpMin= 9.52D-02 ExpMax= 1.36D+04 ExpMxC= 4.63D+02 IAcc=3 IRadAn=         5 AccDes= 0.00D+00
 Harris functional with IExCor= 4639 and IRadAn=       5 diagonalized for initial guess.
 HarFok:  IExCor= 4639 AccDes= 0.00D+00 IRadAn=         5 IDoV= 1 UseB2=F ITyADJ=14
 ICtDFT=  3500011 ScaDFX=  1.000000  1.000000  1.000000  1.000000
 FoFCou: FMM=F IPFlag=           0 FMFlag=      100000 FMFlg1=           0
         NFxFlg=           0 DoJE=T BraDBF=F KetDBF=T FulRan=T
         wScrn=  0.000000 ICntrl=       500 IOpCl=  0 I1Cent=   200000004 NGrid=           0
         NMat0=    1 NMatS0=      1 NMatT0=    0 NMatD0=    1 NMtDS0=    0 NMtDT0=    0
 Symmetry not used in FoFCou.
 Harris En= -444.653232975913    
 JPrj=0 DoOrth=F DoCkMO=T.
 Mixing orbitals, IMix= 1 IMixAn=  0 NRI=1 NE=   44 Coef=  7.07106781D-01  7.07106781D-01
 Mixing orbitals, IMix= 1 IMixAn=  0 NRI=1 NE=   44 Coef= -7.07106781D-01  7.07106781D-01
 Initial guess <Sx>= 0.0000 <Sy>= 0.0000 <Sz>= 0.0000 <S**2>= 1.0000 S= 0.6180
 Leave Link  401 at Mon Aug  3 14:54:26 2020, MaxMem=  6442450944 cpu:              48.8 elap:               2.1
 (Enter /scratch/scicomp/CentOS/7.3.1611/Haswell/software/Gaussian/g16/l502.exe)
 Two-electron integral symmetry not used.
 UHF open shell SCF:
 Using DIIS extrapolation, IDIIS=  1040.
 NGot=  6442450944 LenX=  6441877030 LenY=  6441597718
 Requested convergence on RMS density matrix=1.00D-08 within 128 cycles.
 Requested convergence on MAX density matrix=1.00D-06.
 Requested convergence on             energy=1.00D-06.
 No special actions if energy rises.
 Fock matrices will be formed incrementally for  20 cycles.

 Cycle   1  Pass 1  IDiag  1:
 FoFJK:  IHMeth= 1 ICntrl=       0 DoSepK=T KAlg= 0 I1Cent=           0 FoldK=F
 IRaf=         1 NMat=       1 IRICut=       1 DoRegI=T DoRafI=F ISym2E= 0 IDoP0=0 IntGTp=1.
 FoFCou: FMM=F IPFlag=           0 FMFlag=      100000 FMFlg1=           0
         NFxFlg=           0 DoJE=T BraDBF=F KetDBF=F FulRan=T
         wScrn=  0.000000 ICntrl=       500 IOpCl=  0 I1Cent=           0 NGrid=           0
         NMat0=    1 NMatS0=      1 NMatT0=    0 NMatD0=    1 NMtDS0=    0 NMtDT0=    0
 Symmetry not used in FoFCou.
 Inv3:  Mode=1 IEnd=    66241803.
 Iteration    1 A*A^-1 deviation from unit magnitude is 4.22D-15 for    727.
 Iteration    1 A*A^-1 deviation from orthogonality  is 1.55D-15 for   2393    549.
 Iteration    1 A^-1*A deviation from unit magnitude is 3.33D-15 for   2921.
 Iteration    1 A^-1*A deviation from orthogonality  is 3.54D-15 for    289     82.
 E= -466.581726375815    
 DIIS: error= 4.87D-02 at cycle   1 NSaved=   1.
 NSaved= 1 IEnMin= 1 EnMin= -466.581726375815     IErMin= 1 ErrMin= 4.87D-02
 ErrMax= 4.87D-02  0.00D+00 EMaxC= 1.00D-01 BMatC= 4.11D+00 BMatP= 4.11D+00
 IDIUse=3 WtCom= 5.13D-01 WtEn= 4.87D-01
 Coeff-Com:  0.100D+01
 Coeff-En:   0.100D+01
 Coeff:      0.100D+01
 Gap=     0.183 Goal=   None    Shift=    0.000
 Gap=     0.183 Goal=   None    Shift=    0.000
 GapD=    0.183 DampG=1.000 DampE=0.500 DampFc=0.5000 IDamp=-1.
 Damping current iteration by 5.00D-01
 RMSDP=1.63D-03 MaxDP=9.25D-02              OVMax= 3.39D-01

 Cycle   2  Pass 1  IDiag  1:
 RMSU=  7.85D-04    CP:  9.65D-01
 E= -466.691116988978     Delta-E=       -0.109390613163 Rises=F Damp=T
 DIIS: error= 2.31D-02 at cycle   2 NSaved=   2.
 NSaved= 2 IEnMin= 2 EnMin= -466.691116988978     IErMin= 2 ErrMin= 2.31D-02
 ErrMax= 2.31D-02  0.00D+00 EMaxC= 1.00D-01 BMatC= 9.35D-01 BMatP= 4.11D+00
 IDIUse=3 WtCom= 7.69D-01 WtEn= 2.31D-01
 Coeff-Com: -0.867D+00 0.187D+01
 Coeff-En:   0.000D+00 0.100D+01
 Coeff:     -0.667D+00 0.167D+01
 Gap=     0.274 Goal=   None    Shift=    0.000
 Gap=     0.274 Goal=   None    Shift=    0.000
 RMSDP=1.17D-03 MaxDP=5.36D-02 DE=-1.09D-01 OVMax= 1.40D-01

 Cycle   3  Pass 1  IDiag  1:
 RMSU=  6.31D-04    CP:  9.12D-01  2.18D+00
 E= -466.833213593241     Delta-E=       -0.142096604263 Rises=F Damp=F
 DIIS: error= 7.72D-03 at cycle   3 NSaved=   3.
 NSaved= 3 IEnMin= 3 EnMin= -466.833213593241     IErMin= 3 ErrMin= 7.72D-03
 ErrMax= 7.72D-03  0.00D+00 EMaxC= 1.00D-01 BMatC= 2.54D-02 BMatP= 9.35D-01
 IDIUse=3 WtCom= 9.23D-01 WtEn= 7.72D-02
 Coeff-Com: -0.322D+00 0.691D+00 0.632D+00
 Coeff-En:   0.000D+00 0.000D+00 0.100D+01
 Coeff:     -0.297D+00 0.637D+00 0.660D+00
 Gap=     0.295 Goal=   None    Shift=    0.000
 Gap=     0.295 Goal=   None    Shift=    0.000
 RMSDP=2.29D-04 MaxDP=1.18D-02 DE=-1.42D-01 OVMax= 6.47D-02

 Cycle   4  Pass 1  IDiag  1:
 RMSU=  2.09D-04    CP:  9.05D-01  2.28D+00  9.83D-01
 E= -466.844389645724     Delta-E=       -0.011176052483 Rises=F Damp=F
 DIIS: error= 5.18D-03 at cycle   4 NSaved=   4.
 NSaved= 4 IEnMin= 4 EnMin= -466.844389645724     IErMin= 4 ErrMin= 5.18D-03
 ErrMax= 5.18D-03  0.00D+00 EMaxC= 1.00D-01 BMatC= 2.15D-03 BMatP= 2.54D-02
 IDIUse=3 WtCom= 9.48D-01 WtEn= 5.18D-02
 Coeff-Com:  0.139D+00-0.297D+00-0.646D-01 0.122D+01
 Coeff-En:   0.000D+00 0.000D+00 0.000D+00 0.100D+01
 Coeff:      0.131D+00-0.281D+00-0.613D-01 0.121D+01
 Gap=     0.306 Goal=   None    Shift=    0.000
 Gap=     0.306 Goal=   None    Shift=    0.000
 RMSDP=2.23D-04 MaxDP=1.30D-02 DE=-1.12D-02 OVMax= 7.92D-02

 Cycle   5  Pass 1  IDiag  1:
 RMSU=  9.14D-05    CP:  8.98D-01  2.33D+00  1.21D+00  1.63D+00
 E= -466.849260412114     Delta-E=       -0.004870766390 Rises=F Damp=F
 DIIS: error= 2.46D-03 at cycle   5 NSaved=   5.
 NSaved= 5 IEnMin= 5 EnMin= -466.849260412114     IErMin= 5 ErrMin= 2.46D-03
 ErrMax= 2.46D-03  0.00D+00 EMaxC= 1.00D-01 BMatC= 9.45D-04 BMatP= 2.15D-03
 IDIUse=3 WtCom= 9.75D-01 WtEn= 2.46D-02
 Coeff-Com:  0.761D-01-0.163D+00-0.815D-01 0.427D+00 0.742D+00
 Coeff-En:   0.000D+00 0.000D+00 0.000D+00 0.000D+00 0.100D+01
 Coeff:      0.742D-01-0.159D+00-0.795D-01 0.417D+00 0.748D+00
 Gap=     0.309 Goal=   None    Shift=    0.000
 Gap=     0.309 Goal=   None    Shift=    0.000
 RMSDP=8.12D-05 MaxDP=3.74D-03 DE=-4.87D-03 OVMax= 2.97D-02

 Cycle   6  Pass 1  IDiag  1:
 RMSU=  3.30D-05    CP:  8.96D-01  2.34D+00  1.25D+00  1.91D+00  1.37D+00
 E= -466.850698421100     Delta-E=       -0.001438008986 Rises=F Damp=F
 DIIS: error= 1.80D-03 at cycle   6 NSaved=   6.
 NSaved= 6 IEnMin= 6 EnMin= -466.850698421100     IErMin= 6 ErrMin= 1.80D-03
 ErrMax= 1.80D-03  0.00D+00 EMaxC= 1.00D-01 BMatC= 5.45D-04 BMatP= 9.45D-04
 IDIUse=3 WtCom= 9.82D-01 WtEn= 1.80D-02
 Coeff-Com: -0.759D-01 0.163D+00 0.560D-01-0.550D+00 0.179D-01 0.139D+01
 Coeff-En:   0.000D+00 0.000D+00 0.000D+00 0.000D+00 0.000D+00 0.100D+01
 Coeff:     -0.745D-01 0.160D+00 0.550D-01-0.540D+00 0.176D-01 0.138D+01
 Gap=     0.305 Goal=   None    Shift=    0.000
 Gap=     0.305 Goal=   None    Shift=    0.000
 RMSDP=1.03D-04 MaxDP=4.11D-03 DE=-1.44D-03 OVMax= 3.90D-02

 Cycle   7  Pass 1  IDiag  1:
 RMSU=  3.24D-05    CP:  8.94D-01  2.35D+00  1.28D+00  2.20D+00  2.04D+00
                    CP:  2.15D+00
 E= -466.852368374656     Delta-E=       -0.001669953557 Rises=F Damp=F
 DIIS: error= 1.18D-03 at cycle   7 NSaved=   7.
 NSaved= 7 IEnMin= 7 EnMin= -466.852368374656     IErMin= 7 ErrMin= 1.18D-03
 ErrMax= 1.18D-03  0.00D+00 EMaxC= 1.00D-01 BMatC= 2.89D-04 BMatP= 5.45D-04
 IDIUse=3 WtCom= 9.88D-01 WtEn= 1.18D-02
 Coeff-Com: -0.269D-01 0.581D-01 0.453D-01 0.180D-02-0.638D+00-0.676D+00
 Coeff-Com:  0.224D+01
 Coeff-En:   0.000D+00 0.000D+00 0.000D+00 0.000D+00 0.000D+00 0.000D+00
 Coeff-En:   0.100D+01
 Coeff:     -0.266D-01 0.575D-01 0.448D-01 0.178D-02-0.630D+00-0.668D+00
 Coeff:      0.222D+01
 Gap=     0.305 Goal=   None    Shift=    0.000
 Gap=     0.305 Goal=   None    Shift=    0.000
 RMSDP=1.47D-04 MaxDP=7.02D-03 DE=-1.67D-03 OVMax= 5.55D-02

 Cycle   8  Pass 1  IDiag  1:
 RMSU=  5.05D-05    CP:  8.91D-01  2.34D+00  1.32D+00  2.53D+00  2.93D+00
                    CP:  3.00D+00  2.79D+00
 E= -466.853928284630     Delta-E=       -0.001559909974 Rises=F Damp=F
 DIIS: error= 4.41D-04 at cycle   8 NSaved=   8.
 NSaved= 8 IEnMin= 8 EnMin= -466.853928284630     IErMin= 8 ErrMin= 4.41D-04
 ErrMax= 4.41D-04  0.00D+00 EMaxC= 1.00D-01 BMatC= 7.89D-05 BMatP= 2.89D-04
 IDIUse=3 WtCom= 9.96D-01 WtEn= 4.41D-03
 Coeff-Com:  0.261D-01-0.561D-01-0.825D-02 0.278D+00-0.199D+00-0.864D+00
 Coeff-Com:  0.686D+00 0.114D+01
 Coeff-En:   0.000D+00 0.000D+00 0.000D+00 0.000D+00 0.000D+00 0.000D+00
 Coeff-En:   0.000D+00 0.100D+01
 Coeff:      0.260D-01-0.559D-01-0.821D-02 0.277D+00-0.198D+00-0.860D+00
 Coeff:      0.683D+00 0.114D+01
 Gap=     0.307 Goal=   None    Shift=    0.000
 Gap=     0.307 Goal=   None    Shift=    0.000
 RMSDP=7.51D-05 MaxDP=3.73D-03 DE=-1.56D-03 OVMax= 2.82D-02

 Cycle   9  Pass 1  IDiag  1:
 RMSU=  4.41D-05    CP:  8.90D-01  2.34D+00  1.34D+00  2.66D+00  3.00D+00
                    CP:  3.00D+00  3.00D+00  1.86D+00
 E= -466.854255340076     Delta-E=       -0.000327055446 Rises=F Damp=F
 DIIS: error= 1.49D-04 at cycle   9 NSaved=   9.
 NSaved= 9 IEnMin= 9 EnMin= -466.854255340076     IErMin= 9 ErrMin= 1.49D-04
 ErrMax= 1.49D-04  0.00D+00 EMaxC= 1.00D-01 BMatC= 1.52D-05 BMatP= 7.89D-05
 IDIUse=3 WtCom= 9.99D-01 WtEn= 1.49D-03
 Coeff-Com:  0.163D-01-0.350D-01-0.114D-01 0.117D+00 0.356D-01-0.229D+00
 Coeff-Com: -0.124D+00 0.398D+00 0.833D+00
 Coeff-En:   0.000D+00 0.000D+00 0.000D+00 0.000D+00 0.000D+00 0.000D+00
 Coeff-En:   0.000D+00 0.000D+00 0.100D+01
 Coeff:      0.163D-01-0.350D-01-0.114D-01 0.116D+00 0.356D-01-0.228D+00
 Coeff:     -0.124D+00 0.397D+00 0.833D+00
 Gap=     0.306 Goal=   None    Shift=    0.000
 Gap=     0.306 Goal=   None    Shift=    0.000
 RMSDP=2.02D-05 MaxDP=1.02D-03 DE=-3.27D-04 OVMax= 7.44D-03

 Cycle  10  Pass 1  IDiag  1:
 RMSU=  6.25D-06    CP:  8.89D-01  2.34D+00  1.35D+00  2.68D+00  3.00D+00
                    CP:  3.00D+00  3.00D+00  2.08D+00  1.32D+00
 E= -466.854284766998     Delta-E=       -0.000029426922 Rises=F Damp=F
 DIIS: error= 6.91D-05 at cycle  10 NSaved=  10.
 NSaved=10 IEnMin=10 EnMin= -466.854284766998     IErMin=10 ErrMin= 6.91D-05
 ErrMax= 6.91D-05  0.00D+00 EMaxC= 1.00D-01 BMatC= 2.44D-06 BMatP= 1.52D-05
 IDIUse=1 WtCom= 1.00D+00 WtEn= 0.00D+00
 Coeff-Com: -0.145D-02 0.315D-02-0.782D-03-0.314D-01 0.423D-01 0.119D+00
 Coeff-Com: -0.142D+00-0.196D+00 0.148D+00 0.106D+01
 Coeff:     -0.145D-02 0.315D-02-0.782D-03-0.314D-01 0.423D-01 0.119D+00
 Coeff:     -0.142D+00-0.196D+00 0.148D+00 0.106D+01
 Gap=     0.306 Goal=   None    Shift=    0.000
 Gap=     0.306 Goal=   None    Shift=    0.000
 RMSDP=1.03D-05 MaxDP=4.68D-04 DE=-2.94D-05 OVMax= 3.81D-03

 Cycle  11  Pass 1  IDiag  1:
 RMSU=  2.99D-06    CP:  8.89D-01  2.34D+00  1.35D+00  2.70D+00  3.00D+00
                    CP:  3.00D+00  3.00D+00  2.18D+00  1.47D+00  1.58D+00
 E= -466.854289661825     Delta-E=       -0.000004894827 Rises=F Damp=F
 DIIS: error= 2.48D-05 at cycle  11 NSaved=  11.
 NSaved=11 IEnMin=11 EnMin= -466.854289661825     IErMin=11 ErrMin= 2.48D-05
 ErrMax= 2.48D-05  0.00D+00 EMaxC= 1.00D-01 BMatC= 5.65D-07 BMatP= 2.44D-06
 IDIUse=1 WtCom= 1.00D+00 WtEn= 0.00D+00
 Coeff-Com: -0.195D-02 0.421D-02 0.716D-03-0.219D-01 0.114D-01 0.614D-01
 Coeff-Com: -0.344D-01-0.114D+00-0.316D-01 0.426D+00 0.700D+00
 Coeff:     -0.195D-02 0.421D-02 0.716D-03-0.219D-01 0.114D-01 0.614D-01
 Coeff:     -0.344D-01-0.114D+00-0.316D-01 0.426D+00 0.700D+00
 Gap=     0.306 Goal=   None    Shift=    0.000
 Gap=     0.306 Goal=   None    Shift=    0.000
 RMSDP=1.70D-06 MaxDP=9.23D-05 DE=-4.89D-06 OVMax= 5.81D-04

 Cycle  12  Pass 1  IDiag  1:
 RMSU=  9.83D-07    CP:  8.89D-01  2.34D+00  1.35D+00  2.70D+00  3.00D+00
                    CP:  3.00D+00  3.00D+00  2.19D+00  1.49D+00  1.65D+00
                    CP:  1.14D+00
 E= -466.854290017397     Delta-E=       -0.000000355573 Rises=F Damp=F
 DIIS: error= 1.62D-05 at cycle  12 NSaved=  12.
 NSaved=12 IEnMin=12 EnMin= -466.854290017397     IErMin=12 ErrMin= 1.62D-05
 ErrMax= 1.62D-05  0.00D+00 EMaxC= 1.00D-01 BMatC= 8.69D-08 BMatP= 5.65D-07
 IDIUse=1 WtCom= 1.00D+00 WtEn= 0.00D+00
 Coeff-Com:  0.636D-03-0.138D-02-0.131D-03 0.896D-02-0.695D-02-0.299D-01
 Coeff-Com:  0.272D-01 0.490D-01-0.168D-01-0.241D+00-0.324D-01 0.124D+01
 Coeff:      0.636D-03-0.138D-02-0.131D-03 0.896D-02-0.695D-02-0.299D-01
 Coeff:      0.272D-01 0.490D-01-0.168D-01-0.241D+00-0.324D-01 0.124D+01
 Gap=     0.306 Goal=   None    Shift=    0.000
 Gap=     0.306 Goal=   None    Shift=    0.000
 RMSDP=1.02D-06 MaxDP=4.00D-05 DE=-3.56D-07 OVMax= 1.80D-04

 Cycle  13  Pass 1  IDiag  1:
 RMSU=  6.16D-07    CP:  8.89D-01  2.34D+00  1.35D+00  2.70D+00  3.00D+00
                    CP:  3.00D+00  3.00D+00  2.19D+00  1.49D+00  1.64D+00
                    CP:  1.25D+00  1.73D+00
 E= -466.854290154569     Delta-E=       -0.000000137172 Rises=F Damp=F
 DIIS: error= 8.55D-06 at cycle  13 NSaved=  13.
 NSaved=13 IEnMin=13 EnMin= -466.854290154569     IErMin=13 ErrMin= 8.55D-06
 ErrMax= 8.55D-06  0.00D+00 EMaxC= 1.00D-01 BMatC= 2.33D-08 BMatP= 8.69D-08
 IDIUse=1 WtCom= 1.00D+00 WtEn= 0.00D+00
 Coeff-Com: -0.362D-04 0.815D-04 0.859D-04 0.158D-03-0.598D-03-0.833D-03
 Coeff-Com:  0.580D-03 0.482D-02 0.884D-03-0.259D-01-0.110D+00-0.213D+00
 Coeff-Com:  0.134D+01
 Coeff:     -0.362D-04 0.815D-04 0.859D-04 0.158D-03-0.598D-03-0.833D-03
 Coeff:      0.580D-03 0.482D-02 0.884D-03-0.259D-01-0.110D+00-0.213D+00
 Coeff:      0.134D+01
 Gap=     0.306 Goal=   None    Shift=    0.000
 Gap=     0.306 Goal=   None    Shift=    0.000
 RMSDP=5.25D-07 MaxDP=3.01D-05 DE=-1.37D-07 OVMax= 1.29D-04

 Cycle  14  Pass 1  IDiag  1:
 RMSU=  3.26D-07    CP:  8.89D-01  2.34D+00  1.35D+00  2.70D+00  3.00D+00
                    CP:  3.00D+00  3.00D+00  2.19D+00  1.49D+00  1.66D+00
                    CP:  1.30D+00  1.98D+00  1.45D+00
 E= -466.854290205389     Delta-E=       -0.000000050820 Rises=F Damp=F
 DIIS: error= 4.55D-06 at cycle  14 NSaved=  14.
 NSaved=14 IEnMin=14 EnMin= -466.854290205389     IErMin=14 ErrMin= 4.55D-06
 ErrMax= 4.55D-06  0.00D+00 EMaxC= 1.00D-01 BMatC= 6.80D-09 BMatP= 2.33D-08
 IDIUse=1 WtCom= 1.00D+00 WtEn= 0.00D+00
 Coeff-Com: -0.234D-03 0.506D-03 0.122D-03-0.261D-02 0.148D-02 0.818D-02
 Coeff-Com: -0.712D-02-0.126D-01 0.508D-02 0.665D-01-0.649D-02-0.400D+00
 Coeff-Com:  0.906D-01 0.126D+01
 Coeff:     -0.234D-03 0.506D-03 0.122D-03-0.261D-02 0.148D-02 0.818D-02
 Coeff:     -0.712D-02-0.126D-01 0.508D-02 0.665D-01-0.649D-02-0.400D+00
 Coeff:      0.906D-01 0.126D+01
 Gap=     0.306 Goal=   None    Shift=    0.000
 Gap=     0.306 Goal=   None    Shift=    0.000
 RMSDP=3.63D-07 MaxDP=1.71D-05 DE=-5.08D-08 OVMax= 8.63D-05

 Cycle  15  Pass 1  IDiag  1:
 RMSU=  1.34D-07    CP:  8.89D-01  2.34D+00  1.35D+00  2.70D+00  3.00D+00
                    CP:  3.00D+00  3.00D+00  2.19D+00  1.49D+00  1.66D+00
                    CP:  1.31D+00  2.08D+00  1.75D+00  1.79D+00
 E= -466.854290220762     Delta-E=       -0.000000015373 Rises=F Damp=F
 DIIS: error= 1.56D-06 at cycle  15 NSaved=  15.
 NSaved=15 IEnMin=15 EnMin= -466.854290220762     IErMin=15 ErrMin= 1.56D-06
 ErrMax= 1.56D-06  0.00D+00 EMaxC= 1.00D-01 BMatC= 1.04D-09 BMatP= 6.80D-09
 IDIUse=1 WtCom= 1.00D+00 WtEn= 0.00D+00
 Coeff-Com:  0.155D-04-0.341D-04-0.323D-04-0.386D-04 0.287D-03 0.491D-03
 Coeff-Com: -0.118D-02-0.112D-02 0.250D-02 0.127D-01 0.175D-01-0.173D-01
 Coeff-Com: -0.281D+00 0.202D+00 0.107D+01
 Coeff:      0.155D-04-0.341D-04-0.323D-04-0.386D-04 0.287D-03 0.491D-03
 Coeff:     -0.118D-02-0.112D-02 0.250D-02 0.127D-01 0.175D-01-0.173D-01
 Coeff:     -0.281D+00 0.202D+00 0.107D+01
 Gap=     0.306 Goal=   None    Shift=    0.000
 Gap=     0.306 Goal=   None    Shift=    0.000
 RMSDP=1.64D-07 MaxDP=6.61D-06 DE=-1.54D-08 OVMax= 3.56D-05

 Cycle  16  Pass 1  IDiag  1:
 RMSU=  5.78D-08    CP:  8.89D-01  2.34D+00  1.35D+00  2.70D+00  3.00D+00
                    CP:  3.00D+00  3.00D+00  2.19D+00  1.49D+00  1.66D+00
                    CP:  1.30D+00  2.10D+00  1.86D+00  2.11D+00  1.47D+00
 E= -466.854290222488     Delta-E=       -0.000000001726 Rises=F Damp=F
 DIIS: error= 3.23D-07 at cycle  16 NSaved=  16.
 NSaved=16 IEnMin=16 EnMin= -466.854290222488     IErMin=16 ErrMin= 3.23D-07
 ErrMax= 3.23D-07  0.00D+00 EMaxC= 1.00D-01 BMatC= 9.76D-11 BMatP= 1.04D-09
 IDIUse=1 WtCom= 1.00D+00 WtEn= 0.00D+00
 Coeff-Com:  0.881D-05-0.191D-04-0.989D-05 0.972D-04-0.188D-04-0.242D-03
 Coeff-Com:  0.101D-03 0.425D-03 0.604D-04-0.187D-02 0.555D-02 0.288D-01
 Coeff-Com: -0.748D-01-0.672D-01 0.260D+00 0.849D+00
 Coeff:      0.881D-05-0.191D-04-0.989D-05 0.972D-04-0.188D-04-0.242D-03
 Coeff:      0.101D-03 0.425D-03 0.604D-04-0.187D-02 0.555D-02 0.288D-01
 Coeff:     -0.748D-01-0.672D-01 0.260D+00 0.849D+00
 Gap=     0.306 Goal=   None    Shift=    0.000
 Gap=     0.306 Goal=   None    Shift=    0.000
 RMSDP=3.46D-08 MaxDP=1.77D-06 DE=-1.73D-09 OVMax= 5.47D-06

 Cycle  17  Pass 1  IDiag  1:
 RMSU=  1.48D-08    CP:  8.89D-01  2.34D+00  1.35D+00  2.70D+00  3.00D+00
                    CP:  3.00D+00  3.00D+00  2.19D+00  1.49D+00  1.66D+00
                    CP:  1.30D+00  2.10D+00  1.87D+00  2.15D+00  1.59D+00
                    CP:  1.31D+00
 E= -466.854290222556     Delta-E=       -0.000000000068 Rises=F Damp=F
 DIIS: error= 8.35D-08 at cycle  17 NSaved=  17.
 NSaved=17 IEnMin=17 EnMin= -466.854290222556     IErMin=17 ErrMin= 8.35D-08
 ErrMax= 8.35D-08  0.00D+00 EMaxC= 1.00D-01 BMatC= 1.05D-11 BMatP= 9.76D-11
 IDIUse=1 WtCom= 1.00D+00 WtEn= 0.00D+00
 Coeff-Com: -0.675D-06 0.152D-05 0.890D-06 0.561D-05-0.249D-04-0.176D-04
 Coeff-Com:  0.695D-04 0.122D-03-0.279D-03-0.150D-02-0.759D-03 0.621D-02
 Coeff-Com:  0.194D-01-0.342D-01-0.799D-01 0.154D+00 0.937D+00
 Coeff:     -0.675D-06 0.152D-05 0.890D-06 0.561D-05-0.249D-04-0.176D-04
 Coeff:      0.695D-04 0.122D-03-0.279D-03-0.150D-02-0.759D-03 0.621D-02
 Coeff:      0.194D-01-0.342D-01-0.799D-01 0.154D+00 0.937D+00
 Gap=     0.306 Goal=   None    Shift=    0.000
 Gap=     0.306 Goal=   None    Shift=    0.000
 RMSDP=1.17D-08 MaxDP=4.49D-07 DE=-6.75D-11 OVMax= 1.61D-06

 Cycle  18  Pass 1  IDiag  1:
 RMSU=  5.59D-09    CP:  8.89D-01  2.34D+00  1.35D+00  2.70D+00  3.00D+00
                    CP:  3.00D+00  3.00D+00  2.19D+00  1.49D+00  1.66D+00
                    CP:  1.30D+00  2.10D+00  1.87D+00  2.15D+00  1.63D+00
                    CP:  1.43D+00  1.19D+00
 E= -466.854290222561     Delta-E=       -0.000000000005 Rises=F Damp=F
 DIIS: error= 2.63D-08 at cycle  18 NSaved=  18.
 NSaved=18 IEnMin=18 EnMin= -466.854290222561     IErMin=18 ErrMin= 2.63D-08
 ErrMax= 2.63D-08  0.00D+00 EMaxC= 1.00D-01 BMatC= 1.03D-12 BMatP= 1.05D-11
 IDIUse=1 WtCom= 1.00D+00 WtEn= 0.00D+00
 Coeff-Com:  0.924D-06-0.200D-05 0.325D-06 0.933D-05-0.161D-04-0.248D-04
 Coeff-Com:  0.322D-04 0.517D-04-0.382D-04-0.273D-03-0.704D-03-0.118D-02
 Coeff-Com:  0.999D-02 0.601D-03-0.364D-01-0.659D-01 0.134D+00 0.960D+00
 Coeff:      0.924D-06-0.200D-05 0.325D-06 0.933D-05-0.161D-04-0.248D-04
 Coeff:      0.322D-04 0.517D-04-0.382D-04-0.273D-03-0.704D-03-0.118D-02
 Coeff:      0.999D-02 0.601D-03-0.364D-01-0.659D-01 0.134D+00 0.960D+00
 Gap=     0.306 Goal=   None    Shift=    0.000
 Gap=     0.306 Goal=   None    Shift=    0.000
 RMSDP=3.67D-09 MaxDP=1.71D-07 DE=-4.77D-12 OVMax= 4.30D-07

 Error on total polarization charges =  0.01181
 SCF Done:  E(UwB97XD) =  -466.854290223     A.U. after   18 cycles
            NFock= 18  Conv=0.37D-08     -V/T= 2.0057
 <Sx>= 0.0000 <Sy>= 0.0000 <Sz>= 0.0000 <S**2>= 0.0000 S= 0.0000
 <L.S>=  0.00000000000    
 KE= 4.642015387593D+02 PE=-2.440264227356D+03 EE= 8.299611172518D+02
 --------------------------------------------------------------------
 Variational PCM results
 =======================
 <psi(f)|   H    |psi(f)>                     (a.u.) =    -466.852748
 <psi(f)|H+V(f)/2|psi(f)>                     (a.u.) =    -466.854290
 (Polarized solute)-Solvent               (kcal/mol) =      -0.97
 --------------------------------------------------------------------
 Partition over spheres:
 Sphere  on Atom  Surface  Charge   GEl     GCav    GDR
    1      C1       7.19   0.011   -0.05    0.00    0.00
    2      C2       3.78   0.006   -0.03    0.00    0.00
    3      H3       7.52  -0.010   -0.04    0.00    0.00
    4      H4       3.02  -0.003   -0.01    0.00    0.00
    5      C5       5.31   0.010   -0.07    0.00    0.00
    6      C6       4.73   0.007   -0.04    0.00    0.00
    7      H7       4.63  -0.006   -0.03    0.00    0.00
    8      H8       3.40  -0.004   -0.01    0.00    0.00
    9      C9       3.13   0.002    0.00    0.00    0.00
   10      H10      6.89  -0.007   -0.01    0.00    0.00
   11      H11      2.57  -0.002   -0.01    0.00    0.00
   12      C12      6.78   0.010   -0.06    0.00    0.00
   13      H13      7.52  -0.010   -0.03    0.00    0.00
   14      C14      7.34   0.011   -0.05    0.00    0.00
   15      H15      7.52  -0.010   -0.04    0.00    0.00
   16      C16      3.76   0.001    0.00    0.00    0.00
   17      H17      3.59  -0.003   -0.01    0.00    0.00
   18      H18      6.95  -0.008   -0.03    0.00    0.00
   19      C19      5.10   0.010   -0.07    0.00    0.00
   20      H20      5.13  -0.007   -0.03    0.00    0.00
   21      C21      6.31   0.010   -0.06    0.00    0.00
   22      H22      7.51  -0.010   -0.03    0.00    0.00
   23      C23      3.55   0.002    0.00    0.00    0.00
   24      H24      3.92  -0.003   -0.01    0.00    0.00
   25      H25      6.85  -0.007   -0.01    0.00    0.00
   26      C26      3.27   0.001    0.00    0.00    0.00
   27      H27      6.95  -0.008   -0.03    0.00    0.00
   28      H28      3.49  -0.003   -0.01    0.00    0.00
 Added spheres:    73.46   0.011   -0.21    0.00    0.00
 --------------------------------------------------------------------
 After PCM corrections, the energy is  -466.854290223     a.u.
 --------------------------------------------------------------------
 Annihilation of the first spin contaminant:
 S**2 before annihilation     0.0000,   after    -0.0000
 Leave Link  502 at Mon Aug  3 14:59:42 2020, MaxMem=  6442450944 cpu:            7509.6 elap:             315.7
 (Enter /scratch/scicomp/CentOS/7.3.1611/Haswell/software/Gaussian/g16/l601.exe)
 Copying SCF densities to generalized density rwf, IOpCl= 1 IROHF=0.

 **********************************************************************

            Population analysis using the SCF Density.

 **********************************************************************

 Alpha  occ. eigenvalues --  -10.28579 -10.28579 -10.28299 -10.28298 -10.28282
 Alpha  occ. eigenvalues --  -10.28282 -10.28214 -10.28212 -10.28020 -10.28019
 Alpha  occ. eigenvalues --  -10.27513 -10.27512  -0.94328  -0.93596  -0.84450
 Alpha  occ. eigenvalues --   -0.84286  -0.83787  -0.83733  -0.71597  -0.71200
 Alpha  occ. eigenvalues --   -0.68129  -0.67961  -0.59851  -0.59710  -0.57477
 Alpha  occ. eigenvalues --   -0.56633  -0.53761  -0.52879  -0.51031  -0.51019
 Alpha  occ. eigenvalues --   -0.49922  -0.49356  -0.47507  -0.46929  -0.45443
 Alpha  occ. eigenvalues --   -0.45054  -0.41412  -0.41043  -0.39851  -0.39328
 Alpha  occ. eigenvalues --   -0.39258  -0.38943  -0.29947  -0.27379
 Alpha virt. eigenvalues --    0.03197   0.05241   0.10519   0.12306   0.13382
 Alpha virt. eigenvalues --    0.14522   0.14882   0.15690   0.15734   0.15847
 Alpha virt. eigenvalues --    0.16709   0.16933   0.17248   0.18215   0.19969
 Alpha virt. eigenvalues --    0.21199   0.21400   0.22874   0.23539   0.23933
 Alpha virt. eigenvalues --    0.24637   0.25404   0.25773   0.26677   0.27925
 Alpha virt. eigenvalues --    0.28279   0.29098   0.29354   0.30157   0.30586
 Alpha virt. eigenvalues --    0.31316   0.31538   0.32365   0.32655   0.33568
 Alpha virt. eigenvalues --    0.33873   0.34383   0.35671   0.36135   0.37307
 Alpha virt. eigenvalues --    0.38012   0.38729   0.40718   0.41239   0.41614
 Alpha virt. eigenvalues --    0.41718   0.43827   0.44037   0.45065   0.45723
 Alpha virt. eigenvalues --    0.46505   0.46974   0.47811   0.47858   0.48453
 Alpha virt. eigenvalues --    0.48746   0.48859   0.49155   0.49591   0.50005
 Alpha virt. eigenvalues --    0.50386   0.50401   0.51968   0.52059   0.52660
 Alpha virt. eigenvalues --    0.53160   0.54084   0.54212   0.54960   0.55075
 Alpha virt. eigenvalues --    0.56873   0.57447   0.57517   0.58983   0.60079
 Alpha virt. eigenvalues --    0.60348   0.60787   0.61830   0.62893   0.64998
 Alpha virt. eigenvalues --    0.65760   0.66758   0.67986   0.68116   0.68479
 Alpha virt. eigenvalues --    0.69310   0.72221   0.73122   0.73940   0.74848
 Alpha virt. eigenvalues --    0.77725   0.78089   0.78447   0.79904   0.80024
 Alpha virt. eigenvalues --    0.81440   0.82539   0.83478   0.86800   0.87432
 Alpha virt. eigenvalues --    0.89674   0.90152   0.90262   0.91978   0.93017
 Alpha virt. eigenvalues --    0.94214   0.95383   0.96417   0.98205   0.98814
 Alpha virt. eigenvalues --    1.00835   1.03492   1.04597   1.04983   1.05014
 Alpha virt. eigenvalues --    1.06633   1.07526   1.07862   1.09566   1.11043
 Alpha virt. eigenvalues --    1.12582   1.13457   1.13978   1.14839   1.15843
 Alpha virt. eigenvalues --    1.16449   1.17237   1.18024   1.18776   1.19844
 Alpha virt. eigenvalues --    1.20322   1.21025   1.23653   1.24685   1.24937
 Alpha virt. eigenvalues --    1.25689   1.26185   1.27715   1.28404   1.28673
 Alpha virt. eigenvalues --    1.29482   1.31352   1.31388   1.32434   1.32507
 Alpha virt. eigenvalues --    1.34039   1.34688   1.37117   1.37494   1.37565
 Alpha virt. eigenvalues --    1.38489   1.38941   1.40775   1.40984   1.42013
 Alpha virt. eigenvalues --    1.42834   1.43233   1.43330   1.43881   1.44786
 Alpha virt. eigenvalues --    1.45633   1.45924   1.47169   1.48087   1.49031
 Alpha virt. eigenvalues --    1.49242   1.51024   1.52668   1.54116   1.56072
 Alpha virt. eigenvalues --    1.57872   1.58142   1.58989   1.60278   1.61382
 Alpha virt. eigenvalues --    1.62240   1.63555   1.63725   1.66022   1.67158
 Alpha virt. eigenvalues --    1.68237   1.70668   1.73962   1.74378   1.78469
 Alpha virt. eigenvalues --    1.79841   1.80733   1.81635   1.83330   1.85273
 Alpha virt. eigenvalues --    1.87049   1.87536   1.90440   1.91313   1.92448
 Alpha virt. eigenvalues --    1.92867   1.97476   1.97904   2.00105   2.00562
 Alpha virt. eigenvalues --    2.02863   2.03485   2.08434   2.08971   2.09446
 Alpha virt. eigenvalues --    2.11375   2.12104   2.12601   2.14819   2.15484
 Alpha virt. eigenvalues --    2.17570   2.20329   2.20661   2.21192   2.22746
 Alpha virt. eigenvalues --    2.23432   2.24830   2.25326   2.27486   2.28127
 Alpha virt. eigenvalues --    2.33114   2.35872   2.37840   2.39635   2.41790
 Alpha virt. eigenvalues --    2.43706   2.45183   2.45304   2.49102   2.49477
 Alpha virt. eigenvalues --    2.50231   2.50516   2.52850   2.55226   2.55281
 Alpha virt. eigenvalues --    2.56835   2.57603   2.59102   2.61658   2.62213
 Alpha virt. eigenvalues --    2.62602   2.64649   2.65172   2.65407   2.65983
 Alpha virt. eigenvalues --    2.66633   2.67572   2.71057   2.72315   2.72831
 Alpha virt. eigenvalues --    2.72978   2.74243   2.74989   2.75808   2.76862
 Alpha virt. eigenvalues --    2.77723   2.78738   2.80157   2.80604   2.81219
 Alpha virt. eigenvalues --    2.81704   2.82874   2.83051   2.84244   2.85449
 Alpha virt. eigenvalues --    2.86090   2.87169   2.87311   2.87752   2.90030
 Alpha virt. eigenvalues --    2.91281   2.91904   2.92550   2.93130   2.94582
 Alpha virt. eigenvalues --    2.95743   2.95802   2.96326   2.97400   3.01099
 Alpha virt. eigenvalues --    3.01133   3.02380   3.03395   3.05101   3.05735
 Alpha virt. eigenvalues --    3.07338   3.09080   3.09712   3.10624   3.10803
 Alpha virt. eigenvalues --    3.11652   3.13082   3.13566   3.14607   3.15452
 Alpha virt. eigenvalues --    3.15573   3.16621   3.17016   3.18656   3.19043
 Alpha virt. eigenvalues --    3.19958   3.20607   3.20648   3.21059   3.21417
 Alpha virt. eigenvalues --    3.22035   3.22848   3.23149   3.23905   3.24728
 Alpha virt. eigenvalues --    3.25652   3.26213   3.26936   3.27048   3.27768
 Alpha virt. eigenvalues --    3.28322   3.30293   3.30898   3.31779   3.31967
 Alpha virt. eigenvalues --    3.32142   3.32951   3.33648   3.34897   3.35573
 Alpha virt. eigenvalues --    3.36035   3.36630   3.37281   3.38071   3.38933
 Alpha virt. eigenvalues --    3.41607   3.42423   3.43066   3.43783   3.44371
 Alpha virt. eigenvalues --    3.45548   3.45690   3.46698   3.47299   3.47318
 Alpha virt. eigenvalues --    3.48172   3.49428   3.49782   3.51056   3.52405
 Alpha virt. eigenvalues --    3.53075   3.53430   3.54588   3.54869   3.55262
 Alpha virt. eigenvalues --    3.57476   3.58609   3.58758   3.61163   3.65527
 Alpha virt. eigenvalues --    3.65614   3.66381   3.66858   3.68258   3.69230
 Alpha virt. eigenvalues --    3.70429   3.70451   3.72135   3.72658   3.73968
 Alpha virt. eigenvalues --    3.77808   3.77912   3.79310   3.81331   3.83593
 Alpha virt. eigenvalues --    3.85221   3.85355   3.85604   3.86847   3.87920
 Alpha virt. eigenvalues --    3.89710   3.91426   3.92993   3.94236   3.95815
 Alpha virt. eigenvalues --    3.98361   4.00279   4.01477   4.02438   4.04920
 Alpha virt. eigenvalues --    4.06622   4.08287   4.09116   4.09225   4.10865
 Alpha virt. eigenvalues --    4.12282   4.12963   4.14885   4.15238   4.18506
 Alpha virt. eigenvalues --    4.18814   4.21223   4.21552   4.22886   4.25240
 Alpha virt. eigenvalues --    4.26498   4.26553   4.31159   4.31174   4.35490
 Alpha virt. eigenvalues --    4.35559   4.38065   4.38930   4.40406   4.42054
 Alpha virt. eigenvalues --    4.44793   4.45904   4.48393   4.49482   4.52644
 Alpha virt. eigenvalues --    4.54467   4.59368   4.61454   4.65035   4.67619
 Alpha virt. eigenvalues --    4.68438   4.69257   4.73138   4.74114   4.76146
 Alpha virt. eigenvalues --    4.77717   4.80153   4.81590   4.84604   4.84664
 Alpha virt. eigenvalues --    4.85440   4.87256   4.92491   4.94711   4.95316
 Alpha virt. eigenvalues --    4.97990   5.00296   5.00790   5.06997   5.07798
 Alpha virt. eigenvalues --    5.14068   5.15824   5.19124   5.21741   5.22648
 Alpha virt. eigenvalues --    5.23501   5.33319   5.33635   5.41353   5.42543
 Alpha virt. eigenvalues --    5.44646   5.44748   5.50510   5.52699   5.70279
 Alpha virt. eigenvalues --    5.71280   5.76926   5.79217   5.95673   6.02483
 Alpha virt. eigenvalues --    7.94248   7.95296   8.00881   8.04381   8.05118
 Alpha virt. eigenvalues --    8.09184   8.09462   8.12772   8.17059   8.19110
 Alpha virt. eigenvalues --    8.35538   8.35949  34.76251  34.77644  34.81130
 Alpha virt. eigenvalues --   34.81636  34.84886  34.89777  34.95986  34.99501
 Alpha virt. eigenvalues --   35.01534  35.01669  35.16996  35.18218
  Beta  occ. eigenvalues --  -10.28579 -10.28579 -10.28299 -10.28298 -10.28282
  Beta  occ. eigenvalues --  -10.28282 -10.28214 -10.28212 -10.28020 -10.28019
  Beta  occ. eigenvalues --  -10.27513 -10.27512  -0.94328  -0.93596  -0.84450
  Beta  occ. eigenvalues --   -0.84286  -0.83787  -0.83733  -0.71597  -0.71200
  Beta  occ. eigenvalues --   -0.68129  -0.67961  -0.59851  -0.59710  -0.57477
  Beta  occ. eigenvalues --   -0.56633  -0.53761  -0.52879  -0.51031  -0.51019
  Beta  occ. eigenvalues --   -0.49922  -0.49356  -0.47507  -0.46929  -0.45443
  Beta  occ. eigenvalues --   -0.45054  -0.41412  -0.41043  -0.39851  -0.39328
  Beta  occ. eigenvalues --   -0.39258  -0.38943  -0.29947  -0.27379
  Beta virt. eigenvalues --    0.03197   0.05241   0.10519   0.12306   0.13382
  Beta virt. eigenvalues --    0.14522   0.14882   0.15690   0.15734   0.15847
  Beta virt. eigenvalues --    0.16709   0.16933   0.17248   0.18215   0.19969
  Beta virt. eigenvalues --    0.21199   0.21400   0.22874   0.23539   0.23933
  Beta virt. eigenvalues --    0.24637   0.25404   0.25773   0.26677   0.27925
  Beta virt. eigenvalues --    0.28279   0.29098   0.29354   0.30157   0.30586
  Beta virt. eigenvalues --    0.31316   0.31538   0.32365   0.32655   0.33568
  Beta virt. eigenvalues --    0.33873   0.34383   0.35671   0.36135   0.37307
  Beta virt. eigenvalues --    0.38012   0.38729   0.40718   0.41239   0.41614
  Beta virt. eigenvalues --    0.41718   0.43827   0.44037   0.45065   0.45723
  Beta virt. eigenvalues --    0.46505   0.46974   0.47811   0.47858   0.48453
  Beta virt. eigenvalues --    0.48746   0.48859   0.49155   0.49591   0.50005
  Beta virt. eigenvalues --    0.50386   0.50401   0.51968   0.52059   0.52660
  Beta virt. eigenvalues --    0.53160   0.54084   0.54212   0.54960   0.55075
  Beta virt. eigenvalues --    0.56873   0.57447   0.57517   0.58983   0.60079
  Beta virt. eigenvalues --    0.60348   0.60787   0.61830   0.62893   0.64998
  Beta virt. eigenvalues --    0.65760   0.66758   0.67986   0.68116   0.68479
  Beta virt. eigenvalues --    0.69310   0.72221   0.73122   0.73940   0.74848
  Beta virt. eigenvalues --    0.77725   0.78089   0.78447   0.79904   0.80024
  Beta virt. eigenvalues --    0.81440   0.82539   0.83478   0.86800   0.87432
  Beta virt. eigenvalues --    0.89674   0.90152   0.90262   0.91978   0.93017
  Beta virt. eigenvalues --    0.94214   0.95383   0.96417   0.98205   0.98814
  Beta virt. eigenvalues --    1.00835   1.03492   1.04597   1.04983   1.05014
  Beta virt. eigenvalues --    1.06633   1.07526   1.07862   1.09566   1.11043
  Beta virt. eigenvalues --    1.12582   1.13457   1.13978   1.14839   1.15843
  Beta virt. eigenvalues --    1.16449   1.17237   1.18024   1.18776   1.19844
  Beta virt. eigenvalues --    1.20322   1.21025   1.23653   1.24685   1.24937
  Beta virt. eigenvalues --    1.25689   1.26185   1.27715   1.28404   1.28673
  Beta virt. eigenvalues --    1.29482   1.31352   1.31388   1.32434   1.32507
  Beta virt. eigenvalues --    1.34039   1.34688   1.37117   1.37494   1.37565
  Beta virt. eigenvalues --    1.38489   1.38941   1.40775   1.40984   1.42013
  Beta virt. eigenvalues --    1.42834   1.43233   1.43330   1.43881   1.44786
  Beta virt. eigenvalues --    1.45633   1.45924   1.47169   1.48087   1.49031
  Beta virt. eigenvalues --    1.49242   1.51024   1.52668   1.54116   1.56072
  Beta virt. eigenvalues --    1.57872   1.58142   1.58989   1.60278   1.61382
  Beta virt. eigenvalues --    1.62240   1.63555   1.63725   1.66022   1.67158
  Beta virt. eigenvalues --    1.68237   1.70668   1.73962   1.74378   1.78469
  Beta virt. eigenvalues --    1.79841   1.80733   1.81635   1.83330   1.85273
  Beta virt. eigenvalues --    1.87049   1.87536   1.90440   1.91313   1.92448
  Beta virt. eigenvalues --    1.92867   1.97476   1.97904   2.00105   2.00562
  Beta virt. eigenvalues --    2.02863   2.03485   2.08434   2.08971   2.09446
  Beta virt. eigenvalues --    2.11375   2.12104   2.12601   2.14819   2.15484
  Beta virt. eigenvalues --    2.17570   2.20329   2.20661   2.21192   2.22746
  Beta virt. eigenvalues --    2.23432   2.24830   2.25326   2.27486   2.28127
  Beta virt. eigenvalues --    2.33114   2.35872   2.37840   2.39635   2.41790
  Beta virt. eigenvalues --    2.43706   2.45183   2.45304   2.49102   2.49477
  Beta virt. eigenvalues --    2.50231   2.50516   2.52850   2.55226   2.55281
  Beta virt. eigenvalues --    2.56835   2.57603   2.59102   2.61658   2.62213
  Beta virt. eigenvalues --    2.62602   2.64649   2.65172   2.65407   2.65983
  Beta virt. eigenvalues --    2.66633   2.67572   2.71057   2.72315   2.72831
  Beta virt. eigenvalues --    2.72978   2.74243   2.74989   2.75808   2.76862
  Beta virt. eigenvalues --    2.77723   2.78738   2.80157   2.80604   2.81219
  Beta virt. eigenvalues --    2.81704   2.82874   2.83051   2.84244   2.85449
  Beta virt. eigenvalues --    2.86090   2.87169   2.87311   2.87752   2.90030
  Beta virt. eigenvalues --    2.91281   2.91904   2.92550   2.93130   2.94582
  Beta virt. eigenvalues --    2.95743   2.95802   2.96326   2.97400   3.01099
  Beta virt. eigenvalues --    3.01133   3.02380   3.03395   3.05101   3.05735
  Beta virt. eigenvalues --    3.07338   3.09080   3.09712   3.10624   3.10803
  Beta virt. eigenvalues --    3.11652   3.13082   3.13566   3.14607   3.15452
  Beta virt. eigenvalues --    3.15573   3.16621   3.17016   3.18656   3.19043
  Beta virt. eigenvalues --    3.19958   3.20607   3.20648   3.21059   3.21417
  Beta virt. eigenvalues --    3.22035   3.22848   3.23149   3.23905   3.24728
  Beta virt. eigenvalues --    3.25652   3.26213   3.26936   3.27048   3.27768
  Beta virt. eigenvalues --    3.28322   3.30293   3.30898   3.31779   3.31967
  Beta virt. eigenvalues --    3.32142   3.32951   3.33648   3.34897   3.35573
  Beta virt. eigenvalues --    3.36035   3.36630   3.37281   3.38071   3.38933
  Beta virt. eigenvalues --    3.41607   3.42423   3.43066   3.43783   3.44371
  Beta virt. eigenvalues --    3.45548   3.45690   3.46698   3.47299   3.47318
  Beta virt. eigenvalues --    3.48172   3.49428   3.49782   3.51056   3.52405
  Beta virt. eigenvalues --    3.53075   3.53430   3.54588   3.54869   3.55262
  Beta virt. eigenvalues --    3.57476   3.58609   3.58758   3.61163   3.65527
  Beta virt. eigenvalues --    3.65614   3.66381   3.66858   3.68258   3.69230
  Beta virt. eigenvalues --    3.70429   3.70451   3.72135   3.72658   3.73968
  Beta virt. eigenvalues --    3.77808   3.77912   3.79310   3.81331   3.83593
  Beta virt. eigenvalues --    3.85221   3.85355   3.85604   3.86847   3.87920
  Beta virt. eigenvalues --    3.89710   3.91426   3.92993   3.94236   3.95815
  Beta virt. eigenvalues --    3.98361   4.00279   4.01477   4.02438   4.04920
  Beta virt. eigenvalues --    4.06622   4.08287   4.09116   4.09225   4.10865
  Beta virt. eigenvalues --    4.12282   4.12963   4.14885   4.15238   4.18506
  Beta virt. eigenvalues --    4.18814   4.21223   4.21552   4.22886   4.25240
  Beta virt. eigenvalues --    4.26498   4.26553   4.31159   4.31174   4.35490
  Beta virt. eigenvalues --    4.35559   4.38065   4.38930   4.40406   4.42054
  Beta virt. eigenvalues --    4.44793   4.45904   4.48393   4.49482   4.52644
  Beta virt. eigenvalues --    4.54467   4.59368   4.61454   4.65035   4.67619
  Beta virt. eigenvalues --    4.68438   4.69257   4.73138   4.74114   4.76146
  Beta virt. eigenvalues --    4.77717   4.80153   4.81590   4.84604   4.84664
  Beta virt. eigenvalues --    4.85440   4.87256   4.92491   4.94711   4.95316
  Beta virt. eigenvalues --    4.97990   5.00296   5.00790   5.06997   5.07798
  Beta virt. eigenvalues --    5.14068   5.15824   5.19124   5.21741   5.22648
  Beta virt. eigenvalues --    5.23501   5.33319   5.33635   5.41353   5.42543
  Beta virt. eigenvalues --    5.44646   5.44748   5.50510   5.52699   5.70279
  Beta virt. eigenvalues --    5.71280   5.76926   5.79217   5.95673   6.02483
  Beta virt. eigenvalues --    7.94248   7.95296   8.00881   8.04381   8.05118
  Beta virt. eigenvalues --    8.09184   8.09462   8.12772   8.17059   8.19110
  Beta virt. eigenvalues --    8.35538   8.35949  34.76251  34.77644  34.81130
  Beta virt. eigenvalues --   34.81636  34.84886  34.89777  34.95986  34.99501
  Beta virt. eigenvalues --   35.01534  35.01669  35.16996  35.18218
          Condensed to atoms (all electrons):
               1          2          3          4          5          6
     1  C    5.124128   0.003295   0.425454  -0.001780   0.001176  -0.005758
     2  C    0.003295   5.337252  -0.002462   0.425783  -0.039600  -0.042823
     3  H    0.425454  -0.002462   0.498399   0.000034  -0.000048   0.000015
     4  H   -0.001780   0.425783   0.000034   0.471448  -0.005661   0.003989
     5  C    0.001176  -0.039600  -0.000048  -0.005661   5.168172   0.514917
     6  C   -0.005758  -0.042823   0.000015   0.003989   0.514917   5.337038
     7  H    0.000341  -0.002057   0.000001  -0.000102   0.426114  -0.027975
     8  H   -0.001773   0.003990  -0.000035   0.000061  -0.040915   0.425774
     9  C    0.002210  -0.006377  -0.000006  -0.001548  -0.061775   0.228671
    10  H   -0.000045   0.000640  -0.000001  -0.000161  -0.005584  -0.034701
    11  H    0.000148  -0.005703   0.000001   0.000198   0.008564  -0.059020
    12  C   -0.000177   0.011277   0.000002   0.002556   0.295974  -0.076462
    13  H   -0.000001   0.000028   0.000000   0.000030  -0.040657   0.005827
    14  C    0.000157  -0.005754  -0.000000  -0.001777  -0.054312   0.003277
    15  H   -0.000000   0.000015  -0.000000  -0.000035   0.007908  -0.002461
    16  C   -0.000616   0.012262   0.000000   0.000278  -0.004213  -0.064555
    17  H   -0.000035  -0.000208  -0.000001  -0.001881   0.009949  -0.000609
    18  H    0.000003   0.000471   0.000000   0.000248  -0.002604   0.011143
    19  C   -0.054276   0.514859   0.007910  -0.040937  -0.014286  -0.039610
    20  H    0.004183  -0.027863  -0.000105  -0.005016   0.000382  -0.002061
    21  C    0.596131  -0.076460  -0.034266   0.005267   0.001663   0.011280
    22  H   -0.029287   0.005835  -0.006719  -0.000068   0.000029   0.000027
    23  C   -0.088525   0.228694   0.005910  -0.014433   0.008206  -0.006382
    24  H    0.013064  -0.059031  -0.000123  -0.003983   0.000688  -0.005707
    25  H    0.004878  -0.034674  -0.000044  -0.000383   0.000670   0.000640
    26  C    0.285230  -0.064574  -0.032693   0.004101  -0.006342   0.012260
    27  H   -0.035427   0.011144  -0.004419  -0.000120   0.000272   0.000470
    28  H   -0.033338  -0.000603   0.001433  -0.000160  -0.003785  -0.000215
               7          8          9         10         11         12
     1  C    0.000341  -0.001773   0.002210  -0.000045   0.000148  -0.000177
     2  C   -0.002057   0.003990  -0.006377   0.000640  -0.005703   0.011277
     3  H    0.000001  -0.000035  -0.000006  -0.000001   0.000001   0.000002
     4  H   -0.000102   0.000061  -0.001548  -0.000161   0.000198   0.002556
     5  C    0.426114  -0.040915  -0.061775  -0.005584   0.008564   0.295974
     6  C   -0.027975   0.425774   0.228671  -0.034701  -0.059020  -0.076462
     7  H    0.482466  -0.005019   0.003471  -0.000299  -0.000049  -0.032382
     8  H   -0.005019   0.471598  -0.014467  -0.000384  -0.003983   0.005269
     9  C    0.003471  -0.014467   4.967791   0.380826   0.459791   0.036509
    10  H   -0.000299  -0.000384   0.380826   0.580567  -0.022320   0.001776
    11  H   -0.000049  -0.003983   0.459791  -0.022320   0.539480  -0.004145
    12  C   -0.032382   0.005269   0.036509   0.001776  -0.004145   4.996522
    13  H   -0.003651  -0.000068  -0.000568  -0.000051   0.000035   0.428591
    14  C    0.004181  -0.001779  -0.088505   0.004879   0.013064   0.596153
    15  H   -0.000105   0.000034   0.005909  -0.000043  -0.000123  -0.034281
    16  C   -0.001014   0.004102   0.359528  -0.022708  -0.054830  -0.057574
    17  H    0.000012  -0.000160  -0.033013   0.007323  -0.009011  -0.015469
    18  H    0.000038  -0.000120  -0.041526  -0.009856  -0.000567   0.005406
    19  C    0.000382  -0.005665   0.008207   0.000670   0.000684   0.001664
    20  H    0.000010  -0.000102   0.002785   0.000263  -0.001347  -0.000187
    21  C   -0.000187   0.002557  -0.002153  -0.000029  -0.000006  -0.000263
    22  H   -0.000001   0.000030  -0.000073  -0.000001   0.000008   0.000000
    23  C    0.002777  -0.001542   0.001540  -0.000049   0.000306  -0.002148
    24  H   -0.001344   0.000198   0.000307  -0.000011  -0.000021  -0.000007
    25  H    0.000263  -0.000162  -0.000049   0.000005  -0.000011  -0.000029
    26  C   -0.002039   0.000274  -0.001090   0.000083  -0.000141   0.000940
    27  H   -0.000027   0.000248  -0.000025   0.000001  -0.000001  -0.000045
    28  H    0.001817  -0.001885   0.000482  -0.000007   0.000006   0.000437
              13         14         15         16         17         18
     1  C   -0.000001   0.000157  -0.000000  -0.000616  -0.000035   0.000003
     2  C    0.000028  -0.005754   0.000015   0.012262  -0.000208   0.000471
     3  H    0.000000  -0.000000  -0.000000   0.000000  -0.000001   0.000000
     4  H    0.000030  -0.001777  -0.000035   0.000278  -0.001881   0.000248
     5  C   -0.040657  -0.054312   0.007908  -0.004213   0.009949  -0.002604
     6  C    0.005827   0.003277  -0.002461  -0.064555  -0.000609   0.011143
     7  H   -0.003651   0.004181  -0.000105  -0.001014   0.000012   0.000038
     8  H   -0.000068  -0.001779   0.000034   0.004102  -0.000160  -0.000120
     9  C   -0.000568  -0.088505   0.005909   0.359528  -0.033013  -0.041526
    10  H   -0.000051   0.004879  -0.000043  -0.022708   0.007323  -0.009856
    11  H    0.000035   0.013064  -0.000123  -0.054830  -0.009011  -0.000567
    12  C    0.428591   0.596153  -0.034281  -0.057574  -0.015469   0.005406
    13  H    0.496352  -0.029317  -0.006718   0.005465  -0.000427  -0.000138
    14  C   -0.029317   5.124117   0.425462   0.285202  -0.033335  -0.035424
    15  H   -0.006718   0.425462   0.498392  -0.032685   0.001435  -0.004420
    16  C    0.005465   0.285202  -0.032685   4.927572   0.396604   0.428331
    17  H   -0.000427  -0.033335   0.001435   0.396604   0.590907  -0.023068
    18  H   -0.000138  -0.035424  -0.004420   0.428331  -0.023068   0.546074
    19  C    0.000029   0.001174  -0.000048  -0.006342  -0.003790   0.000272
    20  H   -0.000001   0.000341   0.000001  -0.002043   0.001817  -0.000027
    21  C    0.000000  -0.000177   0.000002   0.000940   0.000436  -0.000045
    22  H    0.000000  -0.000001   0.000000   0.000016  -0.000002  -0.000001
    23  C   -0.000074   0.002210  -0.000006  -0.001089   0.000483  -0.000025
    24  H    0.000008   0.000148   0.000001  -0.000141   0.000006  -0.000001
    25  H   -0.000001  -0.000045  -0.000001   0.000083  -0.000007   0.000001
    26  C    0.000016  -0.000616   0.000000   0.000841   0.000064  -0.000004
    27  H   -0.000001   0.000003   0.000000  -0.000004   0.000002  -0.000000
    28  H   -0.000002  -0.000035  -0.000001   0.000064  -0.000019   0.000002
              19         20         21         22         23         24
     1  C   -0.054276   0.004183   0.596131  -0.029287  -0.088525   0.013064
     2  C    0.514859  -0.027863  -0.076460   0.005835   0.228694  -0.059031
     3  H    0.007910  -0.000105  -0.034266  -0.006719   0.005910  -0.000123
     4  H   -0.040937  -0.005016   0.005267  -0.000068  -0.014433  -0.003983
     5  C   -0.014286   0.000382   0.001663   0.000029   0.008206   0.000688
     6  C   -0.039610  -0.002061   0.011280   0.000027  -0.006382  -0.005707
     7  H    0.000382   0.000010  -0.000187  -0.000001   0.002777  -0.001344
     8  H   -0.005665  -0.000102   0.002557   0.000030  -0.001542   0.000198
     9  C    0.008207   0.002785  -0.002153  -0.000073   0.001540   0.000307
    10  H    0.000670   0.000263  -0.000029  -0.000001  -0.000049  -0.000011
    11  H    0.000684  -0.001347  -0.000006   0.000008   0.000306  -0.000021
    12  C    0.001664  -0.000187  -0.000263   0.000000  -0.002148  -0.000007
    13  H    0.000029  -0.000001   0.000000   0.000000  -0.000074   0.000008
    14  C    0.001174   0.000341  -0.000177  -0.000001   0.002210   0.000148
    15  H   -0.000048   0.000001   0.000002   0.000000  -0.000006   0.000001
    16  C   -0.006342  -0.002043   0.000940   0.000016  -0.001089  -0.000141
    17  H   -0.003790   0.001817   0.000436  -0.000002   0.000483   0.000006
    18  H    0.000272  -0.000027  -0.000045  -0.000001  -0.000025  -0.000001
    19  C    5.168297   0.426051   0.295875  -0.040696  -0.061814   0.008572
    20  H    0.426051   0.482388  -0.032425  -0.003650   0.003469  -0.000049
    21  C    0.295875  -0.032425   4.996489   0.428583   0.036527  -0.004145
    22  H   -0.040696  -0.003650   0.428583   0.496389  -0.000568   0.000035
    23  C   -0.061814   0.003469   0.036527  -0.000568   4.967865   0.459815
    24  H    0.008572  -0.000049  -0.004145   0.000035   0.459815   0.539396
    25  H   -0.005599  -0.000299   0.001786  -0.000051   0.380768  -0.022308
    26  C   -0.004224  -0.001015  -0.057580   0.005468   0.359548  -0.054840
    27  H   -0.002601   0.000038   0.005402  -0.000138  -0.041525  -0.000567
    28  H    0.009940   0.000012  -0.015448  -0.000426  -0.033031  -0.009010
              25         26         27         28
     1  C    0.004878   0.285230  -0.035427  -0.033338
     2  C   -0.034674  -0.064574   0.011144  -0.000603
     3  H   -0.000044  -0.032693  -0.004419   0.001433
     4  H   -0.000383   0.004101  -0.000120  -0.000160
     5  C    0.000670  -0.006342   0.000272  -0.003785
     6  C    0.000640   0.012260   0.000470  -0.000215
     7  H    0.000263  -0.002039  -0.000027   0.001817
     8  H   -0.000162   0.000274   0.000248  -0.001885
     9  C   -0.000049  -0.001090  -0.000025   0.000482
    10  H    0.000005   0.000083   0.000001  -0.000007
    11  H   -0.000011  -0.000141  -0.000001   0.000006
    12  C   -0.000029   0.000940  -0.000045   0.000437
    13  H   -0.000001   0.000016  -0.000001  -0.000002
    14  C   -0.000045  -0.000616   0.000003  -0.000035
    15  H   -0.000001   0.000000   0.000000  -0.000001
    16  C    0.000083   0.000841  -0.000004   0.000064
    17  H   -0.000007   0.000064   0.000002  -0.000019
    18  H    0.000001  -0.000004  -0.000000   0.000002
    19  C   -0.005599  -0.004224  -0.002601   0.009940
    20  H   -0.000299  -0.001015   0.000038   0.000012
    21  C    0.001786  -0.057580   0.005402  -0.015448
    22  H   -0.000051   0.005468  -0.000138  -0.000426
    23  C    0.380768   0.359548  -0.041525  -0.033031
    24  H   -0.022308  -0.054840  -0.000567  -0.009010
    25  H    0.580623  -0.022699  -0.009857   0.007325
    26  C   -0.022699   4.927606   0.428336   0.396602
    27  H   -0.009857   0.428336   0.546060  -0.023069
    28  H    0.007325   0.396602  -0.023069   0.590917
          Atomic-Atomic Spin Densities.
               1          2          3          4          5          6
     1  C    0.000001   0.000000  -0.000000  -0.000000  -0.000000  -0.000000
     2  C    0.000000  -0.000001   0.000000  -0.000000   0.000000   0.000000
     3  H   -0.000000   0.000000  -0.000000  -0.000000   0.000000  -0.000000
     4  H   -0.000000  -0.000000  -0.000000   0.000000   0.000000  -0.000000
     5  C   -0.000000   0.000000   0.000000   0.000000   0.000000   0.000000
     6  C   -0.000000   0.000000  -0.000000  -0.000000   0.000000  -0.000000
     7  H    0.000000  -0.000000  -0.000000   0.000000   0.000000   0.000000
     8  H   -0.000000   0.000000   0.000000  -0.000000   0.000000   0.000000
     9  C    0.000000  -0.000000   0.000000   0.000000  -0.000000  -0.000000
    10  H   -0.000000   0.000000   0.000000  -0.000000   0.000000   0.000000
    11  H   -0.000000   0.000000  -0.000000  -0.000000  -0.000000   0.000000
    12  C    0.000000  -0.000000  -0.000000  -0.000000   0.000000  -0.000000
    13  H    0.000000  -0.000000  -0.000000  -0.000000  -0.000000   0.000000
    14  C    0.000000   0.000000   0.000000   0.000000  -0.000000  -0.000000
    15  H   -0.000000   0.000000   0.000000  -0.000000   0.000000   0.000000
    16  C    0.000000  -0.000000  -0.000000  -0.000000   0.000000   0.000000
    17  H   -0.000000   0.000000   0.000000  -0.000000  -0.000000   0.000000
    18  H    0.000000  -0.000000   0.000000  -0.000000   0.000000   0.000000
    19  C   -0.000000  -0.000000  -0.000000  -0.000000  -0.000000  -0.000000
    20  H    0.000000  -0.000000  -0.000000  -0.000000   0.000000   0.000000
    21  C   -0.000000   0.000000  -0.000000   0.000000  -0.000000   0.000000
    22  H    0.000000  -0.000000   0.000000   0.000000  -0.000000   0.000000
    23  C    0.000000   0.000000  -0.000000   0.000000   0.000000   0.000000
    24  H    0.000000  -0.000000  -0.000000  -0.000000  -0.000000  -0.000000
    25  H    0.000000   0.000000  -0.000000  -0.000000   0.000000  -0.000000
    26  C   -0.000000  -0.000000   0.000000   0.000000  -0.000000   0.000000
    27  H   -0.000000   0.000000   0.000000  -0.000000  -0.000000  -0.000000
    28  H   -0.000000  -0.000000  -0.000000  -0.000000   0.000000  -0.000000
               7          8          9         10         11         12
     1  C    0.000000  -0.000000   0.000000  -0.000000  -0.000000   0.000000
     2  C   -0.000000   0.000000  -0.000000   0.000000   0.000000  -0.000000
     3  H   -0.000000   0.000000   0.000000   0.000000  -0.000000  -0.000000
     4  H    0.000000  -0.000000   0.000000  -0.000000  -0.000000  -0.000000
     5  C    0.000000   0.000000  -0.000000   0.000000  -0.000000   0.000000
     6  C    0.000000   0.000000  -0.000000   0.000000   0.000000  -0.000000
     7  H   -0.000000   0.000000  -0.000000   0.000000   0.000000   0.000000
     8  H    0.000000   0.000000  -0.000000   0.000000  -0.000000  -0.000000
     9  C   -0.000000  -0.000000   0.000001   0.000000  -0.000000   0.000000
    10  H    0.000000   0.000000   0.000000  -0.000000   0.000000  -0.000000
    11  H    0.000000  -0.000000  -0.000000   0.000000  -0.000000   0.000000
    12  C    0.000000  -0.000000   0.000000  -0.000000   0.000000  -0.000000
    13  H   -0.000000  -0.000000  -0.000000   0.000000   0.000000   0.000000
    14  C   -0.000000   0.000000  -0.000000  -0.000000  -0.000000   0.000000
    15  H    0.000000   0.000000   0.000000   0.000000   0.000000   0.000000
    16  C    0.000000  -0.000000  -0.000000   0.000000   0.000000  -0.000000
    17  H    0.000000   0.000000  -0.000000  -0.000000   0.000000  -0.000000
    18  H   -0.000000   0.000000  -0.000000   0.000000   0.000000   0.000000
    19  C   -0.000000  -0.000000  -0.000000   0.000000   0.000000   0.000000
    20  H   -0.000000  -0.000000  -0.000000   0.000000  -0.000000  -0.000000
    21  C    0.000000   0.000000   0.000000  -0.000000  -0.000000   0.000000
    22  H    0.000000   0.000000   0.000000  -0.000000  -0.000000  -0.000000
    23  C    0.000000  -0.000000   0.000000   0.000000  -0.000000  -0.000000
    24  H    0.000000  -0.000000   0.000000  -0.000000  -0.000000   0.000000
    25  H   -0.000000   0.000000  -0.000000   0.000000   0.000000  -0.000000
    26  C    0.000000   0.000000  -0.000000  -0.000000   0.000000   0.000000
    27  H    0.000000   0.000000   0.000000  -0.000000  -0.000000   0.000000
    28  H   -0.000000  -0.000000  -0.000000   0.000000   0.000000  -0.000000
              13         14         15         16         17         18
     1  C    0.000000   0.000000  -0.000000   0.000000  -0.000000   0.000000
     2  C   -0.000000   0.000000   0.000000  -0.000000   0.000000  -0.000000
     3  H   -0.000000   0.000000   0.000000  -0.000000   0.000000   0.000000
     4  H   -0.000000   0.000000  -0.000000  -0.000000  -0.000000  -0.000000
     5  C   -0.000000  -0.000000   0.000000   0.000000  -0.000000   0.000000
     6  C    0.000000  -0.000000   0.000000   0.000000   0.000000   0.000000
     7  H   -0.000000  -0.000000   0.000000   0.000000   0.000000  -0.000000
     8  H   -0.000000   0.000000   0.000000  -0.000000   0.000000   0.000000
     9  C   -0.000000  -0.000000   0.000000  -0.000000  -0.000000  -0.000000
    10  H    0.000000  -0.000000   0.000000   0.000000  -0.000000   0.000000
    11  H    0.000000  -0.000000   0.000000   0.000000   0.000000   0.000000
    12  C    0.000000   0.000000   0.000000  -0.000000  -0.000000   0.000000
    13  H    0.000000  -0.000000  -0.000000   0.000000   0.000000  -0.000000
    14  C   -0.000000  -0.000000   0.000000   0.000000  -0.000000  -0.000000
    15  H   -0.000000   0.000000   0.000000  -0.000000  -0.000000  -0.000000
    16  C    0.000000   0.000000  -0.000000  -0.000000   0.000000   0.000000
    17  H    0.000000  -0.000000  -0.000000   0.000000   0.000000  -0.000000
    18  H   -0.000000  -0.000000  -0.000000   0.000000  -0.000000   0.000000
    19  C   -0.000000   0.000000  -0.000000   0.000000  -0.000000   0.000000
    20  H   -0.000000  -0.000000   0.000000   0.000000   0.000000  -0.000000
    21  C    0.000000  -0.000000   0.000000  -0.000000   0.000000  -0.000000
    22  H    0.000000  -0.000000   0.000000  -0.000000   0.000000  -0.000000
    23  C    0.000000  -0.000000  -0.000000   0.000000   0.000000  -0.000000
    24  H    0.000000   0.000000   0.000000   0.000000  -0.000000   0.000000
    25  H    0.000000  -0.000000  -0.000000   0.000000  -0.000000   0.000000
    26  C    0.000000  -0.000000   0.000000   0.000000  -0.000000  -0.000000
    27  H    0.000000  -0.000000   0.000000   0.000000  -0.000000  -0.000000
    28  H   -0.000000   0.000000  -0.000000   0.000000   0.000000   0.000000
              19         20         21         22         23         24
     1  C   -0.000000   0.000000  -0.000000   0.000000   0.000000   0.000000
     2  C   -0.000000  -0.000000   0.000000  -0.000000   0.000000  -0.000000
     3  H   -0.000000  -0.000000  -0.000000   0.000000  -0.000000  -0.000000
     4  H   -0.000000  -0.000000   0.000000   0.000000   0.000000  -0.000000
[...]
     2  C    0.000000  -0.000000   0.000000  -0.000000
     3  H   -0.000000   0.000000   0.000000  -0.000000
     4  H   -0.000000   0.000000  -0.000000  -0.000000
     5  C    0.000000  -0.000000  -0.000000   0.000000
     6  C   -0.000000   0.000000  -0.000000  -0.000000
     7  H   -0.000000   0.000000   0.000000  -0.000000
     8  H    0.000000   0.000000   0.000000  -0.000000
     9  C   -0.000000  -0.000000   0.000000  -0.000000
    10  H    0.000000  -0.000000  -0.000000   0.000000
    11  H    0.000000   0.000000  -0.000000   0.000000
    12  C   -0.000000   0.000000   0.000000  -0.000000
    13  H    0.000000   0.000000   0.000000  -0.000000
    14  C   -0.000000  -0.000000  -0.000000   0.000000
    15  H   -0.000000   0.000000   0.000000  -0.000000
    16  C    0.000000   0.000000   0.000000   0.000000
    17  H   -0.000000  -0.000000  -0.000000   0.000000
    18  H    0.000000  -0.000000  -0.000000   0.000000
    19  C   -0.000000   0.000000  -0.000000   0.000000
    20  H   -0.000000  -0.000000   0.000000  -0.000000
    21  C    0.000000   0.000000  -0.000000   0.000000
    22  H   -0.000000  -0.000000   0.000000  -0.000000
    23  C   -0.000000   0.000000   0.000000   0.000000
    24  H   -0.000000  -0.000000  -0.000000  -0.000000
    25  H    0.000000  -0.000000  -0.000000   0.000000
    26  C   -0.000000   0.000000  -0.000000  -0.000000
    27  H   -0.000000  -0.000000  -0.000000   0.000000
    28  H    0.000000  -0.000000   0.000000  -0.000000
 Mulliken charges and spin densities:
               1          2
     1  C   -0.209360   0.000001
     2  C   -0.187354  -0.000000
     3  H    0.141762  -0.000000
     4  H    0.164049   0.000000
     5  C   -0.164900   0.000000
     6  C   -0.186990  -0.000000
     7  H    0.154379  -0.000000
     8  H    0.163922   0.000000
     9  C   -0.206853   0.000001
    10  H    0.119220  -0.000000
    11  H    0.138990  -0.000000
    12  C   -0.159907  -0.000000
    13  H    0.145294   0.000000
    14  C   -0.209289  -0.000000
    15  H    0.141766   0.000000
    16  C   -0.173475  -0.000000
    17  H    0.111995   0.000000
    18  H    0.125836   0.000000
    19  C   -0.164696   0.000000
    20  H    0.154451   0.000000
    21  C   -0.159755  -0.000000
    22  H    0.145263  -0.000000
    23  C   -0.206906  -0.000001
    24  H    0.139050   0.000000
    25  H    0.119178   0.000000
    26  C   -0.173512   0.000000
    27  H    0.125850  -0.000000
    28  H    0.111996  -0.000000
 Sum of Mulliken charges =  -0.00000  -0.00000
 Mulliken charges and spin densities with hydrogens summed into heavy atoms:
               1          2
     1  C   -0.067599   0.000000
     2  C   -0.023305  -0.000000
     5  C   -0.010522   0.000000
     6  C   -0.023068  -0.000000
     9  C    0.051357   0.000000
    12  C   -0.014613   0.000000
    14  C   -0.067523  -0.000000
    16  C    0.064356  -0.000000
    19  C   -0.010245   0.000000
    21  C   -0.014492  -0.000000
    23  C    0.051322  -0.000000
    26  C    0.064333   0.000000
 Electronic spatial extent (au):  <R**2>=           2273.8245
 Charge=              0.0000 electrons
 Dipole moment (field-independent basis, Debye):
    X=              0.0002    Y=              0.0000    Z=             -0.0000  Tot=              0.0002
 Quadrupole moment (field-independent basis, Debye-Ang):
   XX=            -72.2953   YY=            -69.8266   ZZ=            -77.0763
   XY=             -3.3192   XZ=             -3.6269   YZ=             -1.7053
 Traceless Quadrupole moment (field-independent basis, Debye-Ang):
   XX=              0.7707   YY=              3.2395   ZZ=             -4.0102
   XY=             -3.3192   XZ=             -3.6269   YZ=             -1.7053
 Octapole moment (field-independent basis, Debye-Ang**2):
  XXX=              0.0013  YYY=              0.0027  ZZZ=             -0.0001  XYY=              0.0026
  XXY=             -0.0000  XXZ=              0.0021  XZZ=              0.0003  YZZ=             -0.0012
  YYZ=             -0.0005  XYZ=              0.0003
 Hexadecapole moment (field-independent basis, Debye-Ang**3):
 XXXX=          -2079.0205 YYYY=           -630.0901 ZZZZ=           -392.4944 XXXY=           -110.8989
 XXXZ=           -142.7359 YYYX=            -63.7156 YYYZ=             -4.9572 ZZZX=            -89.8363
 ZZZY=            -16.4364 XXYY=           -449.1193 XXZZ=           -434.6374 YYZZ=           -185.6397
 XXYZ=            -23.5267 YYXZ=            -32.8676 ZZXY=            -45.4500
 N-N= 6.792472811219D+02 E-N=-2.440264229288D+03  KE= 4.642015387593D+02
                          Isotropic Fermi Contact Couplings
        Atom                 a.u.       MegaHertz       Gauss      10(-4) cm-1
     1  C(13)              0.00000       0.00004       0.00001       0.00001
     2  C(13)              0.00000       0.00000       0.00000       0.00000
     3  H(1)              -0.00000      -0.00003      -0.00001      -0.00001
     4  H(1)              -0.00000      -0.00000      -0.00000      -0.00000
     5  C(13)              0.00000       0.00004       0.00002       0.00001
     6  C(13)             -0.00000      -0.00004      -0.00001      -0.00001
     7  H(1)              -0.00000      -0.00008      -0.00003      -0.00003
     8  H(1)               0.00000       0.00002       0.00001       0.00001
     9  C(13)              0.00000       0.00020       0.00007       0.00007
    10  H(1)              -0.00000      -0.00012      -0.00004      -0.00004
    11  H(1)              -0.00000      -0.00014      -0.00005      -0.00005
    12  C(13)             -0.00000      -0.00003      -0.00001      -0.00001
    13  H(1)               0.00000       0.00005       0.00002       0.00002
    14  C(13)             -0.00000      -0.00001      -0.00000      -0.00000
    15  H(1)               0.00000       0.00001       0.00000       0.00000
    16  C(13)             -0.00000      -0.00010      -0.00004      -0.00003
    17  H(1)               0.00000       0.00004       0.00001       0.00001
    18  H(1)               0.00000       0.00002       0.00001       0.00001
    19  C(13)             -0.00000      -0.00001      -0.00000      -0.00000
    20  H(1)               0.00000       0.00006       0.00002       0.00002
    21  C(13)             -0.00000      -0.00000      -0.00000      -0.00000
    22  H(1)              -0.00000      -0.00004      -0.00001      -0.00001
    23  C(13)             -0.00000      -0.00018      -0.00007      -0.00006
    24  H(1)               0.00000       0.00013       0.00005       0.00004
    25  H(1)               0.00000       0.00009       0.00003       0.00003
    26  C(13)              0.00000       0.00009       0.00003       0.00003
    27  H(1)              -0.00000      -0.00001      -0.00000      -0.00000
    28  H(1)              -0.00000      -0.00001      -0.00000      -0.00000
 --------------------------------------------------------
       Center         ----  Spin Dipole Couplings  ----
                      3XX-RR        3YY-RR        3ZZ-RR
 --------------------------------------------------------
     1   Atom        0.000000     -0.000000      0.000000
     2   Atom        0.000000      0.000000     -0.000000
     3   Atom        0.000000     -0.000000      0.000000
     4   Atom       -0.000000      0.000000     -0.000000
     5   Atom        0.000000      0.000000     -0.000000
     6   Atom        0.000000     -0.000000     -0.000000
     7   Atom       -0.000000      0.000000     -0.000000
     8   Atom       -0.000000     -0.000000      0.000000
     9   Atom        0.000000     -0.000000      0.000000
    10   Atom       -0.000000     -0.000000      0.000000
    11   Atom       -0.000000      0.000000     -0.000000
    12   Atom       -0.000000     -0.000000      0.000000
    13   Atom        0.000000     -0.000000      0.000000
    14   Atom       -0.000000      0.000000      0.000000
    15   Atom        0.000000      0.000000     -0.000000
    16   Atom       -0.000000      0.000000     -0.000000
    17   Atom        0.000000      0.000000     -0.000000
    18   Atom       -0.000000     -0.000000      0.000000
    19   Atom       -0.000000     -0.000000      0.000000
    20   Atom        0.000000     -0.000000      0.000000
    21   Atom        0.000000      0.000000     -0.000000
    22   Atom        0.000000      0.000000     -0.000000
    23   Atom       -0.000000      0.000000     -0.000000
    24   Atom        0.000000     -0.000000      0.000000
    25   Atom        0.000000      0.000000     -0.000000
    26   Atom        0.000000     -0.000000      0.000000
    27   Atom        0.000000      0.000000     -0.000000
    28   Atom       -0.000000     -0.000000      0.000000
 --------------------------------------------------------
                        XY            XZ            YZ
 --------------------------------------------------------
     1   Atom       -0.000000      0.000000     -0.000000
     2   Atom       -0.000000     -0.000000     -0.000000
     3   Atom        0.000000     -0.000000     -0.000000
     4   Atom        0.000000      0.000000     -0.000000
     5   Atom       -0.000000      0.000000     -0.000000
     6   Atom        0.000000      0.000000     -0.000000
     7   Atom       -0.000000     -0.000000      0.000000
     8   Atom       -0.000000     -0.000000      0.000000
     9   Atom        0.000000      0.000000      0.000000
    10   Atom       -0.000000      0.000000     -0.000000
    11   Atom        0.000000      0.000000      0.000000
    12   Atom        0.000000     -0.000000      0.000000
    13   Atom       -0.000000     -0.000000      0.000000
    14   Atom        0.000000     -0.000000      0.000000
    15   Atom        0.000000      0.000000      0.000000
    16   Atom        0.000000      0.000000      0.000000
    17   Atom       -0.000000     -0.000000     -0.000000
    18   Atom        0.000000     -0.000000      0.000000
    19   Atom        0.000000      0.000000      0.000000
    20   Atom        0.000000      0.000000     -0.000000
    21   Atom       -0.000000     -0.000000     -0.000000
    22   Atom       -0.000000     -0.000000     -0.000000
    23   Atom       -0.000000     -0.000000     -0.000000
    24   Atom       -0.000000     -0.000000     -0.000000
    25   Atom        0.000000     -0.000000      0.000000
    26   Atom       -0.000000     -0.000000     -0.000000
    27   Atom       -0.000000      0.000000     -0.000000
    28   Atom        0.000000      0.000000      0.000000
 --------------------------------------------------------


 ---------------------------------------------------------------------------------
              Anisotropic Spin Dipole Couplings in Principal Axis System
 ---------------------------------------------------------------------------------

       Atom             a.u.   MegaHertz   Gauss  10(-4) cm-1        Axes

              Baa    -0.0000    -0.000    -0.000    -0.000 -0.2766  0.8731  0.4015
     1 C(13)  Bbb    -0.0000    -0.000    -0.000    -0.000  0.7066  0.4679 -0.5308
              Bcc     0.0000     0.000     0.000     0.000  0.6513 -0.1369  0.7464
 
              Baa    -0.0000    -0.000    -0.000    -0.000  0.5589  0.1009  0.8231
     2 C(13)  Bbb     0.0000     0.000     0.000     0.000  0.6510  0.5615 -0.5109
              Bcc     0.0000     0.000     0.000     0.000 -0.5137  0.8213  0.2481
 
              Baa    -0.0000    -0.000    -0.000    -0.000 -0.0441  0.9846  0.1694
     3 H(1)   Bbb    -0.0000    -0.000    -0.000    -0.000  0.7815 -0.0716  0.6197
              Bcc     0.0000     0.000     0.000     0.000 -0.6223 -0.1597  0.7663
 
              Baa    -0.0000    -0.000    -0.000    -0.000 -0.6405  0.0763  0.7642
     4 H(1)   Bbb     0.0000     0.000     0.000     0.000  0.7673  0.1052  0.6326
              Bcc     0.0000     0.000     0.000     0.000 -0.0321  0.9915 -0.1260
 
              Baa    -0.0000    -0.000    -0.000    -0.000 -0.2224  0.0021  0.9749
     5 C(13)  Bbb     0.0000     0.000     0.000     0.000  0.6535  0.7424  0.1475
              Bcc     0.0000     0.000     0.000     0.000  0.7235 -0.6700  0.1665
 
              Baa    -0.0000    -0.000    -0.000    -0.000 -0.3269  0.6853  0.6508
     6 C(13)  Bbb     0.0000     0.000     0.000     0.000  0.3785  0.7259 -0.5743
              Bcc     0.0000     0.000     0.000     0.000  0.8660 -0.0586  0.4966
 
              Baa    -0.0000    -0.000    -0.000    -0.000  0.7561  0.2038  0.6219
     7 H(1)   Bbb    -0.0000    -0.000    -0.000    -0.000 -0.4560 -0.5176  0.7240
              Bcc     0.0000     0.000     0.000     0.000 -0.4695  0.8310  0.2984
 
              Baa    -0.0000    -0.000    -0.000    -0.000  0.8881  0.4519  0.0845
     8 H(1)   Bbb     0.0000     0.000     0.000     0.000 -0.3707  0.8126 -0.4498
              Bcc     0.0000     0.000     0.000     0.000 -0.2719  0.3681  0.8891
 
              Baa    -0.0000    -0.000    -0.000    -0.000 -0.4700  0.8823 -0.0265
     9 C(13)  Bbb     0.0000     0.000     0.000     0.000 -0.1948 -0.0744  0.9780
              Bcc     0.0000     0.000     0.000     0.000  0.8609  0.4648  0.2068
 
              Baa    -0.0000    -0.000    -0.000    -0.000  0.7609 -0.4920 -0.4229
    10 H(1)   Bbb    -0.0000    -0.000    -0.000    -0.000  0.4898  0.8631 -0.1230
              Bcc     0.0000     0.000     0.000     0.000  0.4256 -0.1135  0.8978
 
              Baa    -0.0000    -0.000    -0.000    -0.000  0.7899 -0.5949  0.1487
    11 H(1)   Bbb    -0.0000    -0.000    -0.000    -0.000 -0.2003 -0.0210  0.9795
              Bcc     0.0000     0.000     0.000     0.000  0.5796  0.8035  0.1358
 
              Baa    -0.0000    -0.000    -0.000    -0.000  0.8046 -0.4815  0.3475
    12 C(13)  Bbb    -0.0000    -0.000    -0.000    -0.000  0.5387  0.8381 -0.0860
              Bcc     0.0000     0.000     0.000     0.000 -0.2499  0.2564  0.9337
 
              Baa    -0.0000    -0.000    -0.000    -0.000  0.3011  0.9198 -0.2517
    13 H(1)   Bbb     0.0000     0.000     0.000     0.000  0.9129 -0.2018  0.3548
              Bcc     0.0000     0.000     0.000     0.000 -0.2755  0.3366  0.9004
 
              Baa    -0.0000    -0.000    -0.000    -0.000  0.8760 -0.2977  0.3794
    14 C(13)  Bbb     0.0000     0.000     0.000     0.000  0.4151  0.8660 -0.2788
              Bcc     0.0000     0.000     0.000     0.000 -0.2456  0.4017  0.8822
 
              Baa    -0.0000    -0.000    -0.000    -0.000 -0.3647 -0.2085  0.9075
    15 H(1)   Bbb     0.0000     0.000     0.000     0.000 -0.4124  0.9100  0.0433
              Bcc     0.0000     0.000     0.000     0.000  0.8348  0.3585  0.4179
 
              Baa    -0.0000    -0.000    -0.000    -0.000  0.7268 -0.0171 -0.6866
    16 C(13)  Bbb     0.0000     0.000     0.000     0.000  0.6753 -0.1643  0.7190
              Bcc     0.0000     0.000     0.000     0.000  0.1251  0.9863  0.1079
 
              Baa    -0.0000    -0.000    -0.000    -0.000  0.4110  0.3452  0.8438
    17 H(1)   Bbb     0.0000     0.000     0.000     0.000  0.9010 -0.2950 -0.3182
              Bcc     0.0000     0.000     0.000     0.000  0.1391  0.8910 -0.4322
 
              Baa    -0.0000    -0.000    -0.000    -0.000 -0.6735  0.6745 -0.3024
    18 H(1)   Bbb     0.0000     0.000     0.000     0.000 -0.4725 -0.0782  0.8779
              Bcc     0.0000     0.000     0.000     0.000  0.5684  0.7342  0.3714
 
              Baa    -0.0000    -0.000    -0.000    -0.000 -0.4478  0.8938 -0.0236
    19 C(13)  Bbb    -0.0000    -0.000    -0.000    -0.000  0.8555  0.4206 -0.3022
              Bcc     0.0000     0.000     0.000     0.000  0.2602  0.1555  0.9530
 
              Baa    -0.0000    -0.000    -0.000    -0.000 -0.1412  0.9706  0.1949
    20 H(1)   Bbb    -0.0000    -0.000    -0.000    -0.000  0.7607  0.2324 -0.6061
              Bcc     0.0000     0.000     0.000     0.000  0.6336 -0.0627  0.7712
 
              Baa    -0.0000    -0.000    -0.000    -0.000  0.2082  0.1003  0.9729
    21 C(13)  Bbb     0.0000     0.000     0.000     0.000  0.9413  0.2496 -0.2271
              Bcc     0.0000     0.000     0.000     0.000 -0.2656  0.9632 -0.0424
 
              Baa    -0.0000    -0.000    -0.000    -0.000  0.3590  0.2193  0.9072
    22 H(1)   Bbb    -0.0000    -0.000    -0.000    -0.000  0.5205  0.7598 -0.3897
              Bcc     0.0000     0.000     0.000     0.000  0.7748 -0.6120 -0.1586
 
              Baa    -0.0000    -0.000    -0.000    -0.000  0.8221  0.4268  0.3768
    23 C(13)  Bbb    -0.0000    -0.000    -0.000    -0.000 -0.3374 -0.1679  0.9263
              Bcc     0.0000     0.000     0.000     0.000 -0.4586  0.8886 -0.0060
 
              Baa    -0.0000    -0.000    -0.000    -0.000  0.5341  0.8348  0.1338
    24 H(1)   Bbb     0.0000     0.000     0.000     0.000  0.0422 -0.1843  0.9820
              Bcc     0.0000     0.000     0.000     0.000  0.8444 -0.5188 -0.1337
 
              Baa    -0.0000    -0.000    -0.000    -0.000  0.4560 -0.1378  0.8793
    25 H(1)   Bbb     0.0000     0.000     0.000     0.000 -0.4167  0.8399  0.3477
              Bcc     0.0000     0.000     0.000     0.000  0.7864  0.5250 -0.3255
 
              Baa    -0.0000    -0.000    -0.000    -0.000  0.1032  0.9897  0.0988
    26 C(13)  Bbb    -0.0000    -0.000    -0.000    -0.000  0.6805 -0.1427  0.7187
              Bcc     0.0000     0.000     0.000     0.000  0.7255 -0.0070 -0.6882
 
              Baa    -0.0000    -0.000    -0.000    -0.000  0.3496  0.5885  0.7290
    27 H(1)   Bbb    -0.0000    -0.000    -0.000    -0.000  0.7335  0.3121 -0.6038
              Bcc     0.0000     0.000     0.000     0.000 -0.5829  0.7458 -0.3225
 
              Baa    -0.0000    -0.000    -0.000    -0.000  0.7513 -0.6549 -0.0811
    28 H(1)   Bbb    -0.0000    -0.000    -0.000    -0.000 -0.4733 -0.6205  0.6253
              Bcc     0.0000     0.000     0.000     0.000  0.4598  0.4314  0.7762
 

 ---------------------------------------------------------------------------------

 No NMR shielding tensors so no spin-rotation constants.
 Leave Link  601 at Mon Aug  3 14:59:42 2020, MaxMem=  6442450944 cpu:               7.9 elap:               0.4
 (Enter /scratch/scicomp/CentOS/7.3.1611/Haswell/software/Gaussian/g16/l9999.exe)
 1\1\GINC-ATLAS-205\SP\UwB97XD\def2TZVP\C12H16\BOCHEN\03-Aug-2020\0\\#p
  uwb97xd guess=mix def2tzvp # scrf=(iefpcm,solvent=Cyclohexane,read) n
 osym 6d 10f\\endo-2 xp-pcm for eta=3\\0,1\C,0,-3.127383,-0.4412,0.2569
 46\C,0,-0.696508,-0.242696,-1.184341\H,0,-4.079078,-0.538518,0.766502\
 H,0,0.264362,-0.155913,-1.675481\C,0,1.144636,1.421194,0.762509\C,0,0.
 696508,0.242696,1.184341\H,0,0.551234,2.317867,0.893879\H,0,-0.264362,
 0.155913,1.675481\C,0,1.535929,-0.997742,1.081645\H,0,2.043151,-1.1243
 17,2.046516\H,0,0.898815,-1.8736,0.960552\C,0,2.446597,1.527191,0.1055
 12\H,0,2.848349,2.513477,-0.093966\C,0,3.127383,0.4412,-0.256946\H,0,4
 .079078,0.538518,-0.766502\C,0,2.581145,-0.943485,-0.038369\H,0,2.1500
 37,-1.29813,-0.982721\H,0,3.394647,-1.635414,0.188466\C,0,-1.144636,-1
 .421194,-0.762509\H,0,-0.551234,-2.317867,-0.893879\C,0,-2.446597,-1.5
 27191,-0.105512\H,0,-2.848349,-2.513477,0.093966\C,0,-1.535929,0.99774
 2,-1.081645\H,0,-0.898815,1.8736,-0.960552\H,0,-2.043151,1.124317,-2.0
 46516\C,0,-2.581145,0.943485,0.038369\H,0,-3.394647,1.635414,-0.188467
 \H,0,-2.150037,1.29813,0.982721\\Version=ES64L-G16RevB.01\HF=-466.8542
 902\S2=0.\S2-1=0.\S2A=0.\RMSD=3.666e-09\Dipole=0.0000966,0.0000072,-0.
 0000146\Quadrupole=0.5730251,2.4084932,-2.9815183,-2.4677745,-2.696534
 6,-1.2678494\PG=CI [X(C12H16)]\\@


 The arm of the moral universe is long, but it bends toward justice.
 -- Martin Luther King, Jr.
 Job cpu time:       0 days  2 hours  6 minutes 34.8 seconds.
 Elapsed time:       0 days  0 hours  5 minutes 19.6 seconds.
 File lengths (MBytes):  RWF=    639 Int=      0 D2E=      0 Chk=     23 Scr=      1
 Normal termination of Gaussian 16 at Mon Aug  3 14:59:42 2020.
