 Entering Gaussian System, Link 0=g16
 Input=meso-TS_16_2_xp-Ger.com
 Output=meso-TS_16_2_xp-Ger.log
 Initial command:
 /scratch/scicomp/CentOS/7.3.1611/Haswell/software/Gaussian/g16/l1.exe "/scratch/bochen/cyclohexadiene-dimerization/wb97xd-def2tzvp/xp-pcm/meso/Gau-358928.inp" -scrdir="/scratch/bochen/cyclohexadiene-dimerization/wb97xd-def2tzvp/xp-pcm/meso/"
 Entering Link 1 = /scratch/scicomp/CentOS/7.3.1611/Haswell/software/Gaussian/g16/l1.exe PID=    358929.
  
 Copyright (c) 1988-2017, Gaussian, Inc.  All Rights Reserved.
  
 This is part of the Gaussian(R) 16 program.  It is based on
 the Gaussian(R) 09 system (copyright 2009, Gaussian, Inc.),
 the Gaussian(R) 03 system (copyright 2003, Gaussian, Inc.),
 the Gaussian(R) 98 system (copyright 1998, Gaussian, Inc.),
 the Gaussian(R) 94 system (copyright 1995, Gaussian, Inc.),
 the Gaussian 92(TM) system (copyright 1992, Gaussian, Inc.),
 the Gaussian 90(TM) system (copyright 1990, Gaussian, Inc.),
 the Gaussian 88(TM) system (copyright 1988, Gaussian, Inc.),
 the Gaussian 86(TM) system (copyright 1986, Carnegie Mellon
 University), and the Gaussian 82(TM) system (copyright 1983,
 Carnegie Mellon University). Gaussian is a federally registered
 trademark of Gaussian, Inc.
  
 This software contains proprietary and confidential information,
 including trade secrets, belonging to Gaussian, Inc.
  
 This software is provided under written license and may be
 used, copied, transmitted, or stored only in accord with that
 written license.
  
 The following legend is applicable only to US Government
 contracts under FAR:
  
                    RESTRICTED RIGHTS LEGEND
  
 Use, reproduction and disclosure by the US Government is
 subject to restrictions as set forth in subparagraphs (a)
 and (c) of the Commercial Computer Software - Restricted
 Rights clause in FAR 52.227-19.
  
 Gaussian, Inc.
 340 Quinnipiac St., Bldg. 40, Wallingford CT 06492
  
  
 ---------------------------------------------------------------
 Warning -- This program may not be used in any manner that
 competes with the business of Gaussian, Inc. or will provide
 assistance to any competitor of Gaussian, Inc.  The licensee
 of this program is prohibited from giving any competitor of
 Gaussian, Inc. access to this program.  By using this program,
 the user acknowledges that Gaussian, Inc. is engaged in the
 business of creating and licensing software in the field of
 computational chemistry and represents and warrants to the
 licensee that it is not a competitor of Gaussian, Inc. and that
 it will not use this program in any manner prohibited above.
 ---------------------------------------------------------------
  

 Cite this work as:
 Gaussian 16, Revision B.01,
 M. J. Frisch, G. W. Trucks, H. B. Schlegel, G. E. Scuseria, 
 M. A. Robb, J. R. Cheeseman, G. Scalmani, V. Barone, 
 G. A. Petersson, H. Nakatsuji, X. Li, M. Caricato, A. V. Marenich, 
 J. Bloino, B. G. Janesko, R. Gomperts, B. Mennucci, H. P. Hratchian, 
 J. V. Ortiz, A. F. Izmaylov, J. L. Sonnenberg, D. Williams-Young, 
 F. Ding, F. Lipparini, F. Egidi, J. Goings, B. Peng, A. Petrone, 
 T. Henderson, D. Ranasinghe, V. G. Zakrzewski, J. Gao, N. Rega, 
 G. Zheng, W. Liang, M. Hada, M. Ehara, K. Toyota, R. Fukuda, 
 J. Hasegawa, M. Ishida, T. Nakajima, Y. Honda, O. Kitao, H. Nakai, 
 T. Vreven, K. Throssell, J. A. Montgomery, Jr., J. E. Peralta, 
 F. Ogliaro, M. J. Bearpark, J. J. Heyd, E. N. Brothers, K. N. Kudin, 
 V. N. Staroverov, T. A. Keith, R. Kobayashi, J. Normand, 
 K. Raghavachari, A. P. Rendell, J. C. Burant, S. S. Iyengar, 
 J. Tomasi, M. Cossi, J. M. Millam, M. Klene, C. Adamo, R. Cammi, 
 J. W. Ochterski, R. L. Martin, K. Morokuma, O. Farkas, 
 J. B. Foresman, and D. J. Fox, Gaussian, Inc., Wallingford CT, 2016.
 
 ******************************************
 Gaussian 16:  ES64L-G16RevB.01 20-Dec-2017
                 4-Aug-2020 
 ******************************************
 %chk=meso-TS_16_2_xp-12.chk
 %nproc=24
 Will use up to   24 processors via shared memory.
 %mem=48GB
 ----------------------------------------------------------------------
 #p uwb97xd guess=mix def2tzvp # scrf=(iefpcm,solvent=Cyclohexane,read)
  nosym 6d 10f
 ----------------------------------------------------------------------
 1/38=1,40=2,172=1/1;
 2/12=2,15=1,17=6,18=5,40=1/2;
 3/5=44,7=101,8=22,11=2,25=1,30=1,70=2203,72=17,74=-58,116=2/1,2,3;
 4/13=-1/1;
 5/5=2,38=5,53=17/2;
 6/7=2,8=2,9=2,10=2,28=1/1;
 99/5=1,9=1/99;
 Leave Link    1 at Tue Aug  4 09:59:10 2020, MaxMem=  6442450944 cpu:               3.2 elap:               0.1
 (Enter /scratch/scicomp/CentOS/7.3.1611/Haswell/software/Gaussian/g16/l101.exe)
 -----------------------
 endo-2 xp-pcm for eta=3
 -----------------------
 Symbolic Z-matrix:
 Charge =  0 Multiplicity = 1
 6                    -3.12005  -0.4373    0.2476 
 6                    -0.58277  -0.20812  -0.98603 
 1                    -4.08404  -0.54942   0.73016 
 1                     0.37636  -0.11924  -1.47614 
 6                     1.09293   1.40724   0.6957 
 6                     0.58277   0.20812   0.98603 
 1                     0.51446   2.30912   0.84998 
 1                    -0.37636   0.11924   1.47614 
 6                     1.47344  -0.99988   0.99811 
 1                     1.93024  -1.00781   1.99558 
 1                     0.90089  -1.92228   0.91786 
 6                     2.4216    1.5163    0.11107 
 1                     2.83016   2.50512  -0.06074 
 6                     3.12005   0.4373   -0.2476 
 1                     4.08404   0.54942  -0.73016 
 6                     2.59126  -0.95682  -0.04573 
 1                     2.2484   -1.35251  -1.0098 
 1                     3.40057  -1.6201    0.26691 
 6                    -1.09293  -1.40724  -0.6957 
 1                    -0.51446  -2.30912  -0.84998 
 6                    -2.4216   -1.5163   -0.11107 
 1                    -2.83016  -2.50512   0.06074 
 6                    -1.47344   0.99988  -0.99811 
 1                    -0.90089   1.92228  -0.91786 
 1                    -1.93024   1.00781  -1.99558 
 6                    -2.59126   0.95682   0.04573 
 1                    -3.40057   1.6201   -0.26691 
 1                    -2.2484    1.35252   1.0098 
 
 ITRead=  0  0  0  0  0  0  0  0  0  0  0  0  0  0  0  0  0  0  0  0
 ITRead=  0  0  0  0  0  0  0  0
 MicOpt= -1 -1 -1 -1 -1 -1 -1 -1 -1 -1 -1 -1 -1 -1 -1 -1 -1 -1 -1 -1
 MicOpt= -1 -1 -1 -1 -1 -1 -1 -1
 NAtoms=     28 NQM=       28 NQMF=       0 NMMI=      0 NMMIF=      0
                NMic=       0 NMicF=      0.
                    Isotopes and Nuclear Properties:
 (Nuclear quadrupole moments (NQMom) in fm**2, nuclear magnetic moments (NMagM)
  in nuclear magnetons)

  Atom         1           2           3           4           5           6           7           8           9          10
 IAtWgt=          12          12           1           1          12          12           1           1          12           1
 AtmWgt=  12.0000000  12.0000000   1.0078250   1.0078250  12.0000000  12.0000000   1.0078250   1.0078250  12.0000000   1.0078250
 NucSpn=           0           0           1           1           0           0           1           1           0           1
 AtZEff=  -0.0000000  -0.0000000  -0.0000000  -0.0000000  -0.0000000  -0.0000000  -0.0000000  -0.0000000  -0.0000000  -0.0000000
 NQMom=    0.0000000   0.0000000   0.0000000   0.0000000   0.0000000   0.0000000   0.0000000   0.0000000   0.0000000   0.0000000
 NMagM=    0.0000000   0.0000000   2.7928460   2.7928460   0.0000000   0.0000000   2.7928460   2.7928460   0.0000000   2.7928460
 AtZNuc=   6.0000000   6.0000000   1.0000000   1.0000000   6.0000000   6.0000000   1.0000000   1.0000000   6.0000000   1.0000000

  Atom        11          12          13          14          15          16          17          18          19          20
 IAtWgt=           1          12           1          12           1          12           1           1          12           1
 AtmWgt=   1.0078250  12.0000000   1.0078250  12.0000000   1.0078250  12.0000000   1.0078250   1.0078250  12.0000000   1.0078250
 NucSpn=           1           0           1           0           1           0           1           1           0           1
 AtZEff=  -0.0000000  -0.0000000  -0.0000000  -0.0000000  -0.0000000  -0.0000000  -0.0000000  -0.0000000  -0.0000000  -0.0000000
 NQMom=    0.0000000   0.0000000   0.0000000   0.0000000   0.0000000   0.0000000   0.0000000   0.0000000   0.0000000   0.0000000
 NMagM=    2.7928460   0.0000000   2.7928460   0.0000000   2.7928460   0.0000000   2.7928460   2.7928460   0.0000000   2.7928460
 AtZNuc=   1.0000000   6.0000000   1.0000000   6.0000000   1.0000000   6.0000000   1.0000000   1.0000000   6.0000000   1.0000000

  Atom        21          22          23          24          25          26          27          28
 IAtWgt=          12           1          12           1           1          12           1           1
 AtmWgt=  12.0000000   1.0078250  12.0000000   1.0078250   1.0078250  12.0000000   1.0078250   1.0078250
 NucSpn=           0           1           0           1           1           0           1           1
 AtZEff=  -0.0000000  -0.0000000  -0.0000000  -0.0000000  -0.0000000  -0.0000000  -0.0000000  -0.0000000
 NQMom=    0.0000000   0.0000000   0.0000000   0.0000000   0.0000000   0.0000000   0.0000000   0.0000000
 NMagM=    0.0000000   2.7928460   0.0000000   2.7928460   2.7928460   0.0000000   2.7928460   2.7928460
 AtZNuc=   6.0000000   1.0000000   6.0000000   1.0000000   1.0000000   6.0000000   1.0000000   1.0000000
 Leave Link  101 at Tue Aug  4 09:59:10 2020, MaxMem=  6442450944 cpu:               2.4 elap:               0.1
 (Enter /scratch/scicomp/CentOS/7.3.1611/Haswell/software/Gaussian/g16/l202.exe)
                          Input orientation:                          
 ---------------------------------------------------------------------
 Center     Atomic      Atomic             Coordinates (Angstroms)
 Number     Number       Type             X           Y           Z
 ---------------------------------------------------------------------
      1          6           0       -3.120053   -0.437296    0.247601
      2          6           0       -0.582765   -0.208122   -0.986031
      3          1           0       -4.084035   -0.549421    0.730161
      4          1           0        0.376360   -0.119236   -1.476138
      5          6           0        1.092928    1.407235    0.695695
      6          6           0        0.582765    0.208122    0.986031
      7          1           0        0.514464    2.309116    0.849982
      8          1           0       -0.376360    0.119237    1.476138
      9          6           0        1.473441   -0.999882    0.998114
     10          1           0        1.930236   -1.007810    1.995578
     11          1           0        0.900886   -1.922279    0.917856
     12          6           0        2.421602    1.516304    0.111065
     13          1           0        2.830156    2.505119   -0.060741
     14          6           0        3.120053    0.437296   -0.247601
     15          1           0        4.084035    0.549421   -0.730161
     16          6           0        2.591259   -0.956820   -0.045733
     17          1           0        2.248403   -1.352514   -1.009798
     18          1           0        3.400569   -1.620098    0.266906
     19          6           0       -1.092928   -1.407235   -0.695695
     20          1           0       -0.514464   -2.309116   -0.849982
     21          6           0       -2.421602   -1.516304   -0.111065
     22          1           0       -2.830156   -2.505120    0.060741
     23          6           0       -1.473441    0.999882   -0.998114
     24          1           0       -0.900886    1.922279   -0.917856
     25          1           0       -1.930236    1.007810   -1.995578
     26          6           0       -2.591259    0.956820    0.045733
     27          1           0       -3.400569    1.620098   -0.266906
     28          1           0       -2.248403    1.352515    1.009798
 ---------------------------------------------------------------------
                    Distance matrix (angstroms):
                    1          2          3          4          5
     1  C    0.000000
     2  C    2.830583   0.000000
     3  H    1.083835   3.914166   0.000000
     4  H    3.911182   1.080753   4.994791   0.000000
     5  C    4.620854   2.871503   5.534495   2.749626   0.000000
     6  C    3.830497   2.328250   4.734803   2.492397   1.335078
     7  H    4.595145   3.303232   5.415883   3.365531   1.082504
     8  H    3.057267   2.492397   3.840630   3.056042   2.104005
     9  C    4.688279   2.965080   5.582137   2.846234   2.455699
    10  H    5.374600   3.980536   6.163023   3.906009   2.867616
    11  H    4.338475   2.960463   5.173916   3.042581   3.342439
    12  C    5.877511   3.633660   6.853744   3.062225   1.455700
    13  H    6.645139   4.457114   7.600117   3.861567   2.189864
    14  C    6.320527   3.830497   7.336792   3.057267   2.437176
    15  H    7.336792   4.734803   8.370028   3.840630   3.422810
    16  C    5.742389   3.393985   6.732573   2.766475   2.895422
    17  H    5.589186   3.053803   6.616055   2.289758   3.443841
    18  H    6.627059   4.408001   7.574975   3.799556   3.830641
    19  C    2.437176   1.335078   3.422810   2.104006   3.825595
    20  H    3.390795   2.106502   4.281964   2.445652   4.334062
    21  C    1.334441   2.420377   2.099097   3.412303   4.642183
    22  H    2.096390   3.379748   2.417663   4.282077   5.576762
    23  C    2.515674   1.500908   3.493204   2.214203   3.101802
    24  H    3.442468   2.155100   4.354044   2.472007   2.616125
    25  H    2.921617   2.076862   3.807029   2.619243   4.067187
    26  C    1.504637   2.540802   2.228359   3.504390   3.768097
    27  H    2.139223   3.435047   2.483562   4.330441   4.600372
    28  H    2.131699   3.032041   2.658026   3.903243   3.356508
                    6          7          8          9         10
     6  C    0.000000
     7  H    2.106502   0.000000
     8  H    1.080753   2.445651   0.000000
     9  C    1.500908   3.448340   2.214204   0.000000
    10  H    2.076862   3.784019   2.619244   1.097114   0.000000
    11  H    2.155100   4.249545   2.472008   1.088612   1.748514
    12  C    2.420377   2.193564   3.412303   2.831441   3.188100
    13  H    3.379747   2.496049   4.282076   3.904726   4.168810
    14  C    2.830583   3.390795   3.911182   2.515674   2.921617
    15  H    3.914166   4.281964   4.994791   3.493204   3.807029
    16  C    2.540802   3.972621   3.504390   1.530029   2.146276
    17  H    3.032040   4.457899   3.903243   2.180969   3.041765
    18  H    3.435047   4.910021   4.330441   2.152477   2.350549
    19  C    2.871503   4.334062   2.749626   3.101802   4.067187
    20  H    3.303232   5.027588   3.365532   3.013523   3.970789
    21  C    3.633660   4.917106   3.062225   4.082687   4.861585
    22  H    4.457115   5.914918   3.861569   4.654606   5.352276
    23  C    2.965080   3.013523   2.846234   4.082658   4.957624
    24  H    2.960463   2.297414   3.042580   4.224618   5.008869
    25  H    3.980536   3.970789   3.906009   4.957624   5.907224
    26  C    3.393985   3.481528   2.766475   4.610585   5.301470
    27  H    4.408001   4.129124   3.799556   5.676314   6.359419
    28  H    3.053803   2.928150   2.289758   4.402957   4.899380
                   11         12         13         14         15
    11  H    0.000000
    12  C    3.845431   0.000000
    13  H    4.927635   1.083600   0.000000
    14  C    3.442468   1.334441   2.096389   0.000000
    15  H    4.354044   2.099097   2.417662   1.083835   0.000000
    16  C    2.172090   2.483890   3.470204   1.504637   2.228359
    17  H    2.419976   3.084874   4.015032   2.131698   2.658025
    18  H    2.600666   3.289328   4.177336   2.139223   2.483562
    19  C    2.616125   4.642183   5.576761   4.620854   5.534495
    20  H    2.297414   4.917106   5.914917   4.595145   5.415883
    21  C    3.501774   5.718626   6.614782   5.877511   6.853744
    22  H    3.872341   6.614782   7.560184   6.645139   7.600117
    23  C    4.224618   4.082687   4.654606   4.688279   5.582137
    24  H    4.625673   3.501774   3.872341   4.338475   5.173916
    25  H    5.008869   4.861585   5.352276   5.374600   6.163023
    26  C    4.609218   5.044409   5.639176   5.742389   6.732573
    27  H    5.696895   5.835350   6.296642   6.627059   7.574975
    28  H    4.544310   4.758518   5.316607   5.589186   6.616055
                   16         17         18         19         20
    16  C    0.000000
    17  H    1.097062   0.000000
    18  H    1.092091   1.740420   0.000000
    19  C    3.768097   3.356508   4.600372   0.000000
    20  H    3.481528   2.928150   4.129124   1.082504   0.000000
    21  C    5.044409   4.758518   5.835350   1.455700   2.193564
    22  H    5.639176   5.316608   6.296642   2.189865   2.496050
    23  C    4.610585   4.402957   5.676314   2.455699   3.448340
    24  H    4.609218   4.544309   5.696895   3.342439   4.249545
    25  H    5.301470   4.899379   6.359419   2.867616   3.784019
    26  C    5.525294   5.465299   6.526211   2.895422   3.972621
    27  H    6.526211   6.426445   7.552437   3.830641   4.910021
    28  H    5.465300   5.622919   6.426445   3.443842   4.457899
                   21         22         23         24         25
    21  C    0.000000
    22  H    1.083601   0.000000
    23  C    2.831441   3.904726   0.000000
    24  H    3.845431   4.927636   1.088612   0.000000
    25  H    3.188100   4.168811   1.097114   1.748514   0.000000
    26  C    2.483890   3.470205   1.530029   2.172090   2.146276
    27  H    3.289328   4.177337   2.152477   2.600666   2.350549
    28  H    3.084875   4.015033   2.180969   2.419976   3.041765
                   26         27         28
    26  C    0.000000
    27  H    1.092091   0.000000
    28  H    1.097062   1.740420   0.000000
 Symmetry turned off by external request.
 Stoichiometry    C12H16
 Framework group  CI[X(C12H16)]
 Deg. of freedom    39
 Full point group                 CI      NOp   2
 Rotational constants (GHZ):           1.9090571           0.6281678           0.5500551
 Leave Link  202 at Tue Aug  4 09:59:11 2020, MaxMem=  6442450944 cpu:               0.3 elap:               0.0
 (Enter /scratch/scicomp/CentOS/7.3.1611/Haswell/software/Gaussian/g16/l301.exe)
 Standard basis: def2TZVP (6D, 10F)
 Ernie: Thresh=  0.10000D-02 Tol=  0.10000D-05 Strict=F.
   528 basis functions,   740 primitive gaussians,   528 cartesian basis functions
    44 alpha electrons       44 beta electrons
       nuclear repulsion energy       689.1723014786 Hartrees.
 IExCor= 4639 DFT=T Ex+Corr=wB97XD ExCW=0 ScaHFX=  1.000000
 ScaDFX=  1.000000  1.000000  1.000000  1.000000 ScalE2=  1.000000  1.000000
 IRadAn=      5 IRanWt=     -1 IRanGd=            0 ICorTp=0 IEmpDi=121
 HFx  wShort=  0.000000 wLong=  0.200000 cFull=  0.222036 cShort=  0.000000 cLong=  0.777964
 DFx  wShort=  0.000000 wLong=  0.200000 cFull=  0.000000 cShort=  0.000000 cLong=  1.000000
 NAtoms=   28 NActive=   28 NUniq=   28 SFac= 1.00D+00 NAtFMM=   60 NAOKFM=F Big=F
 Integral buffers will be    131072 words long.
 Raffenetti 2 integral format.
 Two-electron integral symmetry is turned off.
 R6Disp:  Grimme-D2 Dispersion energy=       -0.0229707258 Hartrees.
 Nuclear repulsion after empirical dispersion term =      689.1493307528 Hartrees.
 Using the following non-standard input for PCM:
 qrep pcmdoc geomview  nodis nocav g03defaults tsare=0.075
 Warning! Using old PCM defaults because the g03defaults keyword was found.
 These settings can be overridden by following keywords.
 nsfe=28
 NVESolv=36  SolvMW=84.1595   Rsolv=2.815
 eps=2.0165 RhoS=0.778099999999998
 --- end of non-standard input.
 Reading user-defined spheres from input:
 ISph  on   Nord    Re0     Alpha      Xe            Ye            Ze
 --- end of user-defined spheres data.
 ------------------------------------------------------------------------------
 Polarizable Continuum Model (PCM)
 =================================
 Model                : PCM.
 Atomic radii         : UA0 (Simple United Atom Topological Model).
 Polarization charges : Total charges.
 Charge compensation  : None.
 Solution method      : On-the-fly selection.
 Cavity type          : SES (Solvent Excluding Surface) (Alpha=1.000).
 Cavity algorithm     : GePol (RMin=0.200 OFac=0.890).
                        User-defined sphere list used, NSphG=   28.
                        Tesserae with average area of 0.075 Ang**2.
                        Smoothing algorithm: None.
                        Polarization charges: point-like.
                        Self-potential: constant (ISelfS= 1).
                        Self-field    : global E.n sum rule (ISelfD= 3).
 Solvent              : CycloHexane, Eps=   2.016500 Eps(inf)=   2.035188
                        RSolv=   2.815000 Ang.
 ------------------------------------------------------------------------------
 GePol: Number of generator spheres                  =      28
 GePol: Total number of spheres                      =     186
 GePol: Number of exposed spheres                    =     140 ( 75.27%)
 GePol: Number of tesserae                           =    4678
 GePol: Average area of tesserae                     =       0.05 Ang**2
 GePol: Minimum area of tessera                      =   0.10D-02 Ang**2
 GePol: Maximum area of tessera                      =    0.12705 Ang**2
 GePol: Number of small tesserae                     =       0
 GePol: Fraction of small tesserae (<1% of avg)      =       0.00%
 GePol: Total count of vertices                      =   16621
 GePol: Maximum number of vertices in a tessera      =       7
 GePol: Cavity surface area                          =    218.457 Ang**2
 GePol: Cavity volume                                =    246.590 Ang**3
 Leave Link  301 at Tue Aug  4 09:59:11 2020, MaxMem=  6442450944 cpu:               7.8 elap:               0.4
 (Enter /scratch/scicomp/CentOS/7.3.1611/Haswell/software/Gaussian/g16/l302.exe)
 NPDir=0 NMtPBC=     1 NCelOv=     1 NCel=       1 NClECP=     1 NCelD=      1
         NCelK=      1 NCelE2=     1 NClLst=     1 CellRange=     0.0.
 One-electron integrals computed using PRISM.
   1 Symmetry operations used in ECPInt.
 ECPInt:  NShTT=   19306 NPrTT=   56928 LenC2=   18514 LenP2D=   42212.
 LDataN:  DoStor=T MaxTD1= 6 Len=  172
 NBasis=   528 RedAO= T EigKep=  2.03D-05  NBF=   528
 NBsUse=   528 1.00D-06 EigRej= -1.00D+00 NBFU=   528
 Precomputing XC quadrature grid using
 IXCGrd= 4 IRadAn=           5 IRanWt=          -1 IRanGd=           0 AccXCQ= 0.00D+00.
 Generated NRdTot=       0 NPtTot=           0 NUsed=           0 NTot=          32
 NSgBfM=   526   526   526   526   526 MxSgAt=    28 MxSgA2=    28.
 Leave Link  302 at Tue Aug  4 09:59:12 2020, MaxMem=  6442450944 cpu:              12.7 elap:               0.6
 (Enter /scratch/scicomp/CentOS/7.3.1611/Haswell/software/Gaussian/g16/l303.exe)
 DipDrv:  MaxL=1.
 Leave Link  303 at Tue Aug  4 09:59:12 2020, MaxMem=  6442450944 cpu:               1.5 elap:               0.1
 (Enter /scratch/scicomp/CentOS/7.3.1611/Haswell/software/Gaussian/g16/l401.exe)
 ExpMin= 9.52D-02 ExpMax= 1.36D+04 ExpMxC= 4.63D+02 IAcc=3 IRadAn=         5 AccDes= 0.00D+00
 Harris functional with IExCor= 4639 and IRadAn=       5 diagonalized for initial guess.
 HarFok:  IExCor= 4639 AccDes= 0.00D+00 IRadAn=         5 IDoV= 1 UseB2=F ITyADJ=14
 ICtDFT=  3500011 ScaDFX=  1.000000  1.000000  1.000000  1.000000
 FoFCou: FMM=F IPFlag=           0 FMFlag=      100000 FMFlg1=           0
         NFxFlg=           0 DoJE=T BraDBF=F KetDBF=T FulRan=T
         wScrn=  0.000000 ICntrl=       500 IOpCl=  0 I1Cent=   200000004 NGrid=           0
         NMat0=    1 NMatS0=      1 NMatT0=    0 NMatD0=    1 NMtDS0=    0 NMtDT0=    0
 Symmetry not used in FoFCou.
 Harris En= -444.630828018821    
 JPrj=0 DoOrth=F DoCkMO=T.
 Mixing orbitals, IMix= 1 IMixAn=  0 NRI=1 NE=   44 Coef=  7.07106781D-01  7.07106781D-01
 Mixing orbitals, IMix= 1 IMixAn=  0 NRI=1 NE=   44 Coef= -7.07106781D-01  7.07106781D-01
 Initial guess <Sx>= 0.0000 <Sy>= 0.0000 <Sz>= 0.0000 <S**2>= 1.0000 S= 0.6180
 Leave Link  401 at Tue Aug  4 09:59:14 2020, MaxMem=  6442450944 cpu:              49.4 elap:               2.1
 (Enter /scratch/scicomp/CentOS/7.3.1611/Haswell/software/Gaussian/g16/l502.exe)
 Two-electron integral symmetry not used.
 UHF open shell SCF:
 Using DIIS extrapolation, IDIIS=  1040.
 NGot=  6442450944 LenX=  6441877030 LenY=  6441597718
 Requested convergence on RMS density matrix=1.00D-08 within 128 cycles.
 Requested convergence on MAX density matrix=1.00D-06.
 Requested convergence on             energy=1.00D-06.
 No special actions if energy rises.
 Fock matrices will be formed incrementally for  20 cycles.

 Cycle   1  Pass 1  IDiag  1:
 FoFJK:  IHMeth= 1 ICntrl=       0 DoSepK=T KAlg= 0 I1Cent=           0 FoldK=F
 IRaf=         1 NMat=       1 IRICut=       1 DoRegI=T DoRafI=F ISym2E= 0 IDoP0=0 IntGTp=1.
 FoFCou: FMM=F IPFlag=           0 FMFlag=      100000 FMFlg1=           0
         NFxFlg=           0 DoJE=T BraDBF=F KetDBF=F FulRan=T
         wScrn=  0.000000 ICntrl=       500 IOpCl=  0 I1Cent=           0 NGrid=           0
         NMat0=    1 NMatS0=      1 NMatT0=    0 NMatD0=    1 NMtDS0=    0 NMtDT0=    0
 Symmetry not used in FoFCou.
 Inv3:  Mode=1 IEnd=    65651052.
 Iteration    1 A*A^-1 deviation from unit magnitude is 5.77D-15 for   2716.
 Iteration    1 A*A^-1 deviation from orthogonality  is 3.83D-15 for   2715   2480.
 Iteration    1 A^-1*A deviation from unit magnitude is 4.88D-15 for   2482.
 Iteration    1 A^-1*A deviation from orthogonality  is 2.35D-15 for   2191    709.
 E= -466.589875268283    
 DIIS: error= 5.45D-02 at cycle   1 NSaved=   1.
 NSaved= 1 IEnMin= 1 EnMin= -466.589875268283     IErMin= 1 ErrMin= 5.45D-02
 ErrMax= 5.45D-02  0.00D+00 EMaxC= 1.00D-01 BMatC= 4.10D+00 BMatP= 4.10D+00
 IDIUse=3 WtCom= 4.55D-01 WtEn= 5.45D-01
 Coeff-Com:  0.100D+01
 Coeff-En:   0.100D+01
 Coeff:      0.100D+01
 Gap=     0.193 Goal=   None    Shift=    0.000
 Gap=     0.193 Goal=   None    Shift=    0.000
 GapD=    0.193 DampG=1.000 DampE=0.500 DampFc=0.5000 IDamp=-1.
 Damping current iteration by 5.00D-01
 RMSDP=1.65D-03 MaxDP=9.19D-02              OVMax= 2.76D-01

 Cycle   2  Pass 1  IDiag  1:
 RMSU=  8.03D-04    CP:  9.71D-01
 E= -466.685629372267     Delta-E=       -0.095754103983 Rises=F Damp=T
 DIIS: error= 2.59D-02 at cycle   2 NSaved=   2.
 NSaved= 2 IEnMin= 2 EnMin= -466.685629372267     IErMin= 2 ErrMin= 2.59D-02
 ErrMax= 2.59D-02  0.00D+00 EMaxC= 1.00D-01 BMatC= 9.30D-01 BMatP= 4.10D+00
 IDIUse=3 WtCom= 7.41D-01 WtEn= 2.59D-01
 Coeff-Com: -0.867D+00 0.187D+01
 Coeff-En:   0.000D+00 0.100D+01
 Coeff:     -0.643D+00 0.164D+01
 Gap=     0.252 Goal=   None    Shift=    0.000
 Gap=     0.252 Goal=   None    Shift=    0.000
 RMSDP=1.16D-03 MaxDP=4.91D-02 DE=-9.58D-02 OVMax= 1.25D-01

 Cycle   3  Pass 1  IDiag  1:
 RMSU=  6.25D-04    CP:  9.29D-01  2.17D+00
 E= -466.804179814682     Delta-E=       -0.118550442416 Rises=F Damp=F
 DIIS: error= 7.10D-03 at cycle   3 NSaved=   3.
 NSaved= 3 IEnMin= 3 EnMin= -466.804179814682     IErMin= 3 ErrMin= 7.10D-03
 ErrMax= 7.10D-03  0.00D+00 EMaxC= 1.00D-01 BMatC= 2.31D-02 BMatP= 9.30D-01
 IDIUse=3 WtCom= 9.29D-01 WtEn= 7.10D-02
 Coeff-Com: -0.320D+00 0.687D+00 0.633D+00
 Coeff-En:   0.000D+00 0.000D+00 0.100D+01
 Coeff:     -0.297D+00 0.638D+00 0.659D+00
 Gap=     0.268 Goal=   None    Shift=    0.000
 Gap=     0.268 Goal=   None    Shift=    0.000
 RMSDP=2.37D-04 MaxDP=1.60D-02 DE=-1.19D-01 OVMax= 6.50D-02

 Cycle   4  Pass 1  IDiag  1:
 RMSU=  2.19D-04    CP:  9.20D-01  2.26D+00  9.83D-01
 E= -466.814682080624     Delta-E=       -0.010502265942 Rises=F Damp=F
 DIIS: error= 5.04D-03 at cycle   4 NSaved=   4.
 NSaved= 4 IEnMin= 4 EnMin= -466.814682080624     IErMin= 4 ErrMin= 5.04D-03
 ErrMax= 5.04D-03  0.00D+00 EMaxC= 1.00D-01 BMatC= 2.10D-03 BMatP= 2.31D-02
 IDIUse=3 WtCom= 9.50D-01 WtEn= 5.04D-02
 Coeff-Com:  0.101D+00-0.218D+00-0.320D-01 0.115D+01
 Coeff-En:   0.000D+00 0.000D+00 0.000D+00 0.100D+01
 Coeff:      0.964D-01-0.207D+00-0.304D-01 0.114D+01
 Gap=     0.277 Goal=   None    Shift=    0.000
 Gap=     0.277 Goal=   None    Shift=    0.000
 RMSDP=2.31D-04 MaxDP=1.01D-02 DE=-1.05D-02 OVMax= 7.92D-02

 Cycle   5  Pass 1  IDiag  1:
 RMSU=  9.34D-05    CP:  9.14D-01  2.31D+00  1.22D+00  1.64D+00
 E= -466.819608956797     Delta-E=       -0.004926876173 Rises=F Damp=F
 DIIS: error= 2.92D-03 at cycle   5 NSaved=   5.
 NSaved= 5 IEnMin= 5 EnMin= -466.819608956797     IErMin= 5 ErrMin= 2.92D-03
 ErrMax= 2.92D-03  0.00D+00 EMaxC= 1.00D-01 BMatC= 1.09D-03 BMatP= 2.10D-03
 IDIUse=3 WtCom= 9.71D-01 WtEn= 2.92D-02
 Coeff-Com:  0.896D-01-0.193D+00-0.116D+00 0.475D+00 0.744D+00
 Coeff-En:   0.000D+00 0.000D+00 0.000D+00 0.000D+00 0.100D+01
 Coeff:      0.870D-01-0.187D+00-0.112D+00 0.461D+00 0.752D+00
 Gap=     0.281 Goal=   None    Shift=    0.000
 Gap=     0.281 Goal=   None    Shift=    0.000
 RMSDP=1.14D-04 MaxDP=6.08D-03 DE=-4.93D-03 OVMax= 4.06D-02

 Cycle   6  Pass 1  IDiag  1:
 RMSU=  3.83D-05    CP:  9.10D-01  2.32D+00  1.28D+00  2.03D+00  1.47D+00
 E= -466.821487950946     Delta-E=       -0.001878994149 Rises=F Damp=F
 DIIS: error= 2.02D-03 at cycle   6 NSaved=   6.
 NSaved= 6 IEnMin= 6 EnMin= -466.821487950946     IErMin= 6 ErrMin= 2.02D-03
 ErrMax= 2.02D-03  0.00D+00 EMaxC= 1.00D-01 BMatC= 5.41D-04 BMatP= 1.09D-03
 IDIUse=3 WtCom= 9.80D-01 WtEn= 2.02D-02
 Coeff-Com: -0.579D-01 0.124D+00 0.505D-01-0.433D+00 0.178D-01 0.130D+01
 Coeff-En:   0.000D+00 0.000D+00 0.000D+00 0.000D+00 0.000D+00 0.100D+01
 Coeff:     -0.568D-01 0.122D+00 0.495D-01-0.424D+00 0.175D-01 0.129D+01
 Gap=     0.278 Goal=   None    Shift=    0.000
 Gap=     0.278 Goal=   None    Shift=    0.000
 RMSDP=1.18D-04 MaxDP=5.32D-03 DE=-1.88D-03 OVMax= 4.39D-02

 Cycle   7  Pass 1  IDiag  1:
 RMSU=  3.12D-05    CP:  9.08D-01  2.31D+00  1.34D+00  2.38D+00  2.19D+00
                    CP:  1.93D+00
 E= -466.823183047092     Delta-E=       -0.001695096146 Rises=F Damp=F
 DIIS: error= 1.38D-03 at cycle   7 NSaved=   7.
 NSaved= 7 IEnMin= 7 EnMin= -466.823183047092     IErMin= 7 ErrMin= 1.38D-03
 ErrMax= 1.38D-03  0.00D+00 EMaxC= 1.00D-01 BMatC= 3.23D-04 BMatP= 5.41D-04
 IDIUse=3 WtCom= 9.86D-01 WtEn= 1.38D-02
 Coeff-Com: -0.161D-01 0.351D-01 0.443D-01 0.116D+00-0.447D+00-0.101D+01
 Coeff-Com:  0.228D+01
 Coeff-En:   0.000D+00 0.000D+00 0.000D+00 0.000D+00 0.000D+00 0.000D+00
 Coeff-En:   0.100D+01
 Coeff:     -0.158D-01 0.346D-01 0.437D-01 0.115D+00-0.441D+00-0.996D+00
 Coeff:      0.226D+01
 Gap=     0.276 Goal=   None    Shift=    0.000
 Gap=     0.276 Goal=   None    Shift=    0.000
 RMSDP=1.54D-04 MaxDP=6.29D-03 DE=-1.70D-03 OVMax= 5.98D-02

 Cycle   8  Pass 1  IDiag  1:
 RMSU=  3.54D-05    CP:  9.04D-01  2.30D+00  1.39D+00  2.76D+00  3.00D+00
                    CP:  3.00D+00  2.89D+00
 E= -466.824951418342     Delta-E=       -0.001768371250 Rises=F Damp=F
 DIIS: error= 8.27D-04 at cycle   8 NSaved=   8.
 NSaved= 8 IEnMin= 8 EnMin= -466.824951418342     IErMin= 8 ErrMin= 8.27D-04
 ErrMax= 8.27D-04  0.00D+00 EMaxC= 1.00D-01 BMatC= 1.47D-04 BMatP= 3.23D-04
 IDIUse=3 WtCom= 9.92D-01 WtEn= 8.27D-03
 Coeff-Com:  0.430D-01-0.927D-01-0.242D-01 0.434D+00-0.122D+00-0.139D+01
 Coeff-Com:  0.695D+00 0.146D+01
 Coeff-En:   0.000D+00 0.000D+00 0.000D+00 0.000D+00 0.000D+00 0.000D+00
 Coeff-En:   0.000D+00 0.100D+01
 Coeff:      0.427D-01-0.919D-01-0.240D-01 0.430D+00-0.121D+00-0.138D+01
 Coeff:      0.689D+00 0.145D+01
 Gap=     0.277 Goal=   None    Shift=    0.000
 Gap=     0.277 Goal=   None    Shift=    0.000
 RMSDP=1.43D-04 MaxDP=6.19D-03 DE=-1.77D-03 OVMax= 5.66D-02

 Cycle   9  Pass 1  IDiag  1:
 RMSU=  8.77D-05    CP:  9.01D-01  2.30D+00  1.44D+00  3.00D+00  3.00D+00
                    CP:  3.00D+00  3.00D+00  3.00D+00
 E= -466.825900855808     Delta-E=       -0.000949437466 Rises=F Damp=F
 DIIS: error= 4.10D-04 at cycle   9 NSaved=   9.
 NSaved= 9 IEnMin= 9 EnMin= -466.825900855808     IErMin= 9 ErrMin= 4.10D-04
 ErrMax= 4.10D-04  0.00D+00 EMaxC= 1.00D-01 BMatC= 4.68D-05 BMatP= 1.47D-04
 IDIUse=3 WtCom= 9.96D-01 WtEn= 4.10D-03
 Coeff-Com:  0.308D-01-0.663D-01-0.285D-01 0.214D+00 0.716D-01-0.436D+00
 Coeff-Com: -0.321D+00 0.673D+00 0.862D+00
 Coeff-En:   0.000D+00 0.000D+00 0.000D+00 0.000D+00 0.000D+00 0.000D+00
 Coeff-En:   0.000D+00 0.000D+00 0.100D+01
 Coeff:      0.307D-01-0.660D-01-0.283D-01 0.213D+00 0.713D-01-0.434D+00
 Coeff:     -0.320D+00 0.671D+00 0.862D+00
 Gap=     0.278 Goal=   None    Shift=    0.000
 Gap=     0.278 Goal=   None    Shift=    0.000
 RMSDP=6.13D-05 MaxDP=2.74D-03 DE=-9.49D-04 OVMax= 2.44D-02

 Cycle  10  Pass 1  IDiag  1:
 RMSU=  4.01D-05    CP:  9.00D-01  2.30D+00  1.46D+00  3.00D+00  3.00D+00
                    CP:  3.00D+00  3.00D+00  3.00D+00  1.50D+00
 E= -466.826095682634     Delta-E=       -0.000194826826 Rises=F Damp=F
 DIIS: error= 2.25D-04 at cycle  10 NSaved=  10.
 NSaved=10 IEnMin=10 EnMin= -466.826095682634     IErMin=10 ErrMin= 2.25D-04
 ErrMax= 2.25D-04  0.00D+00 EMaxC= 1.00D-01 BMatC= 9.31D-06 BMatP= 4.68D-05
 IDIUse=3 WtCom= 9.98D-01 WtEn= 2.25D-03
 Coeff-Com: -0.277D-02 0.608D-02-0.119D-02-0.577D-01 0.338D-01 0.254D+00
 Coeff-Com: -0.198D+00-0.352D+00 0.239D-01 0.129D+01
 Coeff-En:   0.000D+00 0.000D+00 0.000D+00 0.000D+00 0.000D+00 0.000D+00
 Coeff-En:   0.000D+00 0.000D+00 0.000D+00 0.100D+01
 Coeff:     -0.277D-02 0.606D-02-0.119D-02-0.576D-01 0.337D-01 0.253D+00
 Coeff:     -0.197D+00-0.352D+00 0.239D-01 0.129D+01
 Gap=     0.276 Goal=   None    Shift=    0.000
 Gap=     0.276 Goal=   None    Shift=    0.000
 RMSDP=4.67D-05 MaxDP=1.93D-03 DE=-1.95D-04 OVMax= 1.86D-02

 Cycle  11  Pass 1  IDiag  1:
 RMSU=  6.77D-06    CP:  8.99D-01  2.29D+00  1.47D+00  3.00D+00  3.00D+00
                    CP:  3.00D+00  3.00D+00  3.00D+00  1.87D+00  1.77D+00
 E= -466.826156011863     Delta-E=       -0.000060329229 Rises=F Damp=F
 DIIS: error= 5.89D-05 at cycle  11 NSaved=  11.
 NSaved=11 IEnMin=11 EnMin= -466.826156011863     IErMin=11 ErrMin= 5.89D-05
 ErrMax= 5.89D-05  0.00D+00 EMaxC= 1.00D-01 BMatC= 1.90D-06 BMatP= 9.31D-06
 IDIUse=1 WtCom= 1.00D+00 WtEn= 0.00D+00
 Coeff-Com: -0.378D-02 0.817D-02 0.255D-02-0.385D-01 0.365D-03 0.120D+00
 Coeff-Com: -0.114D-01-0.210D+00-0.132D+00 0.473D+00 0.791D+00
 Coeff:     -0.378D-02 0.817D-02 0.255D-02-0.385D-01 0.365D-03 0.120D+00
 Coeff:     -0.114D-01-0.210D+00-0.132D+00 0.473D+00 0.791D+00
 Gap=     0.276 Goal=   None    Shift=    0.000
 Gap=     0.276 Goal=   None    Shift=    0.000
 RMSDP=1.19D-05 MaxDP=4.60D-04 DE=-6.03D-05 OVMax= 4.69D-03

 Cycle  12  Pass 1  IDiag  1:
 RMSU=  2.55D-06    CP:  8.99D-01  2.29D+00  1.47D+00  3.00D+00  3.00D+00
                    CP:  3.00D+00  3.00D+00  3.00D+00  1.96D+00  1.96D+00
                    CP:  1.33D+00
 E= -466.826160103426     Delta-E=       -0.000004091563 Rises=F Damp=F
 DIIS: error= 1.88D-05 at cycle  12 NSaved=  12.
 NSaved=12 IEnMin=12 EnMin= -466.826160103426     IErMin=12 ErrMin= 1.88D-05
 ErrMax= 1.88D-05  0.00D+00 EMaxC= 1.00D-01 BMatC= 2.05D-07 BMatP= 1.90D-06
 IDIUse=1 WtCom= 1.00D+00 WtEn= 0.00D+00
 Coeff-Com:  0.213D-02-0.462D-02-0.126D-02 0.216D-01-0.269D-02-0.696D-01
 Coeff-Com:  0.303D-01 0.866D-01 0.179D-01-0.252D+00 0.255D-01 0.115D+01
 Coeff:      0.213D-02-0.462D-02-0.126D-02 0.216D-01-0.269D-02-0.696D-01
 Coeff:      0.303D-01 0.866D-01 0.179D-01-0.252D+00 0.255D-01 0.115D+01
 Gap=     0.276 Goal=   None    Shift=    0.000
 Gap=     0.276 Goal=   None    Shift=    0.000
 RMSDP=2.93D-06 MaxDP=1.72D-04 DE=-4.09D-06 OVMax= 8.54D-04

 Cycle  13  Pass 1  IDiag  1:
 RMSU=  1.03D-06    CP:  8.98D-01  2.29D+00  1.47D+00  3.00D+00  3.00D+00
                    CP:  3.00D+00  3.00D+00  3.00D+00  1.98D+00  1.99D+00
                    CP:  1.50D+00  1.62D+00
 E= -466.826160405877     Delta-E=       -0.000000302452 Rises=F Damp=F
 DIIS: error= 5.02D-06 at cycle  13 NSaved=  13.
 NSaved=13 IEnMin=13 EnMin= -466.826160405877     IErMin=13 ErrMin= 5.02D-06
 ErrMax= 5.02D-06  0.00D+00 EMaxC= 1.00D-01 BMatC= 1.86D-08 BMatP= 2.05D-07
 IDIUse=1 WtCom= 1.00D+00 WtEn= 0.00D+00
 Coeff-Com:  0.448D-03-0.965D-03-0.266D-03 0.458D-02-0.965D-03-0.160D-01
 Coeff-Com:  0.785D-02 0.227D-01 0.672D-02-0.744D-01-0.507D-01 0.194D+00
 Coeff-Com:  0.907D+00
 Coeff:      0.448D-03-0.965D-03-0.266D-03 0.458D-02-0.965D-03-0.160D-01
 Coeff:      0.785D-02 0.227D-01 0.672D-02-0.744D-01-0.507D-01 0.194D+00
 Coeff:      0.907D+00
 Gap=     0.276 Goal=   None    Shift=    0.000
 Gap=     0.276 Goal=   None    Shift=    0.000
 RMSDP=9.82D-07 MaxDP=4.60D-05 DE=-3.02D-07 OVMax= 3.59D-04

 Cycle  14  Pass 1  IDiag  1:
 RMSU=  3.42D-07    CP:  8.98D-01  2.29D+00  1.47D+00  3.00D+00  3.00D+00
                    CP:  3.00D+00  3.00D+00  3.00D+00  1.98D+00  2.01D+00
                    CP:  1.54D+00  1.66D+00  1.06D+00
 E= -466.826160438712     Delta-E=       -0.000000032834 Rises=F Damp=F
 DIIS: error= 2.40D-06 at cycle  14 NSaved=  14.
 NSaved=14 IEnMin=14 EnMin= -466.826160438712     IErMin=14 ErrMin= 2.40D-06
 ErrMax= 2.40D-06  0.00D+00 EMaxC= 1.00D-01 BMatC= 3.42D-09 BMatP= 1.86D-08
 IDIUse=1 WtCom= 1.00D+00 WtEn= 0.00D+00
 Coeff-Com: -0.155D-03 0.335D-03 0.134D-03-0.132D-02-0.205D-03 0.350D-02
 Coeff-Com:  0.657D-04-0.518D-02-0.272D-02 0.114D-01-0.260D-02-0.660D-01
 Coeff-Com:  0.372D-01 0.103D+01
 Coeff:     -0.155D-03 0.335D-03 0.134D-03-0.132D-02-0.205D-03 0.350D-02
 Coeff:      0.657D-04-0.518D-02-0.272D-02 0.114D-01-0.260D-02-0.660D-01
 Coeff:      0.372D-01 0.103D+01
 Gap=     0.276 Goal=   None    Shift=    0.000
 Gap=     0.276 Goal=   None    Shift=    0.000
 RMSDP=2.59D-07 MaxDP=1.25D-05 DE=-3.28D-08 OVMax= 7.98D-05

 Cycle  15  Pass 1  IDiag  1:
 RMSU=  1.05D-07    CP:  8.98D-01  2.29D+00  1.47D+00  3.00D+00  3.00D+00
                    CP:  3.00D+00  3.00D+00  3.00D+00  1.98D+00  2.01D+00
                    CP:  1.55D+00  1.65D+00  1.06D+00  1.41D+00
 E= -466.826160443211     Delta-E=       -0.000000004499 Rises=F Damp=F
 DIIS: error= 1.65D-06 at cycle  15 NSaved=  15.
 NSaved=15 IEnMin=15 EnMin= -466.826160443211     IErMin=15 ErrMin= 1.65D-06
 ErrMax= 1.65D-06  0.00D+00 EMaxC= 1.00D-01 BMatC= 1.25D-09 BMatP= 3.42D-09
 IDIUse=1 WtCom= 1.00D+00 WtEn= 0.00D+00
 Coeff-Com: -0.577D-04 0.124D-03 0.335D-04-0.602D-03 0.210D-03 0.219D-02
 Coeff-Com: -0.135D-02-0.360D-02-0.749D-03 0.148D-01 0.107D-01-0.436D-01
 Coeff-Com: -0.224D+00 0.104D+00 0.114D+01
 Coeff:     -0.577D-04 0.124D-03 0.335D-04-0.602D-03 0.210D-03 0.219D-02
 Coeff:     -0.135D-02-0.360D-02-0.749D-03 0.148D-01 0.107D-01-0.436D-01
 Coeff:     -0.224D+00 0.104D+00 0.114D+01
 Gap=     0.276 Goal=   None    Shift=    0.000
 Gap=     0.276 Goal=   None    Shift=    0.000
 RMSDP=1.14D-07 MaxDP=5.92D-06 DE=-4.50D-09 OVMax= 2.35D-05

 Cycle  16  Pass 1  IDiag  1:
 RMSU=  6.49D-08    CP:  8.98D-01  2.29D+00  1.47D+00  3.00D+00  3.00D+00
                    CP:  3.00D+00  3.00D+00  3.00D+00  1.98D+00  2.01D+00
                    CP:  1.55D+00  1.65D+00  1.09D+00  1.59D+00  1.56D+00
 E= -466.826160445245     Delta-E=       -0.000000002034 Rises=F Damp=F
 DIIS: error= 1.05D-06 at cycle  16 NSaved=  16.
 NSaved=16 IEnMin=16 EnMin= -466.826160445245     IErMin=16 ErrMin= 1.05D-06
 ErrMax= 1.05D-06  0.00D+00 EMaxC= 1.00D-01 BMatC= 3.68D-10 BMatP= 1.25D-09
 IDIUse=1 WtCom= 1.00D+00 WtEn= 0.00D+00
 Coeff-Com:  0.323D-06-0.908D-06 0.251D-05 0.109D-03 0.404D-04-0.228D-03
 Coeff-Com: -0.202D-03 0.593D-03 0.423D-03-0.118D-02 0.770D-03 0.828D-02
 Coeff-Com: -0.264D-01-0.249D+00 0.659D-01 0.120D+01
 Coeff:      0.323D-06-0.908D-06 0.251D-05 0.109D-03 0.404D-04-0.228D-03
 Coeff:     -0.202D-03 0.593D-03 0.423D-03-0.118D-02 0.770D-03 0.828D-02
 Coeff:     -0.264D-01-0.249D+00 0.659D-01 0.120D+01
 Gap=     0.276 Goal=   None    Shift=    0.000
 Gap=     0.276 Goal=   None    Shift=    0.000
 RMSDP=8.15D-08 MaxDP=3.66D-06 DE=-2.03D-09 OVMax= 1.85D-05

 Cycle  17  Pass 1  IDiag  1:
 RMSU=  3.24D-08    CP:  8.98D-01  2.29D+00  1.47D+00  3.00D+00  3.00D+00
                    CP:  3.00D+00  3.00D+00  3.00D+00  1.98D+00  2.01D+00
                    CP:  1.55D+00  1.66D+00  1.10D+00  1.62D+00  1.92D+00
                    CP:  1.82D+00
 E= -466.826160446015     Delta-E=       -0.000000000770 Rises=F Damp=F
 DIIS: error= 5.34D-07 at cycle  17 NSaved=  17.
 NSaved=17 IEnMin=17 EnMin= -466.826160446015     IErMin=17 ErrMin= 5.34D-07
 ErrMax= 5.34D-07  0.00D+00 EMaxC= 1.00D-01 BMatC= 9.57D-11 BMatP= 3.68D-10
 IDIUse=1 WtCom= 1.00D+00 WtEn= 0.00D+00
 Coeff-Com: -0.817D-05 0.179D-04 0.903D-05-0.409D-04-0.498D-04-0.446D-05
 Coeff-Com:  0.118D-03 0.458D-03 0.604D-04-0.314D-02-0.273D-02 0.120D-01
 Coeff-Com:  0.712D-01-0.486D-01-0.415D+00 0.123D+00 0.126D+01
 Coeff:     -0.817D-05 0.179D-04 0.903D-05-0.409D-04-0.498D-04-0.446D-05
 Coeff:      0.118D-03 0.458D-03 0.604D-04-0.314D-02-0.273D-02 0.120D-01
 Coeff:      0.712D-01-0.486D-01-0.415D+00 0.123D+00 0.126D+01
 Gap=     0.276 Goal=   None    Shift=    0.000
 Gap=     0.276 Goal=   None    Shift=    0.000
 RMSDP=5.66D-08 MaxDP=2.73D-06 DE=-7.70D-10 OVMax= 1.32D-05

 Cycle  18  Pass 1  IDiag  1:
 RMSU=  1.73D-08    CP:  8.98D-01  2.29D+00  1.47D+00  3.00D+00  3.00D+00
                    CP:  3.00D+00  3.00D+00  3.00D+00  1.98D+00  2.01D+00
                    CP:  1.55D+00  1.66D+00  1.10D+00  1.60D+00  2.15D+00
                    CP:  2.41D+00  1.51D+00
 E= -466.826160446225     Delta-E=       -0.000000000210 Rises=F Damp=F
 DIIS: error= 1.56D-07 at cycle  18 NSaved=  18.
 NSaved=18 IEnMin=18 EnMin= -466.826160446225     IErMin=18 ErrMin= 1.56D-07
 ErrMax= 1.56D-07  0.00D+00 EMaxC= 1.00D-01 BMatC= 1.16D-11 BMatP= 9.57D-11
 IDIUse=1 WtCom= 1.00D+00 WtEn= 0.00D+00
 Coeff-Com: -0.363D-05 0.786D-05 0.380D-05-0.379D-04-0.180D-04 0.494D-04
 Coeff-Com:  0.437D-04 0.465D-04-0.316D-04-0.667D-03-0.746D-03 0.292D-02
 Coeff-Com:  0.234D-01 0.139D-01-0.127D+00-0.107D+00 0.333D+00 0.862D+00
 Coeff:     -0.363D-05 0.786D-05 0.380D-05-0.379D-04-0.180D-04 0.494D-04
 Coeff:      0.437D-04 0.465D-04-0.316D-04-0.667D-03-0.746D-03 0.292D-02
 Coeff:      0.234D-01 0.139D-01-0.127D+00-0.107D+00 0.333D+00 0.862D+00
 Gap=     0.276 Goal=   None    Shift=    0.000
 Gap=     0.276 Goal=   None    Shift=    0.000
 RMSDP=1.47D-08 MaxDP=7.71D-07 DE=-2.10D-10 OVMax= 4.33D-06

 Cycle  19  Pass 1  IDiag  1:
 RMSU=  4.92D-09    CP:  8.98D-01  2.29D+00  1.47D+00  3.00D+00  3.00D+00
                    CP:  3.00D+00  3.00D+00  3.00D+00  1.98D+00  2.01D+00
                    CP:  1.55D+00  1.66D+00  1.10D+00  1.60D+00  2.18D+00
                    CP:  2.51D+00  1.66D+00  1.30D+00
 E= -466.826160446241     Delta-E=       -0.000000000016 Rises=F Damp=F
 DIIS: error= 6.88D-08 at cycle  19 NSaved=  19.
 NSaved=19 IEnMin=19 EnMin= -466.826160446241     IErMin=19 ErrMin= 6.88D-08
 ErrMax= 6.88D-08  0.00D+00 EMaxC= 1.00D-01 BMatC= 2.78D-12 BMatP= 1.16D-11
 IDIUse=1 WtCom= 1.00D+00 WtEn= 0.00D+00
 Coeff-Com: -0.964D-06 0.203D-05 0.120D-05-0.999D-05-0.241D-05 0.164D-04
 Coeff-Com:  0.195D-04-0.465D-04-0.401D-04 0.140D-03 0.116D-03-0.453D-03
 Coeff-Com: -0.158D-02 0.109D-01 0.148D-01-0.532D-01-0.775D-01 0.325D+00
 Coeff-Com:  0.781D+00
 Coeff:     -0.964D-06 0.203D-05 0.120D-05-0.999D-05-0.241D-05 0.164D-04
 Coeff:      0.195D-04-0.465D-04-0.401D-04 0.140D-03 0.116D-03-0.453D-03
 Coeff:     -0.158D-02 0.109D-01 0.148D-01-0.532D-01-0.775D-01 0.325D+00
 Coeff:      0.781D+00
 Gap=     0.276 Goal=   None    Shift=    0.000
 Gap=     0.276 Goal=   None    Shift=    0.000
 RMSDP=4.28D-09 MaxDP=2.35D-07 DE=-1.65D-11 OVMax= 1.20D-06

 Error on total polarization charges =  0.01115
 SCF Done:  E(UwB97XD) =  -466.826160446     A.U. after   19 cycles
            NFock= 19  Conv=0.43D-08     -V/T= 2.0054
 <Sx>= 0.0000 <Sy>= 0.0000 <Sz>= 0.0000 <S**2>= 0.0000 S= 0.0000
 <L.S>=  0.00000000000    
 KE= 4.643286785773D+02 PE=-2.460289458210D+03 EE= 8.399852884333D+02
 --------------------------------------------------------------------
 Variational PCM results
 =======================
 <psi(f)|   H    |psi(f)>                     (a.u.) =    -466.834012
 <psi(f)|H+V(f)/2|psi(f)>                     (a.u.) =    -466.835514
 Total free energy in solution:
 - with all non electrostatic terms           (a.u.) =    -466.826160
 --------------------------------------------------------------------
 (Polarized solute)-Solvent               (kcal/mol) =      -0.94
 --------------------------------------------------------------------
 Quantum repulsion energy                 (kcal/mol) =       5.87
 Total non electrostatic                  (kcal/mol) =       5.87
 --------------------------------------------------------------------
 Partition over spheres:
 Sphere  on Atom  Surface  Charge   GEl     GCav    GDR
    1               7.22   0.011   -0.05    0.00    0.00
    2               3.12   0.004   -0.02    0.00    0.00
    3               7.52  -0.010   -0.03    0.00    0.00
    4               2.23  -0.003   -0.01    0.00    0.00
    5               4.74   0.009   -0.06    0.00    0.00
    6               3.16   0.004   -0.02    0.00    0.00
    7               4.38  -0.006   -0.02    0.00    0.00
    8               2.22  -0.003   -0.01    0.00    0.00
    9               3.36   0.002    0.00    0.00    0.00
   10               6.29  -0.006   -0.01    0.00    0.00
   11               3.91  -0.003   -0.01    0.00    0.00
   12               7.01   0.011   -0.07    0.00    0.00
   13               7.50  -0.010   -0.03    0.00    0.00
   14               6.69   0.011   -0.05    0.00    0.00
   15               7.52  -0.010   -0.03    0.00    0.00
   16               3.48   0.001    0.00    0.00    0.00
   17               3.89  -0.004   -0.02    0.00    0.00
   18               7.41  -0.008   -0.03    0.00    0.00
   19               4.98   0.009   -0.06    0.00    0.00
   20               4.39  -0.006   -0.02    0.00    0.00
   21               7.04   0.011   -0.07    0.00    0.00
   22               7.52  -0.010   -0.03    0.00    0.00
   23               3.29   0.002    0.00    0.00    0.00
   24               4.02  -0.003   -0.01    0.00    0.00
   25               6.29  -0.006   -0.01    0.00    0.00
   26               3.30   0.001    0.00    0.00    0.00
   27               7.33  -0.008   -0.03    0.00    0.00
   28               4.08  -0.004   -0.02    0.00    0.00
 Added spheres:    74.56   0.013   -0.22    0.00    0.00
 --------------------------------------------------------------------
 After PCM corrections, the energy is  -466.826160446     a.u.
 --------------------------------------------------------------------
 Annihilation of the first spin contaminant:
 S**2 before annihilation     0.0000,   after    -0.0000
 Leave Link  502 at Tue Aug  4 10:05:18 2020, MaxMem=  6442450944 cpu:            8653.0 elap:             363.6
 (Enter /scratch/scicomp/CentOS/7.3.1611/Haswell/software/Gaussian/g16/l601.exe)
 Copying SCF densities to generalized density rwf, IOpCl= 1 IROHF=0.

 **********************************************************************

            Population analysis using the SCF Density.

 **********************************************************************

 Alpha  occ. eigenvalues --  -10.28428 -10.28427 -10.28272 -10.28271 -10.28034
 Alpha  occ. eigenvalues --  -10.28033 -10.28009 -10.28009 -10.27793 -10.27792
 Alpha  occ. eigenvalues --  -10.26980 -10.26979  -0.94680  -0.93340  -0.84799
 Alpha  occ. eigenvalues --   -0.84265  -0.83513  -0.83235  -0.71568  -0.70774
 Alpha  occ. eigenvalues --   -0.68440  -0.67679  -0.59864  -0.59775  -0.57698
 Alpha  occ. eigenvalues --   -0.56250  -0.53432  -0.52964  -0.50957  -0.50673
 Alpha  occ. eigenvalues --   -0.49732  -0.48820  -0.47571  -0.46867  -0.45932
 Alpha  occ. eigenvalues --   -0.44657  -0.41406  -0.40867  -0.39799  -0.39133
 Alpha  occ. eigenvalues --   -0.38983  -0.38289  -0.30463  -0.25676
 Alpha virt. eigenvalues --    0.01910   0.07104   0.11358   0.13290   0.14460
 Alpha virt. eigenvalues --    0.15317   0.15600   0.16611   0.16798   0.17018
 Alpha virt. eigenvalues --    0.17426   0.18042   0.18388   0.19390   0.20883
 Alpha virt. eigenvalues --    0.21985   0.22236   0.23667   0.24179   0.24813
 Alpha virt. eigenvalues --    0.25321   0.26050   0.26949   0.27266   0.28258
 Alpha virt. eigenvalues --    0.29431   0.29736   0.30293   0.31129   0.31241
 Alpha virt. eigenvalues --    0.31474   0.32458   0.33080   0.33494   0.34778
 Alpha virt. eigenvalues --    0.35129   0.35676   0.36506   0.36894   0.38078
 Alpha virt. eigenvalues --    0.38797   0.39421   0.42042   0.42428   0.43048
 Alpha virt. eigenvalues --    0.44438   0.44730   0.44780   0.45544   0.46268
 Alpha virt. eigenvalues --    0.47414   0.48372   0.49062   0.49238   0.49517
 Alpha virt. eigenvalues --    0.49548   0.49729   0.49927   0.50789   0.50862
 Alpha virt. eigenvalues --    0.51237   0.51397   0.52829   0.52951   0.53661
 Alpha virt. eigenvalues --    0.53790   0.55017   0.55252   0.56028   0.56254
 Alpha virt. eigenvalues --    0.57443   0.57973   0.58668   0.60050   0.60864
 Alpha virt. eigenvalues --    0.61300   0.61900   0.62391   0.64067   0.64272
 Alpha virt. eigenvalues --    0.66799   0.66961   0.68381   0.68898   0.69466
 Alpha virt. eigenvalues --    0.70648   0.72683   0.74034   0.76066   0.76870
 Alpha virt. eigenvalues --    0.77990   0.78799   0.79123   0.81010   0.82275
 Alpha virt. eigenvalues --    0.83485   0.84287   0.85450   0.85476   0.88188
 Alpha virt. eigenvalues --    0.89557   0.90964   0.92461   0.94234   0.94691
 Alpha virt. eigenvalues --    0.95569   0.97791   0.97977   0.99029   1.00399
 Alpha virt. eigenvalues --    1.02379   1.03126   1.04543   1.05365   1.05735
 Alpha virt. eigenvalues --    1.07620   1.08190   1.08787   1.09999   1.11669
 Alpha virt. eigenvalues --    1.12874   1.13587   1.15381   1.16863   1.17063
 Alpha virt. eigenvalues --    1.17721   1.19301   1.19544   1.19802   1.20006
 Alpha virt. eigenvalues --    1.20534   1.21795   1.24074   1.25717   1.26136
 Alpha virt. eigenvalues --    1.26591   1.27292   1.28522   1.29333   1.29763
 Alpha virt. eigenvalues --    1.30907   1.30952   1.33045   1.33214   1.33705
 Alpha virt. eigenvalues --    1.35127   1.35168   1.36982   1.38212   1.39288
 Alpha virt. eigenvalues --    1.39816   1.40238   1.40805   1.41488   1.42949
 Alpha virt. eigenvalues --    1.43075   1.43496   1.43530   1.44962   1.45412
 Alpha virt. eigenvalues --    1.45522   1.46050   1.48100   1.49127   1.49313
 Alpha virt. eigenvalues --    1.50944   1.53064   1.53895   1.57093   1.57303
 Alpha virt. eigenvalues --    1.58122   1.59350   1.60497   1.60949   1.62304
 Alpha virt. eigenvalues --    1.63906   1.64784   1.65028   1.66180   1.68372
 Alpha virt. eigenvalues --    1.69445   1.72362   1.76582   1.76602   1.76871
 Alpha virt. eigenvalues --    1.80263   1.82305   1.82568   1.84828   1.86198
 Alpha virt. eigenvalues --    1.89117   1.90048   1.90790   1.93824   1.93919
 Alpha virt. eigenvalues --    1.95317   1.97138   1.97516   2.01341   2.01583
 Alpha virt. eigenvalues --    2.05179   2.06012   2.08952   2.11722   2.12504
 Alpha virt. eigenvalues --    2.12784   2.14990   2.16133   2.17163   2.18883
 Alpha virt. eigenvalues --    2.18892   2.19436   2.19885   2.24316   2.24610
 Alpha virt. eigenvalues --    2.24877   2.25522   2.26283   2.29871   2.32295
 Alpha virt. eigenvalues --    2.36582   2.36673   2.39142   2.41482   2.43218
 Alpha virt. eigenvalues --    2.44607   2.47495   2.48115   2.48242   2.50328
 Alpha virt. eigenvalues --    2.50454   2.52194   2.52803   2.54900   2.57086
 Alpha virt. eigenvalues --    2.59681   2.60885   2.61616   2.62839   2.62915
 Alpha virt. eigenvalues --    2.64817   2.64950   2.65529   2.67234   2.68389
 Alpha virt. eigenvalues --    2.69575   2.70666   2.71741   2.72902   2.74857
 Alpha virt. eigenvalues --    2.75215   2.75287   2.75741   2.75872   2.77196
 Alpha virt. eigenvalues --    2.79641   2.80111   2.81380   2.82100   2.82507
 Alpha virt. eigenvalues --    2.82517   2.83881   2.84535   2.84609   2.86054
 Alpha virt. eigenvalues --    2.86512   2.88450   2.88809   2.90022   2.91809
 Alpha virt. eigenvalues --    2.92758   2.94072   2.94966   2.95071   2.97252
 Alpha virt. eigenvalues --    2.97793   2.98395   2.99831   3.00585   3.00772
 Alpha virt. eigenvalues --    3.01740   3.02365   3.04218   3.04432   3.07179
 Alpha virt. eigenvalues --    3.07238   3.08508   3.09507   3.10862   3.11234
 Alpha virt. eigenvalues --    3.12009   3.12747   3.13564   3.14795   3.15894
 Alpha virt. eigenvalues --    3.15907   3.16500   3.17429   3.17724   3.19963
 Alpha virt. eigenvalues --    3.20380   3.20814   3.20965   3.21864   3.22707
 Alpha virt. eigenvalues --    3.23720   3.23874   3.23972   3.25532   3.25609
 Alpha virt. eigenvalues --    3.25880   3.27959   3.28026   3.28879   3.29721
 Alpha virt. eigenvalues --    3.30131   3.31059   3.31848   3.31917   3.33690
 Alpha virt. eigenvalues --    3.33799   3.34344   3.35949   3.36640   3.37113
 Alpha virt. eigenvalues --    3.37442   3.38255   3.39455   3.42199   3.42296
 Alpha virt. eigenvalues --    3.44185   3.44276   3.45118   3.45852   3.46890
 Alpha virt. eigenvalues --    3.47725   3.47889   3.47992   3.48705   3.49610
 Alpha virt. eigenvalues --    3.51721   3.52342   3.52790   3.53104   3.54838
 Alpha virt. eigenvalues --    3.55584   3.56609   3.57280   3.58062   3.60476
 Alpha virt. eigenvalues --    3.62365   3.62931   3.63471   3.63980   3.64120
 Alpha virt. eigenvalues --    3.65213   3.67873   3.68555   3.70548   3.70874
 Alpha virt. eigenvalues --    3.71589   3.72940   3.74655   3.79063   3.79349
 Alpha virt. eigenvalues --    3.81090   3.81227   3.82596   3.83208   3.83999
 Alpha virt. eigenvalues --    3.84581   3.86542   3.89046   3.90587   3.90701
 Alpha virt. eigenvalues --    3.92641   3.94950   3.96686   4.00380   4.01104
 Alpha virt. eigenvalues --    4.02839   4.04727   4.06246   4.06369   4.09588
 Alpha virt. eigenvalues --    4.09594   4.11660   4.13006   4.13132   4.14148
 Alpha virt. eigenvalues --    4.15067   4.16127   4.18267   4.18883   4.20659
 Alpha virt. eigenvalues --    4.21447   4.23087   4.25142   4.28347   4.28639
 Alpha virt. eigenvalues --    4.30383   4.32163   4.32786   4.33735   4.38327
 Alpha virt. eigenvalues --    4.39021   4.39948   4.41824   4.44061   4.48689
 Alpha virt. eigenvalues --    4.48941   4.49825   4.50683   4.54559   4.55186
 Alpha virt. eigenvalues --    4.57072   4.61044   4.62206   4.68042   4.68549
 Alpha virt. eigenvalues --    4.71373   4.73125   4.73995   4.76630   4.79093
 Alpha virt. eigenvalues --    4.81278   4.82650   4.83072   4.86060   4.87295
 Alpha virt. eigenvalues --    4.90468   4.91506   4.93820   4.93968   4.97752
 Alpha virt. eigenvalues --    4.98962   5.05642   5.06920   5.11706   5.12117
 Alpha virt. eigenvalues --    5.17770   5.20346   5.21536   5.22610   5.25172
 Alpha virt. eigenvalues --    5.28288   5.36320   5.38384   5.40551   5.42587
 Alpha virt. eigenvalues --    5.46498   5.46556   5.51732   5.57110   5.71686
 Alpha virt. eigenvalues --    5.72632   5.76639   5.77970   5.96828   6.02367
 Alpha virt. eigenvalues --    7.95473   7.95881   8.03755   8.03975   8.05564
 Alpha virt. eigenvalues --    8.10137   8.11531   8.14860   8.19457   8.19740
 Alpha virt. eigenvalues --    8.35160   8.38631  34.77849  34.78001  34.81631
 Alpha virt. eigenvalues --   34.81672  34.85098  34.91991  34.97539  35.00229
 Alpha virt. eigenvalues --   35.02834  35.03621  35.17390  35.20356
  Beta  occ. eigenvalues --  -10.28428 -10.28427 -10.28272 -10.28271 -10.28034
  Beta  occ. eigenvalues --  -10.28033 -10.28009 -10.28009 -10.27793 -10.27792
  Beta  occ. eigenvalues --  -10.26980 -10.26979  -0.94680  -0.93340  -0.84799
  Beta  occ. eigenvalues --   -0.84265  -0.83513  -0.83235  -0.71568  -0.70774
  Beta  occ. eigenvalues --   -0.68440  -0.67679  -0.59864  -0.59775  -0.57698
  Beta  occ. eigenvalues --   -0.56250  -0.53432  -0.52964  -0.50957  -0.50673
  Beta  occ. eigenvalues --   -0.49732  -0.48820  -0.47571  -0.46867  -0.45932
  Beta  occ. eigenvalues --   -0.44657  -0.41406  -0.40867  -0.39799  -0.39133
  Beta  occ. eigenvalues --   -0.38983  -0.38289  -0.30463  -0.25676
  Beta virt. eigenvalues --    0.01910   0.07104   0.11358   0.13290   0.14460
  Beta virt. eigenvalues --    0.15317   0.15600   0.16611   0.16798   0.17018
  Beta virt. eigenvalues --    0.17426   0.18042   0.18388   0.19390   0.20883
  Beta virt. eigenvalues --    0.21985   0.22236   0.23667   0.24179   0.24813
  Beta virt. eigenvalues --    0.25321   0.26050   0.26949   0.27266   0.28258
  Beta virt. eigenvalues --    0.29431   0.29736   0.30293   0.31129   0.31241
  Beta virt. eigenvalues --    0.31474   0.32458   0.33080   0.33494   0.34778
  Beta virt. eigenvalues --    0.35129   0.35676   0.36506   0.36894   0.38078
  Beta virt. eigenvalues --    0.38797   0.39421   0.42042   0.42428   0.43048
  Beta virt. eigenvalues --    0.44438   0.44730   0.44780   0.45544   0.46268
  Beta virt. eigenvalues --    0.47414   0.48372   0.49062   0.49238   0.49517
  Beta virt. eigenvalues --    0.49548   0.49729   0.49927   0.50789   0.50862
  Beta virt. eigenvalues --    0.51237   0.51397   0.52829   0.52951   0.53661
  Beta virt. eigenvalues --    0.53790   0.55017   0.55252   0.56028   0.56254
  Beta virt. eigenvalues --    0.57443   0.57973   0.58668   0.60050   0.60864
  Beta virt. eigenvalues --    0.61300   0.61900   0.62391   0.64067   0.64272
  Beta virt. eigenvalues --    0.66799   0.66961   0.68381   0.68898   0.69466
  Beta virt. eigenvalues --    0.70648   0.72683   0.74034   0.76066   0.76870
  Beta virt. eigenvalues --    0.77990   0.78799   0.79123   0.81010   0.82275
  Beta virt. eigenvalues --    0.83485   0.84287   0.85450   0.85476   0.88188
  Beta virt. eigenvalues --    0.89557   0.90964   0.92461   0.94234   0.94691
  Beta virt. eigenvalues --    0.95569   0.97791   0.97977   0.99029   1.00399
  Beta virt. eigenvalues --    1.02379   1.03126   1.04543   1.05365   1.05735
  Beta virt. eigenvalues --    1.07620   1.08190   1.08787   1.09999   1.11669
  Beta virt. eigenvalues --    1.12874   1.13587   1.15381   1.16863   1.17063
  Beta virt. eigenvalues --    1.17721   1.19301   1.19544   1.19802   1.20006
  Beta virt. eigenvalues --    1.20534   1.21795   1.24074   1.25717   1.26136
  Beta virt. eigenvalues --    1.26591   1.27292   1.28522   1.29333   1.29763
  Beta virt. eigenvalues --    1.30907   1.30952   1.33045   1.33214   1.33705
  Beta virt. eigenvalues --    1.35127   1.35168   1.36982   1.38212   1.39288
  Beta virt. eigenvalues --    1.39816   1.40238   1.40805   1.41488   1.42949
  Beta virt. eigenvalues --    1.43075   1.43496   1.43530   1.44962   1.45412
  Beta virt. eigenvalues --    1.45522   1.46050   1.48100   1.49127   1.49313
  Beta virt. eigenvalues --    1.50944   1.53064   1.53895   1.57093   1.57303
  Beta virt. eigenvalues --    1.58122   1.59350   1.60497   1.60949   1.62304
  Beta virt. eigenvalues --    1.63906   1.64784   1.65028   1.66180   1.68372
  Beta virt. eigenvalues --    1.69445   1.72362   1.76582   1.76602   1.76871
  Beta virt. eigenvalues --    1.80263   1.82305   1.82568   1.84828   1.86198
  Beta virt. eigenvalues --    1.89117   1.90048   1.90790   1.93824   1.93919
  Beta virt. eigenvalues --    1.95317   1.97138   1.97516   2.01341   2.01583
  Beta virt. eigenvalues --    2.05179   2.06012   2.08952   2.11722   2.12504
  Beta virt. eigenvalues --    2.12784   2.14990   2.16133   2.17163   2.18883
  Beta virt. eigenvalues --    2.18892   2.19436   2.19885   2.24316   2.24610
  Beta virt. eigenvalues --    2.24877   2.25522   2.26283   2.29871   2.32295
  Beta virt. eigenvalues --    2.36582   2.36673   2.39142   2.41482   2.43218
  Beta virt. eigenvalues --    2.44607   2.47495   2.48115   2.48242   2.50328
  Beta virt. eigenvalues --    2.50454   2.52194   2.52803   2.54900   2.57086
  Beta virt. eigenvalues --    2.59681   2.60885   2.61616   2.62839   2.62915
  Beta virt. eigenvalues --    2.64817   2.64950   2.65529   2.67234   2.68389
  Beta virt. eigenvalues --    2.69575   2.70666   2.71741   2.72902   2.74857
  Beta virt. eigenvalues --    2.75215   2.75287   2.75741   2.75872   2.77196
  Beta virt. eigenvalues --    2.79641   2.80111   2.81380   2.82100   2.82507
  Beta virt. eigenvalues --    2.82517   2.83881   2.84535   2.84609   2.86054
  Beta virt. eigenvalues --    2.86512   2.88450   2.88809   2.90022   2.91809
  Beta virt. eigenvalues --    2.92758   2.94072   2.94966   2.95071   2.97252
  Beta virt. eigenvalues --    2.97793   2.98395   2.99831   3.00585   3.00772
  Beta virt. eigenvalues --    3.01740   3.02365   3.04218   3.04432   3.07179
  Beta virt. eigenvalues --    3.07238   3.08508   3.09507   3.10862   3.11234
  Beta virt. eigenvalues --    3.12009   3.12747   3.13564   3.14795   3.15894
  Beta virt. eigenvalues --    3.15907   3.16500   3.17429   3.17724   3.19963
  Beta virt. eigenvalues --    3.20380   3.20814   3.20965   3.21864   3.22707
  Beta virt. eigenvalues --    3.23720   3.23874   3.23972   3.25532   3.25609
  Beta virt. eigenvalues --    3.25880   3.27959   3.28026   3.28879   3.29721
  Beta virt. eigenvalues --    3.30131   3.31059   3.31848   3.31917   3.33690
  Beta virt. eigenvalues --    3.33799   3.34344   3.35949   3.36640   3.37113
  Beta virt. eigenvalues --    3.37442   3.38255   3.39455   3.42199   3.42296
  Beta virt. eigenvalues --    3.44185   3.44276   3.45118   3.45852   3.46890
  Beta virt. eigenvalues --    3.47725   3.47889   3.47992   3.48705   3.49610
  Beta virt. eigenvalues --    3.51721   3.52342   3.52790   3.53104   3.54838
  Beta virt. eigenvalues --    3.55584   3.56609   3.57280   3.58062   3.60476
  Beta virt. eigenvalues --    3.62365   3.62931   3.63471   3.63980   3.64120
  Beta virt. eigenvalues --    3.65213   3.67873   3.68555   3.70548   3.70874
  Beta virt. eigenvalues --    3.71589   3.72940   3.74655   3.79063   3.79349
  Beta virt. eigenvalues --    3.81090   3.81227   3.82596   3.83208   3.83999
  Beta virt. eigenvalues --    3.84581   3.86542   3.89046   3.90587   3.90701
  Beta virt. eigenvalues --    3.92641   3.94950   3.96686   4.00380   4.01104
  Beta virt. eigenvalues --    4.02839   4.04727   4.06246   4.06369   4.09588
  Beta virt. eigenvalues --    4.09594   4.11660   4.13006   4.13132   4.14148
  Beta virt. eigenvalues --    4.15067   4.16127   4.18267   4.18883   4.20659
  Beta virt. eigenvalues --    4.21447   4.23087   4.25142   4.28347   4.28639
  Beta virt. eigenvalues --    4.30383   4.32163   4.32786   4.33735   4.38327
  Beta virt. eigenvalues --    4.39021   4.39948   4.41824   4.44061   4.48689
  Beta virt. eigenvalues --    4.48941   4.49825   4.50683   4.54559   4.55186
  Beta virt. eigenvalues --    4.57072   4.61044   4.62206   4.68042   4.68549
  Beta virt. eigenvalues --    4.71373   4.73125   4.73995   4.76630   4.79093
  Beta virt. eigenvalues --    4.81278   4.82650   4.83072   4.86060   4.87295
  Beta virt. eigenvalues --    4.90468   4.91506   4.93820   4.93968   4.97752
  Beta virt. eigenvalues --    4.98962   5.05642   5.06920   5.11706   5.12117
  Beta virt. eigenvalues --    5.17770   5.20346   5.21536   5.22610   5.25172
  Beta virt. eigenvalues --    5.28288   5.36320   5.38384   5.40551   5.42587
  Beta virt. eigenvalues --    5.46498   5.46556   5.51732   5.57110   5.71686
  Beta virt. eigenvalues --    5.72632   5.76639   5.77970   5.96828   6.02367
  Beta virt. eigenvalues --    7.95473   7.95881   8.03755   8.03975   8.05564
  Beta virt. eigenvalues --    8.10137   8.11531   8.14860   8.19457   8.19740
  Beta virt. eigenvalues --    8.35160   8.38631  34.77849  34.78001  34.81631
  Beta virt. eigenvalues --   34.81672  34.85098  34.91991  34.97539  35.00229
  Beta virt. eigenvalues --   35.02834  35.03621  35.17390  35.20356
          Condensed to atoms (all electrons):
               1          2          3          4          5          6
     1  C    5.165195  -0.008836   0.424182  -0.002070   0.001952  -0.010478
     2  C   -0.008836   5.428747  -0.002180   0.425127  -0.080536   0.004862
     3  H    0.424182  -0.002180   0.490919   0.000031  -0.000044   0.000040
     4  H   -0.002070   0.425127   0.000031   0.459583  -0.017604  -0.001222
     5  C    0.001952  -0.080536  -0.000044  -0.017604   5.236151   0.480515
     6  C   -0.010478   0.004862   0.000040  -0.001222   0.480515   5.427494
     7  H    0.000197  -0.003511   0.000001   0.000038   0.434788  -0.030749
     8  H   -0.001385  -0.001176  -0.000104   0.000267  -0.030177   0.425095
     9  C    0.002935  -0.022414  -0.000011  -0.004547  -0.059656   0.205113
    10  H   -0.000041   0.002794  -0.000001  -0.000469  -0.007345  -0.047375
    11  H    0.000101  -0.008832   0.000004   0.000716   0.010631  -0.060711
    12  C   -0.000207   0.020193   0.000001   0.005926   0.272676  -0.056753
    13  H   -0.000001   0.000211   0.000000   0.000052  -0.035277   0.004828
    14  C    0.000158  -0.010494  -0.000000  -0.001364  -0.038901  -0.008539
    15  H   -0.000000   0.000042  -0.000000  -0.000106   0.006471  -0.002211
    16  C   -0.000558   0.018827   0.000000   0.000552  -0.001349  -0.058724
    17  H    0.000001   0.001480  -0.000000  -0.004734   0.010180  -0.005302
    18  H    0.000003   0.000123   0.000000   0.000488  -0.003631   0.012765
    19  C   -0.038944   0.479937   0.006420  -0.030140  -0.032812  -0.080469
    20  H    0.004240  -0.031232  -0.000101  -0.004460   0.000104  -0.003489
    21  C    0.561223  -0.056590  -0.030911   0.004529   0.004253   0.020143
    22  H   -0.025279   0.004738  -0.005663  -0.000056   0.000050   0.000213
    23  C   -0.082374   0.204646   0.005093  -0.010789   0.014001  -0.022387
    24  H    0.013512  -0.060618  -0.000061  -0.004049   0.001080  -0.008844
    25  H    0.004476  -0.047530  -0.000022  -0.001680   0.000784   0.002802
    26  C    0.268545  -0.058851  -0.028419   0.004587  -0.011878   0.018859
    27  H   -0.036940   0.012825  -0.004264  -0.000052   0.000384   0.000121
    28  H   -0.033769  -0.005354   0.000809  -0.000188  -0.004188   0.001498
               7          8          9         10         11         12
     1  C    0.000197  -0.001385   0.002935  -0.000041   0.000101  -0.000207
     2  C   -0.003511  -0.001176  -0.022414   0.002794  -0.008832   0.020193
     3  H    0.000001  -0.000104  -0.000011  -0.000001   0.000004   0.000001
     4  H    0.000038   0.000267  -0.004547  -0.000469   0.000716   0.005926
     5  C    0.434788  -0.030177  -0.059656  -0.007345   0.010631   0.272676
     6  C   -0.030749   0.425095   0.205113  -0.047375  -0.060711  -0.056753
     7  H    0.476872  -0.004468   0.002964  -0.000147   0.000004  -0.032826
     8  H   -0.004468   0.459724  -0.010794  -0.001672  -0.004061   0.004547
     9  C    0.002964  -0.010794   5.008533   0.399786   0.469073   0.035999
    10  H   -0.000147  -0.001672   0.399786   0.567795  -0.019836   0.000775
    11  H    0.000004  -0.004061   0.469073  -0.019836   0.522127  -0.005199
    12  C   -0.032826   0.004547   0.035999   0.000775  -0.005199   5.035132
    13  H   -0.003278  -0.000055   0.000166  -0.000086   0.000024   0.423914
    14  C    0.004265  -0.002079  -0.082596   0.004382   0.013538   0.560687
    15  H   -0.000101   0.000030   0.005107  -0.000024  -0.000061  -0.031270
    16  C   -0.001192   0.004602   0.329525  -0.022826  -0.057373  -0.051370
    17  H    0.000012  -0.000188  -0.027790   0.006235  -0.006708  -0.013152
    18  H    0.000030  -0.000052  -0.045414  -0.009425  -0.000915   0.005908
    19  C    0.000107  -0.017599   0.013973   0.000793   0.001064   0.004240
    20  H    0.000006   0.000037   0.003476   0.000380  -0.002960  -0.000113
    21  C   -0.000112   0.005918  -0.004105  -0.000143  -0.000059  -0.000473
    22  H   -0.000001   0.000051  -0.000101  -0.000001  -0.000023  -0.000001
    23  C    0.003491  -0.004584   0.002769  -0.000091   0.000334  -0.004106
    24  H   -0.002987   0.000717   0.000333  -0.000029  -0.000009  -0.000054
    25  H    0.000380  -0.000469  -0.000090   0.000013  -0.000029  -0.000143
    26  C   -0.001820   0.000574  -0.001468   0.000048  -0.000130   0.001365
    27  H   -0.000014   0.000490   0.000008  -0.000000  -0.000000  -0.000039
    28  H    0.001920  -0.004715   0.000457   0.000013  -0.000001   0.000314
              13         14         15         16         17         18
     1  C   -0.000001   0.000158  -0.000000  -0.000558   0.000001   0.000003
     2  C    0.000211  -0.010494   0.000042   0.018827   0.001480   0.000123
     3  H    0.000000  -0.000000  -0.000000   0.000000  -0.000000   0.000000
     4  H    0.000052  -0.001364  -0.000106   0.000552  -0.004734   0.000488
     5  C   -0.035277  -0.038901   0.006471  -0.001349   0.010180  -0.003631
     6  C    0.004828  -0.008539  -0.002211  -0.058724  -0.005302   0.012765
     7  H   -0.003278   0.004265  -0.000101  -0.001192   0.000012   0.000030
     8  H   -0.000055  -0.002079   0.000030   0.004602  -0.000188  -0.000052
     9  C    0.000166  -0.082596   0.005107   0.329525  -0.027790  -0.045414
    10  H   -0.000086   0.004382  -0.000024  -0.022826   0.006235  -0.009425
    11  H    0.000024   0.013538  -0.000061  -0.057373  -0.006708  -0.000915
    12  C    0.423914   0.560687  -0.031270  -0.051370  -0.013152   0.005908
    13  H    0.489388  -0.025099  -0.005677   0.003923  -0.000385  -0.000087
    14  C   -0.025099   5.165482   0.424518   0.268549  -0.033812  -0.036820
    15  H   -0.005677   0.424518   0.491007  -0.028421   0.000802  -0.004246
    16  C    0.003923   0.268549  -0.028421   4.968906   0.399745   0.435445
    17  H   -0.000385  -0.033812   0.000802   0.399745   0.576704  -0.021800
    18  H   -0.000087  -0.036820  -0.004246   0.435445  -0.021800   0.536428
    19  C    0.000050   0.001964  -0.000044  -0.011886  -0.004175   0.000385
    20  H   -0.000001   0.000196   0.000001  -0.001808   0.001920  -0.000014
    21  C   -0.000001  -0.000209   0.000001   0.001368   0.000316  -0.000039
    22  H    0.000000  -0.000001   0.000000   0.000011  -0.000000  -0.000001
    23  C   -0.000098   0.002933  -0.000011  -0.001464   0.000454   0.000007
    24  H   -0.000024   0.000098   0.000004  -0.000130  -0.000001  -0.000000
    25  H   -0.000001  -0.000041  -0.000001   0.000048   0.000013  -0.000000
    26  C    0.000011  -0.000558   0.000000   0.000661  -0.000002  -0.000003
    27  H   -0.000001   0.000003   0.000000  -0.000003   0.000001  -0.000000
    28  H    0.000000   0.000001  -0.000000  -0.000002  -0.000011   0.000001
              19         20         21         22         23         24
     1  C   -0.038944   0.004240   0.561223  -0.025279  -0.082374   0.013512
     2  C    0.479937  -0.031232  -0.056590   0.004738   0.204646  -0.060618
     3  H    0.006420  -0.000101  -0.030911  -0.005663   0.005093  -0.000061
     4  H   -0.030140  -0.004460   0.004529  -0.000056  -0.010789  -0.004049
     5  C   -0.032812   0.000104   0.004253   0.000050   0.014001   0.001080
     6  C   -0.080469  -0.003489   0.020143   0.000213  -0.022387  -0.008844
     7  H    0.000107   0.000006  -0.000112  -0.000001   0.003491  -0.002987
     8  H   -0.017599   0.000037   0.005918   0.000051  -0.004584   0.000717
     9  C    0.013973   0.003476  -0.004105  -0.000101   0.002769   0.000333
    10  H    0.000793   0.000380  -0.000143  -0.000001  -0.000091  -0.000029
    11  H    0.001064  -0.002960  -0.000059  -0.000023   0.000334  -0.000009
    12  C    0.004240  -0.000113  -0.000473  -0.000001  -0.004106  -0.000054
    13  H    0.000050  -0.000001  -0.000001   0.000000  -0.000098  -0.000024
    14  C    0.001964   0.000196  -0.000209  -0.000001   0.002933   0.000098
    15  H   -0.000044   0.000001   0.000001   0.000000  -0.000011   0.000004
    16  C   -0.011886  -0.001808   0.001368   0.000011  -0.001464  -0.000130
    17  H   -0.004175   0.001920   0.000316  -0.000000   0.000454  -0.000001
    18  H    0.000385  -0.000014  -0.000039  -0.000001   0.000007  -0.000000
    19  C    5.235954   0.435164   0.273087  -0.035123  -0.059364   0.010591
    20  H    0.435164   0.476874  -0.032717  -0.003279   0.002958   0.000003
    21  C    0.273087  -0.032717   5.034301   0.424041   0.035974  -0.005186
    22  H   -0.035123  -0.003279   0.424041   0.489328   0.000167   0.000024
    23  C   -0.059364   0.002958   0.035974   0.000167   5.008782   0.468962
    24  H    0.010591   0.000003  -0.005186   0.000024   0.468962   0.522072
    25  H   -0.007292  -0.000146   0.000706  -0.000086   0.399977  -0.019846
    26  C   -0.001173  -0.001182  -0.051566   0.003919   0.329407  -0.057273
    27  H   -0.003668   0.000030   0.006005  -0.000086  -0.045466  -0.000923
    28  H    0.010191   0.000012  -0.013194  -0.000385  -0.027725  -0.006703
              25         26         27         28
     1  C    0.004476   0.268545  -0.036940  -0.033769
     2  C   -0.047530  -0.058851   0.012825  -0.005354
     3  H   -0.000022  -0.028419  -0.004264   0.000809
     4  H   -0.001680   0.004587  -0.000052  -0.000188
     5  C    0.000784  -0.011878   0.000384  -0.004188
     6  C    0.002802   0.018859   0.000121   0.001498
     7  H    0.000380  -0.001820  -0.000014   0.001920
     8  H   -0.000469   0.000574   0.000490  -0.004715
     9  C   -0.000090  -0.001468   0.000008   0.000457
    10  H    0.000013   0.000048  -0.000000   0.000013
    11  H   -0.000029  -0.000130  -0.000000  -0.000001
    12  C   -0.000143   0.001365  -0.000039   0.000314
    13  H   -0.000001   0.000011  -0.000001   0.000000
    14  C   -0.000041  -0.000558   0.000003   0.000001
    15  H   -0.000001   0.000000   0.000000  -0.000000
    16  C    0.000048   0.000661  -0.000003  -0.000002
    17  H    0.000013  -0.000002   0.000001  -0.000011
    18  H   -0.000000  -0.000003  -0.000000   0.000001
    19  C   -0.007292  -0.001173  -0.003668   0.010191
    20  H   -0.000146  -0.001182   0.000030   0.000012
    21  C    0.000706  -0.051566   0.006005  -0.013194
    22  H   -0.000086   0.003919  -0.000086  -0.000385
    23  C    0.399977   0.329407  -0.045466  -0.027725
    24  H   -0.019846  -0.057273  -0.000923  -0.006703
    25  H    0.567713  -0.022967  -0.009418   0.006234
    26  C   -0.022967   4.969255   0.435547   0.399685
    27  H   -0.009418   0.435547   0.536287  -0.021812
    28  H    0.006234   0.399685  -0.021812   0.576673
          Atomic-Atomic Spin Densities.
               1          2          3          4          5          6
     1  C   -0.000000   0.000000   0.000000  -0.000000  -0.000000  -0.000000
     2  C    0.000000   0.000001   0.000000  -0.000000  -0.000000  -0.000000
     3  H    0.000000   0.000000  -0.000000   0.000000   0.000000   0.000000
     4  H   -0.000000  -0.000000   0.000000   0.000000   0.000000   0.000000
     5  C   -0.000000  -0.000000   0.000000   0.000000   0.000001  -0.000000
     6  C   -0.000000  -0.000000   0.000000   0.000000  -0.000000  -0.000000
     7  H    0.000000  -0.000000  -0.000000  -0.000000   0.000000  -0.000000
     8  H    0.000000  -0.000000   0.000000   0.000000   0.000000   0.000000
     9  C    0.000000  -0.000000  -0.000000  -0.000000   0.000000  -0.000000
    10  H   -0.000000   0.000000  -0.000000  -0.000000  -0.000000  -0.000000
    11  H   -0.000000  -0.000000   0.000000   0.000000   0.000000   0.000000
    12  C    0.000000   0.000000  -0.000000   0.000000  -0.000000  -0.000000
    13  H   -0.000000   0.000000  -0.000000  -0.000000   0.000000  -0.000000
    14  C   -0.000000   0.000000   0.000000  -0.000000  -0.000000  -0.000000
    15  H   -0.000000  -0.000000  -0.000000  -0.000000   0.000000  -0.000000
    16  C    0.000000   0.000000   0.000000  -0.000000  -0.000000   0.000000
    17  H   -0.000000  -0.000000   0.000000  -0.000000   0.000000  -0.000000
    18  H    0.000000   0.000000  -0.000000   0.000000  -0.000000   0.000000
    19  C    0.000000   0.000000  -0.000000  -0.000000  -0.000000   0.000000
    20  H   -0.000000   0.000000   0.000000  -0.000000   0.000000   0.000000
    21  C    0.000000  -0.000000  -0.000000   0.000000   0.000000  -0.000000
    22  H   -0.000000   0.000000  -0.000000   0.000000   0.000000  -0.000000
    23  C   -0.000000   0.000000  -0.000000  -0.000000   0.000000   0.000000
    24  H   -0.000000  -0.000000   0.000000   0.000000  -0.000000  -0.000000
    25  H    0.000000   0.000000  -0.000000  -0.000000  -0.000000  -0.000000
    26  C   -0.000000  -0.000000   0.000000   0.000000  -0.000000  -0.000000
    27  H    0.000000  -0.000000   0.000000   0.000000  -0.000000  -0.000000
    28  H    0.000000   0.000000  -0.000000  -0.000000   0.000000   0.000000
               7          8          9         10         11         12
     1  C    0.000000   0.000000   0.000000  -0.000000  -0.000000   0.000000
     2  C   -0.000000  -0.000000  -0.000000   0.000000  -0.000000   0.000000
     3  H   -0.000000   0.000000  -0.000000  -0.000000   0.000000  -0.000000
     4  H   -0.000000   0.000000  -0.000000  -0.000000   0.000000   0.000000
     5  C    0.000000   0.000000   0.000000  -0.000000   0.000000  -0.000000
     6  C   -0.000000   0.000000  -0.000000  -0.000000   0.000000  -0.000000
     7  H    0.000000   0.000000  -0.000000   0.000000  -0.000000  -0.000000
     8  H    0.000000  -0.000000   0.000000   0.000000  -0.000000  -0.000000
     9  C   -0.000000   0.000000  -0.000000   0.000000  -0.000000  -0.000000
    10  H    0.000000   0.000000   0.000000  -0.000000   0.000000   0.000000
    11  H   -0.000000  -0.000000  -0.000000   0.000000  -0.000000  -0.000000
    12  C   -0.000000  -0.000000  -0.000000   0.000000  -0.000000   0.000001
    13  H    0.000000   0.000000   0.000000   0.000000  -0.000000  -0.000000
    14  C    0.000000   0.000000   0.000000  -0.000000   0.000000  -0.000000
    15  H   -0.000000  -0.000000   0.000000   0.000000  -0.000000   0.000000
    16  C   -0.000000  -0.000000   0.000000   0.000000  -0.000000   0.000000
    17  H    0.000000   0.000000   0.000000  -0.000000  -0.000000  -0.000000
    18  H   -0.000000  -0.000000  -0.000000  -0.000000   0.000000  -0.000000
    19  C   -0.000000  -0.000000  -0.000000   0.000000   0.000000  -0.000000
    20  H    0.000000   0.000000  -0.000000  -0.000000  -0.000000  -0.000000
    21  C    0.000000  -0.000000   0.000000   0.000000  -0.000000  -0.000000
    22  H    0.000000   0.000000   0.000000  -0.000000   0.000000  -0.000000
    23  C    0.000000   0.000000  -0.000000   0.000000  -0.000000  -0.000000
    24  H   -0.000000  -0.000000   0.000000  -0.000000   0.000000   0.000000
    25  H    0.000000   0.000000  -0.000000   0.000000   0.000000  -0.000000
    26  C   -0.000000   0.000000   0.000000  -0.000000   0.000000   0.000000
    27  H    0.000000  -0.000000   0.000000   0.000000  -0.000000   0.000000
    28  H   -0.000000   0.000000  -0.000000   0.000000  -0.000000  -0.000000
              13         14         15         16         17         18
     1  C   -0.000000  -0.000000  -0.000000   0.000000  -0.000000   0.000000
     2  C    0.000000   0.000000  -0.000000   0.000000  -0.000000   0.000000
     3  H   -0.000000   0.000000  -0.000000   0.000000   0.000000  -0.000000
     4  H   -0.000000  -0.000000  -0.000000  -0.000000  -0.000000   0.000000
     5  C    0.000000  -0.000000   0.000000  -0.000000   0.000000  -0.000000
     6  C   -0.000000  -0.000000  -0.000000   0.000000  -0.000000   0.000000
     7  H    0.000000   0.000000  -0.000000  -0.000000   0.000000  -0.000000
     8  H    0.000000   0.000000  -0.000000  -0.000000   0.000000  -0.000000
     9  C    0.000000   0.000000   0.000000   0.000000   0.000000  -0.000000
[...]
     2  C    0.000000   0.000000  -0.000000   0.000000
     3  H   -0.000000   0.000000   0.000000  -0.000000
     4  H   -0.000000   0.000000   0.000000  -0.000000
     5  C    0.000000  -0.000000   0.000000   0.000000
     6  C   -0.000000  -0.000000  -0.000000   0.000000
     7  H   -0.000000  -0.000000   0.000000  -0.000000
     8  H    0.000000  -0.000000  -0.000000   0.000000
     9  C   -0.000000   0.000000   0.000000  -0.000000
    10  H   -0.000000  -0.000000  -0.000000   0.000000
    11  H    0.000000   0.000000  -0.000000  -0.000000
    12  C   -0.000000   0.000000   0.000000  -0.000000
    13  H   -0.000000   0.000000   0.000000  -0.000000
    14  C    0.000000  -0.000000  -0.000000   0.000000
    15  H    0.000000  -0.000000   0.000000   0.000000
    16  C    0.000000   0.000000  -0.000000  -0.000000
    17  H   -0.000000  -0.000000   0.000000   0.000000
    18  H   -0.000000   0.000000  -0.000000  -0.000000
    19  C   -0.000000   0.000000   0.000000  -0.000000
    20  H   -0.000000   0.000000   0.000000  -0.000000
    21  C   -0.000000  -0.000000   0.000000   0.000000
    22  H   -0.000000   0.000000  -0.000000  -0.000000
    23  C   -0.000000  -0.000000   0.000000  -0.000000
    24  H    0.000000   0.000000  -0.000000   0.000000
    25  H   -0.000000   0.000000  -0.000000   0.000000
    26  C    0.000000   0.000000   0.000000   0.000000
    27  H   -0.000000   0.000000   0.000000  -0.000000
    28  H    0.000000   0.000000  -0.000000  -0.000000
 Mulliken charges and spin densities:
               1          2
     1  C   -0.202086   0.000001
     2  C   -0.215468  -0.000001
     3  H    0.147842  -0.000000
     4  H    0.189658   0.000000
     5  C   -0.165462   0.000001
     6  C   -0.216763  -0.000001
     7  H    0.162452   0.000000
     8  H    0.188684  -0.000000
     9  C   -0.236459  -0.000000
    10  H    0.134434  -0.000000
    11  H    0.155039  -0.000000
    12  C   -0.176827  -0.000001
    13  H    0.150783  -0.000000
    14  C   -0.202690   0.000001
    15  H    0.147901  -0.000000
    16  C   -0.200972  -0.000000
    17  H    0.124972   0.000000
    18  H    0.134891   0.000000
    19  C   -0.167378   0.000000
    20  H    0.162570  -0.000000
    21  C   -0.176384  -0.000001
    22  H    0.150646   0.000000
    23  C   -0.237748   0.000000
    24  H    0.155890   0.000000
    25  H    0.134292  -0.000000
    26  C   -0.202169   0.000000
    27  H    0.135163   0.000000
    28  H    0.125187  -0.000000
 Sum of Mulliken charges =  -0.00000   0.00000
 Mulliken charges and spin densities with hydrogens summed into heavy atoms:
               1          2
     1  C   -0.054244   0.000001
     2  C   -0.025809  -0.000000
     5  C   -0.003010   0.000001
     6  C   -0.028079  -0.000001
     9  C    0.053015  -0.000000
    12  C   -0.026044  -0.000001
    14  C   -0.054788   0.000001
    16  C    0.058892  -0.000000
    19  C   -0.004808  -0.000000
    21  C   -0.025738  -0.000001
    23  C    0.052434   0.000000
    26  C    0.058181   0.000000
 Electronic spatial extent (au):  <R**2>=           2205.8899
 Charge=             -0.0000 electrons
 Dipole moment (field-independent basis, Debye):
    X=             -0.0015    Y=              0.0001    Z=             -0.0056  Tot=              0.0058
 Quadrupole moment (field-independent basis, Debye-Ang):
   XX=            -70.3262   YY=            -68.3436   ZZ=            -75.5962
   XY=             -3.3692   XZ=             -3.2472   YZ=             -1.3978
 Traceless Quadrupole moment (field-independent basis, Debye-Ang):
   XX=              1.0958   YY=              3.0784   ZZ=             -4.1742
   XY=             -3.3692   XZ=             -3.2472   YZ=             -1.3978
 Octapole moment (field-independent basis, Debye-Ang**2):
  XXX=             -0.0425  YYY=              0.0075  ZZZ=             -0.0292  XYY=              0.0058
  XXY=             -0.0244  XXZ=             -0.0308  XZZ=             -0.0132  YZZ=             -0.0016
  YYZ=             -0.0101  XYZ=             -0.0034
 Hexadecapole moment (field-independent basis, Debye-Ang**3):
 XXXX=          -1984.5069 YYYY=           -606.3452 ZZZZ=           -325.3457 XXXY=            -99.9435
 XXXZ=           -121.3664 YYYX=            -55.8020 YYYZ=             -1.9169 ZZZX=            -68.7162
 ZZZY=            -11.9791 XXYY=           -429.1503 XXZZ=           -410.8598 YYZZ=           -170.4778
 XXYZ=            -20.9303 YYXZ=            -25.4297 ZZXY=            -42.1328
 N-N= 6.891493307528D+02 E-N=-2.460973747463D+03  KE= 4.644422453160D+02
                          Isotropic Fermi Contact Couplings
        Atom                 a.u.       MegaHertz       Gauss      10(-4) cm-1
     1  C(13)              0.00000       0.00008       0.00003       0.00003
     2  C(13)             -0.00000      -0.00013      -0.00005      -0.00004
     3  H(1)              -0.00000      -0.00005      -0.00002      -0.00002
     4  H(1)               0.00000       0.00014       0.00005       0.00005
     5  C(13)              0.00000       0.00005       0.00002       0.00002
     6  C(13)             -0.00000      -0.00002      -0.00001      -0.00001
     7  H(1)               0.00000       0.00000       0.00000       0.00000
     8  H(1)              -0.00000      -0.00007      -0.00002      -0.00002
     9  C(13)             -0.00000      -0.00000      -0.00000      -0.00000
    10  H(1)              -0.00000      -0.00003      -0.00001      -0.00001
    11  H(1)              -0.00000      -0.00003      -0.00001      -0.00001
    12  C(13)             -0.00000      -0.00004      -0.00001      -0.00001
    13  H(1)              -0.00000      -0.00005      -0.00002      -0.00002
    14  C(13)              0.00000       0.00007       0.00002       0.00002
    15  H(1)              -0.00000      -0.00005      -0.00002      -0.00002
    16  C(13)             -0.00000      -0.00007      -0.00002      -0.00002
    17  H(1)               0.00000       0.00009       0.00003       0.00003
    18  H(1)               0.00000       0.00003       0.00001       0.00001
    19  C(13)              0.00000       0.00007       0.00003       0.00002
    20  H(1)              -0.00000      -0.00006      -0.00002      -0.00002
    21  C(13)             -0.00000      -0.00011      -0.00004      -0.00004
    22  H(1)               0.00000       0.00012       0.00004       0.00004
    23  C(13)              0.00000       0.00005       0.00002       0.00002
    24  H(1)               0.00000       0.00001       0.00000       0.00000
    25  H(1)              -0.00000      -0.00006      -0.00002      -0.00002
    26  C(13)              0.00000       0.00001       0.00000       0.00000
    27  H(1)               0.00000       0.00004       0.00001       0.00001
    28  H(1)               0.00000       0.00003       0.00001       0.00001
 --------------------------------------------------------
       Center         ----  Spin Dipole Couplings  ----
                      3XX-RR        3YY-RR        3ZZ-RR
 --------------------------------------------------------
     1   Atom       -0.000000     -0.000001      0.000001
     2   Atom        0.000000      0.000000     -0.000000
     3   Atom        0.000000     -0.000000      0.000000
     4   Atom       -0.000000      0.000000      0.000000
     5   Atom       -0.000000     -0.000001      0.000001
     6   Atom        0.000000      0.000001     -0.000001
     7   Atom       -0.000000     -0.000000      0.000000
     8   Atom        0.000000      0.000000     -0.000000
     9   Atom       -0.000000      0.000000      0.000000
    10   Atom       -0.000000      0.000000     -0.000000
    11   Atom        0.000000     -0.000000      0.000000
    12   Atom        0.000000      0.000001     -0.000001
    13   Atom        0.000000      0.000000     -0.000000
    14   Atom       -0.000000     -0.000001      0.000001
    15   Atom        0.000000     -0.000000      0.000000
    16   Atom        0.000000     -0.000000      0.000000
    17   Atom        0.000000      0.000000     -0.000000
    18   Atom       -0.000000      0.000000      0.000000
    19   Atom        0.000000      0.000000     -0.000000
    20   Atom       -0.000000      0.000000      0.000000
    21   Atom        0.000000      0.000000     -0.000000
    22   Atom        0.000000     -0.000000      0.000000
    23   Atom        0.000000      0.000000     -0.000000
    24   Atom        0.000000     -0.000000     -0.000000
    25   Atom       -0.000000     -0.000000      0.000000
    26   Atom       -0.000000      0.000000     -0.000000
    27   Atom       -0.000000      0.000000     -0.000000
    28   Atom       -0.000000     -0.000000      0.000000
 --------------------------------------------------------
                        XY            XZ            YZ
 --------------------------------------------------------
     1   Atom       -0.000000      0.000001     -0.000000
     2   Atom        0.000000      0.000000     -0.000000
     3   Atom        0.000000     -0.000000     -0.000000
     4   Atom       -0.000000      0.000000      0.000000
     5   Atom        0.000000      0.000001      0.000000
     6   Atom       -0.000000     -0.000001     -0.000000
     7   Atom       -0.000000      0.000000      0.000000
     8   Atom        0.000000      0.000000     -0.000000
     9   Atom        0.000000     -0.000000      0.000000
    10   Atom        0.000000     -0.000000     -0.000000
    11   Atom        0.000000     -0.000000      0.000000
    12   Atom        0.000000     -0.000001      0.000000
    13   Atom       -0.000000     -0.000000      0.000000
    14   Atom        0.000000      0.000001     -0.000000
    15   Atom        0.000000     -0.000000     -0.000000
    16   Atom       -0.000000     -0.000000     -0.000000
    17   Atom        0.000000     -0.000000     -0.000000
    18   Atom        0.000000     -0.000000     -0.000000
    19   Atom       -0.000000     -0.000000     -0.000000
    20   Atom       -0.000000     -0.000000      0.000000
    21   Atom       -0.000000     -0.000000      0.000000
    22   Atom       -0.000000     -0.000000      0.000000
    23   Atom       -0.000000      0.000000      0.000000
    24   Atom        0.000000      0.000000      0.000000
    25   Atom        0.000000      0.000000      0.000000
    26   Atom        0.000000      0.000000      0.000000
    27   Atom       -0.000000      0.000000     -0.000000
    28   Atom        0.000000      0.000000      0.000000
 --------------------------------------------------------


 ---------------------------------------------------------------------------------
              Anisotropic Spin Dipole Couplings in Principal Axis System
 ---------------------------------------------------------------------------------

       Atom             a.u.   MegaHertz   Gauss  10(-4) cm-1        Axes

              Baa    -0.0000    -0.000    -0.000    -0.000 -0.4546  0.8489  0.2696
     1 C(13)  Bbb    -0.0000    -0.000    -0.000    -0.000  0.7754  0.5261 -0.3493
              Bcc     0.0000     0.000     0.000     0.000  0.4383 -0.0502  0.8974
 
              Baa    -0.0000    -0.000    -0.000    -0.000 -0.1035  0.1593  0.9818
     2 C(13)  Bbb     0.0000     0.000     0.000     0.000  0.9609 -0.2390  0.1401
              Bcc     0.0000     0.000     0.000     0.000  0.2569  0.9579 -0.1283
 
              Baa    -0.0000    -0.000    -0.000    -0.000 -0.1542  0.9824  0.1053
     3 H(1)   Bbb     0.0000     0.000     0.000     0.000  0.5671  0.0007  0.8237
              Bcc     0.0000     0.000     0.000     0.000  0.8091  0.1867 -0.5572
 
              Baa    -0.0000    -0.000    -0.000    -0.000  0.9340  0.1829 -0.3069
     4 H(1)   Bbb     0.0000     0.000     0.000     0.000  0.3457 -0.2464  0.9054
              Bcc     0.0000     0.000     0.000     0.000 -0.0900  0.9518  0.2934
 
              Baa    -0.0000    -0.000    -0.000    -0.000  0.0888  0.9803 -0.1762
     5 C(13)  Bbb    -0.0000    -0.000    -0.000    -0.000  0.9277 -0.1459 -0.3438
              Bcc     0.0000     0.000     0.000     0.000  0.3627  0.1329  0.9224
 
              Baa    -0.0000    -0.000    -0.000    -0.000  0.4302  0.1736  0.8859
     6 C(13)  Bbb     0.0000     0.000     0.000     0.000  0.0652  0.9728 -0.2223
              Bcc     0.0000     0.000     0.000     0.000  0.9004 -0.1534 -0.4072
 
              Baa    -0.0000    -0.000    -0.000    -0.000  0.6798  0.6456 -0.3480
     7 H(1)   Bbb     0.0000     0.000     0.000     0.000  0.1293  0.3616  0.9233
              Bcc     0.0000     0.000     0.000     0.000  0.7219 -0.6726  0.1623
 
              Baa    -0.0000    -0.000    -0.000    -0.000 -0.3240  0.1487  0.9343
     8 H(1)   Bbb     0.0000     0.000     0.000     0.000  0.9459  0.0658  0.3176
              Bcc     0.0000     0.000     0.000     0.000 -0.0143  0.9867 -0.1620
 
              Baa    -0.0000    -0.000    -0.000    -0.000  0.6939 -0.5830  0.4226
     9 C(13)  Bbb     0.0000     0.000     0.000     0.000 -0.0378  0.5565  0.8300
              Bcc     0.0000     0.000     0.000     0.000  0.7191  0.5919 -0.3641
 
              Baa    -0.0000    -0.000    -0.000    -0.000  0.7286 -0.2944  0.6184
    10 H(1)   Bbb     0.0000     0.000     0.000     0.000 -0.2137  0.7601  0.6137
              Bcc     0.0000     0.000     0.000     0.000  0.6507  0.5793 -0.4909
 
              Baa    -0.0000    -0.000    -0.000    -0.000 -0.4490  0.8741 -0.1852
    11 H(1)   Bbb     0.0000     0.000     0.000     0.000  0.6081  0.4508  0.6534
              Bcc     0.0000     0.000     0.000     0.000 -0.6547 -0.1808  0.7340
 
              Baa    -0.0000    -0.000    -0.000    -0.000  0.4005 -0.0140  0.9162
    12 C(13)  Bbb     0.0000     0.000     0.000     0.000  0.9043 -0.1553 -0.3976
              Bcc     0.0000     0.000     0.000     0.000  0.1478  0.9878 -0.0495
 
              Baa    -0.0000    -0.000    -0.000    -0.000  0.3729 -0.0975  0.9227
    13 H(1)   Bbb    -0.0000    -0.000    -0.000    -0.000  0.4344  0.8971 -0.0807
              Bcc     0.0000     0.000     0.000     0.000  0.8199 -0.4309 -0.3769
 
              Baa    -0.0000    -0.000    -0.000    -0.000 -0.4753  0.8432  0.2512
    14 C(13)  Bbb    -0.0000    -0.000    -0.000    -0.000  0.7498  0.5375 -0.3858
              Bcc     0.0000     0.000     0.000     0.000  0.4603 -0.0050  0.8877
 
              Baa    -0.0000    -0.000    -0.000    -0.000 -0.1281  0.9889  0.0755
    15 H(1)   Bbb    -0.0000    -0.000    -0.000    -0.000  0.4059 -0.0172  0.9137
              Bcc     0.0000     0.000     0.000     0.000  0.9049  0.1477 -0.3992
 
              Baa    -0.0000    -0.000    -0.000    -0.000  0.3384  0.8032  0.4903
    16 C(13)  Bbb     0.0000     0.000     0.000     0.000  0.9306 -0.2084 -0.3009
              Bcc     0.0000     0.000     0.000     0.000  0.1395 -0.5581  0.8180
 
              Baa    -0.0000    -0.000    -0.000    -0.000 -0.0188  0.1623  0.9866
    17 H(1)   Bbb    -0.0000    -0.000    -0.000    -0.000  0.9502 -0.3041  0.0682
              Bcc     0.0000     0.000     0.000     0.000  0.3111  0.9387 -0.1485
 
              Baa    -0.0000    -0.000    -0.000    -0.000  0.9619 -0.2200  0.1626
    18 H(1)   Bbb     0.0000     0.000     0.000     0.000 -0.1263  0.1702  0.9773
              Bcc     0.0000     0.000     0.000     0.000  0.2427  0.9605 -0.1359
 
              Baa    -0.0000    -0.000    -0.000    -0.000  0.3449  0.4642  0.8158
    19 C(13)  Bbb     0.0000     0.000     0.000     0.000  0.6868  0.4676 -0.5564
              Bcc     0.0000     0.000     0.000     0.000 -0.6398  0.7522 -0.1576
 
              Baa    -0.0000    -0.000    -0.000    -0.000  0.7698 -0.1433  0.6220
    20 H(1)   Bbb     0.0000     0.000     0.000     0.000  0.4590  0.8015 -0.3834
              Bcc     0.0000     0.000     0.000     0.000 -0.4436  0.5806  0.6827
 
              Baa    -0.0000    -0.000    -0.000    -0.000  0.4350 -0.0537  0.8988
    21 C(13)  Bbb     0.0000     0.000     0.000     0.000  0.4913  0.8507 -0.1870
              Bcc     0.0000     0.000     0.000     0.000  0.7546 -0.5229 -0.3964
 
              Baa    -0.0000    -0.000    -0.000    -0.000  0.4790  0.8616 -0.1679
    22 H(1)   Bbb     0.0000     0.000     0.000     0.000  0.4085 -0.0495  0.9114
              Bcc     0.0000     0.000     0.000     0.000  0.7769 -0.5052 -0.3757
 
              Baa    -0.0000    -0.000    -0.000    -0.000  0.6255  0.5655 -0.5376
    23 C(13)  Bbb    -0.0000    -0.000    -0.000    -0.000  0.2925  0.4688  0.8335
              Bcc     0.0000     0.000     0.000     0.000  0.7233 -0.6786  0.1278
 
              Baa    -0.0000    -0.000    -0.000    -0.000 -0.3240  0.9459 -0.0160
    24 H(1)   Bbb    -0.0000    -0.000    -0.000    -0.000 -0.1922 -0.0493  0.9801
              Bcc     0.0000     0.000     0.000     0.000  0.9263  0.3206  0.1978
 
              Baa    -0.0000    -0.000    -0.000    -0.000 -0.3175  0.9454 -0.0734
    25 H(1)   Bbb     0.0000     0.000     0.000     0.000  0.9292  0.2947 -0.2231
              Bcc     0.0000     0.000     0.000     0.000  0.1893  0.1390  0.9720
 
              Baa    -0.0000    -0.000    -0.000    -0.000  0.7090  0.0040 -0.7052
    26 C(13)  Bbb    -0.0000    -0.000    -0.000    -0.000 -0.3753  0.8488 -0.3724
              Bcc     0.0000     0.000     0.000     0.000  0.5971  0.5287  0.6033
 
              Baa    -0.0000    -0.000    -0.000    -0.000 -0.3058  0.2967  0.9047
    27 H(1)   Bbb    -0.0000    -0.000    -0.000    -0.000  0.9416  0.2347  0.2413
              Bcc     0.0000     0.000     0.000     0.000 -0.1407  0.9257 -0.3512
 
              Baa    -0.0000    -0.000    -0.000    -0.000  0.7762 -0.6305  0.0014
    28 H(1)   Bbb    -0.0000    -0.000    -0.000    -0.000  0.5410  0.6649 -0.5150
              Bcc     0.0000     0.000     0.000     0.000  0.3238  0.4005  0.8572
 

 ---------------------------------------------------------------------------------

 No NMR shielding tensors so no spin-rotation constants.
 Leave Link  601 at Tue Aug  4 10:41:47 2020, MaxMem=  6442450944 cpu:               8.0 elap:               0.4
 (Enter /scratch/scicomp/CentOS/7.3.1611/Haswell/software/Gaussian/g16/l9999.exe)
 1\1\GINC-ATLAS-205\SP\UwB97XD\def2TZVP\C12H16\BOCHEN\04-Aug-2020\0\\#p
  uwb97xd guess=mix def2tzvp # scrf=(iefpcm,solvent=Cyclohexane,read) n
 osym 6d 10f\\endo-2 xp-pcm for eta=3\\0,1\C,0,-3.120053,-0.437296,0.24
 7601\C,0,-0.582765,-0.208122,-0.986031\H,0,-4.084035,-0.549421,0.73016
 1\H,0,0.37636,-0.119236,-1.476138\C,0,1.092928,1.407235,0.695695\C,0,0
 .582765,0.208122,0.986031\H,0,0.514464,2.309116,0.849982\H,0,-0.37636,
 0.119237,1.476138\C,0,1.473441,-0.999882,0.998114\H,0,1.930236,-1.0078
 1,1.995578\H,0,0.900886,-1.922279,0.917856\C,0,2.421602,1.516304,0.111
 065\H,0,2.830156,2.505119,-0.060741\C,0,3.120053,0.437296,-0.247601\H,
 0,4.084035,0.549421,-0.730161\C,0,2.591259,-0.95682,-0.045733\H,0,2.24
 8403,-1.352514,-1.009798\H,0,3.400569,-1.620098,0.266906\C,0,-1.092928
 ,-1.407235,-0.695695\H,0,-0.514464,-2.309116,-0.849982\C,0,-2.421602,-
 1.516304,-0.111065\H,0,-2.830156,-2.50512,0.060741\C,0,-1.473441,0.999
 882,-0.998114\H,0,-0.900886,1.922279,-0.917856\H,0,-1.930236,1.00781,-
 1.995578\C,0,-2.591259,0.95682,0.045733\H,0,-3.400569,1.620098,-0.2669
 06\H,0,-2.248403,1.352515,1.009798\\Version=ES64L-G16RevB.01\HF=-466.7
 869924\S2=0.\S2-1=0.\S2A=0.\RMSD=3.046e-09\Dipole=-0.0006021,0.000052,
 -0.0022112\Quadrupole=0.8147063,2.2887129,-3.1034192,-2.5048996,-2.414
 2309,-1.0392659\PG=CI [X(C12H16)]\\@


 IF YOU DON'T HAVE THE LAW - ARGUE THE FACTS.
 IF YOU DON'T HAVE THE FACTS - ARGUE THE LAW.
 IF YOU DON'T HAVE EITHER - POUND THE TABLE.
 Job cpu time:       0 days  2 hours 23 minutes 27.3 seconds.
 Elapsed time:       0 days  0 hours  6 minutes  1.9 seconds.
 File lengths (MBytes):  RWF=    615 Int=      0 D2E=      0 Chk=     24 Scr=      1
 Normal termination of Gaussian 16 at Tue Aug  4 10:41:47 2020.
