 Entering Gaussian System, Link 0=g16
 Input=meso-TS_31_2_xp-Vc.com
 Output=meso-TS_31_2_xp-Vc.log
 Initial command:
 /scratch/scicomp/CentOS/7.3.1611/Haswell/software/Gaussian/g16/l1.exe "/scratch/bochen/cyclohexadiene-dimerization/wb97xd-def2tzvp/xp-pcm/meso/Gau-92456.inp" -scrdir="/scratch/bochen/cyclohexadiene-dimerization/wb97xd-def2tzvp/xp-pcm/meso/"
 Entering Link 1 = /scratch/scicomp/CentOS/7.3.1611/Haswell/software/Gaussian/g16/l1.exe PID=     92457.
  
 Copyright (c) 1988-2017, Gaussian, Inc.  All Rights Reserved.
  
 This is part of the Gaussian(R) 16 program.  It is based on
 the Gaussian(R) 09 system (copyright 2009, Gaussian, Inc.),
 the Gaussian(R) 03 system (copyright 2003, Gaussian, Inc.),
 the Gaussian(R) 98 system (copyright 1998, Gaussian, Inc.),
 the Gaussian(R) 94 system (copyright 1995, Gaussian, Inc.),
 the Gaussian 92(TM) system (copyright 1992, Gaussian, Inc.),
 the Gaussian 90(TM) system (copyright 1990, Gaussian, Inc.),
 the Gaussian 88(TM) system (copyright 1988, Gaussian, Inc.),
 the Gaussian 86(TM) system (copyright 1986, Carnegie Mellon
 University), and the Gaussian 82(TM) system (copyright 1983,
 Carnegie Mellon University). Gaussian is a federally registered
 trademark of Gaussian, Inc.
  
 This software contains proprietary and confidential information,
 including trade secrets, belonging to Gaussian, Inc.
  
 This software is provided under written license and may be
 used, copied, transmitted, or stored only in accord with that
 written license.
  
 The following legend is applicable only to US Government
 contracts under FAR:
  
                    RESTRICTED RIGHTS LEGEND
  
 Use, reproduction and disclosure by the US Government is
 subject to restrictions as set forth in subparagraphs (a)
 and (c) of the Commercial Computer Software - Restricted
 Rights clause in FAR 52.227-19.
  
 Gaussian, Inc.
 340 Quinnipiac St., Bldg. 40, Wallingford CT 06492
  
  
 ---------------------------------------------------------------
 Warning -- This program may not be used in any manner that
 competes with the business of Gaussian, Inc. or will provide
 assistance to any competitor of Gaussian, Inc.  The licensee
 of this program is prohibited from giving any competitor of
 Gaussian, Inc. access to this program.  By using this program,
 the user acknowledges that Gaussian, Inc. is engaged in the
 business of creating and licensing software in the field of
 computational chemistry and represents and warrants to the
 licensee that it is not a competitor of Gaussian, Inc. and that
 it will not use this program in any manner prohibited above.
 ---------------------------------------------------------------
  

 Cite this work as:
 Gaussian 16, Revision B.01,
 M. J. Frisch, G. W. Trucks, H. B. Schlegel, G. E. Scuseria, 
 M. A. Robb, J. R. Cheeseman, G. Scalmani, V. Barone, 
 G. A. Petersson, H. Nakatsuji, X. Li, M. Caricato, A. V. Marenich, 
 J. Bloino, B. G. Janesko, R. Gomperts, B. Mennucci, H. P. Hratchian, 
 J. V. Ortiz, A. F. Izmaylov, J. L. Sonnenberg, D. Williams-Young, 
 F. Ding, F. Lipparini, F. Egidi, J. Goings, B. Peng, A. Petrone, 
 T. Henderson, D. Ranasinghe, V. G. Zakrzewski, J. Gao, N. Rega, 
 G. Zheng, W. Liang, M. Hada, M. Ehara, K. Toyota, R. Fukuda, 
 J. Hasegawa, M. Ishida, T. Nakajima, Y. Honda, O. Kitao, H. Nakai, 
 T. Vreven, K. Throssell, J. A. Montgomery, Jr., J. E. Peralta, 
 F. Ogliaro, M. J. Bearpark, J. J. Heyd, E. N. Brothers, K. N. Kudin, 
 V. N. Staroverov, T. A. Keith, R. Kobayashi, J. Normand, 
 K. Raghavachari, A. P. Rendell, J. C. Burant, S. S. Iyengar, 
 J. Tomasi, M. Cossi, J. M. Millam, M. Klene, C. Adamo, R. Cammi, 
 J. W. Ochterski, R. L. Martin, K. Morokuma, O. Farkas, 
 J. B. Foresman, and D. J. Fox, Gaussian, Inc., Wallingford CT, 2016.
 
 ******************************************
 Gaussian 16:  ES64L-G16RevB.01 20-Dec-2017
                 3-Aug-2020 
 ******************************************
 %chk=meso-TS_31_2_xp-12.chk
 %nproc=24
 Will use up to   24 processors via shared memory.
 %mem=48GB
 ----------------------------------------------------------------------
 #p uwb97xd guess=mix def2tzvp # scrf=(iefpcm,solvent=Cyclohexane,read)
  nosym guess=only pop=none
 ----------------------------------------------------------------------
 1/38=1,40=2,172=1/1;
 2/12=2,15=1,17=6,18=5,40=1/2;
 3/5=44,7=101,11=2,25=1,30=1,70=2203,72=17,74=-58,89=1,116=2/1,2;
 4/13=-1/1;
 99/5=2/99;
 Leave Link    1 at Mon Aug  3 17:25:51 2020, MaxMem=  6442450944 cpu:               1.8 elap:               0.1
 (Enter /scratch/scicomp/CentOS/7.3.1611/Haswell/software/Gaussian/g16/l101.exe)
 -----------------------
 endo-2 xp-pcm for eta=3
 -----------------------
 Symbolic Z-matrix:
 Charge =  0 Multiplicity = 1
 6                    -3.12449  -0.43946   0.25089 
 6                    -0.64731  -0.23043  -1.1056 
 1                    -4.08497  -0.54475   0.74203 
 1                     0.32319  -0.13763  -1.57448 
 6                     1.11596   1.41576   0.7262 
 6                     0.64731   0.23043   1.1056 
 1                     0.52451   2.31377   0.85425 
 1                    -0.32319   0.13763   1.57448 
 6                     1.50301  -1.00104   1.03866 
 1                     1.98522  -1.09544   2.01983 
 1                     0.887    -1.89127   0.92148 
 6                     2.43384   1.5219    0.10595 
 1                     2.84011   2.50902  -0.08001 
 6                     3.12449   0.43946  -0.25089 
 1                     4.08497   0.54475  -0.74203 
 6                     2.58721  -0.95031  -0.04345 
 1                     2.20416  -1.32618  -1.00025 
 1                     3.40004  -1.62668   0.22885 
 6                    -1.11596  -1.41576  -0.7262 
 1                    -0.52451  -2.31377  -0.85425 
 6                    -2.43384  -1.5219   -0.10595 
 1                    -2.84011  -2.50902   0.08001 
 6                    -1.50301   1.00104  -1.03866 
 1                    -0.887     1.89127  -0.92148 
 1                    -1.98522   1.09544  -2.01983 
 6                    -2.58721   0.95031   0.04345 
 1                    -3.40004   1.62668  -0.22885 
 1                    -2.20416   1.32618   1.00025 
 
 ITRead=  0  0  0  0  0  0  0  0  0  0  0  0  0  0  0  0  0  0  0  0
 ITRead=  0  0  0  0  0  0  0  0
 MicOpt= -1 -1 -1 -1 -1 -1 -1 -1 -1 -1 -1 -1 -1 -1 -1 -1 -1 -1 -1 -1
 MicOpt= -1 -1 -1 -1 -1 -1 -1 -1
 NAtoms=     28 NQM=       28 NQMF=       0 NMMI=      0 NMMIF=      0
                NMic=       0 NMicF=      0.
                    Isotopes and Nuclear Properties:
 (Nuclear quadrupole moments (NQMom) in fm**2, nuclear magnetic moments (NMagM)
  in nuclear magnetons)

  Atom         1           2           3           4           5           6           7           8           9          10
 IAtWgt=          12          12           1           1          12          12           1           1          12           1
 AtmWgt=  12.0000000  12.0000000   1.0078250   1.0078250  12.0000000  12.0000000   1.0078250   1.0078250  12.0000000   1.0078250
 NucSpn=           0           0           1           1           0           0           1           1           0           1
 AtZEff=  -0.0000000  -0.0000000  -0.0000000  -0.0000000  -0.0000000  -0.0000000  -0.0000000  -0.0000000  -0.0000000  -0.0000000
 NQMom=    0.0000000   0.0000000   0.0000000   0.0000000   0.0000000   0.0000000   0.0000000   0.0000000   0.0000000   0.0000000
 NMagM=    0.0000000   0.0000000   2.7928460   2.7928460   0.0000000   0.0000000   2.7928460   2.7928460   0.0000000   2.7928460
 AtZNuc=   6.0000000   6.0000000   1.0000000   1.0000000   6.0000000   6.0000000   1.0000000   1.0000000   6.0000000   1.0000000

  Atom        11          12          13          14          15          16          17          18          19          20
 IAtWgt=           1          12           1          12           1          12           1           1          12           1
 AtmWgt=   1.0078250  12.0000000   1.0078250  12.0000000   1.0078250  12.0000000   1.0078250   1.0078250  12.0000000   1.0078250
 NucSpn=           1           0           1           0           1           0           1           1           0           1
 AtZEff=  -0.0000000  -0.0000000  -0.0000000  -0.0000000  -0.0000000  -0.0000000  -0.0000000  -0.0000000  -0.0000000  -0.0000000
 NQMom=    0.0000000   0.0000000   0.0000000   0.0000000   0.0000000   0.0000000   0.0000000   0.0000000   0.0000000   0.0000000
 NMagM=    2.7928460   0.0000000   2.7928460   0.0000000   2.7928460   0.0000000   2.7928460   2.7928460   0.0000000   2.7928460
 AtZNuc=   1.0000000   6.0000000   1.0000000   6.0000000   1.0000000   6.0000000   1.0000000   1.0000000   6.0000000   1.0000000

  Atom        21          22          23          24          25          26          27          28
 IAtWgt=          12           1          12           1           1          12           1           1
 AtmWgt=  12.0000000   1.0078250  12.0000000   1.0078250   1.0078250  12.0000000   1.0078250   1.0078250
 NucSpn=           0           1           0           1           1           0           1           1
 AtZEff=  -0.0000000  -0.0000000  -0.0000000  -0.0000000  -0.0000000  -0.0000000  -0.0000000  -0.0000000
 NQMom=    0.0000000   0.0000000   0.0000000   0.0000000   0.0000000   0.0000000   0.0000000   0.0000000
 NMagM=    0.0000000   2.7928460   0.0000000   2.7928460   2.7928460   0.0000000   2.7928460   2.7928460
 AtZNuc=   6.0000000   1.0000000   6.0000000   1.0000000   1.0000000   6.0000000   1.0000000   1.0000000
 Leave Link  101 at Mon Aug  3 17:25:51 2020, MaxMem=  6442450944 cpu:               2.4 elap:               0.1
 (Enter /scratch/scicomp/CentOS/7.3.1611/Haswell/software/Gaussian/g16/l202.exe)
                          Input orientation:                          
 ---------------------------------------------------------------------
 Center     Atomic      Atomic             Coordinates (Angstroms)
 Number     Number       Type             X           Y           Z
 ---------------------------------------------------------------------
      1          6           0       -3.124486   -0.439464    0.250893
      2          6           0       -0.647306   -0.230427   -1.105597
      3          1           0       -4.084971   -0.544748    0.742034
      4          1           0        0.323194   -0.137629   -1.574480
      5          6           0        1.115957    1.415764    0.726197
      6          6           0        0.647306    0.230427    1.105597
      7          1           0        0.524506    2.313770    0.854246
      8          1           0       -0.323194    0.137629    1.574480
      9          6           0        1.503007   -1.001045    1.038660
     10          1           0        1.985221   -1.095436    2.019831
     11          1           0        0.887003   -1.891265    0.921479
     12          6           0        2.433841    1.521901    0.105946
     13          1           0        2.840105    2.509020   -0.080013
     14          6           0        3.124486    0.439464   -0.250893
     15          1           0        4.084971    0.544748   -0.742034
     16          6           0        2.587213   -0.950307   -0.043454
     17          1           0        2.204157   -1.326175   -1.000254
     18          1           0        3.400038   -1.626681    0.228849
     19          6           0       -1.115957   -1.415764   -0.726197
     20          1           0       -0.524506   -2.313770   -0.854246
     21          6           0       -2.433841   -1.521901   -0.105946
     22          1           0       -2.840105   -2.509020    0.080013
     23          6           0       -1.503007    1.001045   -1.038660
     24          1           0       -0.887003    1.891265   -0.921479
     25          1           0       -1.985221    1.095436   -2.019831
     26          6           0       -2.587213    0.950307    0.043454
     27          1           0       -3.400038    1.626680   -0.228849
     28          1           0       -2.204158    1.326175    1.000254
 ---------------------------------------------------------------------
                    Distance matrix (angstroms):
                    1          2          3          4          5
     1  C    0.000000
     2  C    2.831993   0.000000
     3  H    1.083898   3.915364   0.000000
     4  H    3.912747   1.081819   4.996389   0.000000
     5  C    4.652864   3.028945   5.558193   2.886974   0.000000
     6  C    3.925008   2.603418   4.809108   2.724578   1.329888
     7  H    4.610800   3.418635   5.425034   3.456674   1.082878
     8  H    3.151532   2.724578   3.912745   3.226381   2.103418
     9  C    4.727541   3.132976   5.614418   2.994319   2.467470
    10  H    5.446884   4.176929   6.227620   4.074162   2.955543
    11  H    4.318502   3.036696   5.154205   3.102085   3.320692
    12  C    5.896012   3.745925   6.868082   3.167444   1.460409
    13  H    6.661787   4.551750   7.613011   3.946267   2.194965
    14  C    6.330399   3.925008   7.343762   3.151532   2.437633
    15  H    7.343762   4.809108   8.374808   3.912745   3.424823
    16  C    5.742047   3.479725   6.730491   2.851363   2.890545
    17  H    5.544913   3.056567   6.572619   2.297912   3.418046
    18  H    6.631695   4.484558   7.580191   3.864743   3.836776
    19  C    2.437633   1.329888   3.424823   2.103418   3.886958
    20  H    3.390317   2.102041   4.284211   2.443956   4.370165
    21  C    1.332664   2.420519   2.097648   3.416730   4.682243
    22  H    2.095981   3.377281   2.417918   4.285709   5.609983
    23  C    2.523333   1.501076   3.496696   2.217812   3.185229
    24  H    3.437017   2.143112   4.350682   2.450999   2.636814
    25  H    2.968170   2.093741   3.837584   2.654725   4.154586
    26  C    1.504379   2.545131   2.228561   3.503111   3.794240
    27  H    2.138933   3.434395   2.475247   4.334278   4.620694
    28  H    2.127446   3.046540   2.665425   3.893518   3.332611
                    6          7          8          9         10
     6  C    0.000000
     7  H    2.102041   0.000000
     8  H    1.081819   2.443956   0.000000
     9  C    1.501076   3.461137   2.217812   0.000000
    10  H    2.093741   3.887797   2.654725   1.097332   0.000000
    11  H    2.143112   4.221166   2.450999   1.088891   1.745223
    12  C    2.420519   2.198311   3.416730   2.846342   3.273327
    13  H    3.377281   2.504588   4.285709   3.919160   4.258201
    14  C    2.831993   3.390317   3.912747   2.523333   2.968170
    15  H    3.915364   4.284211   4.996389   3.496696   3.837584
    16  C    2.545131   3.964193   3.503111   1.532660   2.154206
    17  H    3.046540   4.416967   3.893518   2.180480   3.036789
    18  H    3.434395   4.918024   4.334278   2.155444   2.343405
    19  C    3.028945   4.370165   2.886974   3.185229   4.154586
    20  H    3.418635   5.043163   3.456674   3.068737   4.005420
    21  C    3.745925   4.938234   3.167444   4.132818   4.922287
    22  H    4.551750   5.931218   3.946267   4.696341   5.389331
    23  C    3.132976   3.068737   2.994319   4.166502   5.090907
    24  H    3.036696   2.307394   3.102085   4.233173   5.081472
    25  H    4.176929   4.005420   4.074162   5.090907   6.073154
    26  C    3.479725   3.492737   2.851363   4.639839   5.385005
    27  H    4.484558   4.128830   3.864743   5.705381   6.439526
    28  H    3.056568   2.905558   2.297913   4.377271   4.945163
                   11         12         13         14         15
    11  H    0.000000
    12  C    3.835036   0.000000
    13  H    4.917327   1.083529   0.000000
    14  C    3.437017   1.332664   2.095981   0.000000
    15  H    4.350682   2.097648   2.417918   1.083898   0.000000
    16  C    2.169611   2.481462   3.468751   1.504379   2.228561
    17  H    2.397348   3.063979   3.994996   2.127446   2.665425
    18  H    2.620131   3.295787   4.184847   2.138933   2.475248
    19  C    2.636814   4.682243   5.609983   4.652864   5.558193
    20  H    2.307394   4.938234   5.931218   4.610800   5.425034
    21  C    3.495717   5.744907   6.638035   5.896012   6.868082
    22  H    3.870532   6.638035   7.580971   6.661787   7.613011
    23  C    4.233173   4.132818   4.696341   4.727541   5.614418
    24  H    4.566303   3.495717   3.870532   4.318502   5.154205
    25  H    5.081472   4.922287   5.389331   5.446884   6.227620
    26  C    4.573362   5.053871   5.648063   5.742047   6.730491
    27  H    5.663737   5.844417   6.303972   6.631695   7.580191
    28  H    4.462443   4.727487   5.292512   5.544914   6.572620
                   16         17         18         19         20
    16  C    0.000000
    17  H    1.097030   0.000000
    18  H    1.091932   1.741014   0.000000
    19  C    3.794240   3.332610   4.620694   0.000000
    20  H    3.492737   2.905557   4.128829   1.082878   0.000000
    21  C    5.053871   4.727486   5.844417   1.460409   2.198311
    22  H    5.648063   5.292512   6.303972   2.194965   2.504588
    23  C    4.639839   4.377270   5.705381   2.467470   3.461137
    24  H    4.573362   4.462443   5.663737   3.320692   4.221166
    25  H    5.385005   4.945162   6.439526   2.955543   3.887797
    26  C    5.513127   5.406378   6.520921   2.890545   3.964193
    27  H    6.520921   6.381334   7.552144   3.836776   4.918023
    28  H    5.406379   5.519985   6.381335   3.418047   4.416967
                   21         22         23         24         25
    21  C    0.000000
    22  H    1.083529   0.000000
    23  C    2.846342   3.919160   0.000000
    24  H    3.835036   4.917327   1.088891   0.000000
    25  H    3.273327   4.258201   1.097332   1.745223   0.000000
    26  C    2.481462   3.468751   1.532660   2.169611   2.154206
    27  H    3.295786   4.184846   2.155444   2.620131   2.343404
    28  H    3.063979   3.994996   2.180480   2.397349   3.036789
                   26         27         28
    26  C    0.000000
    27  H    1.091931   0.000000
    28  H    1.097030   1.741013   0.000000
 Symmetry turned off by external request.
 Stoichiometry    C12H16
 Framework group  CI[X(C12H16)]
 Deg. of freedom    39
 Full point group                 CI      NOp   2
 Rotational constants (GHZ):           1.8437848           0.6150436           0.5446288
 Leave Link  202 at Mon Aug  3 17:25:51 2020, MaxMem=  6442450944 cpu:               0.3 elap:               0.0
 (Enter /scratch/scicomp/CentOS/7.3.1611/Haswell/software/Gaussian/g16/l301.exe)
 Standard basis: def2TZVP (5D, 7F)
 Ernie: Thresh=  0.10000D-02 Tol=  0.10000D-05 Strict=F.
   468 basis functions,   740 primitive gaussians,   528 cartesian basis functions
    44 alpha electrons       44 beta electrons
       nuclear repulsion energy       683.6431228402 Hartrees.
 IExCor= 4639 DFT=T Ex+Corr=wB97XD ExCW=0 ScaHFX=  1.000000
 ScaDFX=  1.000000  1.000000  1.000000  1.000000 ScalE2=  1.000000  1.000000
 IRadAn=      5 IRanWt=     -1 IRanGd=            0 ICorTp=0 IEmpDi=121
 HFx  wShort=  0.000000 wLong=  0.200000 cFull=  0.222036 cShort=  0.000000 cLong=  0.777964
 DFx  wShort=  0.000000 wLong=  0.200000 cFull=  0.000000 cShort=  0.000000 cLong=  1.000000
 NAtoms=   28 NActive=   28 NUniq=   28 SFac= 1.00D+00 NAtFMM=   60 NAOKFM=F Big=F
 Integral buffers will be    131072 words long.
 Raffenetti 2 integral format.
 Two-electron integral symmetry is turned off.
 R6Disp:  Grimme-D2 Dispersion energy=       -0.0228535623 Hartrees.
 Nuclear repulsion after empirical dispersion term =      683.6202692779 Hartrees.
 Using the following non-standard input for PCM:
 qrep pcmdoc geomview  nodis nocav g03defaults tsare=0.075
 Warning! Using old PCM defaults because the g03defaults keyword was found.
 These settings can be overridden by following keywords.
 nsfe=28
 NVESolv=36  SolvMW=84.1595   Rsolv=2.815
 eps=2.0165 RhoS=0.7781
 --- end of non-standard input.
 Reading user-defined spheres from input:
 ISph  on   Nord    Re0     Alpha      Xe            Ye            Ze
 --- end of user-defined spheres data.
 ------------------------------------------------------------------------------
 Polarizable Continuum Model (PCM)
 =================================
 Model                : PCM.
 Atomic radii         : UA0 (Simple United Atom Topological Model).
 Polarization charges : Total charges.
 Charge compensation  : None.
 Solution method      : On-the-fly selection.
 Cavity type          : SES (Solvent Excluding Surface) (Alpha=1.000).
 Cavity algorithm     : GePol (RMin=0.200 OFac=0.890).
                        User-defined sphere list used, NSphG=   28.
                        Tesserae with average area of 0.075 Ang**2.
                        Smoothing algorithm: None.
                        Polarization charges: point-like.
                        Self-potential: constant (ISelfS= 1).
                        Self-field    : global E.n sum rule (ISelfD= 3).
 Solvent              : CycloHexane, Eps=   2.016500 Eps(inf)=   2.035188
                        RSolv=   2.815000 Ang.
 ------------------------------------------------------------------------------
 GePol: Number of generator spheres                  =      28
 GePol: Total number of spheres                      =     186
 GePol: Number of exposed spheres                    =     133 ( 71.51%)
 GePol: Number of tesserae                           =    4665
 GePol: Average area of tesserae                     =       0.05 Ang**2
 GePol: Minimum area of tessera                      =   0.10D-02 Ang**2
 GePol: Maximum area of tessera                      =    0.12533 Ang**2
 GePol: Number of small tesserae                     =       0
 GePol: Fraction of small tesserae (<1% of avg)      =       0.00%
 GePol: Total count of vertices                      =   16527
 GePol: Maximum number of vertices in a tessera      =       7
 GePol: Cavity surface area                          =    219.706 Ang**2
 GePol: Cavity volume                                =    248.461 Ang**3
 Leave Link  301 at Mon Aug  3 17:25:52 2020, MaxMem=  6442450944 cpu:               7.9 elap:               0.4
 (Enter /scratch/scicomp/CentOS/7.3.1611/Haswell/software/Gaussian/g16/l302.exe)
 NPDir=0 NMtPBC=     1 NCelOv=     1 NCel=       1 NClECP=     1 NCelD=      1
         NCelK=      1 NCelE2=     1 NClLst=     1 CellRange=     0.0.
 One-electron integrals computed using PRISM.
   1 Symmetry operations used in ECPInt.
 ECPInt:  NShTT=   19306 NPrTT=   56928 LenC2=   18504 LenP2D=   42098.
 LDataN:  DoStor=T MaxTD1= 6 Len=  172
 NBasis=   468 RedAO= T EigKep=  2.29D-05  NBF=   468
 NBsUse=   468 1.00D-06 EigRej= -1.00D+00 NBFU=   468
 Precomputing XC quadrature grid using
 IXCGrd= 4 IRadAn=           5 IRanWt=          -1 IRanGd=           0 AccXCQ= 0.00D+00.
 Generated NRdTot=       0 NPtTot=           0 NUsed=           0 NTot=          32
 NSgBfM=   526   526   526   526   526 MxSgAt=    28 MxSgA2=    28.
 Leave Link  302 at Mon Aug  3 17:25:52 2020, MaxMem=  6442450944 cpu:              11.9 elap:               0.5
 (Enter /scratch/scicomp/CentOS/7.3.1611/Haswell/software/Gaussian/g16/l401.exe)
 ExpMin= 9.52D-02 ExpMax= 1.36D+04 ExpMxC= 4.63D+02 IAcc=3 IRadAn=         5 AccDes= 0.00D+00
 Harris functional with IExCor= 4639 and IRadAn=       5 diagonalized for initial guess.
 HarFok:  IExCor= 4639 AccDes= 0.00D+00 IRadAn=         5 IDoV= 1 UseB2=F ITyADJ=14
 ICtDFT=  3500011 ScaDFX=  1.000000  1.000000  1.000000  1.000000
 FoFCou: FMM=F IPFlag=           0 FMFlag=      100000 FMFlg1=           0
         NFxFlg=           0 DoJE=T BraDBF=F KetDBF=T FulRan=T
         wScrn=  0.000000 ICntrl=       500 IOpCl=  0 I1Cent=   200000004 NGrid=           0
         NMat0=    1 NMatS0=      1 NMatT0=    0 NMatD0=    1 NMtDS0=    0 NMtDT0=    0
 Symmetry not used in FoFCou.
 Harris En= -444.623746663631    
 JPrj=0 DoOrth=F DoCkMO=T.
 Mixing orbitals, IMix= 1 IMixAn=  0 NRI=1 NE=   44 Coef=  7.07106781D-01  7.07106781D-01
 Mixing orbitals, IMix= 1 IMixAn=  0 NRI=1 NE=   44 Coef= -7.07106781D-01  7.07106781D-01
 Initial guess <Sx>= 0.0000 <Sy>= 0.0000 <Sz>= 0.0000 <S**2>= 1.0000 S= 0.6180
 Leave Link  401 at Mon Aug  3 17:25:54 2020, MaxMem=  6442450944 cpu:              47.7 elap:               2.0
 (Enter /scratch/scicomp/CentOS/7.3.1611/Haswell/software/Gaussian/g16/l9999.exe)

 This type of calculation cannot be archived.


 JUST WHEN YOU THINK YOU'VE GOT THE WORLD ON A STRING,
 YOU FIND OUT IT'S YOUR LEASH.
 Job cpu time:       0 days  0 hours  1 minutes 12.9 seconds.
 Elapsed time:       0 days  0 hours  0 minutes  3.3 seconds.
 File lengths (MBytes):  RWF=    398 Int=      0 D2E=      0 Chk=      1 Scr=      1
 Normal termination of Gaussian 16 at Mon Aug  3 17:25:54 2020.
 Initial command:
 /scratch/scicomp/CentOS/7.3.1611/Haswell/software/Gaussian/g16/l1.exe "/scratch/bochen/cyclohexadiene-dimerization/wb97xd-def2tzvp/xp-pcm/meso/Gau-92456.inp" -scrdir="/scratch/bochen/cyclohexadiene-dimerization/wb97xd-def2tzvp/xp-pcm/meso/"
 Entering Link 1 = /scratch/scicomp/CentOS/7.3.1611/Haswell/software/Gaussian/g16/l1.exe PID=     92619.
  
 Copyright (c) 1988-2017, Gaussian, Inc.  All Rights Reserved.
  
 This is part of the Gaussian(R) 16 program.  It is based on
 the Gaussian(R) 09 system (copyright 2009, Gaussian, Inc.),
 the Gaussian(R) 03 system (copyright 2003, Gaussian, Inc.),
 the Gaussian(R) 98 system (copyright 1998, Gaussian, Inc.),
 the Gaussian(R) 94 system (copyright 1995, Gaussian, Inc.),
 the Gaussian 92(TM) system (copyright 1992, Gaussian, Inc.),
 the Gaussian 90(TM) system (copyright 1990, Gaussian, Inc.),
 the Gaussian 88(TM) system (copyright 1988, Gaussian, Inc.),
 the Gaussian 86(TM) system (copyright 1986, Carnegie Mellon
 University), and the Gaussian 82(TM) system (copyright 1983,
 Carnegie Mellon University). Gaussian is a federally registered
 trademark of Gaussian, Inc.
  
 This software contains proprietary and confidential information,
 including trade secrets, belonging to Gaussian, Inc.
  
 This software is provided under written license and may be
 used, copied, transmitted, or stored only in accord with that
 written license.
  
 The following legend is applicable only to US Government
 contracts under FAR:
  
                    RESTRICTED RIGHTS LEGEND
  
 Use, reproduction and disclosure by the US Government is
 subject to restrictions as set forth in subparagraphs (a)
 and (c) of the Commercial Computer Software - Restricted
 Rights clause in FAR 52.227-19.
  
 Gaussian, Inc.
 340 Quinnipiac St., Bldg. 40, Wallingford CT 06492
  
  
 ---------------------------------------------------------------
 Warning -- This program may not be used in any manner that
 competes with the business of Gaussian, Inc. or will provide
 assistance to any competitor of Gaussian, Inc.  The licensee
 of this program is prohibited from giving any competitor of
 Gaussian, Inc. access to this program.  By using this program,
 the user acknowledges that Gaussian, Inc. is engaged in the
 business of creating and licensing software in the field of
 computational chemistry and represents and warrants to the
 licensee that it is not a competitor of Gaussian, Inc. and that
 it will not use this program in any manner prohibited above.
 ---------------------------------------------------------------
  

 Cite this work as:
 Gaussian 16, Revision B.01,
 M. J. Frisch, G. W. Trucks, H. B. Schlegel, G. E. Scuseria, 
 M. A. Robb, J. R. Cheeseman, G. Scalmani, V. Barone, 
 G. A. Petersson, H. Nakatsuji, X. Li, M. Caricato, A. V. Marenich, 
 J. Bloino, B. G. Janesko, R. Gomperts, B. Mennucci, H. P. Hratchian, 
 J. V. Ortiz, A. F. Izmaylov, J. L. Sonnenberg, D. Williams-Young, 
 F. Ding, F. Lipparini, F. Egidi, J. Goings, B. Peng, A. Petrone, 
 T. Henderson, D. Ranasinghe, V. G. Zakrzewski, J. Gao, N. Rega, 
 G. Zheng, W. Liang, M. Hada, M. Ehara, K. Toyota, R. Fukuda, 
 J. Hasegawa, M. Ishida, T. Nakajima, Y. Honda, O. Kitao, H. Nakai, 
 T. Vreven, K. Throssell, J. A. Montgomery, Jr., J. E. Peralta, 
 F. Ogliaro, M. J. Bearpark, J. J. Heyd, E. N. Brothers, K. N. Kudin, 
 V. N. Staroverov, T. A. Keith, R. Kobayashi, J. Normand, 
 K. Raghavachari, A. P. Rendell, J. C. Burant, S. S. Iyengar, 
 J. Tomasi, M. Cossi, J. M. Millam, M. Klene, C. Adamo, R. Cammi, 
 J. W. Ochterski, R. L. Martin, K. Morokuma, O. Farkas, 
 J. B. Foresman, and D. J. Fox, Gaussian, Inc., Wallingford CT, 2016.
 
 ******************************************
 Gaussian 16:  ES64L-G16RevB.01 20-Dec-2017
                 3-Aug-2020 
 ******************************************
 %chk=meso-TS_31_2_xp-115.chk
 %nproc=24
 Will use up to   24 processors via shared memory.
 %mem=48GB
 ----------------------------------------------------------------------
 #p uwb97xd guess=mix def2tzvp # scrf=(iefpcm,solvent=Cyclohexane,read)
  nosym guess=only pop=none
 ----------------------------------------------------------------------
 1/38=1,40=2,172=1/1;
 2/12=2,15=1,17=6,18=5,40=1/2;
 3/5=44,7=101,11=2,25=1,30=1,70=2203,72=17,74=-58,89=1,116=2/1,2;
 4/13=-1/1;
 99/5=2/99;
 Leave Link    1 at Mon Aug  3 17:25:55 2020, MaxMem=  6442450944 cpu:               1.5 elap:               0.1
 (Enter /scratch/scicomp/CentOS/7.3.1611/Haswell/software/Gaussian/g16/l101.exe)
 -----------------------
 endo-2 xp-pcm for eta=3
 -----------------------
 Symbolic Z-matrix:
 Charge =  0 Multiplicity = 1
 6                    -3.12449  -0.43946   0.25089 
 6                    -0.64731  -0.23043  -1.1056 
 1                    -4.08497  -0.54475   0.74203 
 1                     0.32319  -0.13763  -1.57448 
 6                     1.11596   1.41576   0.7262 
 6                     0.64731   0.23043   1.1056 
 1                     0.52451   2.31377   0.85425 
 1                    -0.32319   0.13763   1.57448 
 6                     1.50301  -1.00104   1.03866 
 1                     1.98522  -1.09544   2.01983 
 1                     0.887    -1.89127   0.92148 
 6                     2.43384   1.5219    0.10595 
 1                     2.84011   2.50902  -0.08001 
 6                     3.12449   0.43946  -0.25089 
 1                     4.08497   0.54475  -0.74203 
 6                     2.58721  -0.95031  -0.04345 
 1                     2.20416  -1.32618  -1.00025 
 1                     3.40004  -1.62668   0.22885 
 6                    -1.11596  -1.41576  -0.7262 
 1                    -0.52451  -2.31377  -0.85425 
 6                    -2.43384  -1.5219   -0.10595 
 1                    -2.84011  -2.50902   0.08001 
 6                    -1.50301   1.00104  -1.03866 
 1                    -0.887     1.89127  -0.92148 
 1                    -1.98522   1.09544  -2.01983 
 6                    -2.58721   0.95031   0.04345 
 1                    -3.40004   1.62668  -0.22885 
 1                    -2.20416   1.32618   1.00025 
 
 ITRead=  0  0  0  0  0  0  0  0  0  0  0  0  0  0  0  0  0  0  0  0
 ITRead=  0  0  0  0  0  0  0  0
 MicOpt= -1 -1 -1 -1 -1 -1 -1 -1 -1 -1 -1 -1 -1 -1 -1 -1 -1 -1 -1 -1
 MicOpt= -1 -1 -1 -1 -1 -1 -1 -1
 NAtoms=     28 NQM=       28 NQMF=       0 NMMI=      0 NMMIF=      0
                NMic=       0 NMicF=      0.
                    Isotopes and Nuclear Properties:
 (Nuclear quadrupole moments (NQMom) in fm**2, nuclear magnetic moments (NMagM)
  in nuclear magnetons)

  Atom         1           2           3           4           5           6           7           8           9          10
 IAtWgt=          12          12           1           1          12          12           1           1          12           1
 AtmWgt=  12.0000000  12.0000000   1.0078250   1.0078250  12.0000000  12.0000000   1.0078250   1.0078250  12.0000000   1.0078250
 NucSpn=           0           0           1           1           0           0           1           1           0           1
 AtZEff=  -0.0000000  -0.0000000  -0.0000000  -0.0000000  -0.0000000  -0.0000000  -0.0000000  -0.0000000  -0.0000000  -0.0000000
 NQMom=    0.0000000   0.0000000   0.0000000   0.0000000   0.0000000   0.0000000   0.0000000   0.0000000   0.0000000   0.0000000
 NMagM=    0.0000000   0.0000000   2.7928460   2.7928460   0.0000000   0.0000000   2.7928460   2.7928460   0.0000000   2.7928460
 AtZNuc=   6.0000000   6.0000000   1.0000000   1.0000000   6.0000000   6.0000000   1.0000000   1.0000000   6.0000000   1.0000000

  Atom        11          12          13          14          15          16          17          18          19          20
 IAtWgt=           1          12           1          12           1          12           1           1          12           1
 AtmWgt=   1.0078250  12.0000000   1.0078250  12.0000000   1.0078250  12.0000000   1.0078250   1.0078250  12.0000000   1.0078250
 NucSpn=           1           0           1           0           1           0           1           1           0           1
 AtZEff=  -0.0000000  -0.0000000  -0.0000000  -0.0000000  -0.0000000  -0.0000000  -0.0000000  -0.0000000  -0.0000000  -0.0000000
 NQMom=    0.0000000   0.0000000   0.0000000   0.0000000   0.0000000   0.0000000   0.0000000   0.0000000   0.0000000   0.0000000
 NMagM=    2.7928460   0.0000000   2.7928460   0.0000000   2.7928460   0.0000000   2.7928460   2.7928460   0.0000000   2.7928460
 AtZNuc=   1.0000000   6.0000000   1.0000000   6.0000000   1.0000000   6.0000000   1.0000000   1.0000000   6.0000000   1.0000000

  Atom        21          22          23          24          25          26          27          28
 IAtWgt=          12           1          12           1           1          12           1           1
 AtmWgt=  12.0000000   1.0078250  12.0000000   1.0078250   1.0078250  12.0000000   1.0078250   1.0078250
 NucSpn=           0           1           0           1           1           0           1           1
 AtZEff=  -0.0000000  -0.0000000  -0.0000000  -0.0000000  -0.0000000  -0.0000000  -0.0000000  -0.0000000
 NQMom=    0.0000000   0.0000000   0.0000000   0.0000000   0.0000000   0.0000000   0.0000000   0.0000000
 NMagM=    0.0000000   2.7928460   0.0000000   2.7928460   2.7928460   0.0000000   2.7928460   2.7928460
 AtZNuc=   6.0000000   1.0000000   6.0000000   1.0000000   1.0000000   6.0000000   1.0000000   1.0000000
 Leave Link  101 at Mon Aug  3 17:25:55 2020, MaxMem=  6442450944 cpu:               2.4 elap:               0.1
 (Enter /scratch/scicomp/CentOS/7.3.1611/Haswell/software/Gaussian/g16/l202.exe)
                          Input orientation:                          
 ---------------------------------------------------------------------
 Center     Atomic      Atomic             Coordinates (Angstroms)
 Number     Number       Type             X           Y           Z
 ---------------------------------------------------------------------
      1          6           0       -3.124486   -0.439464    0.250893
      2          6           0       -0.647306   -0.230427   -1.105597
      3          1           0       -4.084971   -0.544748    0.742034
      4          1           0        0.323194   -0.137629   -1.574480
      5          6           0        1.115957    1.415764    0.726197
      6          6           0        0.647306    0.230427    1.105597
      7          1           0        0.524506    2.313770    0.854246
      8          1           0       -0.323194    0.137629    1.574480
      9          6           0        1.503007   -1.001045    1.038660
     10          1           0        1.985221   -1.095436    2.019831
     11          1           0        0.887003   -1.891265    0.921479
     12          6           0        2.433841    1.521901    0.105946
     13          1           0        2.840105    2.509020   -0.080013
     14          6           0        3.124486    0.439464   -0.250893
     15          1           0        4.084971    0.544748   -0.742034
     16          6           0        2.587213   -0.950307   -0.043454
     17          1           0        2.204157   -1.326175   -1.000254
     18          1           0        3.400038   -1.626681    0.228849
     19          6           0       -1.115957   -1.415764   -0.726197
     20          1           0       -0.524506   -2.313770   -0.854246
     21          6           0       -2.433841   -1.521901   -0.105946
     22          1           0       -2.840105   -2.509020    0.080013
     23          6           0       -1.503007    1.001045   -1.038660
     24          1           0       -0.887003    1.891265   -0.921479
     25          1           0       -1.985221    1.095436   -2.019831
     26          6           0       -2.587213    0.950307    0.043454
     27          1           0       -3.400038    1.626680   -0.228849
     28          1           0       -2.204158    1.326175    1.000254
 ---------------------------------------------------------------------
                    Distance matrix (angstroms):
                    1          2          3          4          5
     1  C    0.000000
     2  C    2.831993   0.000000
     3  H    1.083898   3.915364   0.000000
     4  H    3.912747   1.081819   4.996389   0.000000
     5  C    4.652864   3.028945   5.558193   2.886974   0.000000
     6  C    3.925008   2.603418   4.809108   2.724578   1.329888
     7  H    4.610800   3.418635   5.425034   3.456674   1.082878
     8  H    3.151532   2.724578   3.912745   3.226381   2.103418
     9  C    4.727541   3.132976   5.614418   2.994319   2.467470
    10  H    5.446884   4.176929   6.227620   4.074162   2.955543
    11  H    4.318502   3.036696   5.154205   3.102085   3.320692
    12  C    5.896012   3.745925   6.868082   3.167444   1.460409
    13  H    6.661787   4.551750   7.613011   3.946267   2.194965
    14  C    6.330399   3.925008   7.343762   3.151532   2.437633
    15  H    7.343762   4.809108   8.374808   3.912745   3.424823
    16  C    5.742047   3.479725   6.730491   2.851363   2.890545
    17  H    5.544913   3.056567   6.572619   2.297912   3.418046
    18  H    6.631695   4.484558   7.580191   3.864743   3.836776
    19  C    2.437633   1.329888   3.424823   2.103418   3.886958
    20  H    3.390317   2.102041   4.284211   2.443956   4.370165
    21  C    1.332664   2.420519   2.097648   3.416730   4.682243
    22  H    2.095981   3.377281   2.417918   4.285709   5.609983
    23  C    2.523333   1.501076   3.496696   2.217812   3.185229
    24  H    3.437017   2.143112   4.350682   2.450999   2.636814
    25  H    2.968170   2.093741   3.837584   2.654725   4.154586
    26  C    1.504379   2.545131   2.228561   3.503111   3.794240
    27  H    2.138933   3.434395   2.475247   4.334278   4.620694
    28  H    2.127446   3.046540   2.665425   3.893518   3.332611
                    6          7          8          9         10
     6  C    0.000000
     7  H    2.102041   0.000000
     8  H    1.081819   2.443956   0.000000
     9  C    1.501076   3.461137   2.217812   0.000000
    10  H    2.093741   3.887797   2.654725   1.097332   0.000000
    11  H    2.143112   4.221166   2.450999   1.088891   1.745223
    12  C    2.420519   2.198311   3.416730   2.846342   3.273327
    13  H    3.377281   2.504588   4.285709   3.919160   4.258201
    14  C    2.831993   3.390317   3.912747   2.523333   2.968170
    15  H    3.915364   4.284211   4.996389   3.496696   3.837584
    16  C    2.545131   3.964193   3.503111   1.532660   2.154206
    17  H    3.046540   4.416967   3.893518   2.180480   3.036789
    18  H    3.434395   4.918024   4.334278   2.155444   2.343405
    19  C    3.028945   4.370165   2.886974   3.185229   4.154586
    20  H    3.418635   5.043163   3.456674   3.068737   4.005420
    21  C    3.745925   4.938234   3.167444   4.132818   4.922287
    22  H    4.551750   5.931218   3.946267   4.696341   5.389331
    23  C    3.132976   3.068737   2.994319   4.166502   5.090907
    24  H    3.036696   2.307394   3.102085   4.233173   5.081472
    25  H    4.176929   4.005420   4.074162   5.090907   6.073154
    26  C    3.479725   3.492737   2.851363   4.639839   5.385005
    27  H    4.484558   4.128830   3.864743   5.705381   6.439526
    28  H    3.056568   2.905558   2.297913   4.377271   4.945163
                   11         12         13         14         15
    11  H    0.000000
    12  C    3.835036   0.000000
    13  H    4.917327   1.083529   0.000000
    14  C    3.437017   1.332664   2.095981   0.000000
    15  H    4.350682   2.097648   2.417918   1.083898   0.000000
    16  C    2.169611   2.481462   3.468751   1.504379   2.228561
    17  H    2.397348   3.063979   3.994996   2.127446   2.665425
    18  H    2.620131   3.295787   4.184847   2.138933   2.475248
    19  C    2.636814   4.682243   5.609983   4.652864   5.558193
    20  H    2.307394   4.938234   5.931218   4.610800   5.425034
    21  C    3.495717   5.744907   6.638035   5.896012   6.868082
    22  H    3.870532   6.638035   7.580971   6.661787   7.613011
    23  C    4.233173   4.132818   4.696341   4.727541   5.614418
    24  H    4.566303   3.495717   3.870532   4.318502   5.154205
    25  H    5.081472   4.922287   5.389331   5.446884   6.227620
    26  C    4.573362   5.053871   5.648063   5.742047   6.730491
    27  H    5.663737   5.844417   6.303972   6.631695   7.580191
    28  H    4.462443   4.727487   5.292512   5.544914   6.572620
                   16         17         18         19         20
    16  C    0.000000
    17  H    1.097030   0.000000
    18  H    1.091932   1.741014   0.000000
    19  C    3.794240   3.332610   4.620694   0.000000
    20  H    3.492737   2.905557   4.128829   1.082878   0.000000
    21  C    5.053871   4.727486   5.844417   1.460409   2.198311
    22  H    5.648063   5.292512   6.303972   2.194965   2.504588
    23  C    4.639839   4.377270   5.705381   2.467470   3.461137
    24  H    4.573362   4.462443   5.663737   3.320692   4.221166
    25  H    5.385005   4.945162   6.439526   2.955543   3.887797
    26  C    5.513127   5.406378   6.520921   2.890545   3.964193
    27  H    6.520921   6.381334   7.552144   3.836776   4.918023
    28  H    5.406379   5.519985   6.381335   3.418047   4.416967
                   21         22         23         24         25
    21  C    0.000000
    22  H    1.083529   0.000000
    23  C    2.846342   3.919160   0.000000
    24  H    3.835036   4.917327   1.088891   0.000000
    25  H    3.273327   4.258201   1.097332   1.745223   0.000000
    26  C    2.481462   3.468751   1.532660   2.169611   2.154206
    27  H    3.295786   4.184846   2.155444   2.620131   2.343404
    28  H    3.063979   3.994996   2.180480   2.397349   3.036789
                   26         27         28
    26  C    0.000000
    27  H    1.091931   0.000000
    28  H    1.097030   1.741013   0.000000
 Symmetry turned off by external request.
 Stoichiometry    C12H16
 Framework group  CI[X(C12H16)]
 Deg. of freedom    39
 Full point group                 CI      NOp   2
 Rotational constants (GHZ):           1.8437848           0.6150436           0.5446288
 Leave Link  202 at Mon Aug  3 17:25:55 2020, MaxMem=  6442450944 cpu:               0.3 elap:               0.0
 (Enter /scratch/scicomp/CentOS/7.3.1611/Haswell/software/Gaussian/g16/l301.exe)
 Standard basis: def2TZVP (5D, 7F)
 Ernie: Thresh=  0.10000D-02 Tol=  0.10000D-05 Strict=F.
   468 basis functions,   740 primitive gaussians,   528 cartesian basis functions
    44 alpha electrons       44 beta electrons
       nuclear repulsion energy       683.6431228402 Hartrees.
 IExCor= 4639 DFT=T Ex+Corr=wB97XD ExCW=0 ScaHFX=  1.000000
 ScaDFX=  1.000000  1.000000  1.000000  1.000000 ScalE2=  1.000000  1.000000
 IRadAn=      5 IRanWt=     -1 IRanGd=            0 ICorTp=0 IEmpDi=121
 HFx  wShort=  0.000000 wLong=  0.200000 cFull=  0.222036 cShort=  0.000000 cLong=  0.777964
 DFx  wShort=  0.000000 wLong=  0.200000 cFull=  0.000000 cShort=  0.000000 cLong=  1.000000
 NAtoms=   28 NActive=   28 NUniq=   28 SFac= 1.00D+00 NAtFMM=   60 NAOKFM=F Big=F
 Integral buffers will be    131072 words long.
 Raffenetti 2 integral format.
 Two-electron integral symmetry is turned off.
 R6Disp:  Grimme-D2 Dispersion energy=       -0.0228535623 Hartrees.
 Nuclear repulsion after empirical dispersion term =      683.6202692779 Hartrees.
 Using the following non-standard input for PCM:
 qrep pcmdoc geomview  nodis nocav g03defaults tsare=0.075
 Warning! Using old PCM defaults because the g03defaults keyword was found.
 These settings can be overridden by following keywords.
 nsfe=28
 NVESolv=36  SolvMW=84.1595   Rsolv=2.815
 eps=2.0165 RhoS=0.7781
 --- end of non-standard input.
 Reading user-defined spheres from input:
 ISph  on   Nord    Re0     Alpha      Xe            Ye            Ze
 --- end of user-defined spheres data.
 ------------------------------------------------------------------------------
 Polarizable Continuum Model (PCM)
 =================================
 Model                : PCM.
 Atomic radii         : UA0 (Simple United Atom Topological Model).
 Polarization charges : Total charges.
 Charge compensation  : None.
 Solution method      : On-the-fly selection.
 Cavity type          : SES (Solvent Excluding Surface) (Alpha=1.000).
 Cavity algorithm     : GePol (RMin=0.200 OFac=0.890).
                        User-defined sphere list used, NSphG=   28.
                        Tesserae with average area of 0.075 Ang**2.
                        Smoothing algorithm: None.
                        Polarization charges: point-like.
                        Self-potential: constant (ISelfS= 1).
                        Self-field    : global E.n sum rule (ISelfD= 3).
 Solvent              : CycloHexane, Eps=   2.016500 Eps(inf)=   2.035188
                        RSolv=   2.815000 Ang.
 ------------------------------------------------------------------------------
 GePol: Number of generator spheres                  =      28
 GePol: Total number of spheres                      =     203
 GePol: Number of exposed spheres                    =     144 ( 70.94%)
 GePol: Number of tesserae                           =    4709
 GePol: Average area of tesserae                     =       0.05 Ang**2
 GePol: Minimum area of tessera                      =   0.10D-02 Ang**2
 GePol: Maximum area of tessera                      =    0.10184 Ang**2
 GePol: Number of small tesserae                     =       0
 GePol: Fraction of small tesserae (<1% of avg)      =       0.00%
 GePol: Total count of vertices                      =   16716
 GePol: Maximum number of vertices in a tessera      =       7
 GePol: Cavity surface area                          =    212.603 Ang**2
 GePol: Cavity volume                                =    233.688 Ang**3
 Leave Link  301 at Mon Aug  3 17:25:55 2020, MaxMem=  6442450944 cpu:               8.5 elap:               0.4
 (Enter /scratch/scicomp/CentOS/7.3.1611/Haswell/software/Gaussian/g16/l302.exe)
 NPDir=0 NMtPBC=     1 NCelOv=     1 NCel=       1 NClECP=     1 NCelD=      1
         NCelK=      1 NCelE2=     1 NClLst=     1 CellRange=     0.0.
 One-electron integrals computed using PRISM.
   1 Symmetry operations used in ECPInt.
 ECPInt:  NShTT=   19306 NPrTT=   56928 LenC2=   18504 LenP2D=   42098.
 LDataN:  DoStor=T MaxTD1= 6 Len=  172
 NBasis=   468 RedAO= T EigKep=  2.29D-05  NBF=   468
 NBsUse=   468 1.00D-06 EigRej= -1.00D+00 NBFU=   468
 Precomputing XC quadrature grid using
 IXCGrd= 4 IRadAn=           5 IRanWt=          -1 IRanGd=           0 AccXCQ= 0.00D+00.
 Generated NRdTot=       0 NPtTot=           0 NUsed=           0 NTot=          32
 NSgBfM=   526   526   526   526   526 MxSgAt=    28 MxSgA2=    28.
 Leave Link  302 at Mon Aug  3 17:25:56 2020, MaxMem=  6442450944 cpu:              11.9 elap:               0.5
 (Enter /scratch/scicomp/CentOS/7.3.1611/Haswell/software/Gaussian/g16/l401.exe)
 ExpMin= 9.52D-02 ExpMax= 1.36D+04 ExpMxC= 4.63D+02 IAcc=3 IRadAn=         5 AccDes= 0.00D+00
 Harris functional with IExCor= 4639 and IRadAn=       5 diagonalized for initial guess.
 HarFok:  IExCor= 4639 AccDes= 0.00D+00 IRadAn=         5 IDoV= 1 UseB2=F ITyADJ=14
 ICtDFT=  3500011 ScaDFX=  1.000000  1.000000  1.000000  1.000000
 FoFCou: FMM=F IPFlag=           0 FMFlag=      100000 FMFlg1=           0
         NFxFlg=           0 DoJE=T BraDBF=F KetDBF=T FulRan=T
         wScrn=  0.000000 ICntrl=       500 IOpCl=  0 I1Cent=   200000004 NGrid=           0
         NMat0=    1 NMatS0=      1 NMatT0=    0 NMatD0=    1 NMtDS0=    0 NMtDT0=    0
 Symmetry not used in FoFCou.
 Harris En= -444.623746663631    
 JPrj=0 DoOrth=F DoCkMO=T.
 Mixing orbitals, IMix= 1 IMixAn=  0 NRI=1 NE=   44 Coef=  7.07106781D-01  7.07106781D-01
 Mixing orbitals, IMix= 1 IMixAn=  0 NRI=1 NE=   44 Coef= -7.07106781D-01  7.07106781D-01
 Initial guess <Sx>= 0.0000 <Sy>= 0.0000 <Sz>= 0.0000 <S**2>= 1.0000 S= 0.6180
 Leave Link  401 at Mon Aug  3 17:25:58 2020, MaxMem=  6442450944 cpu:              48.2 elap:               2.1
 (Enter /scratch/scicomp/CentOS/7.3.1611/Haswell/software/Gaussian/g16/l9999.exe)

 This type of calculation cannot be archived.


 LORD, MAN... WERE YE BUT WHYLES WHERE I AM, 
 THE GENTILES YE WAD NE'ER ENVY 'EM.        
 IT'S TRUE, THEY NEEDNA STARVE OR SWEAT,     
 THRO' WINTER'S CAULD OR SIMMER'S HEAT...  
 THEY'VE NAE SAIR WARK TO CRAZE THEIR BANES, 
 AND FILL AULD AGE WITH GRIPS AN' GRANES...  
                                             
 BUT HUMAN BODIES ARE SIC FOOLS              
 FOR A' THEIR COLLEGES AND SCHOOLS,           
 THAT WHEN NAE REAL ILLS PERPLEX THEM,       
 THEY MAK ENOW THEMSELVES TO VEX THEM,       
 AN' AYE THE LESS THEY HAE TO STURT THEM,    
 IN LIKE PROPORTION LESS WILL HURT THEM....  
                                             
                (ROBERT BURNS 'THE TWA DOGS')
 Job cpu time:       0 days  0 hours  1 minutes 13.7 seconds.
 Elapsed time:       0 days  0 hours  0 minutes  3.3 seconds.
 File lengths (MBytes):  RWF=    405 Int=      0 D2E=      0 Chk=      1 Scr=      1
 Normal termination of Gaussian 16 at Mon Aug  3 17:25:58 2020.
 Initial command:
 /scratch/scicomp/CentOS/7.3.1611/Haswell/software/Gaussian/g16/l1.exe "/scratch/bochen/cyclohexadiene-dimerization/wb97xd-def2tzvp/xp-pcm/meso/Gau-92456.inp" -scrdir="/scratch/bochen/cyclohexadiene-dimerization/wb97xd-def2tzvp/xp-pcm/meso/"
 Entering Link 1 = /scratch/scicomp/CentOS/7.3.1611/Haswell/software/Gaussian/g16/l1.exe PID=     92781.
  
 Copyright (c) 1988-2017, Gaussian, Inc.  All Rights Reserved.
  
 This is part of the Gaussian(R) 16 program.  It is based on
 the Gaussian(R) 09 system (copyright 2009, Gaussian, Inc.),
 the Gaussian(R) 03 system (copyright 2003, Gaussian, Inc.),
 the Gaussian(R) 98 system (copyright 1998, Gaussian, Inc.),
 the Gaussian(R) 94 system (copyright 1995, Gaussian, Inc.),
 the Gaussian 92(TM) system (copyright 1992, Gaussian, Inc.),
 the Gaussian 90(TM) system (copyright 1990, Gaussian, Inc.),
 the Gaussian 88(TM) system (copyright 1988, Gaussian, Inc.),
 the Gaussian 86(TM) system (copyright 1986, Carnegie Mellon
 University), and the Gaussian 82(TM) system (copyright 1983,
 Carnegie Mellon University). Gaussian is a federally registered
 trademark of Gaussian, Inc.
  
 This software contains proprietary and confidential information,
 including trade secrets, belonging to Gaussian, Inc.
  
 This software is provided under written license and may be
 used, copied, transmitted, or stored only in accord with that
 written license.
  
 The following legend is applicable only to US Government
 contracts under FAR:
  
                    RESTRICTED RIGHTS LEGEND
  
 Use, reproduction and disclosure by the US Government is
 subject to restrictions as set forth in subparagraphs (a)
 and (c) of the Commercial Computer Software - Restricted
 Rights clause in FAR 52.227-19.
  
 Gaussian, Inc.
 340 Quinnipiac St., Bldg. 40, Wallingford CT 06492
  
  
 ---------------------------------------------------------------
 Warning -- This program may not be used in any manner that
 competes with the business of Gaussian, Inc. or will provide
 assistance to any competitor of Gaussian, Inc.  The licensee
 of this program is prohibited from giving any competitor of
 Gaussian, Inc. access to this program.  By using this program,
 the user acknowledges that Gaussian, Inc. is engaged in the
 business of creating and licensing software in the field of
 computational chemistry and represents and warrants to the
 licensee that it is not a competitor of Gaussian, Inc. and that
 it will not use this program in any manner prohibited above.
 ---------------------------------------------------------------
  

 Cite this work as:
 Gaussian 16, Revision B.01,
 M. J. Frisch, G. W. Trucks, H. B. Schlegel, G. E. Scuseria, 
 M. A. Robb, J. R. Cheeseman, G. Scalmani, V. Barone, 
 G. A. Petersson, H. Nakatsuji, X. Li, M. Caricato, A. V. Marenich, 
 J. Bloino, B. G. Janesko, R. Gomperts, B. Mennucci, H. P. Hratchian, 
 J. V. Ortiz, A. F. Izmaylov, J. L. Sonnenberg, D. Williams-Young, 
 F. Ding, F. Lipparini, F. Egidi, J. Goings, B. Peng, A. Petrone, 
 T. Henderson, D. Ranasinghe, V. G. Zakrzewski, J. Gao, N. Rega, 
 G. Zheng, W. Liang, M. Hada, M. Ehara, K. Toyota, R. Fukuda, 
 J. Hasegawa, M. Ishida, T. Nakajima, Y. Honda, O. Kitao, H. Nakai, 
 T. Vreven, K. Throssell, J. A. Montgomery, Jr., J. E. Peralta, 
 F. Ogliaro, M. J. Bearpark, J. J. Heyd, E. N. Brothers, K. N. Kudin, 
 V. N. Staroverov, T. A. Keith, R. Kobayashi, J. Normand, 
 K. Raghavachari, A. P. Rendell, J. C. Burant, S. S. Iyengar, 
 J. Tomasi, M. Cossi, J. M. Millam, M. Klene, C. Adamo, R. Cammi, 
 J. W. Ochterski, R. L. Martin, K. Morokuma, O. Farkas, 
 J. B. Foresman, and D. J. Fox, Gaussian, Inc., Wallingford CT, 2016.
 
 ******************************************
 Gaussian 16:  ES64L-G16RevB.01 20-Dec-2017
                 3-Aug-2020 
 ******************************************
 %chk=meso-TS_31_2_xp-110.chk
 %nproc=24
 Will use up to   24 processors via shared memory.
 %mem=48GB
 ----------------------------------------------------------------------
 #p uwb97xd guess=mix def2tzvp # scrf=(iefpcm,solvent=Cyclohexane,read)
  nosym guess=only pop=none
 ----------------------------------------------------------------------
 1/38=1,40=2,172=1/1;
 2/12=2,15=1,17=6,18=5,40=1/2;
 3/5=44,7=101,11=2,25=1,30=1,70=2203,72=17,74=-58,89=1,116=2/1,2;
 4/13=-1/1;
 99/5=2/99;
 Leave Link    1 at Mon Aug  3 17:25:58 2020, MaxMem=  6442450944 cpu:               1.4 elap:               0.1
 (Enter /scratch/scicomp/CentOS/7.3.1611/Haswell/software/Gaussian/g16/l101.exe)
 -----------------------
 endo-2 xp-pcm for eta=3
 -----------------------
 Symbolic Z-matrix:
 Charge =  0 Multiplicity = 1
 6                    -3.12449  -0.43946   0.25089 
 6                    -0.64731  -0.23043  -1.1056 
 1                    -4.08497  -0.54475   0.74203 
 1                     0.32319  -0.13763  -1.57448 
 6                     1.11596   1.41576   0.7262 
 6                     0.64731   0.23043   1.1056 
 1                     0.52451   2.31377   0.85425 
 1                    -0.32319   0.13763   1.57448 
 6                     1.50301  -1.00104   1.03866 
 1                     1.98522  -1.09544   2.01983 
 1                     0.887    -1.89127   0.92148 
 6                     2.43384   1.5219    0.10595 
 1                     2.84011   2.50902  -0.08001 
 6                     3.12449   0.43946  -0.25089 
 1                     4.08497   0.54475  -0.74203 
 6                     2.58721  -0.95031  -0.04345 
 1                     2.20416  -1.32618  -1.00025 
 1                     3.40004  -1.62668   0.22885 
 6                    -1.11596  -1.41576  -0.7262 
 1                    -0.52451  -2.31377  -0.85425 
 6                    -2.43384  -1.5219   -0.10595 
 1                    -2.84011  -2.50902   0.08001 
 6                    -1.50301   1.00104  -1.03866 
 1                    -0.887     1.89127  -0.92148 
 1                    -1.98522   1.09544  -2.01983 
 6                    -2.58721   0.95031   0.04345 
 1                    -3.40004   1.62668  -0.22885 
 1                    -2.20416   1.32618   1.00025 
 
 ITRead=  0  0  0  0  0  0  0  0  0  0  0  0  0  0  0  0  0  0  0  0
 ITRead=  0  0  0  0  0  0  0  0
 MicOpt= -1 -1 -1 -1 -1 -1 -1 -1 -1 -1 -1 -1 -1 -1 -1 -1 -1 -1 -1 -1
 MicOpt= -1 -1 -1 -1 -1 -1 -1 -1
 NAtoms=     28 NQM=       28 NQMF=       0 NMMI=      0 NMMIF=      0
                NMic=       0 NMicF=      0.
                    Isotopes and Nuclear Properties:
 (Nuclear quadrupole moments (NQMom) in fm**2, nuclear magnetic moments (NMagM)
  in nuclear magnetons)

  Atom         1           2           3           4           5           6           7           8           9          10
 IAtWgt=          12          12           1           1          12          12           1           1          12           1
 AtmWgt=  12.0000000  12.0000000   1.0078250   1.0078250  12.0000000  12.0000000   1.0078250   1.0078250  12.0000000   1.0078250
 NucSpn=           0           0           1           1           0           0           1           1           0           1
 AtZEff=  -0.0000000  -0.0000000  -0.0000000  -0.0000000  -0.0000000  -0.0000000  -0.0000000  -0.0000000  -0.0000000  -0.0000000
 NQMom=    0.0000000   0.0000000   0.0000000   0.0000000   0.0000000   0.0000000   0.0000000   0.0000000   0.0000000   0.0000000
 NMagM=    0.0000000   0.0000000   2.7928460   2.7928460   0.0000000   0.0000000   2.7928460   2.7928460   0.0000000   2.7928460
 AtZNuc=   6.0000000   6.0000000   1.0000000   1.0000000   6.0000000   6.0000000   1.0000000   1.0000000   6.0000000   1.0000000

  Atom        11          12          13          14          15          16          17          18          19          20
 IAtWgt=           1          12           1          12           1          12           1           1          12           1
 AtmWgt=   1.0078250  12.0000000   1.0078250  12.0000000   1.0078250  12.0000000   1.0078250   1.0078250  12.0000000   1.0078250
 NucSpn=           1           0           1           0           1           0           1           1           0           1
 AtZEff=  -0.0000000  -0.0000000  -0.0000000  -0.0000000  -0.0000000  -0.0000000  -0.0000000  -0.0000000  -0.0000000  -0.0000000
 NQMom=    0.0000000   0.0000000   0.0000000   0.0000000   0.0000000   0.0000000   0.0000000   0.0000000   0.0000000   0.0000000
 NMagM=    2.7928460   0.0000000   2.7928460   0.0000000   2.7928460   0.0000000   2.7928460   2.7928460   0.0000000   2.7928460
 AtZNuc=   1.0000000   6.0000000   1.0000000   6.0000000   1.0000000   6.0000000   1.0000000   1.0000000   6.0000000   1.0000000

  Atom        21          22          23          24          25          26          27          28
 IAtWgt=          12           1          12           1           1          12           1           1
 AtmWgt=  12.0000000   1.0078250  12.0000000   1.0078250   1.0078250  12.0000000   1.0078250   1.0078250
 NucSpn=           0           1           0           1           1           0           1           1
 AtZEff=  -0.0000000  -0.0000000  -0.0000000  -0.0000000  -0.0000000  -0.0000000  -0.0000000  -0.0000000
 NQMom=    0.0000000   0.0000000   0.0000000   0.0000000   0.0000000   0.0000000   0.0000000   0.0000000
 NMagM=    0.0000000   2.7928460   0.0000000   2.7928460   2.7928460   0.0000000   2.7928460   2.7928460
 AtZNuc=   6.0000000   1.0000000   6.0000000   1.0000000   1.0000000   6.0000000   1.0000000   1.0000000
 Leave Link  101 at Mon Aug  3 17:25:58 2020, MaxMem=  6442450944 cpu:               2.4 elap:               0.1
 (Enter /scratch/scicomp/CentOS/7.3.1611/Haswell/software/Gaussian/g16/l202.exe)
                          Input orientation:                          
 ---------------------------------------------------------------------
 Center     Atomic      Atomic             Coordinates (Angstroms)
 Number     Number       Type             X           Y           Z
 ---------------------------------------------------------------------
      1          6           0       -3.124486   -0.439464    0.250893
      2          6           0       -0.647306   -0.230427   -1.105597
      3          1           0       -4.084971   -0.544748    0.742034
      4          1           0        0.323194   -0.137629   -1.574480
      5          6           0        1.115957    1.415764    0.726197
      6          6           0        0.647306    0.230427    1.105597
      7          1           0        0.524506    2.313770    0.854246
      8          1           0       -0.323194    0.137629    1.574480
      9          6           0        1.503007   -1.001045    1.038660
     10          1           0        1.985221   -1.095436    2.019831
     11          1           0        0.887003   -1.891265    0.921479
     12          6           0        2.433841    1.521901    0.105946
     13          1           0        2.840105    2.509020   -0.080013
     14          6           0        3.124486    0.439464   -0.250893
     15          1           0        4.084971    0.544748   -0.742034
     16          6           0        2.587213   -0.950307   -0.043454
     17          1           0        2.204157   -1.326175   -1.000254
     18          1           0        3.400038   -1.626681    0.228849
     19          6           0       -1.115957   -1.415764   -0.726197
     20          1           0       -0.524506   -2.313770   -0.854246
     21          6           0       -2.433841   -1.521901   -0.105946
     22          1           0       -2.840105   -2.509020    0.080013
     23          6           0       -1.503007    1.001045   -1.038660
     24          1           0       -0.887003    1.891265   -0.921479
     25          1           0       -1.985221    1.095436   -2.019831
     26          6           0       -2.587213    0.950307    0.043454
     27          1           0       -3.400038    1.626680   -0.228849
     28          1           0       -2.204158    1.326175    1.000254
 ---------------------------------------------------------------------
                    Distance matrix (angstroms):
                    1          2          3          4          5
     1  C    0.000000
     2  C    2.831993   0.000000
     3  H    1.083898   3.915364   0.000000
     4  H    3.912747   1.081819   4.996389   0.000000
     5  C    4.652864   3.028945   5.558193   2.886974   0.000000
     6  C    3.925008   2.603418   4.809108   2.724578   1.329888
     7  H    4.610800   3.418635   5.425034   3.456674   1.082878
     8  H    3.151532   2.724578   3.912745   3.226381   2.103418
     9  C    4.727541   3.132976   5.614418   2.994319   2.467470
    10  H    5.446884   4.176929   6.227620   4.074162   2.955543
    11  H    4.318502   3.036696   5.154205   3.102085   3.320692
    12  C    5.896012   3.745925   6.868082   3.167444   1.460409
    13  H    6.661787   4.551750   7.613011   3.946267   2.194965
    14  C    6.330399   3.925008   7.343762   3.151532   2.437633
    15  H    7.343762   4.809108   8.374808   3.912745   3.424823
    16  C    5.742047   3.479725   6.730491   2.851363   2.890545
    17  H    5.544913   3.056567   6.572619   2.297912   3.418046
    18  H    6.631695   4.484558   7.580191   3.864743   3.836776
    19  C    2.437633   1.329888   3.424823   2.103418   3.886958
    20  H    3.390317   2.102041   4.284211   2.443956   4.370165
    21  C    1.332664   2.420519   2.097648   3.416730   4.682243
    22  H    2.095981   3.377281   2.417918   4.285709   5.609983
    23  C    2.523333   1.501076   3.496696   2.217812   3.185229
    24  H    3.437017   2.143112   4.350682   2.450999   2.636814
    25  H    2.968170   2.093741   3.837584   2.654725   4.154586
    26  C    1.504379   2.545131   2.228561   3.503111   3.794240
    27  H    2.138933   3.434395   2.475247   4.334278   4.620694
    28  H    2.127446   3.046540   2.665425   3.893518   3.332611
                    6          7          8          9         10
     6  C    0.000000
     7  H    2.102041   0.000000
     8  H    1.081819   2.443956   0.000000
     9  C    1.501076   3.461137   2.217812   0.000000
    10  H    2.093741   3.887797   2.654725   1.097332   0.000000
    11  H    2.143112   4.221166   2.450999   1.088891   1.745223
    12  C    2.420519   2.198311   3.416730   2.846342   3.273327
    13  H    3.377281   2.504588   4.285709   3.919160   4.258201
    14  C    2.831993   3.390317   3.912747   2.523333   2.968170
    15  H    3.915364   4.284211   4.996389   3.496696   3.837584
    16  C    2.545131   3.964193   3.503111   1.532660   2.154206
    17  H    3.046540   4.416967   3.893518   2.180480   3.036789
    18  H    3.434395   4.918024   4.334278   2.155444   2.343405
    19  C    3.028945   4.370165   2.886974   3.185229   4.154586
    20  H    3.418635   5.043163   3.456674   3.068737   4.005420
    21  C    3.745925   4.938234   3.167444   4.132818   4.922287
    22  H    4.551750   5.931218   3.946267   4.696341   5.389331
    23  C    3.132976   3.068737   2.994319   4.166502   5.090907
    24  H    3.036696   2.307394   3.102085   4.233173   5.081472
    25  H    4.176929   4.005420   4.074162   5.090907   6.073154
    26  C    3.479725   3.492737   2.851363   4.639839   5.385005
    27  H    4.484558   4.128830   3.864743   5.705381   6.439526
    28  H    3.056568   2.905558   2.297913   4.377271   4.945163
                   11         12         13         14         15
    11  H    0.000000
    12  C    3.835036   0.000000
    13  H    4.917327   1.083529   0.000000
    14  C    3.437017   1.332664   2.095981   0.000000
    15  H    4.350682   2.097648   2.417918   1.083898   0.000000
    16  C    2.169611   2.481462   3.468751   1.504379   2.228561
    17  H    2.397348   3.063979   3.994996   2.127446   2.665425
    18  H    2.620131   3.295787   4.184847   2.138933   2.475248
    19  C    2.636814   4.682243   5.609983   4.652864   5.558193
    20  H    2.307394   4.938234   5.931218   4.610800   5.425034
    21  C    3.495717   5.744907   6.638035   5.896012   6.868082
    22  H    3.870532   6.638035   7.580971   6.661787   7.613011
    23  C    4.233173   4.132818   4.696341   4.727541   5.614418
    24  H    4.566303   3.495717   3.870532   4.318502   5.154205
    25  H    5.081472   4.922287   5.389331   5.446884   6.227620
    26  C    4.573362   5.053871   5.648063   5.742047   6.730491
    27  H    5.663737   5.844417   6.303972   6.631695   7.580191
    28  H    4.462443   4.727487   5.292512   5.544914   6.572620
                   16         17         18         19         20
    16  C    0.000000
    17  H    1.097030   0.000000
    18  H    1.091932   1.741014   0.000000
    19  C    3.794240   3.332610   4.620694   0.000000
    20  H    3.492737   2.905557   4.128829   1.082878   0.000000
    21  C    5.053871   4.727486   5.844417   1.460409   2.198311
    22  H    5.648063   5.292512   6.303972   2.194965   2.504588
    23  C    4.639839   4.377270   5.705381   2.467470   3.461137
    24  H    4.573362   4.462443   5.663737   3.320692   4.221166
    25  H    5.385005   4.945162   6.439526   2.955543   3.887797
    26  C    5.513127   5.406378   6.520921   2.890545   3.964193
    27  H    6.520921   6.381334   7.552144   3.836776   4.918023
    28  H    5.406379   5.519985   6.381335   3.418047   4.416967
                   21         22         23         24         25
    21  C    0.000000
    22  H    1.083529   0.000000
    23  C    2.846342   3.919160   0.000000
    24  H    3.835036   4.917327   1.088891   0.000000
    25  H    3.273327   4.258201   1.097332   1.745223   0.000000
    26  C    2.481462   3.468751   1.532660   2.169611   2.154206
    27  H    3.295786   4.184846   2.155444   2.620131   2.343404
    28  H    3.063979   3.994996   2.180480   2.397349   3.036789
                   26         27         28
    26  C    0.000000
    27  H    1.091931   0.000000
    28  H    1.097030   1.741013   0.000000
 Symmetry turned off by external request.
 Stoichiometry    C12H16
 Framework group  CI[X(C12H16)]
 Deg. of freedom    39
 Full point group                 CI      NOp   2
 Rotational constants (GHZ):           1.8437848           0.6150436           0.5446288
 Leave Link  202 at Mon Aug  3 17:25:59 2020, MaxMem=  6442450944 cpu:               0.3 elap:               0.0
 (Enter /scratch/scicomp/CentOS/7.3.1611/Haswell/software/Gaussian/g16/l301.exe)
 Standard basis: def2TZVP (5D, 7F)
 Ernie: Thresh=  0.10000D-02 Tol=  0.10000D-05 Strict=F.
   468 basis functions,   740 primitive gaussians,   528 cartesian basis functions
    44 alpha electrons       44 beta electrons
       nuclear repulsion energy       683.6431228402 Hartrees.
 IExCor= 4639 DFT=T Ex+Corr=wB97XD ExCW=0 ScaHFX=  1.000000
 ScaDFX=  1.000000  1.000000  1.000000  1.000000 ScalE2=  1.000000  1.000000
 IRadAn=      5 IRanWt=     -1 IRanGd=            0 ICorTp=0 IEmpDi=121
 HFx  wShort=  0.000000 wLong=  0.200000 cFull=  0.222036 cShort=  0.000000 cLong=  0.777964
 DFx  wShort=  0.000000 wLong=  0.200000 cFull=  0.000000 cShort=  0.000000 cLong=  1.000000
 NAtoms=   28 NActive=   28 NUniq=   28 SFac= 1.00D+00 NAtFMM=   60 NAOKFM=F Big=F
 Integral buffers will be    131072 words long.
 Raffenetti 2 integral format.
 Two-electron integral symmetry is turned off.
 R6Disp:  Grimme-D2 Dispersion energy=       -0.0228535623 Hartrees.
 Nuclear repulsion after empirical dispersion term =      683.6202692779 Hartrees.
 Using the following non-standard input for PCM:
 qrep pcmdoc geomview  nodis nocav g03defaults tsare=0.075
 Warning! Using old PCM defaults because the g03defaults keyword was found.
 These settings can be overridden by following keywords.
 nsfe=28
 NVESolv=36  SolvMW=84.1595   Rsolv=2.815
 eps=2.0165 RhoS=0.7781
 --- end of non-standard input.
 Reading user-defined spheres from input:
 ISph  on   Nord    Re0     Alpha      Xe            Ye            Ze
 --- end of user-defined spheres data.
 ------------------------------------------------------------------------------
 Polarizable Continuum Model (PCM)
 =================================
 Model                : PCM.
 Atomic radii         : UA0 (Simple United Atom Topological Model).
 Polarization charges : Total charges.
 Charge compensation  : None.
 Solution method      : On-the-fly selection.
 Cavity type          : SES (Solvent Excluding Surface) (Alpha=1.000).
 Cavity algorithm     : GePol (RMin=0.200 OFac=0.890).
                        User-defined sphere list used, NSphG=   28.
                        Tesserae with average area of 0.075 Ang**2.
                        Smoothing algorithm: None.
                        Polarization charges: point-like.
                        Self-potential: constant (ISelfS= 1).
                        Self-field    : global E.n sum rule (ISelfD= 3).
 Solvent              : CycloHexane, Eps=   2.016500 Eps(inf)=   2.035188
                        RSolv=   2.815000 Ang.
 ------------------------------------------------------------------------------
 GePol: Number of generator spheres                  =      28
 GePol: Total number of spheres                      =     268
 GePol: Number of exposed spheres                    =     193 ( 72.01%)
 GePol: Number of tesserae                           =    4660
 GePol: Average area of tesserae                     =       0.04 Ang**2
 GePol: Minimum area of tessera                      =   0.10D-02 Ang**2
 GePol: Maximum area of tessera                      =    0.11641 Ang**2
 GePol: Number of small tesserae                     =       0
 GePol: Fraction of small tesserae (<1% of avg)      =       0.00%
 GePol: Total count of vertices                      =   16785
 GePol: Maximum number of vertices in a tessera      =       7
 GePol: Cavity surface area                          =    205.605 Ang**2
 GePol: Cavity volume                                =    220.384 Ang**3
 Leave Link  301 at Mon Aug  3 17:25:59 2020, MaxMem=  6442450944 cpu:               9.1 elap:               0.4
 (Enter /scratch/scicomp/CentOS/7.3.1611/Haswell/software/Gaussian/g16/l302.exe)
 NPDir=0 NMtPBC=     1 NCelOv=     1 NCel=       1 NClECP=     1 NCelD=      1
         NCelK=      1 NCelE2=     1 NClLst=     1 CellRange=     0.0.
 One-electron integrals computed using PRISM.
   1 Symmetry operations used in ECPInt.
 ECPInt:  NShTT=   19306 NPrTT=   56928 LenC2=   18504 LenP2D=   42098.
 LDataN:  DoStor=T MaxTD1= 6 Len=  172
 NBasis=   468 RedAO= T EigKep=  2.29D-05  NBF=   468
 NBsUse=   468 1.00D-06 EigRej= -1.00D+00 NBFU=   468
 Precomputing XC quadrature grid using
 IXCGrd= 4 IRadAn=           5 IRanWt=          -1 IRanGd=           0 AccXCQ= 0.00D+00.
 Generated NRdTot=       0 NPtTot=           0 NUsed=           0 NTot=          32
 NSgBfM=   526   526   526   526   526 MxSgAt=    28 MxSgA2=    28.
 Leave Link  302 at Mon Aug  3 17:26:00 2020, MaxMem=  6442450944 cpu:              11.8 elap:               0.5
 (Enter /scratch/scicomp/CentOS/7.3.1611/Haswell/software/Gaussian/g16/l401.exe)
 ExpMin= 9.52D-02 ExpMax= 1.36D+04 ExpMxC= 4.63D+02 IAcc=3 IRadAn=         5 AccDes= 0.00D+00
 Harris functional with IExCor= 4639 and IRadAn=       5 diagonalized for initial guess.
 HarFok:  IExCor= 4639 AccDes= 0.00D+00 IRadAn=         5 IDoV= 1 UseB2=F ITyADJ=14
 ICtDFT=  3500011 ScaDFX=  1.000000  1.000000  1.000000  1.000000
 FoFCou: FMM=F IPFlag=           0 FMFlag=      100000 FMFlg1=           0
         NFxFlg=           0 DoJE=T BraDBF=F KetDBF=T FulRan=T
         wScrn=  0.000000 ICntrl=       500 IOpCl=  0 I1Cent=   200000004 NGrid=           0
         NMat0=    1 NMatS0=      1 NMatT0=    0 NMatD0=    1 NMtDS0=    0 NMtDT0=    0
 Symmetry not used in FoFCou.
 Harris En= -444.623746663631    
 JPrj=0 DoOrth=F DoCkMO=T.
 Mixing orbitals, IMix= 1 IMixAn=  0 NRI=1 NE=   44 Coef=  7.07106781D-01  7.07106781D-01
 Mixing orbitals, IMix= 1 IMixAn=  0 NRI=1 NE=   44 Coef= -7.07106781D-01  7.07106781D-01
 Initial guess <Sx>= 0.0000 <Sy>= 0.0000 <Sz>= 0.0000 <S**2>= 1.0000 S= 0.6180
 Leave Link  401 at Mon Aug  3 17:26:02 2020, MaxMem=  6442450944 cpu:              47.7 elap:               2.0
 (Enter /scratch/scicomp/CentOS/7.3.1611/Haswell/software/Gaussian/g16/l9999.exe)

 This type of calculation cannot be archived.


 OLD AGE AND TREACHERY WILL ALWAYS PREVAIL OVER YOUTH AND SKILL.
 Job cpu time:       0 days  0 hours  1 minutes 13.7 seconds.
 Elapsed time:       0 days  0 hours  0 minutes  3.3 seconds.
 File lengths (MBytes):  RWF=    396 Int=      0 D2E=      0 Chk=      1 Scr=      1
 Normal termination of Gaussian 16 at Mon Aug  3 17:26:02 2020.
 Initial command:
 /scratch/scicomp/CentOS/7.3.1611/Haswell/software/Gaussian/g16/l1.exe "/scratch/bochen/cyclohexadiene-dimerization/wb97xd-def2tzvp/xp-pcm/meso/Gau-92456.inp" -scrdir="/scratch/bochen/cyclohexadiene-dimerization/wb97xd-def2tzvp/xp-pcm/meso/"
 Entering Link 1 = /scratch/scicomp/CentOS/7.3.1611/Haswell/software/Gaussian/g16/l1.exe PID=     92943.
  
 Copyright (c) 1988-2017, Gaussian, Inc.  All Rights Reserved.
  
 This is part of the Gaussian(R) 16 program.  It is based on
 the Gaussian(R) 09 system (copyright 2009, Gaussian, Inc.),
 the Gaussian(R) 03 system (copyright 2003, Gaussian, Inc.),
 the Gaussian(R) 98 system (copyright 1998, Gaussian, Inc.),
 the Gaussian(R) 94 system (copyright 1995, Gaussian, Inc.),
 the Gaussian 92(TM) system (copyright 1992, Gaussian, Inc.),
 the Gaussian 90(TM) system (copyright 1990, Gaussian, Inc.),
 the Gaussian 88(TM) system (copyright 1988, Gaussian, Inc.),
 the Gaussian 86(TM) system (copyright 1986, Carnegie Mellon
 University), and the Gaussian 82(TM) system (copyright 1983,
 Carnegie Mellon University). Gaussian is a federally registered
 trademark of Gaussian, Inc.
  
 This software contains proprietary and confidential information,
 including trade secrets, belonging to Gaussian, Inc.
  
 This software is provided under written license and may be
 used, copied, transmitted, or stored only in accord with that
 written license.
  
 The following legend is applicable only to US Government
 contracts under FAR:
  
                    RESTRICTED RIGHTS LEGEND
  
 Use, reproduction and disclosure by the US Government is
 subject to restrictions as set forth in subparagraphs (a)
 and (c) of the Commercial Computer Software - Restricted
 Rights clause in FAR 52.227-19.
  
 Gaussian, Inc.
 340 Quinnipiac St., Bldg. 40, Wallingford CT 06492
  
  
 ---------------------------------------------------------------
 Warning -- This program may not be used in any manner that
 competes with the business of Gaussian, Inc. or will provide
 assistance to any competitor of Gaussian, Inc.  The licensee
 of this program is prohibited from giving any competitor of
 Gaussian, Inc. access to this program.  By using this program,
 the user acknowledges that Gaussian, Inc. is engaged in the
 business of creating and licensing software in the field of
 computational chemistry and represents and warrants to the
 licensee that it is not a competitor of Gaussian, Inc. and that
 it will not use this program in any manner prohibited above.
 ---------------------------------------------------------------
  

 Cite this work as:
 Gaussian 16, Revision B.01,
 M. J. Frisch, G. W. Trucks, H. B. Schlegel, G. E. Scuseria, 
 M. A. Robb, J. R. Cheeseman, G. Scalmani, V. Barone, 
 G. A. Petersson, H. Nakatsuji, X. Li, M. Caricato, A. V. Marenich, 
 J. Bloino, B. G. Janesko, R. Gomperts, B. Mennucci, H. P. Hratchian, 
 J. V. Ortiz, A. F. Izmaylov, J. L. Sonnenberg, D. Williams-Young, 
 F. Ding, F. Lipparini, F. Egidi, J. Goings, B. Peng, A. Petrone, 
 T. Henderson, D. Ranasinghe, V. G. Zakrzewski, J. Gao, N. Rega, 
 G. Zheng, W. Liang, M. Hada, M. Ehara, K. Toyota, R. Fukuda, 
 J. Hasegawa, M. Ishida, T. Nakajima, Y. Honda, O. Kitao, H. Nakai, 
 T. Vreven, K. Throssell, J. A. Montgomery, Jr., J. E. Peralta, 
 F. Ogliaro, M. J. Bearpark, J. J. Heyd, E. N. Brothers, K. N. Kudin, 
 V. N. Staroverov, T. A. Keith, R. Kobayashi, J. Normand, 
 K. Raghavachari, A. P. Rendell, J. C. Burant, S. S. Iyengar, 
 J. Tomasi, M. Cossi, J. M. Millam, M. Klene, C. Adamo, R. Cammi, 
 J. W. Ochterski, R. L. Martin, K. Morokuma, O. Farkas, 
 J. B. Foresman, and D. J. Fox, Gaussian, Inc., Wallingford CT, 2016.
 
 ******************************************
 Gaussian 16:  ES64L-G16RevB.01 20-Dec-2017
                 3-Aug-2020 
 ******************************************
 %chk=meso-TS_31_2_xp-105.chk
 %nproc=24
 Will use up to   24 processors via shared memory.
 %mem=48GB
 ----------------------------------------------------------------------
 #p uwb97xd guess=mix def2tzvp # scrf=(iefpcm,solvent=Cyclohexane,read)
  nosym guess=only pop=none
 ----------------------------------------------------------------------
 1/38=1,40=2,172=1/1;
 2/12=2,15=1,17=6,18=5,40=1/2;
 3/5=44,7=101,11=2,25=1,30=1,70=2203,72=17,74=-58,89=1,116=2/1,2;
 4/13=-1/1;
 99/5=2/99;
 Leave Link    1 at Mon Aug  3 17:26:02 2020, MaxMem=  6442450944 cpu:               1.9 elap:               0.1
 (Enter /scratch/scicomp/CentOS/7.3.1611/Haswell/software/Gaussian/g16/l101.exe)
 -----------------------
 endo-2 xp-pcm for eta=3
 -----------------------
 Symbolic Z-matrix:
 Charge =  0 Multiplicity = 1
 6                    -3.12449  -0.43946   0.25089 
 6                    -0.64731  -0.23043  -1.1056 
 1                    -4.08497  -0.54475   0.74203 
 1                     0.32319  -0.13763  -1.57448 
 6                     1.11596   1.41576   0.7262 
 6                     0.64731   0.23043   1.1056 
 1                     0.52451   2.31377   0.85425 
 1                    -0.32319   0.13763   1.57448 
 6                     1.50301  -1.00104   1.03866 
 1                     1.98522  -1.09544   2.01983 
 1                     0.887    -1.89127   0.92148 
 6                     2.43384   1.5219    0.10595 
 1                     2.84011   2.50902  -0.08001 
[...]
 6                    -0.64731  -0.23043  -1.1056 
 1                    -4.08497  -0.54475   0.74203 
 1                     0.32319  -0.13763  -1.57448 
 6                     1.11596   1.41576   0.7262 
 6                     0.64731   0.23043   1.1056 
 1                     0.52451   2.31377   0.85425 
 1                    -0.32319   0.13763   1.57448 
 6                     1.50301  -1.00104   1.03866 
 1                     1.98522  -1.09544   2.01983 
 1                     0.887    -1.89127   0.92148 
 6                     2.43384   1.5219    0.10595 
 1                     2.84011   2.50902  -0.08001 
 6                     3.12449   0.43946  -0.25089 
 1                     4.08497   0.54475  -0.74203 
 6                     2.58721  -0.95031  -0.04345 
 1                     2.20416  -1.32618  -1.00025 
 1                     3.40004  -1.62668   0.22885 
 6                    -1.11596  -1.41576  -0.7262 
 1                    -0.52451  -2.31377  -0.85425 
 6                    -2.43384  -1.5219   -0.10595 
 1                    -2.84011  -2.50902   0.08001 
 6                    -1.50301   1.00104  -1.03866 
 1                    -0.887     1.89127  -0.92148 
 1                    -1.98522   1.09544  -2.01983 
 6                    -2.58721   0.95031   0.04345 
 1                    -3.40004   1.62668  -0.22885 
 1                    -2.20416   1.32618   1.00025 
 
 ITRead=  0  0  0  0  0  0  0  0  0  0  0  0  0  0  0  0  0  0  0  0
 ITRead=  0  0  0  0  0  0  0  0
 MicOpt= -1 -1 -1 -1 -1 -1 -1 -1 -1 -1 -1 -1 -1 -1 -1 -1 -1 -1 -1 -1
 MicOpt= -1 -1 -1 -1 -1 -1 -1 -1
 NAtoms=     28 NQM=       28 NQMF=       0 NMMI=      0 NMMIF=      0
                NMic=       0 NMicF=      0.
                    Isotopes and Nuclear Properties:
 (Nuclear quadrupole moments (NQMom) in fm**2, nuclear magnetic moments (NMagM)
  in nuclear magnetons)

  Atom         1           2           3           4           5           6           7           8           9          10
 IAtWgt=          12          12           1           1          12          12           1           1          12           1
 AtmWgt=  12.0000000  12.0000000   1.0078250   1.0078250  12.0000000  12.0000000   1.0078250   1.0078250  12.0000000   1.0078250
 NucSpn=           0           0           1           1           0           0           1           1           0           1
 AtZEff=  -0.0000000  -0.0000000  -0.0000000  -0.0000000  -0.0000000  -0.0000000  -0.0000000  -0.0000000  -0.0000000  -0.0000000
 NQMom=    0.0000000   0.0000000   0.0000000   0.0000000   0.0000000   0.0000000   0.0000000   0.0000000   0.0000000   0.0000000
 NMagM=    0.0000000   0.0000000   2.7928460   2.7928460   0.0000000   0.0000000   2.7928460   2.7928460   0.0000000   2.7928460
 AtZNuc=   6.0000000   6.0000000   1.0000000   1.0000000   6.0000000   6.0000000   1.0000000   1.0000000   6.0000000   1.0000000

  Atom        11          12          13          14          15          16          17          18          19          20
 IAtWgt=           1          12           1          12           1          12           1           1          12           1
 AtmWgt=   1.0078250  12.0000000   1.0078250  12.0000000   1.0078250  12.0000000   1.0078250   1.0078250  12.0000000   1.0078250
 NucSpn=           1           0           1           0           1           0           1           1           0           1
 AtZEff=  -0.0000000  -0.0000000  -0.0000000  -0.0000000  -0.0000000  -0.0000000  -0.0000000  -0.0000000  -0.0000000  -0.0000000
 NQMom=    0.0000000   0.0000000   0.0000000   0.0000000   0.0000000   0.0000000   0.0000000   0.0000000   0.0000000   0.0000000
 NMagM=    2.7928460   0.0000000   2.7928460   0.0000000   2.7928460   0.0000000   2.7928460   2.7928460   0.0000000   2.7928460
 AtZNuc=   1.0000000   6.0000000   1.0000000   6.0000000   1.0000000   6.0000000   1.0000000   1.0000000   6.0000000   1.0000000

  Atom        21          22          23          24          25          26          27          28
 IAtWgt=          12           1          12           1           1          12           1           1
 AtmWgt=  12.0000000   1.0078250  12.0000000   1.0078250   1.0078250  12.0000000   1.0078250   1.0078250
 NucSpn=           0           1           0           1           1           0           1           1
 AtZEff=  -0.0000000  -0.0000000  -0.0000000  -0.0000000  -0.0000000  -0.0000000  -0.0000000  -0.0000000
 NQMom=    0.0000000   0.0000000   0.0000000   0.0000000   0.0000000   0.0000000   0.0000000   0.0000000
 NMagM=    0.0000000   2.7928460   0.0000000   2.7928460   2.7928460   0.0000000   2.7928460   2.7928460
 AtZNuc=   6.0000000   1.0000000   6.0000000   1.0000000   1.0000000   6.0000000   1.0000000   1.0000000
 Leave Link  101 at Mon Aug  3 17:26:14 2020, MaxMem=  6442450944 cpu:               2.4 elap:               0.1
 (Enter /scratch/scicomp/CentOS/7.3.1611/Haswell/software/Gaussian/g16/l202.exe)
                          Input orientation:                          
 ---------------------------------------------------------------------
 Center     Atomic      Atomic             Coordinates (Angstroms)
 Number     Number       Type             X           Y           Z
 ---------------------------------------------------------------------
      1          6           0       -3.124486   -0.439464    0.250893
      2          6           0       -0.647306   -0.230427   -1.105597
      3          1           0       -4.084971   -0.544748    0.742034
      4          1           0        0.323194   -0.137629   -1.574480
      5          6           0        1.115957    1.415764    0.726197
      6          6           0        0.647306    0.230427    1.105597
      7          1           0        0.524506    2.313770    0.854246
      8          1           0       -0.323194    0.137629    1.574480
      9          6           0        1.503007   -1.001045    1.038660
     10          1           0        1.985221   -1.095436    2.019831
     11          1           0        0.887003   -1.891265    0.921479
     12          6           0        2.433841    1.521901    0.105946
     13          1           0        2.840105    2.509020   -0.080013
     14          6           0        3.124486    0.439464   -0.250893
     15          1           0        4.084971    0.544748   -0.742034
     16          6           0        2.587213   -0.950307   -0.043454
     17          1           0        2.204157   -1.326175   -1.000254
     18          1           0        3.400038   -1.626681    0.228849
     19          6           0       -1.115957   -1.415764   -0.726197
     20          1           0       -0.524506   -2.313770   -0.854246
     21          6           0       -2.433841   -1.521901   -0.105946
     22          1           0       -2.840105   -2.509020    0.080013
     23          6           0       -1.503007    1.001045   -1.038660
     24          1           0       -0.887003    1.891265   -0.921479
     25          1           0       -1.985221    1.095436   -2.019831
     26          6           0       -2.587213    0.950307    0.043454
     27          1           0       -3.400038    1.626680   -0.228849
     28          1           0       -2.204158    1.326175    1.000254
 ---------------------------------------------------------------------
                    Distance matrix (angstroms):
                    1          2          3          4          5
     1  C    0.000000
     2  C    2.831993   0.000000
     3  H    1.083898   3.915364   0.000000
     4  H    3.912747   1.081819   4.996389   0.000000
     5  C    4.652864   3.028945   5.558193   2.886974   0.000000
     6  C    3.925008   2.603418   4.809108   2.724578   1.329888
     7  H    4.610800   3.418635   5.425034   3.456674   1.082878
     8  H    3.151532   2.724578   3.912745   3.226381   2.103418
     9  C    4.727541   3.132976   5.614418   2.994319   2.467470
    10  H    5.446884   4.176929   6.227620   4.074162   2.955543
    11  H    4.318502   3.036696   5.154205   3.102085   3.320692
    12  C    5.896012   3.745925   6.868082   3.167444   1.460409
    13  H    6.661787   4.551750   7.613011   3.946267   2.194965
    14  C    6.330399   3.925008   7.343762   3.151532   2.437633
    15  H    7.343762   4.809108   8.374808   3.912745   3.424823
    16  C    5.742047   3.479725   6.730491   2.851363   2.890545
    17  H    5.544913   3.056567   6.572619   2.297912   3.418046
    18  H    6.631695   4.484558   7.580191   3.864743   3.836776
    19  C    2.437633   1.329888   3.424823   2.103418   3.886958
    20  H    3.390317   2.102041   4.284211   2.443956   4.370165
    21  C    1.332664   2.420519   2.097648   3.416730   4.682243
    22  H    2.095981   3.377281   2.417918   4.285709   5.609983
    23  C    2.523333   1.501076   3.496696   2.217812   3.185229
    24  H    3.437017   2.143112   4.350682   2.450999   2.636814
    25  H    2.968170   2.093741   3.837584   2.654725   4.154586
    26  C    1.504379   2.545131   2.228561   3.503111   3.794240
    27  H    2.138933   3.434395   2.475247   4.334278   4.620694
    28  H    2.127446   3.046540   2.665425   3.893518   3.332611
                    6          7          8          9         10
     6  C    0.000000
     7  H    2.102041   0.000000
     8  H    1.081819   2.443956   0.000000
     9  C    1.501076   3.461137   2.217812   0.000000
    10  H    2.093741   3.887797   2.654725   1.097332   0.000000
    11  H    2.143112   4.221166   2.450999   1.088891   1.745223
    12  C    2.420519   2.198311   3.416730   2.846342   3.273327
    13  H    3.377281   2.504588   4.285709   3.919160   4.258201
    14  C    2.831993   3.390317   3.912747   2.523333   2.968170
    15  H    3.915364   4.284211   4.996389   3.496696   3.837584
    16  C    2.545131   3.964193   3.503111   1.532660   2.154206
    17  H    3.046540   4.416967   3.893518   2.180480   3.036789
    18  H    3.434395   4.918024   4.334278   2.155444   2.343405
    19  C    3.028945   4.370165   2.886974   3.185229   4.154586
    20  H    3.418635   5.043163   3.456674   3.068737   4.005420
    21  C    3.745925   4.938234   3.167444   4.132818   4.922287
    22  H    4.551750   5.931218   3.946267   4.696341   5.389331
    23  C    3.132976   3.068737   2.994319   4.166502   5.090907
    24  H    3.036696   2.307394   3.102085   4.233173   5.081472
    25  H    4.176929   4.005420   4.074162   5.090907   6.073154
    26  C    3.479725   3.492737   2.851363   4.639839   5.385005
    27  H    4.484558   4.128830   3.864743   5.705381   6.439526
    28  H    3.056568   2.905558   2.297913   4.377271   4.945163
                   11         12         13         14         15
    11  H    0.000000
    12  C    3.835036   0.000000
    13  H    4.917327   1.083529   0.000000
    14  C    3.437017   1.332664   2.095981   0.000000
    15  H    4.350682   2.097648   2.417918   1.083898   0.000000
    16  C    2.169611   2.481462   3.468751   1.504379   2.228561
    17  H    2.397348   3.063979   3.994996   2.127446   2.665425
    18  H    2.620131   3.295787   4.184847   2.138933   2.475248
    19  C    2.636814   4.682243   5.609983   4.652864   5.558193
    20  H    2.307394   4.938234   5.931218   4.610800   5.425034
    21  C    3.495717   5.744907   6.638035   5.896012   6.868082
    22  H    3.870532   6.638035   7.580971   6.661787   7.613011
    23  C    4.233173   4.132818   4.696341   4.727541   5.614418
    24  H    4.566303   3.495717   3.870532   4.318502   5.154205
    25  H    5.081472   4.922287   5.389331   5.446884   6.227620
    26  C    4.573362   5.053871   5.648063   5.742047   6.730491
    27  H    5.663737   5.844417   6.303972   6.631695   7.580191
    28  H    4.462443   4.727487   5.292512   5.544914   6.572620
                   16         17         18         19         20
    16  C    0.000000
    17  H    1.097030   0.000000
    18  H    1.091932   1.741014   0.000000
    19  C    3.794240   3.332610   4.620694   0.000000
    20  H    3.492737   2.905557   4.128829   1.082878   0.000000
    21  C    5.053871   4.727486   5.844417   1.460409   2.198311
    22  H    5.648063   5.292512   6.303972   2.194965   2.504588
    23  C    4.639839   4.377270   5.705381   2.467470   3.461137
    24  H    4.573362   4.462443   5.663737   3.320692   4.221166
    25  H    5.385005   4.945162   6.439526   2.955543   3.887797
    26  C    5.513127   5.406378   6.520921   2.890545   3.964193
    27  H    6.520921   6.381334   7.552144   3.836776   4.918023
    28  H    5.406379   5.519985   6.381335   3.418047   4.416967
                   21         22         23         24         25
    21  C    0.000000
    22  H    1.083529   0.000000
    23  C    2.846342   3.919160   0.000000
    24  H    3.835036   4.917327   1.088891   0.000000
    25  H    3.273327   4.258201   1.097332   1.745223   0.000000
    26  C    2.481462   3.468751   1.532660   2.169611   2.154206
    27  H    3.295786   4.184846   2.155444   2.620131   2.343404
    28  H    3.063979   3.994996   2.180480   2.397349   3.036789
                   26         27         28
    26  C    0.000000
    27  H    1.091931   0.000000
    28  H    1.097030   1.741013   0.000000
 Symmetry turned off by external request.
 Stoichiometry    C12H16
 Framework group  CI[X(C12H16)]
 Deg. of freedom    39
 Full point group                 CI      NOp   2
 Rotational constants (GHZ):           1.8437848           0.6150436           0.5446288
 Leave Link  202 at Mon Aug  3 17:26:14 2020, MaxMem=  6442450944 cpu:               0.3 elap:               0.0
 (Enter /scratch/scicomp/CentOS/7.3.1611/Haswell/software/Gaussian/g16/l301.exe)
 Standard basis: def2TZVP (5D, 7F)
 Ernie: Thresh=  0.10000D-02 Tol=  0.10000D-05 Strict=F.
   468 basis functions,   740 primitive gaussians,   528 cartesian basis functions
    44 alpha electrons       44 beta electrons
       nuclear repulsion energy       683.6431228402 Hartrees.
 IExCor= 4639 DFT=T Ex+Corr=wB97XD ExCW=0 ScaHFX=  1.000000
 ScaDFX=  1.000000  1.000000  1.000000  1.000000 ScalE2=  1.000000  1.000000
 IRadAn=      5 IRanWt=     -1 IRanGd=            0 ICorTp=0 IEmpDi=121
 HFx  wShort=  0.000000 wLong=  0.200000 cFull=  0.222036 cShort=  0.000000 cLong=  0.777964
 DFx  wShort=  0.000000 wLong=  0.200000 cFull=  0.000000 cShort=  0.000000 cLong=  1.000000
 NAtoms=   28 NActive=   28 NUniq=   28 SFac= 1.00D+00 NAtFMM=   60 NAOKFM=F Big=F
 Integral buffers will be    131072 words long.
 Raffenetti 2 integral format.
 Two-electron integral symmetry is turned off.
 R6Disp:  Grimme-D2 Dispersion energy=       -0.0228535623 Hartrees.
 Nuclear repulsion after empirical dispersion term =      683.6202692779 Hartrees.
 Using the following non-standard input for PCM:
 qrep pcmdoc geomview  nodis nocav g03defaults tsare=0.075
 Warning! Using old PCM defaults because the g03defaults keyword was found.
 These settings can be overridden by following keywords.
 nsfe=28
 NVESolv=36  SolvMW=84.1595   Rsolv=2.815
 eps=2.0165 RhoS=0.7781
 --- end of non-standard input.
 Reading user-defined spheres from input:
 ISph  on   Nord    Re0     Alpha      Xe            Ye            Ze
 --- end of user-defined spheres data.
 ------------------------------------------------------------------------------
 Polarizable Continuum Model (PCM)
 =================================
 Model                : PCM.
 Atomic radii         : UA0 (Simple United Atom Topological Model).
 Polarization charges : Total charges.
 Charge compensation  : None.
 Solution method      : On-the-fly selection.
 Cavity type          : SES (Solvent Excluding Surface) (Alpha=1.000).
 Cavity algorithm     : GePol (RMin=0.200 OFac=0.890).
                        User-defined sphere list used, NSphG=   28.
                        Tesserae with average area of 0.075 Ang**2.
                        Smoothing algorithm: None.
                        Polarization charges: point-like.
                        Self-potential: constant (ISelfS= 1).
                        Self-field    : global E.n sum rule (ISelfD= 3).
 Solvent              : CycloHexane, Eps=   2.016500 Eps(inf)=   2.035188
                        RSolv=   2.815000 Ang.
 ------------------------------------------------------------------------------
 GePol: Number of generator spheres                  =      28
 GePol: Total number of spheres                      =     427
 GePol: Number of exposed spheres                    =     264 ( 61.83%)
 GePol: Number of tesserae                           =    4434
 GePol: Average area of tesserae                     =       0.04 Ang**2
 GePol: Minimum area of tessera                      =   0.10D-02 Ang**2
 GePol: Maximum area of tessera                      =    0.12588 Ang**2
 GePol: Number of small tesserae                     =       0
 GePol: Fraction of small tesserae (<1% of avg)      =       0.00%
 GePol: Total count of vertices                      =   16630
 GePol: Maximum number of vertices in a tessera      =       8
 GePol: Cavity surface area                          =    184.537 Ang**2
 GePol: Cavity volume                                =    181.466 Ang**3
 Leave Link  301 at Mon Aug  3 17:26:14 2020, MaxMem=  6442450944 cpu:              11.5 elap:               0.5
 (Enter /scratch/scicomp/CentOS/7.3.1611/Haswell/software/Gaussian/g16/l302.exe)
 NPDir=0 NMtPBC=     1 NCelOv=     1 NCel=       1 NClECP=     1 NCelD=      1
         NCelK=      1 NCelE2=     1 NClLst=     1 CellRange=     0.0.
 One-electron integrals computed using PRISM.
   1 Symmetry operations used in ECPInt.
 ECPInt:  NShTT=   19306 NPrTT=   56928 LenC2=   18504 LenP2D=   42098.
 LDataN:  DoStor=T MaxTD1= 6 Len=  172
 NBasis=   468 RedAO= T EigKep=  2.29D-05  NBF=   468
 NBsUse=   468 1.00D-06 EigRej= -1.00D+00 NBFU=   468
 Precomputing XC quadrature grid using
 IXCGrd= 4 IRadAn=           5 IRanWt=          -1 IRanGd=           0 AccXCQ= 0.00D+00.
 Generated NRdTot=       0 NPtTot=           0 NUsed=           0 NTot=          32
 NSgBfM=   526   526   526   526   526 MxSgAt=    28 MxSgA2=    28.
 Leave Link  302 at Mon Aug  3 17:26:15 2020, MaxMem=  6442450944 cpu:              11.8 elap:               0.5
 (Enter /scratch/scicomp/CentOS/7.3.1611/Haswell/software/Gaussian/g16/l401.exe)
 ExpMin= 9.52D-02 ExpMax= 1.36D+04 ExpMxC= 4.63D+02 IAcc=3 IRadAn=         5 AccDes= 0.00D+00
 Harris functional with IExCor= 4639 and IRadAn=       5 diagonalized for initial guess.
 HarFok:  IExCor= 4639 AccDes= 0.00D+00 IRadAn=         5 IDoV= 1 UseB2=F ITyADJ=14
 ICtDFT=  3500011 ScaDFX=  1.000000  1.000000  1.000000  1.000000
 FoFCou: FMM=F IPFlag=           0 FMFlag=      100000 FMFlg1=           0
         NFxFlg=           0 DoJE=T BraDBF=F KetDBF=T FulRan=T
         wScrn=  0.000000 ICntrl=       500 IOpCl=  0 I1Cent=   200000004 NGrid=           0
         NMat0=    1 NMatS0=      1 NMatT0=    0 NMatD0=    1 NMtDS0=    0 NMtDT0=    0
 Symmetry not used in FoFCou.
 Harris En= -444.623746663631    
 JPrj=0 DoOrth=F DoCkMO=T.
 Mixing orbitals, IMix= 1 IMixAn=  0 NRI=1 NE=   44 Coef=  7.07106781D-01  7.07106781D-01
 Mixing orbitals, IMix= 1 IMixAn=  0 NRI=1 NE=   44 Coef= -7.07106781D-01  7.07106781D-01
 Initial guess <Sx>= 0.0000 <Sy>= 0.0000 <Sz>= 0.0000 <S**2>= 1.0000 S= 0.6180
 Leave Link  401 at Mon Aug  3 17:26:17 2020, MaxMem=  6442450944 cpu:              47.1 elap:               2.0
 (Enter /scratch/scicomp/CentOS/7.3.1611/Haswell/software/Gaussian/g16/l9999.exe)

 This type of calculation cannot be archived.


 AN AIRPLANE IS A COLLECTION OF SPARE PARTS
 FLYING IN CLOSE FORMATION.
 Job cpu time:       0 days  0 hours  1 minutes 16.4 seconds.
 Elapsed time:       0 days  0 hours  0 minutes  3.5 seconds.
 File lengths (MBytes):  RWF=    362 Int=      0 D2E=      0 Chk=      1 Scr=      1
 Normal termination of Gaussian 16 at Mon Aug  3 17:26:17 2020.
