 Entering Gaussian System, Link 0=g16
 Input=meso-TS_22_1_xp-Ger.com
 Output=meso-TS_22_1_xp-Ger.log
 Initial command:
 /scratch/scicomp/CentOS/7.3.1611/Haswell/software/Gaussian/g16/l1.exe "/scratch/bochen/cyclohexadiene-dimerization/wb97xd-def2tzvp/xp-pcm/meso/Gau-22358.inp" -scrdir="/scratch/bochen/cyclohexadiene-dimerization/wb97xd-def2tzvp/xp-pcm/meso/"
 Entering Link 1 = /scratch/scicomp/CentOS/7.3.1611/Haswell/software/Gaussian/g16/l1.exe PID=     22363.
  
 Copyright (c) 1988-2017, Gaussian, Inc.  All Rights Reserved.
  
 This is part of the Gaussian(R) 16 program.  It is based on
 the Gaussian(R) 09 system (copyright 2009, Gaussian, Inc.),
 the Gaussian(R) 03 system (copyright 2003, Gaussian, Inc.),
 the Gaussian(R) 98 system (copyright 1998, Gaussian, Inc.),
 the Gaussian(R) 94 system (copyright 1995, Gaussian, Inc.),
 the Gaussian 92(TM) system (copyright 1992, Gaussian, Inc.),
 the Gaussian 90(TM) system (copyright 1990, Gaussian, Inc.),
 the Gaussian 88(TM) system (copyright 1988, Gaussian, Inc.),
 the Gaussian 86(TM) system (copyright 1986, Carnegie Mellon
 University), and the Gaussian 82(TM) system (copyright 1983,
 Carnegie Mellon University). Gaussian is a federally registered
 trademark of Gaussian, Inc.
  
 This software contains proprietary and confidential information,
 including trade secrets, belonging to Gaussian, Inc.
  
 This software is provided under written license and may be
 used, copied, transmitted, or stored only in accord with that
 written license.
  
 The following legend is applicable only to US Government
 contracts under FAR:
  
                    RESTRICTED RIGHTS LEGEND
  
 Use, reproduction and disclosure by the US Government is
 subject to restrictions as set forth in subparagraphs (a)
 and (c) of the Commercial Computer Software - Restricted
 Rights clause in FAR 52.227-19.
  
 Gaussian, Inc.
 340 Quinnipiac St., Bldg. 40, Wallingford CT 06492
  
  
 ---------------------------------------------------------------
 Warning -- This program may not be used in any manner that
 competes with the business of Gaussian, Inc. or will provide
 assistance to any competitor of Gaussian, Inc.  The licensee
 of this program is prohibited from giving any competitor of
 Gaussian, Inc. access to this program.  By using this program,
 the user acknowledges that Gaussian, Inc. is engaged in the
 business of creating and licensing software in the field of
 computational chemistry and represents and warrants to the
 licensee that it is not a competitor of Gaussian, Inc. and that
 it will not use this program in any manner prohibited above.
 ---------------------------------------------------------------
  

 Cite this work as:
 Gaussian 16, Revision B.01,
 M. J. Frisch, G. W. Trucks, H. B. Schlegel, G. E. Scuseria, 
 M. A. Robb, J. R. Cheeseman, G. Scalmani, V. Barone, 
 G. A. Petersson, H. Nakatsuji, X. Li, M. Caricato, A. V. Marenich, 
 J. Bloino, B. G. Janesko, R. Gomperts, B. Mennucci, H. P. Hratchian, 
 J. V. Ortiz, A. F. Izmaylov, J. L. Sonnenberg, D. Williams-Young, 
 F. Ding, F. Lipparini, F. Egidi, J. Goings, B. Peng, A. Petrone, 
 T. Henderson, D. Ranasinghe, V. G. Zakrzewski, J. Gao, N. Rega, 
 G. Zheng, W. Liang, M. Hada, M. Ehara, K. Toyota, R. Fukuda, 
 J. Hasegawa, M. Ishida, T. Nakajima, Y. Honda, O. Kitao, H. Nakai, 
 T. Vreven, K. Throssell, J. A. Montgomery, Jr., J. E. Peralta, 
 F. Ogliaro, M. J. Bearpark, J. J. Heyd, E. N. Brothers, K. N. Kudin, 
 V. N. Staroverov, T. A. Keith, R. Kobayashi, J. Normand, 
 K. Raghavachari, A. P. Rendell, J. C. Burant, S. S. Iyengar, 
 J. Tomasi, M. Cossi, J. M. Millam, M. Klene, C. Adamo, R. Cammi, 
 J. W. Ochterski, R. L. Martin, K. Morokuma, O. Farkas, 
 J. B. Foresman, and D. J. Fox, Gaussian, Inc., Wallingford CT, 2016.
 
 ******************************************
 Gaussian 16:  ES64L-G16RevB.01 20-Dec-2017
                 4-Aug-2020 
 ******************************************
 %chk=meso-TS_22_1_xp-12.chk
 %nproc=24
 Will use up to   24 processors via shared memory.
 %mem=48GB
 ----------------------------------------------------------------------
 #p uwb97xd guess=mix def2tzvp # scrf=(iefpcm,solvent=Cyclohexane,read)
  nosym 6d 10f
 ----------------------------------------------------------------------
 1/38=1,40=2,172=1/1;
 2/12=2,15=1,17=6,18=5,40=1/2;
 3/5=44,7=101,8=22,11=2,25=1,30=1,70=2203,72=17,74=-58,116=2/1,2,3;
 4/13=-1/1;
 5/5=2,38=5,53=17/2;
 6/7=2,8=2,9=2,10=2,28=1/1;
 99/5=1,9=1/99;
 Leave Link    1 at Tue Aug  4 19:17:07 2020, MaxMem=  6442450944 cpu:               4.4 elap:               0.2
 (Enter /scratch/scicomp/CentOS/7.3.1611/Haswell/software/Gaussian/g16/l101.exe)
 -----------------------
 endo-2 xp-pcm for eta=3
 -----------------------
 Symbolic Z-matrix:
 Charge =  0 Multiplicity = 1
 6                    -3.11855  -0.4235    0.24822 
 6                    -0.40234  -0.11658  -0.67286 
 1                    -4.09357  -0.54605   0.70357 
 1                     0.33363  -0.10803  -1.48117 
 6                     1.10768   1.43412   0.64379 
 6                     0.40234   0.11658   0.67286 
 1                     0.5759    2.33046   0.93732 
 1                    -0.33363   0.10803   1.48117 
 6                     1.43359  -0.98985   0.95388 
 1                     1.83168  -0.82905   1.95916 
 1                     0.95387  -1.97005   0.95435 
 6                     2.39222   1.5308    0.13382 
 1                     2.84055   2.51247   0.02505 
 6                     3.11855   0.4235   -0.24822 
 1                     4.09357   0.54605  -0.70357 
 6                     2.59067  -0.96146  -0.04561 
 1                     2.26347  -1.372    -1.01047 
 1                     3.39445  -1.62245   0.29027 
 6                    -1.10768  -1.43412  -0.64379 
 1                    -0.5759   -2.33046  -0.93732 
 6                    -2.39222  -1.5308   -0.13382 
 1                    -2.84055  -2.51247  -0.02505 
 6                    -1.43359   0.98985  -0.95388 
 1                    -0.95387   1.97005  -0.95435 
 1                    -1.83168   0.82905  -1.95916 
 6                    -2.59067   0.96146   0.04561 
 1                    -3.39445   1.62245  -0.29027 
 1                    -2.26347   1.372     1.01047 
 
 ITRead=  0  0  0  0  0  0  0  0  0  0  0  0  0  0  0  0  0  0  0  0
 ITRead=  0  0  0  0  0  0  0  0
 MicOpt= -1 -1 -1 -1 -1 -1 -1 -1 -1 -1 -1 -1 -1 -1 -1 -1 -1 -1 -1 -1
 MicOpt= -1 -1 -1 -1 -1 -1 -1 -1
 NAtoms=     28 NQM=       28 NQMF=       0 NMMI=      0 NMMIF=      0
                NMic=       0 NMicF=      0.
                    Isotopes and Nuclear Properties:
 (Nuclear quadrupole moments (NQMom) in fm**2, nuclear magnetic moments (NMagM)
  in nuclear magnetons)

  Atom         1           2           3           4           5           6           7           8           9          10
 IAtWgt=          12          12           1           1          12          12           1           1          12           1
 AtmWgt=  12.0000000  12.0000000   1.0078250   1.0078250  12.0000000  12.0000000   1.0078250   1.0078250  12.0000000   1.0078250
 NucSpn=           0           0           1           1           0           0           1           1           0           1
 AtZEff=  -0.0000000  -0.0000000  -0.0000000  -0.0000000  -0.0000000  -0.0000000  -0.0000000  -0.0000000  -0.0000000  -0.0000000
 NQMom=    0.0000000   0.0000000   0.0000000   0.0000000   0.0000000   0.0000000   0.0000000   0.0000000   0.0000000   0.0000000
 NMagM=    0.0000000   0.0000000   2.7928460   2.7928460   0.0000000   0.0000000   2.7928460   2.7928460   0.0000000   2.7928460
 AtZNuc=   6.0000000   6.0000000   1.0000000   1.0000000   6.0000000   6.0000000   1.0000000   1.0000000   6.0000000   1.0000000

  Atom        11          12          13          14          15          16          17          18          19          20
 IAtWgt=           1          12           1          12           1          12           1           1          12           1
 AtmWgt=   1.0078250  12.0000000   1.0078250  12.0000000   1.0078250  12.0000000   1.0078250   1.0078250  12.0000000   1.0078250
 NucSpn=           1           0           1           0           1           0           1           1           0           1
 AtZEff=  -0.0000000  -0.0000000  -0.0000000  -0.0000000  -0.0000000  -0.0000000  -0.0000000  -0.0000000  -0.0000000  -0.0000000
 NQMom=    0.0000000   0.0000000   0.0000000   0.0000000   0.0000000   0.0000000   0.0000000   0.0000000   0.0000000   0.0000000
 NMagM=    2.7928460   0.0000000   2.7928460   0.0000000   2.7928460   0.0000000   2.7928460   2.7928460   0.0000000   2.7928460
 AtZNuc=   1.0000000   6.0000000   1.0000000   6.0000000   1.0000000   6.0000000   1.0000000   1.0000000   6.0000000   1.0000000

  Atom        21          22          23          24          25          26          27          28
 IAtWgt=          12           1          12           1           1          12           1           1
 AtmWgt=  12.0000000   1.0078250  12.0000000   1.0078250   1.0078250  12.0000000   1.0078250   1.0078250
 NucSpn=           0           1           0           1           1           0           1           1
 AtZEff=  -0.0000000  -0.0000000  -0.0000000  -0.0000000  -0.0000000  -0.0000000  -0.0000000  -0.0000000
 NQMom=    0.0000000   0.0000000   0.0000000   0.0000000   0.0000000   0.0000000   0.0000000   0.0000000
 NMagM=    0.0000000   2.7928460   0.0000000   2.7928460   2.7928460   0.0000000   2.7928460   2.7928460
 AtZNuc=   6.0000000   1.0000000   6.0000000   1.0000000   1.0000000   6.0000000   1.0000000   1.0000000
 Leave Link  101 at Tue Aug  4 19:17:08 2020, MaxMem=  6442450944 cpu:               2.5 elap:               0.2
 (Enter /scratch/scicomp/CentOS/7.3.1611/Haswell/software/Gaussian/g16/l202.exe)
                          Input orientation:                          
 ---------------------------------------------------------------------
 Center     Atomic      Atomic             Coordinates (Angstroms)
 Number     Number       Type             X           Y           Z
 ---------------------------------------------------------------------
      1          6           0       -3.118545   -0.423500    0.248223
      2          6           0       -0.402344   -0.116575   -0.672864
      3          1           0       -4.093571   -0.546048    0.703566
      4          1           0        0.333633   -0.108030   -1.481168
      5          6           0        1.107682    1.434119    0.643785
      6          6           0        0.402344    0.116575    0.672864
      7          1           0        0.575901    2.330463    0.937322
      8          1           0       -0.333633    0.108030    1.481168
      9          6           0        1.433587   -0.989852    0.953879
     10          1           0        1.831677   -0.829046    1.959162
     11          1           0        0.953866   -1.970051    0.954345
     12          6           0        2.392223    1.530795    0.133818
     13          1           0        2.840546    2.512465    0.025049
     14          6           0        3.118545    0.423500   -0.248223
     15          1           0        4.093571    0.546048   -0.703566
     16          6           0        2.590666   -0.961461   -0.045609
     17          1           0        2.263468   -1.371998   -1.010466
     18          1           0        3.394447   -1.622447    0.290265
     19          6           0       -1.107682   -1.434119   -0.643785
     20          1           0       -0.575901   -2.330463   -0.937322
     21          6           0       -2.392223   -1.530795   -0.133818
     22          1           0       -2.840546   -2.512465   -0.025049
     23          6           0       -1.433587    0.989852   -0.953879
     24          1           0       -0.953866    1.970051   -0.954345
     25          1           0       -1.831677    0.829046   -1.959162
     26          6           0       -2.590666    0.961461    0.045609
     27          1           0       -3.394447    1.622447   -0.290265
     28          1           0       -2.263468    1.371998    1.010466
 ---------------------------------------------------------------------
                    Distance matrix (angstroms):
                    1          2          3          4          5
     1  C    0.000000
     2  C    2.884502   0.000000
     3  H    1.083066   3.962848   0.000000
     4  H    3.873996   1.093202   4.956315   0.000000
     5  C    4.633380   2.533455   5.565759   2.737298   0.000000
     6  C    3.587292   1.585202   4.544586   2.166800   1.494747
     7  H    4.659195   3.088310   5.489347   3.442969   1.082768
     8  H    3.091668   2.166800   3.894819   3.044234   2.130050
     9  C    4.641186   2.603757   5.550594   2.813710   2.465362
    10  H    5.253235   3.525057   6.063429   3.820978   2.715935
    11  H    4.413044   2.814691   5.250457   3.127864   3.421766
    12  C    5.848155   3.342779   6.833990   3.087348   1.385445
    13  H    6.646839   4.232643   7.608999   3.926869   2.132717
    14  C    6.313886   3.587292   7.338974   3.091668   2.420867
    15  H    7.338974   4.544586   8.378663   3.894819   3.394047
    16  C    5.742023   3.172600   6.738906   2.807734   2.900570
    17  H    5.608031   2.965909   6.635665   2.354451   3.456397
    18  H    6.622560   4.196533   7.576270   3.847079   3.833649
    19  C    2.420867   1.494747   3.394047   2.130050   3.846097
    20  H    3.392206   2.236372   4.272078   2.462159   4.416608
    21  C    1.378260   2.500041   2.136709   3.357068   4.652388
    22  H    2.125026   3.479193   2.442897   4.239930   5.622399
    23  C    2.506331   1.538380   3.490219   2.146263   3.034461
    24  H    3.443994   2.176561   4.351686   2.500723   2.662935
    25  H    2.845602   2.142838   3.754620   2.407313   3.972566
    26  C    1.495936   2.543053   2.228052   3.467908   3.776109
    27  H    2.133539   3.481847   2.485728   4.279180   4.601856
    28  H    2.129785   2.917744   2.668776   3.891485   3.391602
                    6          7          8          9         10
     6  C    0.000000
     7  H    2.236372   0.000000
     8  H    1.093202   2.462159   0.000000
     9  C    1.538380   3.429343   2.146263   0.000000
    10  H    2.142838   3.550159   2.407313   1.093128   0.000000
    11  H    2.176561   4.317125   2.500723   1.091294   1.755592
    12  C    2.500041   2.141054   3.357068   2.818713   3.035612
    13  H    3.479193   2.448261   4.239930   3.886963   3.990527
    14  C    2.884502   3.392206   3.873996   2.506331   2.845602
    15  H    3.962848   4.272078   4.956315   3.490219   3.754620
    16  C    2.543053   3.982737   3.467908   1.529253   2.147721
    17  H    2.917744   4.511095   3.891485   2.166423   3.049579
    18  H    3.481847   4.897794   4.279180   2.164609   2.420114
    19  C    2.533455   4.416608   2.737298   3.034461   3.972566
    20  H    3.088310   5.154141   3.442969   3.067885   4.054665
    21  C    3.342779   4.986624   3.087348   4.014041   4.765957
    22  H    4.232643   6.004350   3.926869   4.641644   5.347959
    23  C    2.603757   3.067885   2.813710   3.972336   4.738792
    24  H    2.814691   2.459367   3.127864   4.254677   4.907414
    25  H    3.525057   4.054665   3.820978   4.738792   5.614508
    26  C    3.172600   3.563210   2.807734   4.563682   5.140498
    27  H    4.196533   4.215675   3.847079   5.628669   6.195330
    28  H    2.965909   2.997669   2.354451   4.387454   4.744980
                   11         12         13         14         15
    11  H    0.000000
    12  C    3.872733   0.000000
    13  H    4.951374   1.084666   0.000000
    14  C    3.443994   1.378260   2.125026   0.000000
    15  H    4.351686   2.136709   2.442897   1.083066   0.000000
    16  C    2.167089   2.506574   3.483618   1.495936   2.228052
    17  H    2.435818   3.122847   4.061325   2.129785   2.668776
    18  H    2.553090   3.312380   4.180268   2.133539   2.485728
    19  C    2.662935   4.652388   5.622399   4.633380   5.565759
    20  H    2.459367   4.986624   6.004350   4.659195   5.489347
    21  C    3.545893   5.686465   6.614761   5.848155   6.833990
    22  H    3.956133   6.614761   7.584671   6.646839   7.608999
    23  C    4.254677   4.014041   4.641644   4.641186   5.550594
    24  H    4.775661   3.545893   3.956133   4.413044   5.250457
    25  H    4.907414   4.765957   5.347959   5.253235   6.063429
    26  C    4.688632   5.016085   5.648371   5.742023   6.738906
    27  H    5.776065   5.802913   6.306084   6.622560   7.576270
    28  H    4.639362   4.740167   5.321905   5.608031   6.635665
                   16         17         18         19         20
    16  C    0.000000
    17  H    1.098430   0.000000
    18  H    1.093516   1.741763   0.000000
    19  C    3.776109   3.391602   4.601856   0.000000
    20  H    3.563210   2.997669   4.215675   1.082768   0.000000
    21  C    5.016085   4.740167   5.802913   1.385445   2.141054
    22  H    5.648371   5.321905   6.306084   2.132717   2.448261
    23  C    4.563682   4.387454   5.628669   2.465362   3.429343
    24  H    4.688632   4.639362   5.776065   3.421766   4.317125
    25  H    5.140498   4.744980   6.195330   2.715935   3.550159
    26  C    5.527400   5.488437   6.523650   2.900570   3.982737
    27  H    6.523650   6.441847   7.546882   3.833649   4.897794
    28  H    5.488437   5.666289   6.441847   3.456397   4.511095
                   21         22         23         24         25
    21  C    0.000000
    22  H    1.084666   0.000000
    23  C    2.818713   3.886963   0.000000
    24  H    3.872733   4.951374   1.091294   0.000000
    25  H    3.035612   3.990527   1.093128   1.755592   0.000000
    26  C    2.506574   3.483618   1.529253   2.167089   2.147721
    27  H    3.312380   4.180268   2.164609   2.553090   2.420114
    28  H    3.122847   4.061325   2.166423   2.435818   3.049579
                   26         27         28
    26  C    0.000000
    27  H    1.093516   0.000000
    28  H    1.098430   1.741763   0.000000
 Symmetry turned off by external request.
 Stoichiometry    C12H16
 Framework group  CI[X(C12H16)]
 Deg. of freedom    39
 Full point group                 CI      NOp   2
 Rotational constants (GHZ):           2.0078497           0.6490302           0.5559470
 Leave Link  202 at Tue Aug  4 19:17:08 2020, MaxMem=  6442450944 cpu:               0.3 elap:               0.1
 (Enter /scratch/scicomp/CentOS/7.3.1611/Haswell/software/Gaussian/g16/l301.exe)
 Standard basis: def2TZVP (6D, 10F)
 Ernie: Thresh=  0.10000D-02 Tol=  0.10000D-05 Strict=F.
   528 basis functions,   740 primitive gaussians,   528 cartesian basis functions
    44 alpha electrons       44 beta electrons
       nuclear repulsion energy       696.7492334605 Hartrees.
 IExCor= 4639 DFT=T Ex+Corr=wB97XD ExCW=0 ScaHFX=  1.000000
 ScaDFX=  1.000000  1.000000  1.000000  1.000000 ScalE2=  1.000000  1.000000
 IRadAn=      5 IRanWt=     -1 IRanGd=            0 ICorTp=0 IEmpDi=121
 HFx  wShort=  0.000000 wLong=  0.200000 cFull=  0.222036 cShort=  0.000000 cLong=  0.777964
 DFx  wShort=  0.000000 wLong=  0.200000 cFull=  0.000000 cShort=  0.000000 cLong=  1.000000
 NAtoms=   28 NActive=   28 NUniq=   28 SFac= 1.00D+00 NAtFMM=   60 NAOKFM=F Big=F
 Integral buffers will be    131072 words long.
 Raffenetti 2 integral format.
 Two-electron integral symmetry is turned off.
 R6Disp:  Grimme-D2 Dispersion energy=       -0.0228760933 Hartrees.
 Nuclear repulsion after empirical dispersion term =      696.7263573672 Hartrees.
 Using the following non-standard input for PCM:
 qrep pcmdoc geomview  nodis nocav g03defaults tsare=0.075
 Warning! Using old PCM defaults because the g03defaults keyword was found.
 These settings can be overridden by following keywords.
 nsfe=28
 NVESolv=36  SolvMW=84.1595   Rsolv=2.815
 eps=2.0165 RhoS=0.778099999999998
 --- end of non-standard input.
 Reading user-defined spheres from input:
 ISph  on   Nord    Re0     Alpha      Xe            Ye            Ze
 --- end of user-defined spheres data.
 ------------------------------------------------------------------------------
 Polarizable Continuum Model (PCM)
 =================================
 Model                : PCM.
 Atomic radii         : UA0 (Simple United Atom Topological Model).
 Polarization charges : Total charges.
 Charge compensation  : None.
 Solution method      : On-the-fly selection.
 Cavity type          : SES (Solvent Excluding Surface) (Alpha=1.000).
 Cavity algorithm     : GePol (RMin=0.200 OFac=0.890).
                        User-defined sphere list used, NSphG=   28.
                        Tesserae with average area of 0.075 Ang**2.
                        Smoothing algorithm: None.
                        Polarization charges: point-like.
                        Self-potential: constant (ISelfS= 1).
                        Self-field    : global E.n sum rule (ISelfD= 3).
 Solvent              : CycloHexane, Eps=   2.016500 Eps(inf)=   2.035188
                        RSolv=   2.815000 Ang.
 ------------------------------------------------------------------------------
 GePol: Number of generator spheres                  =      28
 GePol: Total number of spheres                      =     148
 GePol: Number of exposed spheres                    =     114 ( 77.03%)
 GePol: Number of tesserae                           =    4625
 GePol: Average area of tesserae                     =       0.05 Ang**2
 GePol: Minimum area of tessera                      =   0.10D-02 Ang**2
 GePol: Maximum area of tessera                      =    0.12395 Ang**2
 GePol: Number of small tesserae                     =       0
 GePol: Fraction of small tesserae (<1% of avg)      =       0.00%
 GePol: Total count of vertices                      =   16275
 GePol: Maximum number of vertices in a tessera      =       7
 GePol: Cavity surface area                          =    217.884 Ang**2
 GePol: Cavity volume                                =    244.224 Ang**3
 Leave Link  301 at Tue Aug  4 19:17:08 2020, MaxMem=  6442450944 cpu:               7.5 elap:               0.4
 (Enter /scratch/scicomp/CentOS/7.3.1611/Haswell/software/Gaussian/g16/l302.exe)
 NPDir=0 NMtPBC=     1 NCelOv=     1 NCel=       1 NClECP=     1 NCelD=      1
         NCelK=      1 NCelE2=     1 NClLst=     1 CellRange=     0.0.
 One-electron integrals computed using PRISM.
   1 Symmetry operations used in ECPInt.
 ECPInt:  NShTT=   19306 NPrTT=   56928 LenC2=   18540 LenP2D=   42344.
 LDataN:  DoStor=T MaxTD1= 6 Len=  172
 NBasis=   528 RedAO= T EigKep=  2.48D-05  NBF=   528
 NBsUse=   528 1.00D-06 EigRej= -1.00D+00 NBFU=   528
 Precomputing XC quadrature grid using
 IXCGrd= 4 IRadAn=           5 IRanWt=          -1 IRanGd=           0 AccXCQ= 0.00D+00.
 Generated NRdTot=       0 NPtTot=           0 NUsed=           0 NTot=          32
 NSgBfM=   526   526   526   526   526 MxSgAt=    28 MxSgA2=    28.
 Leave Link  302 at Tue Aug  4 19:17:09 2020, MaxMem=  6442450944 cpu:              12.9 elap:               0.6
 (Enter /scratch/scicomp/CentOS/7.3.1611/Haswell/software/Gaussian/g16/l303.exe)
 DipDrv:  MaxL=1.
 Leave Link  303 at Tue Aug  4 19:17:09 2020, MaxMem=  6442450944 cpu:               1.6 elap:               0.1
 (Enter /scratch/scicomp/CentOS/7.3.1611/Haswell/software/Gaussian/g16/l401.exe)
 ExpMin= 9.52D-02 ExpMax= 1.36D+04 ExpMxC= 4.63D+02 IAcc=3 IRadAn=         5 AccDes= 0.00D+00
 Harris functional with IExCor= 4639 and IRadAn=       5 diagonalized for initial guess.
 HarFok:  IExCor= 4639 AccDes= 0.00D+00 IRadAn=         5 IDoV= 1 UseB2=F ITyADJ=14
 ICtDFT=  3500011 ScaDFX=  1.000000  1.000000  1.000000  1.000000
 FoFCou: FMM=F IPFlag=           0 FMFlag=      100000 FMFlg1=           0
         NFxFlg=           0 DoJE=T BraDBF=F KetDBF=T FulRan=T
         wScrn=  0.000000 ICntrl=       500 IOpCl=  0 I1Cent=   200000004 NGrid=           0
         NMat0=    1 NMatS0=      1 NMatT0=    0 NMatD0=    1 NMtDS0=    0 NMtDT0=    0
 Symmetry not used in FoFCou.
 Harris En= -444.601683823236    
 JPrj=0 DoOrth=F DoCkMO=T.
 Mixing orbitals, IMix= 1 IMixAn=  0 NRI=1 NE=   44 Coef=  7.07106781D-01  7.07106781D-01
 Mixing orbitals, IMix= 1 IMixAn=  0 NRI=1 NE=   44 Coef= -7.07106781D-01  7.07106781D-01
 Initial guess <Sx>= 0.0000 <Sy>= 0.0000 <Sz>= 0.0000 <S**2>= 1.0000 S= 0.6180
 Leave Link  401 at Tue Aug  4 19:17:11 2020, MaxMem=  6442450944 cpu:              50.1 elap:               2.2
 (Enter /scratch/scicomp/CentOS/7.3.1611/Haswell/software/Gaussian/g16/l502.exe)
 Two-electron integral symmetry not used.
 UHF open shell SCF:
 Using DIIS extrapolation, IDIIS=  1040.
 NGot=  6442450944 LenX=  6441877030 LenY=  6441597718
 Requested convergence on RMS density matrix=1.00D-08 within 128 cycles.
 Requested convergence on MAX density matrix=1.00D-06.
 Requested convergence on             energy=1.00D-06.
 No special actions if energy rises.
 Fock matrices will be formed incrementally for  20 cycles.

 Cycle   1  Pass 1  IDiag  1:
 FoFJK:  IHMeth= 1 ICntrl=       0 DoSepK=T KAlg= 0 I1Cent=           0 FoldK=F
 IRaf=         1 NMat=       1 IRICut=       1 DoRegI=T DoRafI=F ISym2E= 0 IDoP0=0 IntGTp=1.
 FoFCou: FMM=F IPFlag=           0 FMFlag=      100000 FMFlg1=           0
         NFxFlg=           0 DoJE=T BraDBF=F KetDBF=F FulRan=T
         wScrn=  0.000000 ICntrl=       500 IOpCl=  0 I1Cent=           0 NGrid=           0
         NMat0=    1 NMatS0=      1 NMatT0=    0 NMatD0=    1 NMtDS0=    0 NMtDT0=    0
 Symmetry not used in FoFCou.
 Inv3:  Mode=1 IEnd=    64171875.
 Iteration    1 A*A^-1 deviation from unit magnitude is 4.80D-14 for   3761.
 Iteration    1 A*A^-1 deviation from orthogonality  is 2.04D-14 for   3761   3203.
 Iteration    1 A^-1*A deviation from unit magnitude is 4.09D-14 for   3761.
 Iteration    1 A^-1*A deviation from orthogonality  is 5.73D-15 for   3225   3203.
 E= -466.684606046173    
 DIIS: error= 6.45D-02 at cycle   1 NSaved=   1.
 NSaved= 1 IEnMin= 1 EnMin= -466.684606046173     IErMin= 1 ErrMin= 6.45D-02
 ErrMax= 6.45D-02  0.00D+00 EMaxC= 1.00D-01 BMatC= 4.10D+00 BMatP= 4.10D+00
 IDIUse=3 WtCom= 3.55D-01 WtEn= 6.45D-01
 Coeff-Com:  0.100D+01
 Coeff-En:   0.100D+01
 Coeff:      0.100D+01
 Gap=     0.233 Goal=   None    Shift=    0.000
 Gap=     0.233 Goal=   None    Shift=    0.000
 GapD=    0.233 DampG=1.000 DampE=0.500 DampFc=0.5000 IDamp=-1.
 Damping current iteration by 5.00D-01
 RMSDP=1.44D-03 MaxDP=9.21D-02              OVMax= 5.22D-02

 Cycle   2  Pass 1  IDiag  1:
 RMSU=  7.03D-04    CP:  9.76D-01
 E= -466.754362030496     Delta-E=       -0.069755984322 Rises=F Damp=T
 DIIS: error= 3.05D-02 at cycle   2 NSaved=   2.
 NSaved= 2 IEnMin= 2 EnMin= -466.754362030496     IErMin= 2 ErrMin= 3.05D-02
 ErrMax= 3.05D-02  0.00D+00 EMaxC= 1.00D-01 BMatC= 9.19D-01 BMatP= 4.10D+00
 IDIUse=3 WtCom= 6.95D-01 WtEn= 3.05D-01
 Coeff-Com: -0.864D+00 0.186D+01
 Coeff-En:   0.000D+00 0.100D+01
 Coeff:     -0.600D+00 0.160D+01
 Gap=     0.241 Goal=   None    Shift=    0.000
 Gap=     0.241 Goal=   None    Shift=    0.000
 RMSDP=8.90D-04 MaxDP=4.90D-02 DE=-6.98D-02 OVMax= 3.20D-02

 Cycle   3  Pass 1  IDiag  1:
 RMSU=  4.25D-04    CP:  9.50D-01  2.09D+00
 E= -466.822589603688     Delta-E=       -0.068227573192 Rises=F Damp=F
 DIIS: error= 2.52D-03 at cycle   3 NSaved=   3.
 NSaved= 3 IEnMin= 3 EnMin= -466.822589603688     IErMin= 3 ErrMin= 2.52D-03
 ErrMax= 2.52D-03  0.00D+00 EMaxC= 1.00D-01 BMatC= 1.62D-02 BMatP= 9.19D-01
 IDIUse=3 WtCom= 9.75D-01 WtEn= 2.52D-02
 Coeff-Com: -0.301D+00 0.653D+00 0.649D+00
 Coeff-En:   0.000D+00 0.000D+00 0.100D+01
 Coeff:     -0.294D+00 0.636D+00 0.658D+00
 Gap=     0.246 Goal=   None    Shift=    0.000
 Gap=     0.246 Goal=   None    Shift=    0.000
 RMSDP=1.06D-04 MaxDP=4.60D-03 DE=-6.82D-02 OVMax= 1.27D-02

 Cycle   4  Pass 1  IDiag  1:
 RMSU=  8.64D-05    CP:  9.47D-01  2.15D+00  9.08D-01
 E= -466.826785127210     Delta-E=       -0.004195523522 Rises=F Damp=F
 DIIS: error= 9.73D-04 at cycle   4 NSaved=   4.
 NSaved= 4 IEnMin= 4 EnMin= -466.826785127210     IErMin= 4 ErrMin= 9.73D-04
 ErrMax= 9.73D-04  0.00D+00 EMaxC= 1.00D-01 BMatC= 5.62D-04 BMatP= 1.62D-02
 IDIUse=3 WtCom= 9.90D-01 WtEn= 9.73D-03
 Coeff-Com:  0.106D+00-0.230D+00-0.130D+00 0.125D+01
 Coeff-En:   0.000D+00 0.000D+00 0.000D+00 0.100D+01
 Coeff:      0.105D+00-0.227D+00-0.128D+00 0.125D+01
 Gap=     0.251 Goal=   None    Shift=    0.000
 Gap=     0.251 Goal=   None    Shift=    0.000
 RMSDP=7.86D-05 MaxDP=4.82D-03 DE=-4.20D-03 OVMax= 1.23D-02

 Cycle   5  Pass 1  IDiag  1:
 RMSU=  3.30D-05    CP:  9.46D-01  2.19D+00  1.03D+00  1.42D+00
 E= -466.827422438614     Delta-E=       -0.000637311404 Rises=F Damp=F
 DIIS: error= 4.89D-04 at cycle   5 NSaved=   5.
 NSaved= 5 IEnMin= 5 EnMin= -466.827422438614     IErMin= 5 ErrMin= 4.89D-04
 ErrMax= 4.89D-04  0.00D+00 EMaxC= 1.00D-01 BMatC= 1.56D-04 BMatP= 5.62D-04
 IDIUse=3 WtCom= 9.95D-01 WtEn= 4.89D-03
 Coeff-Com:  0.551D-01-0.120D+00-0.101D+00 0.205D+00 0.960D+00
 Coeff-En:   0.000D+00 0.000D+00 0.000D+00 0.000D+00 0.100D+01
 Coeff:      0.549D-01-0.119D+00-0.100D+00 0.204D+00 0.960D+00
 Gap=     0.253 Goal=   None    Shift=    0.000
 Gap=     0.253 Goal=   None    Shift=    0.000
 RMSDP=2.69D-05 MaxDP=1.54D-03 DE=-6.37D-04 OVMax= 6.62D-03

 Cycle   6  Pass 1  IDiag  1:
 RMSU=  1.66D-05    CP:  9.46D-01  2.20D+00  1.05D+00  1.58D+00  1.39D+00
 E= -466.827568310125     Delta-E=       -0.000145871511 Rises=F Damp=F
 DIIS: error= 2.64D-04 at cycle   6 NSaved=   6.
 NSaved= 6 IEnMin= 6 EnMin= -466.827568310125     IErMin= 6 ErrMin= 2.64D-04
 ErrMax= 2.64D-04  0.00D+00 EMaxC= 1.00D-01 BMatC= 5.69D-05 BMatP= 1.56D-04
 IDIUse=3 WtCom= 9.97D-01 WtEn= 2.64D-03
 Coeff-Com: -0.228D-01 0.490D-01 0.153D-01-0.435D+00 0.382D+00 0.101D+01
 Coeff-En:   0.000D+00 0.000D+00 0.000D+00 0.000D+00 0.000D+00 0.100D+01
 Coeff:     -0.227D-01 0.488D-01 0.153D-01-0.434D+00 0.381D+00 0.101D+01
 Gap=     0.255 Goal=   None    Shift=    0.000
 Gap=     0.255 Goal=   None    Shift=    0.000
 RMSDP=1.86D-05 MaxDP=1.19D-03 DE=-1.46D-04 OVMax= 4.83D-03

 Cycle   7  Pass 1  IDiag  1:
 RMSU=  8.83D-06    CP:  9.46D-01  2.20D+00  1.06D+00  1.66D+00  1.81D+00
                    CP:  1.21D+00
 E= -466.827619237650     Delta-E=       -0.000050927524 Rises=F Damp=F
 DIIS: error= 5.65D-05 at cycle   7 NSaved=   7.
 NSaved= 7 IEnMin= 7 EnMin= -466.827619237650     IErMin= 7 ErrMin= 5.65D-05
 ErrMax= 5.65D-05  0.00D+00 EMaxC= 1.00D-01 BMatC= 3.23D-06 BMatP= 5.69D-05
 IDIUse=1 WtCom= 1.00D+00 WtEn= 0.00D+00
 Coeff-Com: -0.101D-01 0.219D-01 0.126D-01-0.106D+00-0.230D-01 0.197D+00
 Coeff-Com:  0.908D+00
 Coeff:     -0.101D-01 0.219D-01 0.126D-01-0.106D+00-0.230D-01 0.197D+00
 Coeff:      0.908D+00
 Gap=     0.255 Goal=   None    Shift=    0.000
 Gap=     0.255 Goal=   None    Shift=    0.000
 RMSDP=5.06D-06 MaxDP=3.22D-04 DE=-5.09D-05 OVMax= 1.16D-03

 Cycle   8  Pass 1  IDiag  1:
 RMSU=  2.23D-06    CP:  9.46D-01  2.20D+00  1.06D+00  1.66D+00  1.86D+00
                    CP:  1.37D+00  1.23D+00
 E= -466.827621903926     Delta-E=       -0.000002666276 Rises=F Damp=F
 DIIS: error= 2.85D-05 at cycle   8 NSaved=   8.
 NSaved= 8 IEnMin= 8 EnMin= -466.827621903926     IErMin= 8 ErrMin= 2.85D-05
 ErrMax= 2.85D-05  0.00D+00 EMaxC= 1.00D-01 BMatC= 5.38D-07 BMatP= 3.23D-06
 IDIUse=1 WtCom= 1.00D+00 WtEn= 0.00D+00
 Coeff-Com:  0.363D-03-0.758D-03 0.143D-02 0.328D-01-0.607D-01-0.914D-01
 Coeff-Com:  0.238D+00 0.881D+00
 Coeff:      0.363D-03-0.758D-03 0.143D-02 0.328D-01-0.607D-01-0.914D-01
 Coeff:      0.238D+00 0.881D+00
 Gap=     0.255 Goal=   None    Shift=    0.000
 Gap=     0.255 Goal=   None    Shift=    0.000
 RMSDP=2.10D-06 MaxDP=1.37D-04 DE=-2.67D-06 OVMax= 3.94D-04

 Cycle   9  Pass 1  IDiag  1:
 RMSU=  9.30D-07    CP:  9.46D-01  2.20D+00  1.06D+00  1.65D+00  1.87D+00
                    CP:  1.40D+00  1.38D+00  1.31D+00
 E= -466.827622258135     Delta-E=       -0.000000354210 Rises=F Damp=F
 DIIS: error= 1.17D-05 at cycle   9 NSaved=   9.
 NSaved= 9 IEnMin= 9 EnMin= -466.827622258135     IErMin= 9 ErrMin= 1.17D-05
 ErrMax= 1.17D-05  0.00D+00 EMaxC= 1.00D-01 BMatC= 5.65D-08 BMatP= 5.38D-07
 IDIUse=1 WtCom= 1.00D+00 WtEn= 0.00D+00
 Coeff-Com:  0.142D-02-0.307D-02-0.133D-02 0.213D-01-0.111D-01-0.474D-01
 Coeff-Com: -0.587D-01 0.214D+00 0.885D+00
 Coeff:      0.142D-02-0.307D-02-0.133D-02 0.213D-01-0.111D-01-0.474D-01
 Coeff:     -0.587D-01 0.214D+00 0.885D+00
 Gap=     0.255 Goal=   None    Shift=    0.000
 Gap=     0.255 Goal=   None    Shift=    0.000
 RMSDP=7.85D-07 MaxDP=4.32D-05 DE=-3.54D-07 OVMax= 1.64D-04

 Cycle  10  Pass 1  IDiag  1:
 RMSU=  3.15D-07    CP:  9.46D-01  2.20D+00  1.06D+00  1.65D+00  1.86D+00
                    CP:  1.40D+00  1.42D+00  1.51D+00  1.30D+00
 E= -466.827622299385     Delta-E=       -0.000000041249 Rises=F Damp=F
 DIIS: error= 3.75D-06 at cycle  10 NSaved=  10.
 NSaved=10 IEnMin=10 EnMin= -466.827622299385     IErMin=10 ErrMin= 3.75D-06
 ErrMax= 3.75D-06  0.00D+00 EMaxC= 1.00D-01 BMatC= 4.45D-09 BMatP= 5.65D-08
 IDIUse=1 WtCom= 1.00D+00 WtEn= 0.00D+00
 Coeff-Com: -0.112D-03 0.244D-03-0.772D-04-0.431D-02 0.606D-02 0.114D-01
 Coeff-Com: -0.177D-01-0.939D-01-0.480D-01 0.115D+01
 Coeff:     -0.112D-03 0.244D-03-0.772D-04-0.431D-02 0.606D-02 0.114D-01
 Coeff:     -0.177D-01-0.939D-01-0.480D-01 0.115D+01
 Gap=     0.255 Goal=   None    Shift=    0.000
 Gap=     0.255 Goal=   None    Shift=    0.000
 RMSDP=3.30D-07 MaxDP=2.48D-05 DE=-4.12D-08 OVMax= 6.62D-05

 Cycle  11  Pass 1  IDiag  1:
 RMSU=  1.08D-07    CP:  9.46D-01  2.20D+00  1.06D+00  1.65D+00  1.86D+00
                    CP:  1.39D+00  1.43D+00  1.58D+00  1.50D+00  1.40D+00
 E= -466.827622304183     Delta-E=       -0.000000004798 Rises=F Damp=F
 DIIS: error= 7.48D-07 at cycle  11 NSaved=  11.
 NSaved=11 IEnMin=11 EnMin= -466.827622304183     IErMin=11 ErrMin= 7.48D-07
 ErrMax= 7.48D-07  0.00D+00 EMaxC= 1.00D-01 BMatC= 1.07D-09 BMatP= 4.45D-09
 IDIUse=1 WtCom= 1.00D+00 WtEn= 0.00D+00
 Coeff-Com: -0.219D-03 0.475D-03 0.139D-03-0.417D-02 0.346D-02 0.100D-01
 Coeff-Com:  0.944D-03-0.590D-01-0.124D+00 0.396D+00 0.776D+00
 Coeff:     -0.219D-03 0.475D-03 0.139D-03-0.417D-02 0.346D-02 0.100D-01
 Coeff:      0.944D-03-0.590D-01-0.124D+00 0.396D+00 0.776D+00
 Gap=     0.255 Goal=   None    Shift=    0.000
 Gap=     0.255 Goal=   None    Shift=    0.000
 RMSDP=9.39D-08 MaxDP=7.15D-06 DE=-4.80D-09 OVMax= 1.67D-05

 Cycle  12  Pass 1  IDiag  1:
 RMSU=  3.84D-08    CP:  9.46D-01  2.20D+00  1.06D+00  1.65D+00  1.86D+00
                    CP:  1.39D+00  1.43D+00  1.59D+00  1.54D+00  1.53D+00
                    CP:  1.32D+00
 E= -466.827622304830     Delta-E=       -0.000000000647 Rises=F Damp=F
 DIIS: error= 3.06D-07 at cycle  12 NSaved=  12.
 NSaved=12 IEnMin=12 EnMin= -466.827622304830     IErMin=12 ErrMin= 3.06D-07
 ErrMax= 3.06D-07  0.00D+00 EMaxC= 1.00D-01 BMatC= 1.19D-10 BMatP= 1.07D-09
 IDIUse=1 WtCom= 1.00D+00 WtEn= 0.00D+00
 Coeff-Com:  0.330D-04-0.719D-04-0.723D-05 0.866D-03-0.105D-02-0.207D-02
 Coeff-Com:  0.217D-02 0.160D-01 0.153D-01-0.180D+00-0.263D-01 0.118D+01
 Coeff:      0.330D-04-0.719D-04-0.723D-05 0.866D-03-0.105D-02-0.207D-02
 Coeff:      0.217D-02 0.160D-01 0.153D-01-0.180D+00-0.263D-01 0.118D+01
 Gap=     0.255 Goal=   None    Shift=    0.000
 Gap=     0.255 Goal=   None    Shift=    0.000
 RMSDP=4.57D-08 MaxDP=2.24D-06 DE=-6.47D-10 OVMax= 8.40D-06

 Cycle  13  Pass 1  IDiag  1:
 RMSU=  1.76D-08    CP:  9.46D-01  2.20D+00  1.06D+00  1.65D+00  1.86D+00
                    CP:  1.39D+00  1.43D+00  1.59D+00  1.55D+00  1.58D+00
                    CP:  1.62D+00  1.47D+00
 E= -466.827622305001     Delta-E=       -0.000000000171 Rises=F Damp=F
 DIIS: error= 1.88D-07 at cycle  13 NSaved=  13.
 NSaved=13 IEnMin=13 EnMin= -466.827622305001     IErMin=13 ErrMin= 1.88D-07
 ErrMax= 1.88D-07  0.00D+00 EMaxC= 1.00D-01 BMatC= 2.61D-11 BMatP= 1.19D-10
 IDIUse=1 WtCom= 1.00D+00 WtEn= 0.00D+00
 Coeff-Com:  0.344D-04-0.744D-04-0.194D-04 0.659D-03-0.534D-03-0.163D-02
 Coeff-Com: -0.879D-04 0.912D-02 0.205D-01-0.619D-01-0.134D+00-0.674D-01
 Coeff-Com:  0.124D+01
 Coeff:      0.344D-04-0.744D-04-0.194D-04 0.659D-03-0.534D-03-0.163D-02
 Coeff:     -0.879D-04 0.912D-02 0.205D-01-0.619D-01-0.134D+00-0.674D-01
 Coeff:      0.124D+01
 Gap=     0.255 Goal=   None    Shift=    0.000
 Gap=     0.255 Goal=   None    Shift=    0.000
 RMSDP=2.25D-08 MaxDP=9.94D-07 DE=-1.71D-10 OVMax= 5.55D-06

 Cycle  14  Pass 1  IDiag  1:
 RMSU=  8.09D-09    CP:  9.46D-01  2.20D+00  1.06D+00  1.65D+00  1.86D+00
                    CP:  1.39D+00  1.43D+00  1.59D+00  1.55D+00  1.58D+00
                    CP:  1.73D+00  1.72D+00  1.67D+00
 E= -466.827622305063     Delta-E=       -0.000000000063 Rises=F Damp=F
 DIIS: error= 1.04D-07 at cycle  14 NSaved=  14.
 NSaved=14 IEnMin=14 EnMin= -466.827622305063     IErMin=14 ErrMin= 1.04D-07
 ErrMax= 1.04D-07  0.00D+00 EMaxC= 1.00D-01 BMatC= 6.75D-12 BMatP= 2.61D-11
 IDIUse=1 WtCom= 1.00D+00 WtEn= 0.00D+00
 Coeff-Com: -0.982D-05 0.214D-04 0.414D-05-0.237D-03 0.279D-03 0.543D-03
 Coeff-Com: -0.426D-03-0.441D-02-0.439D-02 0.447D-01 0.119D-01-0.271D+00
 Coeff-Com: -0.576D-01 0.128D+01
 Coeff:     -0.982D-05 0.214D-04 0.414D-05-0.237D-03 0.279D-03 0.543D-03
 Coeff:     -0.426D-03-0.441D-02-0.439D-02 0.447D-01 0.119D-01-0.271D+00
 Coeff:     -0.576D-01 0.128D+01
 Gap=     0.255 Goal=   None    Shift=    0.000
 Gap=     0.255 Goal=   None    Shift=    0.000
 RMSDP=1.19D-08 MaxDP=5.57D-07 DE=-6.25D-11 OVMax= 3.61D-06

 Cycle  15  Pass 1  IDiag  1:
 RMSU=  3.84D-09    CP:  9.46D-01  2.20D+00  1.06D+00  1.65D+00  1.86D+00
                    CP:  1.39D+00  1.43D+00  1.59D+00  1.55D+00  1.58D+00
                    CP:  1.75D+00  1.79D+00  2.12D+00  1.81D+00
 E= -466.827622305079     Delta-E=       -0.000000000016 Rises=F Damp=F
 DIIS: error= 4.17D-08 at cycle  15 NSaved=  15.
 NSaved=15 IEnMin=15 EnMin= -466.827622305079     IErMin=15 ErrMin= 4.17D-08
 ErrMax= 4.17D-08  0.00D+00 EMaxC= 1.00D-01 BMatC= 1.45D-12 BMatP= 6.75D-12
 IDIUse=1 WtCom= 1.00D+00 WtEn= 0.00D+00
 Coeff-Com: -0.952D-05 0.206D-04 0.452D-05-0.193D-03 0.179D-03 0.468D-03
 Coeff-Com: -0.616D-04-0.299D-02-0.561D-02 0.217D-01 0.354D-01-0.259D-01
 Coeff-Com: -0.317D+00 0.174D+00 0.112D+01
 Coeff:     -0.952D-05 0.206D-04 0.452D-05-0.193D-03 0.179D-03 0.468D-03
 Coeff:     -0.616D-04-0.299D-02-0.561D-02 0.217D-01 0.354D-01-0.259D-01
 Coeff:     -0.317D+00 0.174D+00 0.112D+01
 Gap=     0.255 Goal=   None    Shift=    0.000
 Gap=     0.255 Goal=   None    Shift=    0.000
 RMSDP=6.02D-09 MaxDP=2.92D-07 DE=-1.59D-11 OVMax= 1.85D-06

 Error on total polarization charges =  0.01105
 SCF Done:  E(UwB97XD) =  -466.827622305     A.U. after   15 cycles
            NFock= 15  Conv=0.60D-08     -V/T= 2.0059
 <Sx>= 0.0000 <Sy>= 0.0000 <Sz>= 0.0000 <S**2>= 1.0549 S= 0.6423
 <L.S>=  0.00000000000    
 KE= 4.640693183370D+02 PE=-2.475227126293D+03 EE= 8.476038282840D+02
 --------------------------------------------------------------------
 Variational PCM results
 =======================
 <psi(f)|   H    |psi(f)>                     (a.u.) =    -466.835325
 <psi(f)|H+V(f)/2|psi(f)>                     (a.u.) =    -466.836532
 Total free energy in solution:
 - with all non electrostatic terms           (a.u.) =    -466.827622
 --------------------------------------------------------------------
 (Polarized solute)-Solvent               (kcal/mol) =      -0.76
 --------------------------------------------------------------------
 Quantum repulsion energy                 (kcal/mol) =       5.59
 Total non electrostatic                  (kcal/mol) =       5.59
 --------------------------------------------------------------------
 Partition over spheres:
 Sphere  on Atom  Surface  Charge   GEl     GCav    GDR
    1               6.53   0.010   -0.04    0.00    0.00
    2               0.05  -0.000   -0.00    0.00    0.00
    3               7.51  -0.010   -0.04    0.00    0.00
    4               3.55  -0.004   -0.01    0.00    0.00
    5               3.93   0.007   -0.03    0.00    0.00
    6               0.06  -0.000    0.00    0.00    0.00
    7               5.57  -0.008   -0.03    0.00    0.00
    8               3.53  -0.003   -0.00    0.00    0.00
    9               3.51   0.003   -0.00    0.00    0.00
   10               5.89  -0.005   -0.01    0.00    0.00
   11               5.08  -0.004   -0.01    0.00    0.00
   12               7.01   0.011   -0.06    0.00    0.00
   13               7.51  -0.010   -0.03    0.00    0.00
   14               6.58   0.010   -0.04    0.00    0.00
   15               7.51  -0.010   -0.04    0.00    0.00
   16               2.69   0.001    0.00    0.00    0.00
   17               4.54  -0.005   -0.02    0.00    0.00
   18               7.62  -0.008   -0.03    0.00    0.00
   19               4.49   0.007   -0.04    0.00    0.00
   20               5.36  -0.007   -0.03    0.00    0.00
   21               7.18   0.011   -0.06    0.00    0.00
   22               7.53  -0.010   -0.03    0.00    0.00
   23               3.18   0.002   -0.00    0.00    0.00
   24               4.26  -0.003   -0.01    0.00    0.00
   25               6.35  -0.005   -0.01    0.00    0.00
   26               3.07   0.002    0.00    0.00    0.00
   27               7.62  -0.008   -0.03    0.00    0.00
   28               4.65  -0.005   -0.02    0.00    0.00
 Added spheres:    75.53   0.029   -0.18    0.00    0.00
 --------------------------------------------------------------------
 After PCM corrections, the energy is  -466.827622305     a.u.
 --------------------------------------------------------------------
 Annihilation of the first spin contaminant:
 S**2 before annihilation     1.0549,   after     0.5461
 Leave Link  502 at Tue Aug  4 19:21:59 2020, MaxMem=  6442450944 cpu:            6849.9 elap:             288.1
 (Enter /scratch/scicomp/CentOS/7.3.1611/Haswell/software/Gaussian/g16/l601.exe)
 Copying SCF densities to generalized density rwf, IOpCl= 1 IROHF=0.

 **********************************************************************

            Population analysis using the SCF Density.

 **********************************************************************

 Alpha  occ. eigenvalues --  -10.28967 -10.28841 -10.28646 -10.28360 -10.28222
 Alpha  occ. eigenvalues --  -10.28177 -10.27994 -10.27924 -10.27676 -10.27636
 Alpha  occ. eigenvalues --  -10.27632 -10.27617  -0.95323  -0.92516  -0.85791
 Alpha  occ. eigenvalues --   -0.84399  -0.83384  -0.80830  -0.71324  -0.70519
 Alpha  occ. eigenvalues --   -0.69013  -0.67365  -0.60007  -0.59167  -0.58544
 Alpha  occ. eigenvalues --   -0.56037  -0.53493  -0.52454  -0.50755  -0.48879
 Alpha  occ. eigenvalues --   -0.48811  -0.48458  -0.48081  -0.47198  -0.45783
 Alpha  occ. eigenvalues --   -0.44554  -0.41259  -0.40737  -0.39909  -0.38751
 Alpha  occ. eigenvalues --   -0.37532  -0.37164  -0.34543  -0.25094
 Alpha virt. eigenvalues --    0.00400   0.10855   0.11494   0.13292   0.14023
 Alpha virt. eigenvalues --    0.14787   0.15676   0.16388   0.17064   0.17335
 Alpha virt. eigenvalues --    0.17950   0.18189   0.19431   0.20954   0.21085
 Alpha virt. eigenvalues --    0.22274   0.22948   0.23323   0.24146   0.25217
 Alpha virt. eigenvalues --    0.26087   0.26157   0.26942   0.27260   0.27444
 Alpha virt. eigenvalues --    0.29144   0.29464   0.30590   0.31220   0.32125
 Alpha virt. eigenvalues --    0.32290   0.32700   0.32814   0.34423   0.34646
 Alpha virt. eigenvalues --    0.34866   0.36163   0.36752   0.37413   0.37873
 Alpha virt. eigenvalues --    0.38685   0.38948   0.41698   0.41888   0.42441
 Alpha virt. eigenvalues --    0.44160   0.44407   0.46047   0.46309   0.46798
 Alpha virt. eigenvalues --    0.47350   0.47576   0.48193   0.48891   0.49185
 Alpha virt. eigenvalues --    0.49540   0.49908   0.50127   0.50636   0.51348
 Alpha virt. eigenvalues --    0.51745   0.51887   0.52435   0.53101   0.53586
 Alpha virt. eigenvalues --    0.53682   0.54682   0.54828   0.55520   0.56049
 Alpha virt. eigenvalues --    0.56787   0.57469   0.58082   0.58933   0.59014
 Alpha virt. eigenvalues --    0.59422   0.61970   0.62079   0.64832   0.65973
 Alpha virt. eigenvalues --    0.67206   0.67533   0.68178   0.69336   0.70240
 Alpha virt. eigenvalues --    0.71137   0.71961   0.75526   0.75979   0.76077
 Alpha virt. eigenvalues --    0.78996   0.79628   0.80729   0.81566   0.83248
 Alpha virt. eigenvalues --    0.83781   0.84554   0.87568   0.87989   0.89521
 Alpha virt. eigenvalues --    0.90773   0.91523   0.92361   0.93835   0.95323
 Alpha virt. eigenvalues --    0.96842   0.97968   0.98918   0.99435   1.00049
 Alpha virt. eigenvalues --    1.02127   1.02300   1.04398   1.05245   1.05830
 Alpha virt. eigenvalues --    1.07205   1.09223   1.10474   1.11088   1.11105
 Alpha virt. eigenvalues --    1.12143   1.14832   1.16153   1.17260   1.17728
 Alpha virt. eigenvalues --    1.18801   1.19121   1.20035   1.20246   1.21035
 Alpha virt. eigenvalues --    1.22416   1.24436   1.25487   1.26441   1.27154
 Alpha virt. eigenvalues --    1.27486   1.28283   1.29057   1.29653   1.30097
 Alpha virt. eigenvalues --    1.30572   1.31617   1.33687   1.34157   1.35168
 Alpha virt. eigenvalues --    1.35390   1.37013   1.37538   1.38523   1.38866
 Alpha virt. eigenvalues --    1.39443   1.39690   1.40452   1.41510   1.42618
 Alpha virt. eigenvalues --    1.43445   1.43503   1.44669   1.45666   1.46526
 Alpha virt. eigenvalues --    1.46964   1.48041   1.48573   1.50884   1.51463
 Alpha virt. eigenvalues --    1.52887   1.54184   1.54681   1.57136   1.58317
 Alpha virt. eigenvalues --    1.58846   1.60733   1.62291   1.62796   1.64032
 Alpha virt. eigenvalues --    1.67919   1.69013   1.69418   1.69757   1.70374
 Alpha virt. eigenvalues --    1.73877   1.74442   1.77227   1.78491   1.78968
 Alpha virt. eigenvalues --    1.80957   1.81859   1.83679   1.84914   1.88568
 Alpha virt. eigenvalues --    1.88988   1.91918   1.92367   1.94042   1.95196
 Alpha virt. eigenvalues --    1.96405   1.99281   2.02192   2.05649   2.07382
 Alpha virt. eigenvalues --    2.08075   2.08934   2.09943   2.12541   2.13176
 Alpha virt. eigenvalues --    2.13678   2.15465   2.16684   2.18464   2.19024
 Alpha virt. eigenvalues --    2.20846   2.21086   2.21691   2.23382   2.24129
 Alpha virt. eigenvalues --    2.27563   2.28139   2.30175   2.32023   2.35118
 Alpha virt. eigenvalues --    2.36027   2.36867   2.38069   2.41022   2.41744
 Alpha virt. eigenvalues --    2.45758   2.46353   2.47279   2.49694   2.51059
 Alpha virt. eigenvalues --    2.51279   2.53664   2.56031   2.56516   2.57785
 Alpha virt. eigenvalues --    2.58387   2.61119   2.62351   2.62968   2.63535
 Alpha virt. eigenvalues --    2.65330   2.65724   2.67781   2.67861   2.68451
 Alpha virt. eigenvalues --    2.69145   2.70906   2.72936   2.73134   2.73270
 Alpha virt. eigenvalues --    2.74746   2.75396   2.76311   2.78013   2.80095
 Alpha virt. eigenvalues --    2.80378   2.82187   2.82356   2.83030   2.84073
 Alpha virt. eigenvalues --    2.84554   2.85286   2.86887   2.87359   2.88077
 Alpha virt. eigenvalues --    2.88436   2.89209   2.89907   2.90721   2.91428
 Alpha virt. eigenvalues --    2.93298   2.94189   2.95157   2.96024   2.98145
 Alpha virt. eigenvalues --    2.98789   3.01794   3.01950   3.02762   3.04523
 Alpha virt. eigenvalues --    3.06647   3.06823   3.07161   3.08151   3.08893
 Alpha virt. eigenvalues --    3.10497   3.11127   3.11729   3.12688   3.13203
 Alpha virt. eigenvalues --    3.13436   3.14442   3.15683   3.16261   3.16728
 Alpha virt. eigenvalues --    3.16802   3.17508   3.18030   3.19338   3.20322
 Alpha virt. eigenvalues --    3.20981   3.21344   3.22083   3.23317   3.24383
 Alpha virt. eigenvalues --    3.25241   3.25541   3.25771   3.26097   3.26575
 Alpha virt. eigenvalues --    3.27364   3.29396   3.29924   3.31459   3.31968
 Alpha virt. eigenvalues --    3.32520   3.32999   3.33357   3.35248   3.35944
 Alpha virt. eigenvalues --    3.37190   3.37315   3.38322   3.39098   3.39796
 Alpha virt. eigenvalues --    3.41191   3.41370   3.41879   3.43536   3.43954
 Alpha virt. eigenvalues --    3.44552   3.45896   3.46719   3.47134   3.49230
 Alpha virt. eigenvalues --    3.49575   3.51032   3.51331   3.51564   3.53013
 Alpha virt. eigenvalues --    3.53263   3.54299   3.55305   3.57705   3.57989
 Alpha virt. eigenvalues --    3.58934   3.59221   3.59627   3.61174   3.62914
 Alpha virt. eigenvalues --    3.63023   3.64070   3.64624   3.65118   3.67763
 Alpha virt. eigenvalues --    3.68689   3.70174   3.72293   3.72635   3.74121
 Alpha virt. eigenvalues --    3.75222   3.79070   3.79343   3.80177   3.81517
 Alpha virt. eigenvalues --    3.83834   3.84042   3.84569   3.85035   3.86334
 Alpha virt. eigenvalues --    3.88673   3.91306   3.91593   3.94526   3.95330
 Alpha virt. eigenvalues --    3.95948   3.97452   3.99347   4.00916   4.03927
 Alpha virt. eigenvalues --    4.05266   4.06777   4.08355   4.08948   4.09108
 Alpha virt. eigenvalues --    4.12361   4.13417   4.14696   4.16291   4.18143
 Alpha virt. eigenvalues --    4.19106   4.21602   4.23529   4.24340   4.26045
 Alpha virt. eigenvalues --    4.26652   4.28251   4.28859   4.28968   4.30270
 Alpha virt. eigenvalues --    4.33499   4.35889   4.40570   4.41354   4.41707
 Alpha virt. eigenvalues --    4.43072   4.43764   4.45638   4.45763   4.50975
 Alpha virt. eigenvalues --    4.53418   4.55075   4.56725   4.58289   4.58994
 Alpha virt. eigenvalues --    4.61139   4.62739   4.63780   4.65704   4.68950
 Alpha virt. eigenvalues --    4.70882   4.71596   4.74511   4.75825   4.78433
 Alpha virt. eigenvalues --    4.82772   4.84047   4.88301   4.89659   4.90430
 Alpha virt. eigenvalues --    4.92313   4.92559   4.95915   4.98608   5.00940
 Alpha virt. eigenvalues --    5.06219   5.08267   5.09634   5.13521   5.14807
 Alpha virt. eigenvalues --    5.20285   5.24669   5.26287   5.27217   5.31693
 Alpha virt. eigenvalues --    5.34055   5.35603   5.38584   5.39488   5.42934
 Alpha virt. eigenvalues --    5.46453   5.47164   5.52977   5.55252   5.58038
 Alpha virt. eigenvalues --    5.64465   5.72567   5.74737   5.80839   5.81741
 Alpha virt. eigenvalues --    7.94573   7.95480   8.03435   8.04909   8.08641
 Alpha virt. eigenvalues --    8.11176   8.12680   8.16415   8.18542   8.20325
 Alpha virt. eigenvalues --    8.32591   8.37554  34.75215  34.75872  34.82422
 Alpha virt. eigenvalues --   34.82861  34.85828  34.90219  34.99171  35.00569
 Alpha virt. eigenvalues --   35.02495  35.03197  35.15534  35.25107
  Beta  occ. eigenvalues --  -10.28967 -10.28841 -10.28645 -10.28359 -10.28224
  Beta  occ. eigenvalues --  -10.28175 -10.27995 -10.27924 -10.27675 -10.27635
  Beta  occ. eigenvalues --  -10.27633 -10.27618  -0.95323  -0.92517  -0.85791
  Beta  occ. eigenvalues --   -0.84398  -0.83385  -0.80830  -0.71323  -0.70518
  Beta  occ. eigenvalues --   -0.69013  -0.67365  -0.60007  -0.59167  -0.58544
  Beta  occ. eigenvalues --   -0.56037  -0.53492  -0.52454  -0.50755  -0.48879
  Beta  occ. eigenvalues --   -0.48811  -0.48458  -0.48081  -0.47198  -0.45783
  Beta  occ. eigenvalues --   -0.44554  -0.41259  -0.40737  -0.39909  -0.38751
  Beta  occ. eigenvalues --   -0.37532  -0.37164  -0.34543  -0.25093
  Beta virt. eigenvalues --    0.00399   0.10856   0.11493   0.13292   0.14021
  Beta virt. eigenvalues --    0.14787   0.15678   0.16388   0.17064   0.17335
  Beta virt. eigenvalues --    0.17951   0.18188   0.19432   0.20954   0.21085
  Beta virt. eigenvalues --    0.22274   0.22947   0.23322   0.24147   0.25217
  Beta virt. eigenvalues --    0.26087   0.26157   0.26942   0.27259   0.27444
  Beta virt. eigenvalues --    0.29144   0.29465   0.30590   0.31219   0.32126
  Beta virt. eigenvalues --    0.32289   0.32701   0.32813   0.34422   0.34647
  Beta virt. eigenvalues --    0.34866   0.36163   0.36752   0.37413   0.37873
  Beta virt. eigenvalues --    0.38684   0.38948   0.41695   0.41890   0.42441
  Beta virt. eigenvalues --    0.44161   0.44407   0.46047   0.46309   0.46797
  Beta virt. eigenvalues --    0.47351   0.47575   0.48193   0.48891   0.49186
  Beta virt. eigenvalues --    0.49540   0.49907   0.50127   0.50636   0.51348
  Beta virt. eigenvalues --    0.51746   0.51887   0.52435   0.53101   0.53587
  Beta virt. eigenvalues --    0.53681   0.54683   0.54827   0.55520   0.56049
  Beta virt. eigenvalues --    0.56787   0.57469   0.58082   0.58936   0.59011
  Beta virt. eigenvalues --    0.59421   0.61970   0.62079   0.64832   0.65973
  Beta virt. eigenvalues --    0.67205   0.67534   0.68178   0.69336   0.70239
  Beta virt. eigenvalues --    0.71137   0.71961   0.75526   0.75979   0.76077
  Beta virt. eigenvalues --    0.78996   0.79627   0.80729   0.81566   0.83248
  Beta virt. eigenvalues --    0.83782   0.84554   0.87568   0.87989   0.89521
  Beta virt. eigenvalues --    0.90774   0.91522   0.92361   0.93835   0.95323
  Beta virt. eigenvalues --    0.96842   0.97968   0.98918   0.99435   1.00049
  Beta virt. eigenvalues --    1.02127   1.02300   1.04399   1.05245   1.05830
  Beta virt. eigenvalues --    1.07204   1.09223   1.10474   1.11088   1.11105
  Beta virt. eigenvalues --    1.12144   1.14831   1.16153   1.17261   1.17727
  Beta virt. eigenvalues --    1.18802   1.19120   1.20035   1.20246   1.21035
  Beta virt. eigenvalues --    1.22416   1.24436   1.25487   1.26441   1.27154
  Beta virt. eigenvalues --    1.27485   1.28283   1.29057   1.29654   1.30097
  Beta virt. eigenvalues --    1.30572   1.31617   1.33687   1.34157   1.35169
  Beta virt. eigenvalues --    1.35390   1.37013   1.37539   1.38523   1.38866
  Beta virt. eigenvalues --    1.39443   1.39690   1.40452   1.41510   1.42618
  Beta virt. eigenvalues --    1.43445   1.43503   1.44669   1.45666   1.46526
  Beta virt. eigenvalues --    1.46964   1.48041   1.48573   1.50884   1.51463
  Beta virt. eigenvalues --    1.52887   1.54184   1.54681   1.57136   1.58317
  Beta virt. eigenvalues --    1.58846   1.60733   1.62291   1.62796   1.64032
  Beta virt. eigenvalues --    1.67919   1.69013   1.69418   1.69757   1.70374
  Beta virt. eigenvalues --    1.73877   1.74442   1.77226   1.78491   1.78968
  Beta virt. eigenvalues --    1.80957   1.81859   1.83679   1.84914   1.88568
  Beta virt. eigenvalues --    1.88988   1.91918   1.92367   1.94042   1.95196
  Beta virt. eigenvalues --    1.96405   1.99281   2.02192   2.05649   2.07382
  Beta virt. eigenvalues --    2.08075   2.08934   2.09943   2.12541   2.13175
  Beta virt. eigenvalues --    2.13678   2.15465   2.16684   2.18464   2.19024
  Beta virt. eigenvalues --    2.20846   2.21086   2.21690   2.23382   2.24129
  Beta virt. eigenvalues --    2.27563   2.28139   2.30175   2.32023   2.35118
  Beta virt. eigenvalues --    2.36027   2.36867   2.38069   2.41022   2.41744
  Beta virt. eigenvalues --    2.45758   2.46353   2.47279   2.49694   2.51059
  Beta virt. eigenvalues --    2.51279   2.53664   2.56031   2.56516   2.57784
  Beta virt. eigenvalues --    2.58387   2.61119   2.62351   2.62968   2.63535
  Beta virt. eigenvalues --    2.65330   2.65725   2.67781   2.67861   2.68451
  Beta virt. eigenvalues --    2.69145   2.70906   2.72936   2.73134   2.73271
  Beta virt. eigenvalues --    2.74746   2.75396   2.76311   2.78013   2.80095
  Beta virt. eigenvalues --    2.80378   2.82187   2.82356   2.83030   2.84073
  Beta virt. eigenvalues --    2.84554   2.85287   2.86887   2.87360   2.88078
  Beta virt. eigenvalues --    2.88436   2.89209   2.89907   2.90721   2.91428
  Beta virt. eigenvalues --    2.93297   2.94189   2.95157   2.96024   2.98145
  Beta virt. eigenvalues --    2.98789   3.01794   3.01950   3.02762   3.04523
  Beta virt. eigenvalues --    3.06647   3.06822   3.07161   3.08151   3.08893
  Beta virt. eigenvalues --    3.10497   3.11127   3.11729   3.12688   3.13203
  Beta virt. eigenvalues --    3.13436   3.14442   3.15683   3.16261   3.16728
  Beta virt. eigenvalues --    3.16802   3.17508   3.18030   3.19338   3.20322
  Beta virt. eigenvalues --    3.20981   3.21344   3.22083   3.23317   3.24383
  Beta virt. eigenvalues --    3.25240   3.25542   3.25771   3.26097   3.26575
  Beta virt. eigenvalues --    3.27364   3.29396   3.29924   3.31459   3.31968
  Beta virt. eigenvalues --    3.32520   3.32999   3.33357   3.35248   3.35944
  Beta virt. eigenvalues --    3.37190   3.37315   3.38322   3.39098   3.39796
  Beta virt. eigenvalues --    3.41191   3.41369   3.41879   3.43536   3.43954
  Beta virt. eigenvalues --    3.44552   3.45896   3.46719   3.47134   3.49230
  Beta virt. eigenvalues --    3.49575   3.51033   3.51331   3.51563   3.53013
  Beta virt. eigenvalues --    3.53263   3.54299   3.55305   3.57705   3.57989
  Beta virt. eigenvalues --    3.58935   3.59221   3.59627   3.61174   3.62914
  Beta virt. eigenvalues --    3.63023   3.64070   3.64624   3.65118   3.67763
  Beta virt. eigenvalues --    3.68689   3.70174   3.72293   3.72635   3.74121
  Beta virt. eigenvalues --    3.75222   3.79070   3.79343   3.80177   3.81517
  Beta virt. eigenvalues --    3.83834   3.84043   3.84569   3.85035   3.86334
  Beta virt. eigenvalues --    3.88673   3.91306   3.91593   3.94527   3.95331
  Beta virt. eigenvalues --    3.95947   3.97452   3.99347   4.00916   4.03927
  Beta virt. eigenvalues --    4.05266   4.06777   4.08355   4.08948   4.09108
  Beta virt. eigenvalues --    4.12361   4.13417   4.14696   4.16291   4.18143
  Beta virt. eigenvalues --    4.19106   4.21602   4.23529   4.24340   4.26045
  Beta virt. eigenvalues --    4.26652   4.28251   4.28859   4.28968   4.30270
  Beta virt. eigenvalues --    4.33499   4.35889   4.40570   4.41353   4.41707
  Beta virt. eigenvalues --    4.43073   4.43764   4.45638   4.45763   4.50975
  Beta virt. eigenvalues --    4.53418   4.55075   4.56725   4.58289   4.58994
  Beta virt. eigenvalues --    4.61139   4.62739   4.63781   4.65704   4.68950
  Beta virt. eigenvalues --    4.70882   4.71596   4.74511   4.75825   4.78433
  Beta virt. eigenvalues --    4.82772   4.84047   4.88301   4.89659   4.90430
  Beta virt. eigenvalues --    4.92314   4.92558   4.95915   4.98608   5.00940
  Beta virt. eigenvalues --    5.06219   5.08268   5.09634   5.13521   5.14807
  Beta virt. eigenvalues --    5.20285   5.24669   5.26287   5.27217   5.31693
  Beta virt. eigenvalues --    5.34055   5.35603   5.38584   5.39488   5.42934
  Beta virt. eigenvalues --    5.46453   5.47163   5.52977   5.55252   5.58038
  Beta virt. eigenvalues --    5.64465   5.72567   5.74737   5.80839   5.81740
  Beta virt. eigenvalues --    7.94574   7.95479   8.03436   8.04909   8.08642
  Beta virt. eigenvalues --    8.11176   8.12680   8.16415   8.18542   8.20325
  Beta virt. eigenvalues --    8.32591   8.37554  34.75216  34.75871  34.82422
  Beta virt. eigenvalues --   34.82860  34.85828  34.90219  34.99171  35.00569
  Beta virt. eigenvalues --   35.02495  35.03197  35.15534  35.25106
          Condensed to atoms (all electrons):
               1          2          3          4          5          6
     1  C    5.265788   0.030647   0.429491  -0.002985   0.001613  -0.013787
     2  C    0.030647   5.358410  -0.001667   0.428781  -0.107957   0.232807
     3  H    0.429491  -0.001667   0.484473   0.000035   0.000003   0.000192
     4  H   -0.002985   0.428781   0.000035   0.526101  -0.002597  -0.011273
     5  C    0.001613  -0.107957   0.000003  -0.002597   5.352166   0.260533
     6  C   -0.013787   0.232807   0.000192  -0.011273   0.260533   5.358039
     7  H   -0.000017  -0.000050   0.000003   0.000315   0.425385  -0.029005
     8  H   -0.001202  -0.011235  -0.000085   0.001778  -0.049883   0.428759
     9  C    0.002014  -0.067324  -0.000004  -0.010951  -0.049492   0.240677
    10  H   -0.000039   0.007297  -0.000001  -0.000200  -0.001958  -0.048240
    11  H   -0.000292  -0.005573   0.000002   0.000964   0.011573  -0.048582
    12  C   -0.000141   0.014511  -0.000001   0.002894   0.428609  -0.073085
    13  H    0.000000  -0.000286   0.000000  -0.000048  -0.025413   0.003461
    14  C    0.000048  -0.013766  -0.000000  -0.001188  -0.055379   0.030759
    15  H   -0.000000   0.000191  -0.000000  -0.000084   0.003946  -0.001672
    16  C   -0.000290   0.025587   0.000000   0.002240  -0.004469  -0.077460
    17  H    0.000046   0.003614  -0.000000  -0.003694   0.004926  -0.014456
    18  H    0.000001  -0.000517   0.000000   0.000389  -0.001536   0.012365
    19  C   -0.055287   0.260162   0.003956  -0.049871   0.013254  -0.108109
    20  H    0.003738  -0.029592  -0.000124  -0.005152  -0.000574  -0.000014
    21  C    0.446980  -0.073011  -0.032828   0.006248  -0.001316   0.014530
    22  H   -0.026683   0.003425  -0.004551  -0.000125   0.000045  -0.000283
    23  C   -0.099176   0.240675   0.005051  -0.022617   0.016995  -0.067322
    24  H    0.012961  -0.048630  -0.000035  -0.003262   0.004158  -0.005627
    25  H   -0.001912  -0.048047  -0.000159  -0.005226   0.000004   0.007297
    26  C    0.277667  -0.077480  -0.027235   0.009206  -0.011169   0.025620
    27  H   -0.031192   0.012360  -0.003812  -0.000144   0.000097  -0.000520
    28  H   -0.042201  -0.014435  -0.000021  -0.000190  -0.000592   0.003669
               7          8          9         10         11         12
     1  C   -0.000017  -0.001202   0.002014  -0.000039  -0.000292  -0.000141
     2  C   -0.000050  -0.011235  -0.067324   0.007297  -0.005573   0.014511
     3  H    0.000003  -0.000085  -0.000004  -0.000001   0.000002  -0.000001
     4  H    0.000315   0.001778  -0.010951  -0.000200   0.000964   0.002894
     5  C    0.425385  -0.049883  -0.049492  -0.001958   0.011573   0.428609
     6  C   -0.029005   0.428759   0.240677  -0.048240  -0.048582  -0.073085
     7  H    0.472041  -0.005167   0.002816   0.000236  -0.000038  -0.028750
     8  H   -0.005167   0.526219  -0.022679  -0.005227  -0.003260   0.006255
     9  C    0.002816  -0.022679   5.054066   0.420063   0.451137   0.032976
    10  H    0.000236  -0.005227   0.420063   0.544582  -0.013877   0.001404
    11  H   -0.000038  -0.003260   0.451137  -0.013877   0.519042  -0.005259
    12  C   -0.028750   0.006255   0.032976   0.001404  -0.005259   5.000526
    13  H   -0.004146  -0.000126   0.000463  -0.000112   0.000027   0.416759
    14  C    0.003782  -0.002987  -0.099077  -0.001877   0.012939   0.447272
    15  H   -0.000123   0.000035   0.005044  -0.000160  -0.000034  -0.032784
    16  C   -0.001135   0.009213   0.321516  -0.026137  -0.055145  -0.046860
    17  H   -0.000030  -0.000189  -0.026049   0.004522  -0.003535  -0.003779
    18  H    0.000056  -0.000144  -0.041914  -0.005523  -0.003011   0.003465
    19  C   -0.000571  -0.002623   0.017050   0.000008   0.004104  -0.001332
    20  H    0.000003   0.000315   0.002719   0.000259  -0.003524  -0.000017
    21  C   -0.000017   0.002960  -0.004444   0.000003   0.000090   0.000163
    22  H   -0.000001  -0.000047  -0.000063  -0.000002  -0.000007   0.000000
    23  C    0.002751  -0.010973   0.009322  -0.000204  -0.000018  -0.004481
    24  H   -0.003532   0.000964  -0.000017  -0.000015  -0.000004   0.000085
    25  H    0.000259  -0.000200  -0.000203   0.000015  -0.000015   0.000003
    26  C   -0.000843   0.002261  -0.002314   0.000064   0.000043   0.001138
    27  H   -0.000026   0.000389   0.000034  -0.000001  -0.000003  -0.000003
    28  H    0.001959  -0.003704   0.000871   0.000012   0.000009  -0.000062
              13         14         15         16         17         18
     1  C    0.000000   0.000048  -0.000000  -0.000290   0.000046   0.000001
     2  C   -0.000286  -0.013766   0.000191   0.025587   0.003614  -0.000517
     3  H    0.000000  -0.000000  -0.000000   0.000000  -0.000000   0.000000
     4  H   -0.000048  -0.001188  -0.000084   0.002240  -0.003694   0.000389
     5  C   -0.025413  -0.055379   0.003946  -0.004469   0.004926  -0.001536
     6  C    0.003461   0.030759  -0.001672  -0.077460  -0.014456   0.012365
     7  H   -0.004146   0.003782  -0.000123  -0.001135  -0.000030   0.000056
     8  H   -0.000126  -0.002987   0.000035   0.009213  -0.000189  -0.000144
     9  C    0.000463  -0.099077   0.005044   0.321516  -0.026049  -0.041914
    10  H   -0.000112  -0.001877  -0.000160  -0.026137   0.004522  -0.005523
    11  H    0.000027   0.012939  -0.000034  -0.055145  -0.003535  -0.003011
    12  C    0.416759   0.447272  -0.032784  -0.046860  -0.003779   0.003465
    13  H    0.492343  -0.026378  -0.004547   0.003521  -0.000312  -0.000125
    14  C   -0.026378   5.265484   0.429463   0.277747  -0.042265  -0.031183
    15  H   -0.004547   0.429463   0.484425  -0.027210  -0.000028  -0.003809
    16  C    0.003521   0.277747  -0.027210   4.978045   0.405848   0.422225
    17  H   -0.000312  -0.042265  -0.000028   0.405848   0.573792  -0.022146
    18  H   -0.000125  -0.031183  -0.003809   0.422225  -0.022146   0.540051
    19  C    0.000045   0.001612   0.000003  -0.011172  -0.000565   0.000098
    20  H   -0.000001  -0.000019   0.000003  -0.000827   0.001976  -0.000026
    21  C    0.000000  -0.000141  -0.000001   0.001138  -0.000057  -0.000003
    22  H    0.000000   0.000000   0.000000   0.000001  -0.000006  -0.000001
    23  C   -0.000061   0.002022  -0.000004  -0.002318   0.000871   0.000034
    24  H   -0.000008  -0.000294   0.000002   0.000043   0.000009  -0.000003
    25  H   -0.000002  -0.000039  -0.000001   0.000063   0.000012  -0.000001
    26  C    0.000001  -0.000291   0.000000   0.000504  -0.000057  -0.000001
    27  H   -0.000001   0.000001   0.000000  -0.000001   0.000001  -0.000000
    28  H   -0.000006   0.000046  -0.000000  -0.000058  -0.000001   0.000001
              19         20         21         22         23         24
     1  C   -0.055287   0.003738   0.446980  -0.026683  -0.099176   0.012961
     2  C    0.260162  -0.029592  -0.073011   0.003425   0.240675  -0.048630
     3  H    0.003956  -0.000124  -0.032828  -0.004551   0.005051  -0.000035
     4  H   -0.049871  -0.005152   0.006248  -0.000125  -0.022617  -0.003262
     5  C    0.013254  -0.000574  -0.001316   0.000045   0.016995   0.004158
     6  C   -0.108109  -0.000014   0.014530  -0.000283  -0.067322  -0.005627
     7  H   -0.000571   0.000003  -0.000017  -0.000001   0.002751  -0.003532
     8  H   -0.002623   0.000315   0.002960  -0.000047  -0.010973   0.000964
     9  C    0.017050   0.002719  -0.004444  -0.000063   0.009322  -0.000017
    10  H    0.000008   0.000259   0.000003  -0.000002  -0.000204  -0.000015
    11  H    0.004104  -0.003524   0.000090  -0.000007  -0.000018  -0.000004
    12  C   -0.001332  -0.000017   0.000163   0.000000  -0.004481   0.000085
    13  H    0.000045  -0.000001   0.000000   0.000000  -0.000061  -0.000008
    14  C    0.001612  -0.000019  -0.000141   0.000000   0.002022  -0.000294
    15  H    0.000003   0.000003  -0.000001   0.000000  -0.000004   0.000002
    16  C   -0.011172  -0.000827   0.001138   0.000001  -0.002318   0.000043
    17  H   -0.000565   0.001976  -0.000057  -0.000006   0.000871   0.000009
    18  H    0.000098  -0.000026  -0.000003  -0.000001   0.000034  -0.000003
    19  C    5.351736   0.425461   0.428832  -0.025344  -0.049388   0.011590
    20  H    0.425461   0.472370  -0.028313  -0.004159   0.002807  -0.000038
    21  C    0.428832  -0.028313   5.000823   0.417034   0.033088  -0.005277
    22  H   -0.025344  -0.004159   0.417034   0.492408   0.000453   0.000027
    23  C   -0.049388   0.002807   0.033088   0.000453   5.053688   0.451169
    24  H    0.011590  -0.000038  -0.005277   0.000027   0.451169   0.519351
    25  H   -0.002087   0.000233   0.001463  -0.000112   0.419925  -0.013941
    26  C   -0.004551  -0.001116  -0.046740   0.003536   0.321673  -0.055198
    27  H   -0.001540   0.000056   0.003469  -0.000125  -0.041896  -0.003005
    28  H    0.004923  -0.000030  -0.003848  -0.000312  -0.025931  -0.003540
              25         26         27         28
     1  C   -0.001912   0.277667  -0.031192  -0.042201
     2  C   -0.048047  -0.077480   0.012360  -0.014435
     3  H   -0.000159  -0.027235  -0.003812  -0.000021
     4  H   -0.005226   0.009206  -0.000144  -0.000190
     5  C    0.000004  -0.011169   0.000097  -0.000592
     6  C    0.007297   0.025620  -0.000520   0.003669
     7  H    0.000259  -0.000843  -0.000026   0.001959
     8  H   -0.000200   0.002261   0.000389  -0.003704
     9  C   -0.000203  -0.002314   0.000034   0.000871
    10  H    0.000015   0.000064  -0.000001   0.000012
    11  H   -0.000015   0.000043  -0.000003   0.000009
    12  C    0.000003   0.001138  -0.000003  -0.000062
    13  H   -0.000002   0.000001  -0.000001  -0.000006
    14  C   -0.000039  -0.000291   0.000001   0.000046
    15  H   -0.000001   0.000000   0.000000  -0.000000
    16  C    0.000063   0.000504  -0.000001  -0.000058
    17  H    0.000012  -0.000057   0.000001  -0.000001
    18  H   -0.000001  -0.000001  -0.000000   0.000001
    19  C   -0.002087  -0.004551  -0.001540   0.004923
    20  H    0.000233  -0.001116   0.000056  -0.000030
    21  C    0.001463  -0.046740   0.003469  -0.003848
    22  H   -0.000112   0.003536  -0.000125  -0.000312
    23  C    0.419925   0.321673  -0.041896  -0.025931
    24  H   -0.013941  -0.055198  -0.003005  -0.003540
    25  H    0.544536  -0.026014  -0.005533   0.004518
    26  C   -0.026014   4.977810   0.422192   0.405825
    27  H   -0.005533   0.422192   0.540127  -0.022148
    28  H    0.004518   0.405825  -0.022148   0.573574
          Atomic-Atomic Spin Densities.
               1          2          3          4          5          6
     1  C   -0.700967  -0.007218   0.001185  -0.000042   0.000482  -0.003607
     2  C   -0.007218   0.083205  -0.000202  -0.001559  -0.038885  -0.000055
     3  H    0.001185  -0.000202   0.024937   0.000002   0.000004   0.000037
     4  H   -0.000042  -0.001559   0.000002  -0.009914   0.001124   0.007409
     5  C    0.000482  -0.038885   0.000004   0.001124   0.767723  -0.039240
     6  C   -0.003607  -0.000055   0.000037   0.007409  -0.039240  -0.083442
     7  H   -0.000000   0.000810   0.000000  -0.000006  -0.003766   0.000955
     8  H    0.001237  -0.007412   0.000007   0.000000  -0.000359   0.001567
     9  C   -0.000062  -0.010917   0.000001  -0.001027  -0.005951   0.010075
    10  H   -0.000005   0.000360  -0.000000  -0.000022  -0.001826  -0.000014
    11  H    0.000184   0.000688  -0.000000   0.000042   0.000075   0.000885
    12  C    0.000043   0.005989  -0.000000  -0.000907  -0.006364   0.006938
    13  H    0.000000   0.000139  -0.000000  -0.000014  -0.001658   0.000434
    14  C    0.000000   0.003629  -0.000000  -0.001245  -0.059945   0.007247
    15  H    0.000000  -0.000037   0.000000  -0.000007  -0.000427   0.000202
    16  C    0.000016  -0.000501   0.000000   0.001017   0.006726  -0.003870
    17  H   -0.000003  -0.001931   0.000000   0.000161   0.003682  -0.003675
    18  H    0.000000   0.000147  -0.000000  -0.000027  -0.000091   0.001071
    19  C    0.059891   0.039430   0.000428   0.000339  -0.000009   0.039011
    20  H    0.000298  -0.000983  -0.000005  -0.000207  -0.000055  -0.000802
    21  C   -0.008694  -0.007060  -0.000579   0.000853   0.000323  -0.006049
    22  H    0.000946  -0.000439  -0.000257   0.000022   0.000005  -0.000141
    23  C   -0.002724  -0.009924   0.000298  -0.004300  -0.002532   0.010970
    24  H   -0.000150  -0.000894  -0.000005   0.000167   0.000396  -0.000692
    25  H    0.000330   0.000018   0.000005   0.000098   0.000134  -0.000359
    26  C    0.032953   0.003837  -0.000974  -0.000108  -0.000280   0.000490
    27  H    0.007642  -0.001075  -0.000236   0.000045   0.000034  -0.000147
    28  H    0.021661   0.003693   0.000142  -0.000190   0.000007   0.001921
               7          8          9         10         11         12
     1  C   -0.000000   0.001237  -0.000062  -0.000005   0.000184   0.000043
     2  C    0.000810  -0.007412  -0.010917   0.000360   0.000688   0.005989
     3  H    0.000000   0.000007   0.000001  -0.000000  -0.000000  -0.000000
     4  H   -0.000006   0.000000  -0.001027  -0.000022   0.000042  -0.000907
     5  C   -0.003766  -0.000359  -0.005951  -0.001826   0.000075  -0.006364
     6  C    0.000955   0.001567   0.010075  -0.000014   0.000885   0.006938
     7  H   -0.025459   0.000206  -0.000452  -0.000026   0.000009   0.002155
     8  H    0.000206   0.009926   0.004299  -0.000099  -0.000167  -0.000846
     9  C   -0.000452   0.004299   0.005957  -0.000379  -0.001282  -0.002051
    10  H   -0.000026  -0.000099  -0.000379   0.000666   0.000307   0.001185
    11  H    0.000009  -0.000167  -0.001282   0.000307   0.000014  -0.000086
    12  C    0.002155  -0.000846  -0.002051   0.001185  -0.000086  -0.247408
    13  H    0.000315  -0.000022  -0.000134   0.000017   0.000000   0.001898
    14  C   -0.000301   0.000040   0.002706  -0.000336   0.000151   0.008752
    15  H    0.000005  -0.000002  -0.000297  -0.000005   0.000005   0.000577
    16  C    0.000044   0.000108   0.007371   0.000380  -0.000068   0.003782
    17  H   -0.000033   0.000190  -0.001369   0.000239  -0.000543  -0.000087
    18  H    0.000005  -0.000045   0.002250  -0.000503   0.000293   0.000541
    19  C    0.000055  -0.001124   0.002445  -0.000134  -0.000374  -0.000307
    20  H   -0.000000   0.000006   0.000236   0.000016  -0.000174   0.000024
    21  C   -0.000024   0.000919  -0.000740  -0.000002   0.000044  -0.000001
    22  H   -0.000000   0.000015  -0.000021   0.000000   0.000008  -0.000000
    23  C   -0.000238   0.001021  -0.000008  -0.000008  -0.000141   0.000751
    24  H    0.000173  -0.000041   0.000141  -0.000000  -0.000000  -0.000044
    25  H   -0.000016   0.000022   0.000008  -0.000000   0.000000   0.000002
    26  C    0.000164  -0.001012  -0.000049   0.000001  -0.000022  -0.000152
    27  H    0.000005   0.000027   0.000009   0.000000   0.000001   0.000004
    28  H   -0.000103  -0.000159  -0.000089  -0.000003  -0.000027  -0.000079
              13         14         15         16         17         18
     1  C    0.000000   0.000000   0.000000   0.000016  -0.000003   0.000000
     2  C    0.000139   0.003629  -0.000037  -0.000501  -0.001931   0.000147
     3  H   -0.000000  -0.000000   0.000000   0.000000   0.000000  -0.000000
     4  H   -0.000014  -0.001245  -0.000007   0.001017   0.000161  -0.000027
     5  C   -0.001658  -0.059945  -0.000427   0.006726   0.003682  -0.000091
     6  C    0.000434   0.007247   0.000202  -0.003870  -0.003675   0.001071
     7  H    0.000315  -0.000301   0.000005   0.000044  -0.000033   0.000005
     8  H   -0.000022   0.000040  -0.000002   0.000108   0.000190  -0.000045
     9  C   -0.000134   0.002706  -0.000297   0.007371  -0.001369   0.002250
    10  H    0.000017  -0.000336  -0.000005   0.000380   0.000239  -0.000503
    11  H    0.000000   0.000151   0.000005  -0.000068  -0.000543   0.000293
    12  C    0.001898   0.008752   0.000577   0.003782  -0.000087   0.000541
    13  H    0.009097  -0.000930   0.000257   0.000091  -0.000050   0.000020
    14  C   -0.000930   0.700921  -0.001184  -0.032909  -0.021698  -0.007635
    15  H    0.000257  -0.001184  -0.024935   0.000973  -0.000142   0.000235
    16  C    0.000091  -0.032909   0.000973  -0.037318   0.011589   0.005282
    17  H   -0.000050  -0.021698  -0.000142   0.011589   0.055598  -0.008813
    18  H    0.000020  -0.007635   0.000235   0.005282  -0.008813   0.022036
    19  C   -0.000005  -0.000493  -0.000004   0.000301  -0.000005  -0.000034
    20  H    0.000000  -0.000000  -0.000000  -0.000163   0.000105  -0.000005
    21  C    0.000000  -0.000044   0.000000   0.000152   0.000081  -0.000004
    22  H   -0.000000  -0.000000   0.000000   0.000002   0.000001   0.000000
    23  C    0.000021   0.000063  -0.000001   0.000051   0.000088  -0.000009
    24  H   -0.000008  -0.000185   0.000000   0.000022   0.000027  -0.000001
    25  H   -0.000000   0.000005   0.000000  -0.000001   0.000003  -0.000000
    26  C   -0.000002  -0.000017  -0.000000   0.000000   0.000004  -0.000000
    27  H   -0.000000  -0.000000   0.000000   0.000000   0.000000   0.000000
    28  H   -0.000001   0.000003  -0.000000  -0.000004  -0.000000  -0.000000
              19         20         21         22         23         24
     1  C    0.059891   0.000298  -0.008694   0.000946  -0.002724  -0.000150
     2  C    0.039430  -0.000983  -0.007060  -0.000439  -0.009924  -0.000894
     3  H    0.000428  -0.000005  -0.000579  -0.000257   0.000298  -0.000005
     4  H    0.000339  -0.000207   0.000853   0.000022  -0.004300   0.000167
     5  C   -0.000009  -0.000055   0.000323   0.000005  -0.002532   0.000396
     6  C    0.039011  -0.000802  -0.006049  -0.000141   0.010970  -0.000692
     7  H    0.000055  -0.000000  -0.000024  -0.000000  -0.000238   0.000173
     8  H   -0.001124   0.000006   0.000919   0.000015   0.001021  -0.000041
     9  C    0.002445   0.000236  -0.000740  -0.000021  -0.000008   0.000141
    10  H   -0.000134   0.000016  -0.000002   0.000000  -0.000008  -0.000000
    11  H   -0.000374  -0.000174   0.000044   0.000008  -0.000141  -0.000000
    12  C   -0.000307   0.000024  -0.000001  -0.000000   0.000751  -0.000044
    13  H   -0.000005   0.000000   0.000000  -0.000000   0.000021  -0.000008
    14  C   -0.000493  -0.000000  -0.000044  -0.000000   0.000063  -0.000185
    15  H   -0.000004  -0.000000   0.000000   0.000000  -0.000001   0.000000
    16  C    0.000301  -0.000163   0.000152   0.000002   0.000051   0.000022
    17  H   -0.000005   0.000105   0.000081   0.000001   0.000088   0.000027
    18  H   -0.000034  -0.000005  -0.000004   0.000000  -0.000009  -0.000001
    19  C   -0.767994   0.003751   0.006545   0.001679   0.005843  -0.000072
    20  H    0.003751   0.025483  -0.002125  -0.000314   0.000448  -0.000008
    21  C    0.006545  -0.002125   0.247265  -0.001922   0.002104   0.000084
    22  H    0.001679  -0.000314  -0.001922  -0.009108   0.000137  -0.000000
    23  C    0.005843   0.000448   0.002104   0.000137  -0.006017   0.001281
    24  H   -0.000072  -0.000008   0.000084  -0.000000   0.001281  -0.000014
    25  H    0.001826   0.000026  -0.001182  -0.000017   0.000376  -0.000306
    26  C   -0.006716  -0.000042  -0.003797  -0.000093  -0.007348   0.000069
    27  H    0.000098  -0.000005  -0.000553  -0.000021  -0.002246  -0.000293
    28  H   -0.003701   0.000033   0.000118   0.000051   0.001352   0.000542
              25         26         27         28
     1  C    0.000330   0.032953   0.007642   0.021661
     2  C    0.000018   0.003837  -0.001075   0.003693
     3  H    0.000005  -0.000974  -0.000236   0.000142
     4  H    0.000098  -0.000108   0.000045  -0.000190
     5  C    0.000134  -0.000280   0.000034   0.000007
     6  C   -0.000359   0.000490  -0.000147   0.001921
     7  H   -0.000016   0.000164   0.000005  -0.000103
     8  H    0.000022  -0.001012   0.000027  -0.000159
     9  C    0.000008  -0.000049   0.000009  -0.000089
    10  H   -0.000000   0.000001   0.000000  -0.000003
    11  H    0.000000  -0.000022   0.000001  -0.000027
    12  C    0.000002  -0.000152   0.000004  -0.000079
    13  H   -0.000000  -0.000002  -0.000000  -0.000001
    14  C    0.000005  -0.000017  -0.000000   0.000003
    15  H    0.000000  -0.000000   0.000000  -0.000000
    16  C   -0.000001   0.000000   0.000000  -0.000004
    17  H    0.000003   0.000004   0.000000  -0.000000
    18  H   -0.000000  -0.000000   0.000000  -0.000000
    19  C    0.001826  -0.006716   0.000098  -0.003701
    20  H    0.000026  -0.000042  -0.000005   0.000033
    21  C   -0.001182  -0.003797  -0.000553   0.000118
    22  H   -0.000017  -0.000093  -0.000021   0.000051
    23  C    0.000376  -0.007348  -0.002246   0.001352
    24  H   -0.000306   0.000069  -0.000293   0.000542
    25  H   -0.000667  -0.000377   0.000504  -0.000240
    26  C   -0.000377   0.037283  -0.005273  -0.011605
    27  H    0.000504  -0.005273  -0.022041   0.008807
[...]
     2  C    0.000597   0.004541  -0.001555   0.005598
     3  H    0.000003  -0.000848  -0.000224   0.000135
     4  H    0.000096  -0.000043   0.000043  -0.000189
     5  C    0.000166  -0.000829   0.000015   0.000312
     6  C   -0.000391  -0.000140   0.000005   0.000373
     7  H   -0.000016   0.000215   0.000006  -0.000137
     8  H    0.000025  -0.000921   0.000007   0.000147
     9  C   -0.000005  -0.000076   0.000012  -0.000118
    10  H    0.000000  -0.000003   0.000000  -0.000003
    11  H    0.000001  -0.000001   0.000001  -0.000017
    12  C    0.000004  -0.000100   0.000001  -0.000046
    13  H   -0.000000  -0.000001  -0.000000  -0.000000
    14  C    0.000001  -0.000001  -0.000000  -0.000002
    15  H    0.000000  -0.000000   0.000000  -0.000000
    16  C    0.000003  -0.000000  -0.000000   0.000005
    17  H    0.000003  -0.000004   0.000000   0.000000
    18  H   -0.000000   0.000000   0.000000  -0.000000
    19  C    0.001511  -0.005549   0.000267  -0.004159
    20  H    0.000021  -0.000073  -0.000007   0.000041
    21  C   -0.001174  -0.003843  -0.000538   0.000290
    22  H   -0.000012  -0.000128  -0.000020   0.000049
    23  C   -0.000438  -0.008943  -0.001359  -0.000370
    24  H   -0.000293  -0.000113  -0.000279   0.000530
    25  H   -0.000467  -0.000015   0.000438  -0.000219
    26  C   -0.000015   0.039723  -0.005787  -0.009563
    27  H    0.000438  -0.005787  -0.021564   0.008464
    28  H   -0.000219  -0.009563   0.008464  -0.055024
 Mulliken charges and spin densities:
               1          2
     1  C   -0.192383  -0.594255
     2  C   -0.148272   0.054371
     3  H    0.150419   0.024373
     4  H    0.154719  -0.008474
     5  C   -0.217972   0.617178
     6  C   -0.150222  -0.054326
     7  H    0.170032  -0.025067
     8  H    0.154428   0.008471
     9  C   -0.254855   0.010116
    10  H    0.134664  -0.000107
    11  H    0.149244   0.000125
    12  C   -0.157215  -0.223772
    13  H    0.147598   0.009311
    14  C   -0.192128   0.594205
    15  H    0.150425  -0.024369
    16  C   -0.195688  -0.035793
    17  H    0.125505   0.033560
    18  H    0.135940   0.014692
    19  C   -0.219249  -0.617180
    20  H    0.170378   0.025050
    21  C   -0.156892   0.223796
    22  H    0.147544  -0.009311
    23  C   -0.254790  -0.010088
    24  H    0.149517  -0.000130
    25  H    0.134187   0.000106
    26  C   -0.196509   0.035796
    27  H    0.136054  -0.014696
    28  H    0.125518  -0.033579
 Sum of Mulliken charges =  -0.00000  -0.00000
 Mulliken charges and spin densities with hydrogens summed into heavy atoms:
               1          2
     1  C   -0.041964  -0.569882
     2  C    0.006448   0.045896
     5  C   -0.047940   0.592110
     6  C    0.004207  -0.045855
     9  C    0.029053   0.010134
    12  C   -0.009617  -0.214461
    14  C   -0.041702   0.569836
    16  C    0.065757   0.012458
    19  C   -0.048870  -0.592131
    21  C   -0.009348   0.214485
    23  C    0.028914  -0.010112
    26  C    0.065064  -0.012479
 Electronic spatial extent (au):  <R**2>=           2162.5727
 Charge=             -0.0000 electrons
 Dipole moment (field-independent basis, Debye):
    X=              0.0001    Y=             -0.0014    Z=             -0.0023  Tot=              0.0026
 Quadrupole moment (field-independent basis, Debye-Ang):
   XX=            -69.7369   YY=            -69.5738   ZZ=            -74.8701
   XY=             -2.3955   XZ=             -2.7213   YZ=              0.0925
 Traceless Quadrupole moment (field-independent basis, Debye-Ang):
   XX=              1.6567   YY=              1.8198   ZZ=             -3.4765
   XY=             -2.3955   XZ=             -2.7213   YZ=              0.0925
 Octapole moment (field-independent basis, Debye-Ang**2):
  XXX=             -0.0098  YYY=             -0.0079  ZZZ=             -0.0075  XYY=             -0.0002
  XXY=             -0.0025  XXZ=             -0.0085  XZZ=              0.0041  YZZ=              0.0011
  YYZ=             -0.0081  XYZ=              0.0109
 Hexadecapole moment (field-independent basis, Debye-Ang**3):
 XXXX=          -1941.0935 YYYY=           -620.0883 ZZZZ=           -278.4856 XXXY=            -84.5582
 XXXZ=           -106.8102 YYYX=            -58.2250 YYYZ=              2.0473 ZZZX=            -57.5637
 ZZZY=             -6.6166 XXYY=           -425.2450 XXZZ=           -402.3489 YYZZ=           -163.7190
 XXYZ=            -18.5471 YYXZ=            -21.3293 ZZXY=            -39.8613
 N-N= 6.967263573672D+02 E-N=-2.475904156650D+03  KE= 4.641797985488D+02
                          Isotropic Fermi Contact Couplings
        Atom                 a.u.       MegaHertz       Gauss      10(-4) cm-1
     1  C(13)             -0.04619     -25.96462      -9.26482      -8.66086
     2  C(13)              0.05425      30.49592      10.88170      10.17234
     3  H(1)               0.00912      20.38230       7.27291       6.79880
     4  H(1)              -0.00418      -9.33907      -3.33241      -3.11518
     5  C(13)              0.04826      27.12760       9.67980       9.04879
     6  C(13)             -0.05426     -30.50125     -10.88361     -10.17412
     7  H(1)              -0.00951     -21.24979      -7.58245      -7.08817
     8  H(1)               0.00418       9.34029       3.33285       3.11559
     9  C(13)              0.00300       1.68792       0.60229       0.56303
    10  H(1)              -0.00022      -0.49116      -0.17526      -0.16383
    11  H(1)              -0.00030      -0.67095      -0.23941      -0.22381
    12  C(13)             -0.04396     -24.70832      -8.81654      -8.24181
    13  H(1)               0.00320       7.15481       2.55301       2.38659
    14  C(13)              0.04619      25.96199       9.26388       8.65999
    15  H(1)              -0.00912     -20.37971      -7.27199      -6.79794
    16  C(13)             -0.01877     -10.55023      -3.76458      -3.51918
    17  H(1)               0.01616      36.11454      12.88656      12.04651
    18  H(1)               0.00699      15.62938       5.57695       5.21340
    19  C(13)             -0.04825     -27.12079      -9.67737      -9.04652
    20  H(1)               0.00951      21.24732       7.58157       7.08734
    21  C(13)              0.04396      24.70835       8.81655       8.24182
    22  H(1)              -0.00320      -7.15428      -2.55282      -2.38641
    23  C(13)             -0.00300      -1.68587      -0.60156      -0.56235
    24  H(1)               0.00030       0.67118       0.23950       0.22388
    25  H(1)               0.00022       0.49229       0.17566       0.16421
    26  C(13)              0.01877      10.55151       3.76504       3.51960
    27  H(1)              -0.00699     -15.63270      -5.57814      -5.21451
    28  H(1)              -0.01616     -36.11576     -12.88700     -12.04692
 --------------------------------------------------------
       Center         ----  Spin Dipole Couplings  ----
                      3XX-RR        3YY-RR        3ZZ-RR
 --------------------------------------------------------
     1   Atom        0.148207      0.356713     -0.504921
     2   Atom       -0.002169     -0.019386      0.021555
     3   Atom       -0.035751      0.045230     -0.009479
     4   Atom       -0.003187     -0.004231      0.007418
     5   Atom       -0.245960     -0.348682      0.594642
     6   Atom        0.002162      0.019384     -0.021546
     7   Atom       -0.019979      0.017231      0.002748
     8   Atom        0.003187      0.004232     -0.007419
     9   Atom       -0.001672      0.008864     -0.007192
    10   Atom       -0.004315      0.003739      0.000577
    11   Atom       -0.006067      0.007268     -0.001202
    12   Atom        0.077351      0.100195     -0.177546
    13   Atom        0.007093     -0.001658     -0.005434
    14   Atom       -0.148170     -0.356678      0.504847
    15   Atom        0.035747     -0.045226      0.009479
    16   Atom       -0.005448      0.002618      0.002830
    17   Atom       -0.008524      0.009366     -0.000842
    18   Atom       -0.006383      0.010833     -0.004450
    19   Atom        0.245923      0.348631     -0.594554
    20   Atom        0.019979     -0.017226     -0.002752
    21   Atom       -0.077347     -0.100201      0.177548
    22   Atom       -0.007091      0.001657      0.005434
    23   Atom        0.001668     -0.008865      0.007197
    24   Atom        0.006067     -0.007268      0.001201
    25   Atom        0.004316     -0.003739     -0.000577
    26   Atom        0.005444     -0.002624     -0.002820
    27   Atom        0.006383     -0.010834      0.004452
    28   Atom        0.008523     -0.009368      0.000845
 --------------------------------------------------------
                        XY            XZ            YZ
 --------------------------------------------------------
     1   Atom        0.003538     -0.408785      0.010933
     2   Atom        0.007330      0.030868      0.015593
     3   Atom       -0.008570      0.018022      0.005089
     4   Atom       -0.005213      0.005896      0.009036
     5   Atom       -0.054726      0.340370     -0.121293
     6   Atom       -0.007329     -0.030866     -0.015588
     7   Atom       -0.043324      0.002569      0.015172
     8   Atom        0.005214     -0.005896     -0.009036
     9   Atom       -0.014375     -0.012639      0.002280
    10   Atom       -0.001315     -0.003584     -0.005931
    11   Atom        0.004674     -0.008388     -0.000046
    12   Atom       -0.006542     -0.124749      0.029187
    13   Atom       -0.007559     -0.007614      0.003256
    14   Atom       -0.003537      0.408758     -0.010929
    15   Atom        0.008568     -0.018021     -0.005087
    16   Atom        0.001822      0.006405     -0.000709
    17   Atom        0.004578      0.001669      0.005564
    18   Atom       -0.002587     -0.000829     -0.002844
    19   Atom        0.054724     -0.340324      0.121285
    20   Atom        0.043318     -0.002569     -0.015171
    21   Atom        0.006543      0.124756     -0.029189
    22   Atom        0.007561      0.007613     -0.003257
    23   Atom        0.014375      0.012637     -0.002275
    24   Atom       -0.004675      0.008388      0.000045
    25   Atom        0.001315      0.003586      0.005930
    26   Atom       -0.001819     -0.006403      0.000716
    27   Atom        0.002588      0.000828      0.002844
    28   Atom       -0.004579     -0.001669     -0.005563
 --------------------------------------------------------


 ---------------------------------------------------------------------------------
              Anisotropic Spin Dipole Couplings in Principal Axis System
 ---------------------------------------------------------------------------------

       Atom             a.u.   MegaHertz   Gauss  10(-4) cm-1        Axes

              Baa    -0.7017   -94.160   -33.599   -31.408  0.4335 -0.0108  0.9011
     1 C(13)  Bbb     0.3447    46.250    16.503    15.427  0.8945  0.1263 -0.4288
              Bcc     0.3570    47.910    17.096    15.981 -0.1092  0.9919  0.0644
 
              Baa    -0.0263    -3.524    -1.258    -1.176  0.4647  0.7086 -0.5310
     2 C(13)  Bbb    -0.0209    -2.798    -0.998    -0.933  0.7014 -0.6606 -0.2676
              Bcc     0.0471     6.323     2.256     2.109  0.5404  0.2481  0.8040
 
              Baa    -0.0460   -24.544    -8.758    -8.187  0.8854  0.1084 -0.4520
     3 H(1)   Bbb    -0.0003    -0.172    -0.061    -0.057  0.4560 -0.0136  0.8899
              Bcc     0.0463    24.716     8.819     8.244 -0.0903  0.9940  0.0615
 
              Baa    -0.0142    -7.596    -2.710    -2.534  0.5650  0.6954 -0.4440
     4 H(1)   Bbb     0.0014     0.727     0.259     0.243  0.8021 -0.5891  0.0981
              Bcc     0.0129     6.869     2.451     2.291  0.1933  0.4116  0.8906
 
              Baa    -0.3768   -50.559   -18.041   -16.865  0.7168  0.6771 -0.1666
     5 C(13)  Bbb    -0.3547   -47.596   -16.983   -15.876 -0.6129  0.7257  0.3125
              Bcc     0.7315    98.155    35.024    32.741  0.3325 -0.1219  0.9352
 
              Baa    -0.0471    -6.322    -2.256    -2.109  0.5405  0.2480  0.8039
     6 C(13)  Bbb     0.0208     2.798     0.998     0.933  0.7013 -0.6607 -0.2677
              Bcc     0.0263     3.524     1.257     1.175  0.4647  0.7085 -0.5311
 
              Baa    -0.0506   -27.019    -9.641    -9.012  0.8057  0.5585 -0.1975
     7 H(1)   Bbb     0.0020     1.083     0.387     0.361  0.2990 -0.0956  0.9495
              Bcc     0.0486    25.935     9.254     8.651 -0.5114  0.8240  0.2440
 
              Baa    -0.0129    -6.869    -2.451    -2.291  0.1933  0.4116  0.8906
     8 H(1)   Bbb    -0.0014    -0.728    -0.260    -0.243  0.8021 -0.5891  0.0981
              Bcc     0.0142     7.597     2.711     2.534  0.5650  0.6954 -0.4440
 
              Baa    -0.0197    -2.638    -0.941    -0.880  0.6969  0.2991  0.6518
     9 C(13)  Bbb    -0.0023    -0.314    -0.112    -0.105 -0.3758 -0.6218  0.6872
              Bcc     0.0220     2.953     1.054     0.985 -0.6108  0.7238  0.3209
 
              Baa    -0.0078    -4.182    -1.492    -1.395  0.7260  0.3771  0.5751
    10 H(1)   Bbb    -0.0006    -0.304    -0.108    -0.101  0.6808 -0.5126 -0.5233
              Bcc     0.0084     4.486     1.601     1.496  0.0974  0.7714 -0.6288
 
              Baa    -0.0131    -6.968    -2.486    -2.324  0.8029 -0.1833  0.5672
    11 H(1)   Bbb     0.0034     1.812     0.646     0.604 -0.4155  0.5103  0.7530
              Bcc     0.0097     5.156     1.840     1.720  0.4275  0.8402 -0.3335
 
              Baa    -0.2303   -30.900   -11.026   -10.307  0.3734 -0.0743  0.9247
    12 C(13)  Bbb     0.0936    12.565     4.483     4.191  0.4346  0.8946 -0.1036
              Bcc     0.1366    18.335     6.542     6.116  0.8196 -0.4406 -0.3663
 
              Baa    -0.0091    -4.829    -1.723    -1.611  0.4526  0.0713  0.8888
    13 H(1)   Bbb    -0.0057    -3.068    -1.095    -1.023  0.3705  0.8916 -0.2602
              Bcc     0.0148     7.897     2.818     2.634  0.8111 -0.4471 -0.3771
 
              Baa    -0.3570   -47.906   -17.094   -15.980 -0.1091  0.9919  0.0643
    14 C(13)  Bbb    -0.3446   -46.245   -16.501   -15.426  0.8945  0.1262 -0.4288
              Bcc     0.7016    94.150    33.595    31.405  0.4335 -0.0108  0.9011
 
              Baa    -0.0463   -24.713    -8.818    -8.243 -0.0903  0.9940  0.0615
    15 H(1)   Bbb     0.0003     0.172     0.061     0.057  0.4560 -0.0136  0.8899
              Bcc     0.0460    24.541     8.757     8.186  0.8854  0.1084 -0.4520
 
              Baa    -0.0093    -1.242    -0.443    -0.414  0.8680 -0.1612 -0.4696
    16 C(13)  Bbb     0.0029     0.391     0.140     0.131  0.1070  0.9843 -0.1402
              Bcc     0.0063     0.850     0.303     0.284  0.4849  0.0714  0.8717
 
              Baa    -0.0096    -5.145    -1.836    -1.716  0.9741 -0.2215 -0.0447
    17 H(1)   Bbb    -0.0033    -1.747    -0.623    -0.583 -0.0461 -0.3884  0.9203
              Bcc     0.0129     6.891     2.459     2.299  0.2213  0.8945  0.3886
 
              Baa    -0.0074    -3.930    -1.402    -1.311  0.8779  0.1933  0.4380
    18 H(1)   Bbb    -0.0043    -2.294    -0.819    -0.765 -0.4601  0.0874  0.8836
              Bcc     0.0117     6.224     2.221     2.076 -0.1325  0.9772 -0.1656
 
              Baa    -0.7314   -98.141   -35.019   -32.736  0.3325 -0.1219  0.9352
    19 C(13)  Bbb     0.3546    47.589    16.981    15.874 -0.6129  0.7257  0.3125
              Bcc     0.3767    50.552    18.038    16.862  0.7168  0.6771 -0.1666
 
              Baa    -0.0486   -25.931    -9.253    -8.650 -0.5113  0.8240  0.2440
    20 H(1)   Bbb    -0.0020    -1.085    -0.387    -0.362  0.2990 -0.0956  0.9495
              Bcc     0.0506    27.016     9.640     9.012  0.8057  0.5585 -0.1975
 
              Baa    -0.1366   -18.335    -6.542    -6.116  0.8195 -0.4407 -0.3664
    21 C(13)  Bbb    -0.0936   -12.565    -4.484    -4.191  0.4347  0.8946 -0.1037
              Bcc     0.2303    30.901    11.026    10.307  0.3734 -0.0743  0.9247
 
              Baa    -0.0148    -7.897    -2.818    -2.634  0.8110 -0.4472 -0.3771
    22 H(1)   Bbb     0.0058     3.068     1.095     1.024  0.3706  0.8916 -0.2604
              Bcc     0.0090     4.829     1.723     1.611  0.4527  0.0714  0.8888
 
              Baa    -0.0220    -2.953    -1.054    -0.985 -0.6108  0.7239  0.3208
    23 C(13)  Bbb     0.0023     0.314     0.112     0.105 -0.3759 -0.6217  0.6872
              Bcc     0.0197     2.638     0.941     0.880  0.6968  0.2992  0.6519
 
              Baa    -0.0097    -5.157    -1.840    -1.720  0.4276  0.8402 -0.3336
    24 H(1)   Bbb    -0.0034    -1.812    -0.646    -0.604 -0.4154  0.5103  0.7530
              Bcc     0.0131     6.968     2.487     2.324  0.8029 -0.1834  0.5672
 
              Baa    -0.0084    -4.486    -1.601    -1.496  0.0976  0.7714 -0.6289
    25 H(1)   Bbb     0.0006     0.303     0.108     0.101  0.6807 -0.5127 -0.5233
              Bcc     0.0078     4.183     1.492     1.395  0.7261  0.3770  0.5751
 
              Baa    -0.0063    -0.849    -0.303    -0.283  0.4850  0.0699  0.8717
    26 C(13)  Bbb    -0.0029    -0.392    -0.140    -0.131  0.1078  0.9844 -0.1389
              Bcc     0.0092     1.241     0.443     0.414  0.8678 -0.1613 -0.4699
 
              Baa    -0.0117    -6.225    -2.221    -2.076 -0.1325  0.9772 -0.1656
    27 H(1)   Bbb     0.0043     2.295     0.819     0.766 -0.4602  0.0874  0.8835
              Bcc     0.0074     3.930     1.402     1.311  0.8779  0.1933  0.4382
 
              Baa    -0.0129    -6.892    -2.459    -2.299  0.2213  0.8945  0.3884
    28 H(1)   Bbb     0.0033     1.748     0.624     0.583 -0.0462 -0.3883  0.9204
              Bcc     0.0096     5.144     1.836     1.716  0.9741 -0.2216 -0.0446
 

 ---------------------------------------------------------------------------------

 No NMR shielding tensors so no spin-rotation constants.
 Leave Link  601 at Tue Aug  4 19:50:09 2020, MaxMem=  6442450944 cpu:               8.2 elap:               0.4
 (Enter /scratch/scicomp/CentOS/7.3.1611/Haswell/software/Gaussian/g16/l9999.exe)
 1\1\GINC-ATLAS-205\SP\UwB97XD\def2TZVP\C12H16\BOCHEN\04-Aug-2020\0\\#p
  uwb97xd guess=mix def2tzvp # scrf=(iefpcm,solvent=Cyclohexane,read) n
 osym 6d 10f\\endo-2 xp-pcm for eta=3\\0,1\C,0,-3.118545,-0.4235,0.2482
 23\C,0,-0.402344,-0.116575,-0.672864\H,0,-4.093571,-0.546048,0.703566\
 H,0,0.333633,-0.10803,-1.481168\C,0,1.107682,1.434119,0.643785\C,0,0.4
 02344,0.116575,0.672864\H,0,0.575901,2.330463,0.937322\H,0,-0.333633,0
 .10803,1.481168\C,0,1.433587,-0.989852,0.953879\H,0,1.831677,-0.829046
 ,1.959162\H,0,0.953866,-1.970051,0.954345\C,0,2.392223,1.530795,0.1338
 18\H,0,2.840546,2.512465,0.025049\C,0,3.118545,0.4235,-0.248223\H,0,4.
 093571,0.546048,-0.703566\C,0,2.590666,-0.961461,-0.045609\H,0,2.26346
 8,-1.371998,-1.010466\H,0,3.394447,-1.622447,0.290265\C,0,-1.107682,-1
 .434119,-0.643785\H,0,-0.575901,-2.330463,-0.937322\C,0,-2.392223,-1.5
 30795,-0.133818\H,0,-2.840546,-2.512465,-0.025049\C,0,-1.433587,0.9898
 52,-0.953879\H,0,-0.953866,1.970051,-0.954345\H,0,-1.831677,0.829046,-
 1.959162\C,0,-2.590666,0.961461,0.045609\H,0,-3.394447,1.622447,-0.290
 265\H,0,-2.263468,1.371998,1.010466\\Version=ES64L-G16RevB.01\HF=-466.
 7899042\S2=1.055632\S2-1=0.\S2A=0.550313\RMSD=8.820e-09\Dipole=0.00004
 16,-0.0005321,-0.0008894\Quadrupole=1.231709,1.3529816,-2.5846905,-1.7
 809955,-2.0232204,0.0687499\PG=CI [X(C12H16)]\\@


 STEINBACH'S GUIDELINES FOR SYSTEMS PROGRAMMING:
 NEVER TEST FOR AN ERROR CONDITION YOU DON'T KNOW HOW
 TO HANDLE.
 Job cpu time:       0 days  1 hours 48 minutes 24.6 seconds.
 Elapsed time:       0 days  0 hours  4 minutes 34.0 seconds.
 File lengths (MBytes):  RWF=    628 Int=      0 D2E=      0 Chk=     24 Scr=      1
 Normal termination of Gaussian 16 at Tue Aug  4 19:50:09 2020.
