 Entering Gaussian System, Link 0=g16
 Input=meso-TS_76_2_xp-Ger.com
 Output=meso-TS_76_2_xp-Ger.log
 Initial command:
 /scratch/scicomp/CentOS/7.3.1611/Haswell/software/Gaussian/g16/l1.exe "/scratch/bochen/cyclohexadiene-dimerization/wb97xd-def2tzvp/xp-pcm/meso/Gau-175866.inp" -scrdir="/scratch/bochen/cyclohexadiene-dimerization/wb97xd-def2tzvp/xp-pcm/meso/"
 Entering Link 1 = /scratch/scicomp/CentOS/7.3.1611/Haswell/software/Gaussian/g16/l1.exe PID=    175867.
  
 Copyright (c) 1988-2017, Gaussian, Inc.  All Rights Reserved.
  
 This is part of the Gaussian(R) 16 program.  It is based on
 the Gaussian(R) 09 system (copyright 2009, Gaussian, Inc.),
 the Gaussian(R) 03 system (copyright 2003, Gaussian, Inc.),
 the Gaussian(R) 98 system (copyright 1998, Gaussian, Inc.),
 the Gaussian(R) 94 system (copyright 1995, Gaussian, Inc.),
 the Gaussian 92(TM) system (copyright 1992, Gaussian, Inc.),
 the Gaussian 90(TM) system (copyright 1990, Gaussian, Inc.),
 the Gaussian 88(TM) system (copyright 1988, Gaussian, Inc.),
 the Gaussian 86(TM) system (copyright 1986, Carnegie Mellon
 University), and the Gaussian 82(TM) system (copyright 1983,
 Carnegie Mellon University). Gaussian is a federally registered
 trademark of Gaussian, Inc.
  
 This software contains proprietary and confidential information,
 including trade secrets, belonging to Gaussian, Inc.
  
 This software is provided under written license and may be
 used, copied, transmitted, or stored only in accord with that
 written license.
  
 The following legend is applicable only to US Government
 contracts under FAR:
  
                    RESTRICTED RIGHTS LEGEND
  
 Use, reproduction and disclosure by the US Government is
 subject to restrictions as set forth in subparagraphs (a)
 and (c) of the Commercial Computer Software - Restricted
 Rights clause in FAR 52.227-19.
  
 Gaussian, Inc.
 340 Quinnipiac St., Bldg. 40, Wallingford CT 06492
  
  
 ---------------------------------------------------------------
 Warning -- This program may not be used in any manner that
 competes with the business of Gaussian, Inc. or will provide
 assistance to any competitor of Gaussian, Inc.  The licensee
 of this program is prohibited from giving any competitor of
 Gaussian, Inc. access to this program.  By using this program,
 the user acknowledges that Gaussian, Inc. is engaged in the
 business of creating and licensing software in the field of
 computational chemistry and represents and warrants to the
 licensee that it is not a competitor of Gaussian, Inc. and that
 it will not use this program in any manner prohibited above.
 ---------------------------------------------------------------
  

 Cite this work as:
 Gaussian 16, Revision B.01,
 M. J. Frisch, G. W. Trucks, H. B. Schlegel, G. E. Scuseria, 
 M. A. Robb, J. R. Cheeseman, G. Scalmani, V. Barone, 
 G. A. Petersson, H. Nakatsuji, X. Li, M. Caricato, A. V. Marenich, 
 J. Bloino, B. G. Janesko, R. Gomperts, B. Mennucci, H. P. Hratchian, 
 J. V. Ortiz, A. F. Izmaylov, J. L. Sonnenberg, D. Williams-Young, 
 F. Ding, F. Lipparini, F. Egidi, J. Goings, B. Peng, A. Petrone, 
 T. Henderson, D. Ranasinghe, V. G. Zakrzewski, J. Gao, N. Rega, 
 G. Zheng, W. Liang, M. Hada, M. Ehara, K. Toyota, R. Fukuda, 
 J. Hasegawa, M. Ishida, T. Nakajima, Y. Honda, O. Kitao, H. Nakai, 
 T. Vreven, K. Throssell, J. A. Montgomery, Jr., J. E. Peralta, 
 F. Ogliaro, M. J. Bearpark, J. J. Heyd, E. N. Brothers, K. N. Kudin, 
 V. N. Staroverov, T. A. Keith, R. Kobayashi, J. Normand, 
 K. Raghavachari, A. P. Rendell, J. C. Burant, S. S. Iyengar, 
 J. Tomasi, M. Cossi, J. M. Millam, M. Klene, C. Adamo, R. Cammi, 
 J. W. Ochterski, R. L. Martin, K. Morokuma, O. Farkas, 
 J. B. Foresman, and D. J. Fox, Gaussian, Inc., Wallingford CT, 2016.
 
 ******************************************
 Gaussian 16:  ES64L-G16RevB.01 20-Dec-2017
                 3-Aug-2020 
 ******************************************
 %chk=meso-TS_76_2_xp-12.chk
 %nproc=24
 Will use up to   24 processors via shared memory.
 %mem=48GB
 ----------------------------------------------------------------------
 #p uwb97xd guess=mix def2tzvp # scrf=(iefpcm,solvent=Cyclohexane,read)
  nosym 6d 10f
 ----------------------------------------------------------------------
 1/38=1,40=2,172=1/1;
 2/12=2,15=1,17=6,18=5,40=1/2;
 3/5=44,7=101,8=22,11=2,25=1,30=1,70=2203,72=17,74=-58,116=2/1,2,3;
 4/13=-1/1;
 5/5=2,38=5,53=17/2;
 6/7=2,8=2,9=2,10=2,28=1/1;
 99/5=1,9=1/99;
 Leave Link    1 at Mon Aug  3 20:58:18 2020, MaxMem=  6442450944 cpu:               2.5 elap:               0.1
 (Enter /scratch/scicomp/CentOS/7.3.1611/Haswell/software/Gaussian/g16/l101.exe)
 -----------------------
 endo-2 xp-pcm for eta=3
 -----------------------
 Symbolic Z-matrix:
 Charge =  0 Multiplicity = 1
 6                    -3.1179   -0.43907   0.28272 
 6                    -0.81852  -0.27359  -1.3649 
 1                    -4.03333  -0.51712   0.85772 
 1                     0.10337  -0.20137  -1.92934 
 6                     1.2289    1.44101   0.87645 
 6                     0.81852   0.27359   1.3649 
 1                     0.64341   2.33995   1.02944 
 1                    -0.10337   0.20137   1.92934 
 6                     1.6454   -0.97004   1.20615 
 1                     2.25973  -1.0838    2.10902 
 1                     0.99746  -1.8471    1.16556 
 6                     2.4852    1.53568   0.1308 
 1                     2.8865    2.5174   -0.09068 
 6                     3.1179    0.43907  -0.28272 
 1                     4.03333   0.51712  -0.85772 
 6                     2.54629  -0.92942  -0.03076 
 1                     1.97376  -1.23029  -0.9167 
 1                     3.3478   -1.66337   0.07074 
 6                    -1.2289   -1.44101  -0.87645 
 1                    -0.64341  -2.33995  -1.02944 
 6                    -2.4852   -1.53568  -0.1308 
 1                    -2.8865   -2.5174    0.09068 
 6                    -1.6454    0.97004  -1.20615 
 1                    -0.99746   1.8471   -1.16556 
 1                    -2.25973   1.0838   -2.10902 
 6                    -2.54629   0.92942   0.03076 
 1                    -3.3478    1.66337  -0.07074 
 1                    -1.97376   1.23029   0.9167 
 
 ITRead=  0  0  0  0  0  0  0  0  0  0  0  0  0  0  0  0  0  0  0  0
 ITRead=  0  0  0  0  0  0  0  0
 MicOpt= -1 -1 -1 -1 -1 -1 -1 -1 -1 -1 -1 -1 -1 -1 -1 -1 -1 -1 -1 -1
 MicOpt= -1 -1 -1 -1 -1 -1 -1 -1
 NAtoms=     28 NQM=       28 NQMF=       0 NMMI=      0 NMMIF=      0
                NMic=       0 NMicF=      0.
                    Isotopes and Nuclear Properties:
 (Nuclear quadrupole moments (NQMom) in fm**2, nuclear magnetic moments (NMagM)
  in nuclear magnetons)

  Atom         1           2           3           4           5           6           7           8           9          10
 IAtWgt=          12          12           1           1          12          12           1           1          12           1
 AtmWgt=  12.0000000  12.0000000   1.0078250   1.0078250  12.0000000  12.0000000   1.0078250   1.0078250  12.0000000   1.0078250
 NucSpn=           0           0           1           1           0           0           1           1           0           1
 AtZEff=  -0.0000000  -0.0000000  -0.0000000  -0.0000000  -0.0000000  -0.0000000  -0.0000000  -0.0000000  -0.0000000  -0.0000000
 NQMom=    0.0000000   0.0000000   0.0000000   0.0000000   0.0000000   0.0000000   0.0000000   0.0000000   0.0000000   0.0000000
 NMagM=    0.0000000   0.0000000   2.7928460   2.7928460   0.0000000   0.0000000   2.7928460   2.7928460   0.0000000   2.7928460
 AtZNuc=   6.0000000   6.0000000   1.0000000   1.0000000   6.0000000   6.0000000   1.0000000   1.0000000   6.0000000   1.0000000

  Atom        11          12          13          14          15          16          17          18          19          20
 IAtWgt=           1          12           1          12           1          12           1           1          12           1
 AtmWgt=   1.0078250  12.0000000   1.0078250  12.0000000   1.0078250  12.0000000   1.0078250   1.0078250  12.0000000   1.0078250
 NucSpn=           1           0           1           0           1           0           1           1           0           1
 AtZEff=  -0.0000000  -0.0000000  -0.0000000  -0.0000000  -0.0000000  -0.0000000  -0.0000000  -0.0000000  -0.0000000  -0.0000000
 NQMom=    0.0000000   0.0000000   0.0000000   0.0000000   0.0000000   0.0000000   0.0000000   0.0000000   0.0000000   0.0000000
 NMagM=    2.7928460   0.0000000   2.7928460   0.0000000   2.7928460   0.0000000   2.7928460   2.7928460   0.0000000   2.7928460
 AtZNuc=   1.0000000   6.0000000   1.0000000   6.0000000   1.0000000   6.0000000   1.0000000   1.0000000   6.0000000   1.0000000

  Atom        21          22          23          24          25          26          27          28
 IAtWgt=          12           1          12           1           1          12           1           1
 AtmWgt=  12.0000000   1.0078250  12.0000000   1.0078250   1.0078250  12.0000000   1.0078250   1.0078250
 NucSpn=           0           1           0           1           1           0           1           1
 AtZEff=  -0.0000000  -0.0000000  -0.0000000  -0.0000000  -0.0000000  -0.0000000  -0.0000000  -0.0000000
 NQMom=    0.0000000   0.0000000   0.0000000   0.0000000   0.0000000   0.0000000   0.0000000   0.0000000
 NMagM=    0.0000000   2.7928460   0.0000000   2.7928460   2.7928460   0.0000000   2.7928460   2.7928460
 AtZNuc=   6.0000000   1.0000000   6.0000000   1.0000000   1.0000000   6.0000000   1.0000000   1.0000000
 Leave Link  101 at Mon Aug  3 20:58:18 2020, MaxMem=  6442450944 cpu:               2.4 elap:               0.1
 (Enter /scratch/scicomp/CentOS/7.3.1611/Haswell/software/Gaussian/g16/l202.exe)
                          Input orientation:                          
 ---------------------------------------------------------------------
 Center     Atomic      Atomic             Coordinates (Angstroms)
 Number     Number       Type             X           Y           Z
 ---------------------------------------------------------------------
      1          6           0       -3.117905   -0.439074    0.282722
      2          6           0       -0.818524   -0.273593   -1.364901
      3          1           0       -4.033330   -0.517117    0.857717
      4          1           0        0.103373   -0.201366   -1.929344
      5          6           0        1.228903    1.441011    0.876454
      6          6           0        0.818524    0.273593    1.364901
      7          1           0        0.643410    2.339945    1.029443
      8          1           0       -0.103373    0.201366    1.929344
      9          6           0        1.645400   -0.970035    1.206150
     10          1           0        2.259726   -1.083800    2.109018
     11          1           0        0.997461   -1.847095    1.165558
     12          6           0        2.485196    1.535682    0.130802
     13          1           0        2.886502    2.517404   -0.090679
     14          6           0        3.117905    0.439074   -0.282722
     15          1           0        4.033330    0.517117   -0.857717
     16          6           0        2.546291   -0.929423   -0.030764
     17          1           0        1.973763   -1.230286   -0.916701
     18          1           0        3.347800   -1.663372    0.070740
     19          6           0       -1.228903   -1.441011   -0.876454
     20          1           0       -0.643410   -2.339945   -1.029443
     21          6           0       -2.485196   -1.535682   -0.130802
     22          1           0       -2.886502   -2.517404    0.090679
     23          6           0       -1.645400    0.970035   -1.206150
     24          1           0       -0.997461    1.847095   -1.165558
     25          1           0       -2.259726    1.083800   -2.109018
     26          6           0       -2.546291    0.929423    0.030764
     27          1           0       -3.347800    1.663372   -0.070740
     28          1           0       -1.973763    1.230286    0.916701
 ---------------------------------------------------------------------
                    Distance matrix (angstroms):
                    1          2          3          4          5
     1  C    0.000000
     2  C    2.833584   0.000000
     3  H    1.083842   3.915905   0.000000
     4  H    3.914891   1.083377   4.997972   0.000000
     5  C    4.773047   3.486473   5.614776   3.440454   0.000000
     6  C    4.144210   3.229730   4.941958   3.404273   1.330359
     7  H    4.735824   3.834151   5.483082   3.937553   1.083647
     8  H    3.494128   3.404273   4.136323   3.885153   2.102441
     9  C    4.880954   3.628534   5.707409   3.577712   2.468869
    10  H    5.715763   4.711706   6.441230   4.662287   2.992738
    11  H    4.438261   3.489546   5.212722   3.617490   3.308895
    12  C    5.942851   4.052798   6.872668   3.596473   1.463978
    13  H    6.703215   4.810460   7.615238   4.303279   2.200364
    14  C    6.322673   4.144210   7.304455   3.494128   2.432261
    15  H    7.304455   4.941958   8.311640   4.136323   3.424287
    16  C    5.694017   3.678589   6.652128   3.178446   2.859635
    17  H    5.290531   2.985467   6.304152   2.362727   3.302431
    18  H    6.584010   4.620693   7.510946   4.082169   3.843968
    19  C    2.432261   1.330359   3.424287   2.102441   4.173673
    20  H    3.384998   2.100716   4.286681   2.437422   4.629647
    21  C    1.331868   2.427687   2.100325   3.422841   4.865162
    22  H    2.099972   3.380819   2.429961   4.287642   5.763944
    23  C    2.524005   1.501844   3.489037   2.225623   3.580597
    24  H    3.438076   2.137539   4.347372   2.447733   3.048182
    25  H    2.962438   2.115015   3.809216   2.695955   4.605559
    26  C    1.504330   2.525927   2.233297   3.484455   3.902436
    27  H    2.144310   3.438593   2.467087   4.340766   4.678978
    28  H    2.120791   2.966806   2.701613   3.803169   3.209843
                    6          7          8          9         10
     6  C    0.000000
     7  H    2.100716   0.000000
     8  H    1.083377   2.437422   0.000000
     9  C    1.501844   3.462828   2.225623   0.000000
    10  H    2.115015   3.937003   2.695955   1.097957   0.000000
    11  H    2.137539   4.204186   2.447733   1.091195   1.751014
    12  C    2.427687   2.201493   3.422841   2.853112   3.290268
    13  H    3.380819   2.513489   4.287642   3.922286   4.266168
    14  C    2.833584   3.384998   3.914891   2.524005   2.962438
    15  H    3.915905   4.286681   4.997972   3.489037   3.809216
    16  C    2.525927   3.928583   3.484455   1.530755   2.164398
    17  H    2.966806   4.278302   3.803169   2.163804   3.042730
    18  H    3.438593   4.925382   4.340766   2.160564   2.382097
    19  C    3.486473   4.629647   3.440454   3.580597   4.605559
    20  H    3.834151   5.272218   3.937553   3.480400   4.456011
    21  C    4.052798   5.114179   3.596473   4.378267   5.266429
    22  H    4.810460   6.077450   4.303279   4.916987   5.710742
    23  C    3.628534   3.480400   3.577712   4.518011   5.518930
    24  H    3.489546   2.784491   3.617490   4.532762   5.470124
    25  H    4.711706   4.456011   4.662287   5.518930   6.551012
    26  C    3.678589   3.627826   3.178446   4.749710   5.609813
    27  H    4.620693   4.194986   4.082169   5.787688   6.613822
    28  H    2.985467   2.844934   2.362727   4.245413   4.969813
                   11         12         13         14         15
    11  H    0.000000
    12  C    3.837611   0.000000
    13  H    4.918888   1.083457   0.000000
    14  C    3.438076   1.331868   2.099972   0.000000
    15  H    4.347372   2.100325   2.429961   1.083842   0.000000
    16  C    2.161523   2.471149   3.464094   1.504330   2.233297
    17  H    2.381055   3.001567   3.944691   2.120791   2.701613
    18  H    2.599322   3.313856   4.209245   2.144310   2.467087
    19  C    3.048182   4.865162   5.763944   4.773047   5.614776
    20  H    2.784491   5.114179   6.077450   4.735824   5.483082
    21  C    3.729132   5.848633   6.729358   5.942851   6.872668
    22  H    4.085321   6.729358   7.662229   6.703215   7.615238
    23  C    4.532762   4.378267   4.916987   4.880954   5.707409
    24  H    4.802172   3.729132   4.085321   4.438261   5.212722
    25  H    5.470124   5.266429   5.710742   5.715763   6.441230
    26  C    4.642735   5.068868   5.661420   5.694017   6.652128
    27  H    5.721285   5.837873   6.292558   6.584010   7.510946
    28  H    4.284901   4.537975   5.127735   5.290531   6.304152
                   16         17         18         19         20
    16  C    0.000000
    17  H    1.096901   0.000000
    18  H    1.091513   1.746591   0.000000
    19  C    3.902436   3.209843   4.678978   0.000000
    20  H    3.627826   2.844934   4.194986   1.083647   0.000000
    21  C    5.068868   4.537975   5.837873   1.463978   2.201493
    22  H    5.661420   5.127735   6.292558   2.200364   2.513489
    23  C    4.749710   4.245413   5.787688   2.468869   3.462828
    24  H    4.642735   4.284901   5.721285   3.308895   4.204186
    25  H    5.609813   4.969813   6.613822   2.992738   3.937003
    26  C    5.421576   5.098325   6.439293   2.859635   3.928583
    27  H    6.439293   6.116203   7.477854   3.843968   4.925382
    28  H    5.098325   4.999874   6.116203   3.302431   4.278302
                   21         22         23         24         25
    21  C    0.000000
    22  H    1.083457   0.000000
    23  C    2.853112   3.922286   0.000000
    24  H    3.837611   4.918888   1.091195   0.000000
    25  H    3.290268   4.266168   1.097957   1.751014   0.000000
    26  C    2.471149   3.464094   1.530755   2.161523   2.164398
    27  H    3.313856   4.209245   2.160564   2.599322   2.382097
    28  H    3.001567   3.944691   2.163804   2.381055   3.042730
                   26         27         28
    26  C    0.000000
    27  H    1.091513   0.000000
    28  H    1.096901   1.746591   0.000000
 Symmetry turned off by external request.
 Stoichiometry    C12H16
 Framework group  CI[X(C12H16)]
 Deg. of freedom    39
 Full point group                 CI      NOp   2
 Rotational constants (GHZ):           1.6759010           0.5726930           0.5274709
 Leave Link  202 at Mon Aug  3 20:58:18 2020, MaxMem=  6442450944 cpu:               0.3 elap:               0.1
 (Enter /scratch/scicomp/CentOS/7.3.1611/Haswell/software/Gaussian/g16/l301.exe)
 Standard basis: def2TZVP (6D, 10F)
 Ernie: Thresh=  0.10000D-02 Tol=  0.10000D-05 Strict=F.
   528 basis functions,   740 primitive gaussians,   528 cartesian basis functions
    44 alpha electrons       44 beta electrons
       nuclear repulsion energy       669.2814376279 Hartrees.
 IExCor= 4639 DFT=T Ex+Corr=wB97XD ExCW=0 ScaHFX=  1.000000
 ScaDFX=  1.000000  1.000000  1.000000  1.000000 ScalE2=  1.000000  1.000000
 IRadAn=      5 IRanWt=     -1 IRanGd=            0 ICorTp=0 IEmpDi=121
 HFx  wShort=  0.000000 wLong=  0.200000 cFull=  0.222036 cShort=  0.000000 cLong=  0.777964
 DFx  wShort=  0.000000 wLong=  0.200000 cFull=  0.000000 cShort=  0.000000 cLong=  1.000000
 NAtoms=   28 NActive=   28 NUniq=   28 SFac= 1.00D+00 NAtFMM=   60 NAOKFM=F Big=F
 Integral buffers will be    131072 words long.
 Raffenetti 2 integral format.
 Two-electron integral symmetry is turned off.
 R6Disp:  Grimme-D2 Dispersion energy=       -0.0209958483 Hartrees.
 Nuclear repulsion after empirical dispersion term =      669.2604417796 Hartrees.
 Using the following non-standard input for PCM:
 qrep pcmdoc geomview  nodis nocav g03defaults tsare=0.075
 Warning! Using old PCM defaults because the g03defaults keyword was found.
 These settings can be overridden by following keywords.
 nsfe=28
 NVESolv=36  SolvMW=84.1595   Rsolv=2.815
 eps=2.0165 RhoS=0.778099999999998
 --- end of non-standard input.
 Reading user-defined spheres from input:
 ISph  on   Nord    Re0     Alpha      Xe            Ye            Ze
 --- end of user-defined spheres data.
 ------------------------------------------------------------------------------
 Polarizable Continuum Model (PCM)
 =================================
 Model                : PCM.
 Atomic radii         : UA0 (Simple United Atom Topological Model).
 Polarization charges : Total charges.
 Charge compensation  : None.
 Solution method      : On-the-fly selection.
 Cavity type          : SES (Solvent Excluding Surface) (Alpha=1.000).
 Cavity algorithm     : GePol (RMin=0.200 OFac=0.890).
                        User-defined sphere list used, NSphG=   28.
                        Tesserae with average area of 0.075 Ang**2.
                        Smoothing algorithm: None.
                        Polarization charges: point-like.
                        Self-potential: constant (ISelfS= 1).
                        Self-field    : global E.n sum rule (ISelfD= 3).
 Solvent              : CycloHexane, Eps=   2.016500 Eps(inf)=   2.035188
                        RSolv=   2.815000 Ang.
 ------------------------------------------------------------------------------
 GePol: Number of generator spheres                  =      28
 GePol: Total number of spheres                      =     189
 GePol: Number of exposed spheres                    =     129 ( 68.25%)
 GePol: Number of tesserae                           =    4750
 GePol: Average area of tesserae                     =       0.05 Ang**2
 GePol: Minimum area of tessera                      =   0.10D-02 Ang**2
 GePol: Maximum area of tessera                      =    0.12622 Ang**2
 GePol: Number of small tesserae                     =       0
 GePol: Fraction of small tesserae (<1% of avg)      =       0.00%
 GePol: Total count of vertices                      =   16811
 GePol: Maximum number of vertices in a tessera      =       7
 GePol: Cavity surface area                          =    224.963 Ang**2
 GePol: Cavity volume                                =    257.820 Ang**3
 Leave Link  301 at Mon Aug  3 20:58:18 2020, MaxMem=  6442450944 cpu:               8.3 elap:               0.4
 (Enter /scratch/scicomp/CentOS/7.3.1611/Haswell/software/Gaussian/g16/l302.exe)
 NPDir=0 NMtPBC=     1 NCelOv=     1 NCel=       1 NClECP=     1 NCelD=      1
         NCelK=      1 NCelE2=     1 NClLst=     1 CellRange=     0.0.
 One-electron integrals computed using PRISM.
   1 Symmetry operations used in ECPInt.
 ECPInt:  NShTT=   19306 NPrTT=   56928 LenC2=   18448 LenP2D=   41684.
 LDataN:  DoStor=T MaxTD1= 6 Len=  172
 NBasis=   528 RedAO= T EigKep=  2.03D-05  NBF=   528
 NBsUse=   528 1.00D-06 EigRej= -1.00D+00 NBFU=   528
 Precomputing XC quadrature grid using
 IXCGrd= 4 IRadAn=           5 IRanWt=          -1 IRanGd=           0 AccXCQ= 0.00D+00.
 Generated NRdTot=       0 NPtTot=           0 NUsed=           0 NTot=          32
 NSgBfM=   526   526   526   526   526 MxSgAt=    28 MxSgA2=    28.
 Leave Link  302 at Mon Aug  3 20:58:19 2020, MaxMem=  6442450944 cpu:              12.7 elap:               0.6
 (Enter /scratch/scicomp/CentOS/7.3.1611/Haswell/software/Gaussian/g16/l303.exe)
 DipDrv:  MaxL=1.
 Leave Link  303 at Mon Aug  3 20:58:19 2020, MaxMem=  6442450944 cpu:               1.5 elap:               0.1
 (Enter /scratch/scicomp/CentOS/7.3.1611/Haswell/software/Gaussian/g16/l401.exe)
 ExpMin= 9.52D-02 ExpMax= 1.36D+04 ExpMxC= 4.63D+02 IAcc=3 IRadAn=         5 AccDes= 0.00D+00
 Harris functional with IExCor= 4639 and IRadAn=       5 diagonalized for initial guess.
 HarFok:  IExCor= 4639 AccDes= 0.00D+00 IRadAn=         5 IDoV= 1 UseB2=F ITyADJ=14
 ICtDFT=  3500011 ScaDFX=  1.000000  1.000000  1.000000  1.000000
 FoFCou: FMM=F IPFlag=           0 FMFlag=      100000 FMFlg1=           0
         NFxFlg=           0 DoJE=T BraDBF=F KetDBF=T FulRan=T
         wScrn=  0.000000 ICntrl=       500 IOpCl=  0 I1Cent=   200000004 NGrid=           0
         NMat0=    1 NMatS0=      1 NMatT0=    0 NMatD0=    1 NMtDS0=    0 NMtDT0=    0
 Symmetry not used in FoFCou.
 Harris En= -444.660917891380    
 JPrj=0 DoOrth=F DoCkMO=T.
 Mixing orbitals, IMix= 1 IMixAn=  0 NRI=1 NE=   44 Coef=  7.07106781D-01  7.07106781D-01
 Mixing orbitals, IMix= 1 IMixAn=  0 NRI=1 NE=   44 Coef= -7.07106781D-01  7.07106781D-01
 Initial guess <Sx>= 0.0000 <Sy>= 0.0000 <Sz>= 0.0000 <S**2>= 1.0000 S= 0.6180
 Leave Link  401 at Mon Aug  3 20:58:21 2020, MaxMem=  6442450944 cpu:              48.6 elap:               2.1
 (Enter /scratch/scicomp/CentOS/7.3.1611/Haswell/software/Gaussian/g16/l502.exe)
 Two-electron integral symmetry not used.
 UHF open shell SCF:
 Using DIIS extrapolation, IDIIS=  1040.
 NGot=  6442450944 LenX=  6441877030 LenY=  6441597718
 Requested convergence on RMS density matrix=1.00D-08 within 128 cycles.
 Requested convergence on MAX density matrix=1.00D-06.
 Requested convergence on             energy=1.00D-06.
 No special actions if energy rises.
 Fock matrices will be formed incrementally for  20 cycles.

 Cycle   1  Pass 1  IDiag  1:
 FoFJK:  IHMeth= 1 ICntrl=       0 DoSepK=T KAlg= 0 I1Cent=           0 FoldK=F
 IRaf=         1 NMat=       1 IRICut=       1 DoRegI=T DoRafI=F ISym2E= 0 IDoP0=0 IntGTp=1.
 FoFCou: FMM=F IPFlag=           0 FMFlag=      100000 FMFlg1=           0
         NFxFlg=           0 DoJE=T BraDBF=F KetDBF=F FulRan=T
         wScrn=  0.000000 ICntrl=       500 IOpCl=  0 I1Cent=           0 NGrid=           0
         NMat0=    1 NMatS0=      1 NMatT0=    0 NMatD0=    1 NMtDS0=    0 NMtDT0=    0
 Symmetry not used in FoFCou.
 Inv3:  Mode=1 IEnd=    67687500.
 Iteration    1 A*A^-1 deviation from unit magnitude is 3.77D-15 for   4377.
 Iteration    1 A*A^-1 deviation from orthogonality  is 2.03D-15 for   1619   1602.
 Iteration    1 A^-1*A deviation from unit magnitude is 3.11D-15 for   4377.
 Iteration    1 A^-1*A deviation from orthogonality  is 1.97D-15 for   3514   3349.
 E= -466.563880738287    
 DIIS: error= 5.26D-02 at cycle   1 NSaved=   1.
 NSaved= 1 IEnMin= 1 EnMin= -466.563880738287     IErMin= 1 ErrMin= 5.26D-02
 ErrMax= 5.26D-02  0.00D+00 EMaxC= 1.00D-01 BMatC= 4.12D+00 BMatP= 4.12D+00
 IDIUse=3 WtCom= 4.74D-01 WtEn= 5.26D-01
 Coeff-Com:  0.100D+01
 Coeff-En:   0.100D+01
 Coeff:      0.100D+01
 Gap=     0.179 Goal=   None    Shift=    0.000
 Gap=     0.179 Goal=   None    Shift=    0.000
 GapD=    0.179 DampG=1.000 DampE=0.500 DampFc=0.5000 IDamp=-1.
 Damping current iteration by 5.00D-01
 RMSDP=1.71D-03 MaxDP=9.34D-02              OVMax= 3.65D-01

 Cycle   2  Pass 1  IDiag  1:
 RMSU=  8.19D-04    CP:  9.61D-01
 E= -466.679418947248     Delta-E=       -0.115538208961 Rises=F Damp=T
 DIIS: error= 2.51D-02 at cycle   2 NSaved=   2.
 NSaved= 2 IEnMin= 2 EnMin= -466.679418947248     IErMin= 2 ErrMin= 2.51D-02
 ErrMax= 2.51D-02  0.00D+00 EMaxC= 1.00D-01 BMatC= 9.38D-01 BMatP= 4.12D+00
 IDIUse=3 WtCom= 7.49D-01 WtEn= 2.51D-01
 Coeff-Com: -0.870D+00 0.187D+01
 Coeff-En:   0.000D+00 0.100D+01
 Coeff:     -0.651D+00 0.165D+01
 Gap=     0.284 Goal=   None    Shift=    0.000
 Gap=     0.284 Goal=   None    Shift=    0.000
 RMSDP=1.22D-03 MaxDP=4.93D-02 DE=-1.16D-01 OVMax= 1.39D-01

 Cycle   3  Pass 1  IDiag  1:
 RMSU=  5.87D-04    CP:  9.03D-01  2.23D+00
 E= -466.831336827735     Delta-E=       -0.151917880486 Rises=F Damp=F
 DIIS: error= 7.82D-03 at cycle   3 NSaved=   3.
 NSaved= 3 IEnMin= 3 EnMin= -466.831336827735     IErMin= 3 ErrMin= 7.82D-03
 ErrMax= 7.82D-03  0.00D+00 EMaxC= 1.00D-01 BMatC= 2.32D-02 BMatP= 9.38D-01
 IDIUse=3 WtCom= 9.22D-01 WtEn= 7.82D-02
 Coeff-Com: -0.311D+00 0.666D+00 0.645D+00
 Coeff-En:   0.000D+00 0.000D+00 0.100D+01
 Coeff:     -0.286D+00 0.614D+00 0.673D+00
 Gap=     0.307 Goal=   None    Shift=    0.000
 Gap=     0.307 Goal=   None    Shift=    0.000
 RMSDP=2.06D-04 MaxDP=1.02D-02 DE=-1.52D-01 OVMax= 6.37D-02

 Cycle   4  Pass 1  IDiag  1:
 RMSU=  1.88D-04    CP:  8.96D-01  2.32D+00  1.02D+00
 E= -466.841811345090     Delta-E=       -0.010474517356 Rises=F Damp=F
 DIIS: error= 5.07D-03 at cycle   4 NSaved=   4.
 NSaved= 4 IEnMin= 4 EnMin= -466.841811345090     IErMin= 4 ErrMin= 5.07D-03
 ErrMax= 5.07D-03  0.00D+00 EMaxC= 1.00D-01 BMatC= 2.01D-03 BMatP= 2.32D-02
 IDIUse=3 WtCom= 9.49D-01 WtEn= 5.07D-02
 Coeff-Com:  0.151D+00-0.324D+00-0.799D-01 0.125D+01
 Coeff-En:   0.000D+00 0.000D+00 0.000D+00 0.100D+01
 Coeff:      0.144D+00-0.307D+00-0.759D-01 0.124D+01
 Gap=     0.319 Goal=   None    Shift=    0.000
 Gap=     0.319 Goal=   None    Shift=    0.000
 RMSDP=2.11D-04 MaxDP=1.19D-02 DE=-1.05D-02 OVMax= 7.58D-02

 Cycle   5  Pass 1  IDiag  1:
 RMSU=  8.22D-05    CP:  8.89D-01  2.37D+00  1.25D+00  1.65D+00
 E= -466.846337380988     Delta-E=       -0.004526035898 Rises=F Damp=F
 DIIS: error= 2.18D-03 at cycle   5 NSaved=   5.
 NSaved= 5 IEnMin= 5 EnMin= -466.846337380988     IErMin= 5 ErrMin= 2.18D-03
 ErrMax= 2.18D-03  0.00D+00 EMaxC= 1.00D-01 BMatC= 7.58D-04 BMatP= 2.01D-03
 IDIUse=3 WtCom= 9.78D-01 WtEn= 2.18D-02
 Coeff-Com:  0.503D-01-0.108D+00-0.565D-01 0.275D+00 0.839D+00
 Coeff-En:   0.000D+00 0.000D+00 0.000D+00 0.000D+00 0.100D+01
 Coeff:      0.492D-01-0.106D+00-0.553D-01 0.269D+00 0.843D+00
 Gap=     0.320 Goal=   None    Shift=    0.000
 Gap=     0.320 Goal=   None    Shift=    0.000
 RMSDP=7.09D-05 MaxDP=2.76D-03 DE=-4.53D-03 OVMax= 2.64D-02

 Cycle   6  Pass 1  IDiag  1:
 RMSU=  3.18D-05    CP:  8.88D-01  2.38D+00  1.28D+00  1.91D+00  1.41D+00
 E= -466.847637514103     Delta-E=       -0.001300133115 Rises=F Damp=F
 DIIS: error= 1.53D-03 at cycle   6 NSaved=   6.
 NSaved= 6 IEnMin= 6 EnMin= -466.847637514103     IErMin= 6 ErrMin= 1.53D-03
 ErrMax= 1.53D-03  0.00D+00 EMaxC= 1.00D-01 BMatC= 5.04D-04 BMatP= 7.58D-04
 IDIUse=3 WtCom= 9.85D-01 WtEn= 1.53D-02
 Coeff-Com: -0.855D-01 0.183D+00 0.566D-01-0.644D+00 0.118D+00 0.137D+01
 Coeff-En:   0.000D+00 0.000D+00 0.000D+00 0.000D+00 0.000D+00 0.100D+01
 Coeff:     -0.842D-01 0.181D+00 0.558D-01-0.634D+00 0.116D+00 0.137D+01
 Gap=     0.317 Goal=   None    Shift=    0.000
 Gap=     0.317 Goal=   None    Shift=    0.000
 RMSDP=9.76D-05 MaxDP=3.94D-03 DE=-1.30D-03 OVMax= 3.66D-02

 Cycle   7  Pass 1  IDiag  1:
 RMSU=  2.95D-05    CP:  8.86D-01  2.38D+00  1.32D+00  2.19D+00  2.13D+00
                    CP:  2.35D+00
 E= -466.849211239405     Delta-E=       -0.001573725301 Rises=F Damp=F
 DIIS: error= 1.02D-03 at cycle   7 NSaved=   7.
 NSaved= 7 IEnMin= 7 EnMin= -466.849211239405     IErMin= 7 ErrMin= 1.02D-03
 ErrMax= 1.02D-03  0.00D+00 EMaxC= 1.00D-01 BMatC= 2.50D-04 BMatP= 5.04D-04
 IDIUse=3 WtCom= 9.90D-01 WtEn= 1.02D-02
 Coeff-Com: -0.235D-01 0.510D-01 0.395D-01-0.335D-02-0.793D+00-0.320D+00
 Coeff-Com:  0.205D+01
 Coeff-En:   0.000D+00 0.000D+00 0.000D+00 0.000D+00 0.000D+00 0.000D+00
 Coeff-En:   0.100D+01
 Coeff:     -0.233D-01 0.505D-01 0.391D-01-0.331D-02-0.785D+00-0.317D+00
 Coeff:      0.204D+01
 Gap=     0.317 Goal=   None    Shift=    0.000
 Gap=     0.317 Goal=   None    Shift=    0.000
 RMSDP=1.32D-04 MaxDP=6.13D-03 DE=-1.57D-03 OVMax= 4.89D-02

 Cycle   8  Pass 1  IDiag  1:
 RMSU=  5.79D-05    CP:  8.84D-01  2.37D+00  1.36D+00  2.50D+00  3.00D+00
                    CP:  3.00D+00  2.53D+00
 E= -466.850513596554     Delta-E=       -0.001302357150 Rises=F Damp=F
 DIIS: error= 3.58D-04 at cycle   8 NSaved=   8.
 NSaved= 8 IEnMin= 8 EnMin= -466.850513596554     IErMin= 8 ErrMin= 3.58D-04
 ErrMax= 3.58D-04  0.00D+00 EMaxC= 1.00D-01 BMatC= 5.49D-05 BMatP= 2.50D-04
 IDIUse=3 WtCom= 9.96D-01 WtEn= 3.58D-03
 Coeff-Com:  0.245D-01-0.526D-01-0.666D-02 0.258D+00-0.264D+00-0.621D+00
 Coeff-Com:  0.560D+00 0.110D+01
 Coeff-En:   0.000D+00 0.000D+00 0.000D+00 0.000D+00 0.000D+00 0.000D+00
 Coeff-En:   0.000D+00 0.100D+01
 Coeff:      0.244D-01-0.524D-01-0.664D-02 0.257D+00-0.263D+00-0.619D+00
 Coeff:      0.558D+00 0.110D+01
 Gap=     0.319 Goal=   None    Shift=    0.000
 Gap=     0.319 Goal=   None    Shift=    0.000
 RMSDP=5.72D-05 MaxDP=2.75D-03 DE=-1.30D-03 OVMax= 2.09D-02

 Cycle   9  Pass 1  IDiag  1:
 RMSU=  3.12D-05    CP:  8.83D-01  2.37D+00  1.38D+00  2.59D+00  3.00D+00
                    CP:  3.00D+00  3.00D+00  1.64D+00
 E= -466.850716978542     Delta-E=       -0.000203381988 Rises=F Damp=F
 DIIS: error= 1.09D-04 at cycle   9 NSaved=   9.
 NSaved= 9 IEnMin= 9 EnMin= -466.850716978542     IErMin= 9 ErrMin= 1.09D-04
 ErrMax= 1.09D-04  0.00D+00 EMaxC= 1.00D-01 BMatC= 7.76D-06 BMatP= 5.49D-05
 IDIUse=3 WtCom= 9.99D-01 WtEn= 1.09D-03
 Coeff-Com:  0.115D-01-0.248D-01-0.762D-02 0.818D-01 0.333D-01-0.144D+00
 Coeff-Com: -0.126D+00 0.283D+00 0.893D+00
 Coeff-En:   0.000D+00 0.000D+00 0.000D+00 0.000D+00 0.000D+00 0.000D+00
 Coeff-En:   0.000D+00 0.000D+00 0.100D+01
 Coeff:      0.115D-01-0.248D-01-0.761D-02 0.817D-01 0.333D-01-0.144D+00
 Coeff:     -0.126D+00 0.282D+00 0.893D+00
 Gap=     0.318 Goal=   None    Shift=    0.000
 Gap=     0.318 Goal=   None    Shift=    0.000
 RMSDP=1.36D-05 MaxDP=6.46D-04 DE=-2.03D-04 OVMax= 4.92D-03

 Cycle  10  Pass 1  IDiag  1:
 RMSU=  5.52D-06    CP:  8.83D-01  2.37D+00  1.38D+00  2.61D+00  3.00D+00
                    CP:  3.00D+00  3.00D+00  1.78D+00  1.26D+00
 E= -466.850730602440     Delta-E=       -0.000013623897 Rises=F Damp=F
 DIIS: error= 4.55D-05 at cycle  10 NSaved=  10.
 NSaved=10 IEnMin=10 EnMin= -466.850730602440     IErMin=10 ErrMin= 4.55D-05
 ErrMax= 4.55D-05  0.00D+00 EMaxC= 1.00D-01 BMatC= 1.13D-06 BMatP= 7.76D-06
 IDIUse=1 WtCom= 1.00D+00 WtEn= 0.00D+00
 Coeff-Com: -0.208D-02 0.450D-02-0.114D-03-0.309D-01 0.432D-01 0.812D-01
 Coeff-Com: -0.958D-01-0.184D+00 0.135D+00 0.105D+01
 Coeff:     -0.208D-02 0.450D-02-0.114D-03-0.309D-01 0.432D-01 0.812D-01
 Coeff:     -0.958D-01-0.184D+00 0.135D+00 0.105D+01
 Gap=     0.318 Goal=   None    Shift=    0.000
 Gap=     0.318 Goal=   None    Shift=    0.000
 RMSDP=5.52D-06 MaxDP=2.56D-04 DE=-1.36D-05 OVMax= 2.05D-03

 Cycle  11  Pass 1  IDiag  1:
 RMSU=  1.81D-06    CP:  8.83D-01  2.38D+00  1.38D+00  2.61D+00  3.00D+00
                    CP:  3.00D+00  3.00D+00  1.83D+00  1.37D+00  1.37D+00
 E= -466.850732258010     Delta-E=       -0.000001655570 Rises=F Damp=F
 DIIS: error= 1.58D-05 at cycle  11 NSaved=  11.
 NSaved=11 IEnMin=11 EnMin= -466.850732258010     IErMin=11 ErrMin= 1.58D-05
 ErrMax= 1.58D-05  0.00D+00 EMaxC= 1.00D-01 BMatC= 2.10D-07 BMatP= 1.13D-06
 IDIUse=1 WtCom= 1.00D+00 WtEn= 0.00D+00
 Coeff-Com: -0.115D-02 0.247D-02 0.233D-03-0.134D-01 0.119D-01 0.317D-01
 Coeff-Com: -0.205D-01-0.749D-01-0.131D-01 0.338D+00 0.739D+00
 Coeff:     -0.115D-02 0.247D-02 0.233D-03-0.134D-01 0.119D-01 0.317D-01
 Coeff:     -0.205D-01-0.749D-01-0.131D-01 0.338D+00 0.739D+00
 Gap=     0.318 Goal=   None    Shift=    0.000
 Gap=     0.318 Goal=   None    Shift=    0.000
 RMSDP=7.77D-07 MaxDP=3.96D-05 DE=-1.66D-06 OVMax= 1.45D-04

 Cycle  12  Pass 1  IDiag  1:
 RMSU=  6.45D-07    CP:  8.83D-01  2.38D+00  1.38D+00  2.62D+00  3.00D+00
                    CP:  3.00D+00  3.00D+00  1.83D+00  1.37D+00  1.38D+00
                    CP:  1.18D+00
 E= -466.850732380922     Delta-E=       -0.000000122912 Rises=F Damp=F
 DIIS: error= 1.13D-05 at cycle  12 NSaved=  12.
 NSaved=12 IEnMin=12 EnMin= -466.850732380922     IErMin=12 ErrMin= 1.13D-05
 ErrMax= 1.13D-05  0.00D+00 EMaxC= 1.00D-01 BMatC= 6.57D-08 BMatP= 2.10D-07
 IDIUse=1 WtCom= 1.00D+00 WtEn= 0.00D+00
 Coeff-Com:  0.393D-03-0.854D-03-0.367D-04 0.584D-02-0.739D-02-0.154D-01
 Coeff-Com:  0.197D-01 0.334D-01-0.377D-01-0.220D+00 0.234D+00 0.989D+00
 Coeff:      0.393D-03-0.854D-03-0.367D-04 0.584D-02-0.739D-02-0.154D-01
 Coeff:      0.197D-01 0.334D-01-0.377D-01-0.220D+00 0.234D+00 0.989D+00
 Gap=     0.318 Goal=   None    Shift=    0.000
 Gap=     0.318 Goal=   None    Shift=    0.000
 RMSDP=6.81D-07 MaxDP=3.40D-05 DE=-1.23D-07 OVMax= 1.31D-04

 Cycle  13  Pass 1  IDiag  1:
 RMSU=  3.69D-07    CP:  8.83D-01  2.37D+00  1.38D+00  2.62D+00  3.00D+00
                    CP:  3.00D+00  3.00D+00  1.83D+00  1.37D+00  1.37D+00
                    CP:  1.37D+00  1.62D+00
 E= -466.850732452093     Delta-E=       -0.000000071170 Rises=F Damp=F
 DIIS: error= 6.47D-06 at cycle  13 NSaved=  13.
 NSaved=13 IEnMin=13 EnMin= -466.850732452093     IErMin=13 ErrMin= 6.47D-06
 ErrMax= 6.47D-06  0.00D+00 EMaxC= 1.00D-01 BMatC= 1.36D-08 BMatP= 6.57D-08
 IDIUse=1 WtCom= 1.00D+00 WtEn= 0.00D+00
 Coeff-Com: -0.473D-04 0.104D-03 0.689D-04-0.297D-03 0.226D-03 0.245D-03
 Coeff-Com: -0.187D-02 0.247D-02 0.659D-02-0.911D-02-0.195D+00-0.187D+00
 Coeff-Com:  0.138D+01
 Coeff:     -0.473D-04 0.104D-03 0.689D-04-0.297D-03 0.226D-03 0.245D-03
 Coeff:     -0.187D-02 0.247D-02 0.659D-02-0.911D-02-0.195D+00-0.187D+00
 Coeff:      0.138D+01
 Gap=     0.318 Goal=   None    Shift=    0.000
 Gap=     0.318 Goal=   None    Shift=    0.000
 RMSDP=3.77D-07 MaxDP=2.12D-05 DE=-7.12D-08 OVMax= 9.36D-05

 Cycle  14  Pass 1  IDiag  1:
 RMSU=  2.34D-07    CP:  8.83D-01  2.37D+00  1.38D+00  2.62D+00  3.00D+00
                    CP:  3.00D+00  3.00D+00  1.83D+00  1.37D+00  1.37D+00
                    CP:  1.44D+00  1.91D+00  1.49D+00
 E= -466.850732481303     Delta-E=       -0.000000029211 Rises=F Damp=F
 DIIS: error= 3.46D-06 at cycle  14 NSaved=  14.
 NSaved=14 IEnMin=14 EnMin= -466.850732481303     IErMin=14 ErrMin= 3.46D-06
 ErrMax= 3.46D-06  0.00D+00 EMaxC= 1.00D-01 BMatC= 3.92D-09 BMatP= 1.36D-08
 IDIUse=1 WtCom= 1.00D+00 WtEn= 0.00D+00
 Coeff-Com: -0.132D-03 0.285D-03 0.587D-04-0.156D-02 0.155D-02 0.381D-02
 Coeff-Com: -0.477D-02-0.776D-02 0.105D-01 0.566D-01-0.881D-01-0.292D+00
 Coeff-Com:  0.902D-01 0.123D+01
 Coeff:     -0.132D-03 0.285D-03 0.587D-04-0.156D-02 0.155D-02 0.381D-02
 Coeff:     -0.477D-02-0.776D-02 0.105D-01 0.566D-01-0.881D-01-0.292D+00
 Coeff:      0.902D-01 0.123D+01
 Gap=     0.318 Goal=   None    Shift=    0.000
 Gap=     0.318 Goal=   None    Shift=    0.000
 RMSDP=2.47D-07 MaxDP=1.19D-05 DE=-2.92D-08 OVMax= 6.31D-05

 Cycle  15  Pass 1  IDiag  1:
 RMSU=  8.90D-08    CP:  8.83D-01  2.37D+00  1.38D+00  2.62D+00  3.00D+00
                    CP:  3.00D+00  3.00D+00  1.83D+00  1.37D+00  1.38D+00
                    CP:  1.46D+00  2.04D+00  1.80D+00  1.76D+00
 E= -466.850732489954     Delta-E=       -0.000000008650 Rises=F Damp=F
 DIIS: error= 1.28D-06 at cycle  15 NSaved=  15.
 NSaved=15 IEnMin=15 EnMin= -466.850732489954     IErMin=15 ErrMin= 1.28D-06
 ErrMax= 1.28D-06  0.00D+00 EMaxC= 1.00D-01 BMatC= 7.04D-10 BMatP= 3.92D-09
 IDIUse=1 WtCom= 1.00D+00 WtEn= 0.00D+00
 Coeff-Com:  0.171D-04-0.373D-04-0.276D-04 0.515D-04 0.115D-03 0.137D-03
 Coeff-Com: -0.315D-03-0.102D-02 0.117D-02 0.105D-01 0.320D-01-0.914D-02
 Coeff-Com: -0.352D+00 0.240D+00 0.108D+01
 Coeff:      0.171D-04-0.373D-04-0.276D-04 0.515D-04 0.115D-03 0.137D-03
 Coeff:     -0.315D-03-0.102D-02 0.117D-02 0.105D-01 0.320D-01-0.914D-02
 Coeff:     -0.352D+00 0.240D+00 0.108D+01
 Gap=     0.318 Goal=   None    Shift=    0.000
 Gap=     0.318 Goal=   None    Shift=    0.000
 RMSDP=1.25D-07 MaxDP=5.37D-06 DE=-8.65D-09 OVMax= 2.92D-05

 Cycle  16  Pass 1  IDiag  1:
 RMSU=  4.08D-08    CP:  8.83D-01  2.37D+00  1.38D+00  2.62D+00  3.00D+00
                    CP:  3.00D+00  3.00D+00  1.83D+00  1.37D+00  1.38D+00
                    CP:  1.46D+00  2.07D+00  1.93D+00  2.13D+00  1.52D+00
 E= -466.850732491173     Delta-E=       -0.000000001220 Rises=F Damp=F
 DIIS: error= 2.10D-07 at cycle  16 NSaved=  16.
 NSaved=16 IEnMin=16 EnMin= -466.850732491173     IErMin=16 ErrMin= 2.10D-07
 ErrMax= 2.10D-07  0.00D+00 EMaxC= 1.00D-01 BMatC= 5.51D-11 BMatP= 7.04D-10
 IDIUse=1 WtCom= 1.00D+00 WtEn= 0.00D+00
 Coeff-Com:  0.724D-05-0.157D-04-0.845D-05 0.707D-04-0.449D-04-0.108D-03
 Coeff-Com:  0.150D-03 0.165D-03-0.568D-03-0.150D-02 0.141D-01 0.191D-01
 Coeff-Com: -0.810D-01-0.504D-01 0.234D+00 0.866D+00
 Coeff:      0.724D-05-0.157D-04-0.845D-05 0.707D-04-0.449D-04-0.108D-03
 Coeff:      0.150D-03 0.165D-03-0.568D-03-0.150D-02 0.141D-01 0.191D-01
 Coeff:     -0.810D-01-0.504D-01 0.234D+00 0.866D+00
 Gap=     0.318 Goal=   None    Shift=    0.000
 Gap=     0.318 Goal=   None    Shift=    0.000
 RMSDP=2.52D-08 MaxDP=1.18D-06 DE=-1.22D-09 OVMax= 4.06D-06

 Cycle  17  Pass 1  IDiag  1:
 RMSU=  1.11D-08    CP:  8.83D-01  2.37D+00  1.38D+00  2.62D+00  3.00D+00
                    CP:  3.00D+00  3.00D+00  1.83D+00  1.37D+00  1.38D+00
                    CP:  1.46D+00  2.07D+00  1.94D+00  2.18D+00  1.64D+00
                    CP:  1.29D+00
 E= -466.850732491209     Delta-E=       -0.000000000036 Rises=F Damp=F
 DIIS: error= 8.83D-08 at cycle  17 NSaved=  17.
 NSaved=17 IEnMin=17 EnMin= -466.850732491209     IErMin=17 ErrMin= 8.83D-08
 ErrMax= 8.83D-08  0.00D+00 EMaxC= 1.00D-01 BMatC= 7.28D-12 BMatP= 5.51D-11
 IDIUse=1 WtCom= 1.00D+00 WtEn= 0.00D+00
 Coeff-Com: -0.492D-06 0.111D-05 0.114D-05 0.144D-05-0.166D-04-0.441D-05
 Coeff-Com:  0.166D-04 0.139D-03-0.226D-03-0.146D-02-0.231D-02 0.328D-02
 Coeff-Com:  0.379D-01-0.407D-01-0.119D+00 0.138D+00 0.984D+00
 Coeff:     -0.492D-06 0.111D-05 0.114D-05 0.144D-05-0.166D-04-0.441D-05
 Coeff:      0.166D-04 0.139D-03-0.226D-03-0.146D-02-0.231D-02 0.328D-02
 Coeff:      0.379D-01-0.407D-01-0.119D+00 0.138D+00 0.984D+00
 Gap=     0.318 Goal=   None    Shift=    0.000
 Gap=     0.318 Goal=   None    Shift=    0.000
 RMSDP=9.38D-09 MaxDP=3.15D-07 DE=-3.60D-11 OVMax= 1.35D-06

 Error on total polarization charges =  0.01119
 SCF Done:  E(UwB97XD) =  -466.850732491     A.U. after   17 cycles
            NFock= 17  Conv=0.94D-08     -V/T= 2.0058
 <Sx>= 0.0000 <Sy>= 0.0000 <Sz>= 0.0000 <S**2>= 0.0000 S= 0.0000
 <L.S>=  0.00000000000    
 KE= 4.641718268653D+02 PE=-2.420443873860D+03 EE= 8.201608727236D+02
 --------------------------------------------------------------------
 Variational PCM results
 =======================
 <psi(f)|   H    |psi(f)>                     (a.u.) =    -466.858368
 <psi(f)|H+V(f)/2|psi(f)>                     (a.u.) =    -466.859868
 Total free energy in solution:
 - with all non electrostatic terms           (a.u.) =    -466.850732
 --------------------------------------------------------------------
 (Polarized solute)-Solvent               (kcal/mol) =      -0.94
 --------------------------------------------------------------------
 Quantum repulsion energy                 (kcal/mol) =       5.73
 Total non electrostatic                  (kcal/mol) =       5.73
 --------------------------------------------------------------------
 Partition over spheres:
 Sphere  on Atom  Surface  Charge   GEl     GCav    GDR
    1               6.96   0.010   -0.05    0.00    0.00
    2               4.78   0.007   -0.04    0.00    0.00
    3               7.52  -0.010   -0.04    0.00    0.00
    4               3.19  -0.004   -0.01    0.00    0.00
    5               4.05   0.007   -0.04    0.00    0.00
    6               4.25   0.005   -0.03    0.00    0.00
    7               4.87  -0.007   -0.03    0.00    0.00
    8               4.19  -0.006   -0.01    0.00    0.00
    9               3.60   0.002    0.00    0.00    0.00
   10               7.16  -0.007   -0.01    0.00    0.00
   11               3.29  -0.003   -0.01    0.00    0.00
   12               6.29   0.010   -0.06    0.00    0.00
   13               7.52  -0.010   -0.03    0.00    0.00
   14               6.96   0.010   -0.05    0.00    0.00
   15               7.52  -0.010   -0.04    0.00    0.00
   16               3.77   0.002    0.00    0.00    0.00
   17               3.17  -0.002   -0.01    0.00    0.00
   18               7.43  -0.008   -0.03    0.00    0.00
   19               5.09   0.009   -0.06    0.00    0.00
   20               5.03  -0.007   -0.03    0.00    0.00
   21               6.52   0.010   -0.06    0.00    0.00
   22               7.51  -0.010   -0.03    0.00    0.00
   23               3.60   0.002    0.00    0.00    0.00
   24               2.99  -0.003   -0.01    0.00    0.00
   25               7.16  -0.007   -0.01    0.00    0.00
   26               3.46   0.002    0.00    0.00    0.00
   27               7.43  -0.008   -0.03    0.00    0.00
   28               2.39  -0.002   -0.01    0.00    0.00
 Added spheres:    77.25   0.018   -0.23    0.00    0.00
 --------------------------------------------------------------------
 After PCM corrections, the energy is  -466.850732491     a.u.
 --------------------------------------------------------------------
 Annihilation of the first spin contaminant:
 S**2 before annihilation     0.0000,   after    -0.0000
 Leave Link  502 at Mon Aug  3 21:03:36 2020, MaxMem=  6442450944 cpu:            7485.7 elap:             314.8
 (Enter /scratch/scicomp/CentOS/7.3.1611/Haswell/software/Gaussian/g16/l601.exe)
 Copying SCF densities to generalized density rwf, IOpCl= 1 IROHF=0.

 **********************************************************************

            Population analysis using the SCF Density.

 **********************************************************************

 Alpha  occ. eigenvalues --  -10.28256 -10.28254 -10.28137 -10.28135 -10.28095
 Alpha  occ. eigenvalues --  -10.28093 -10.28036 -10.28035 -10.27804 -10.27802
 Alpha  occ. eigenvalues --  -10.27533 -10.27532  -0.93978  -0.93595  -0.83982
 Alpha  occ. eigenvalues --   -0.83952  -0.83777  -0.83590  -0.71142  -0.71112
 Alpha  occ. eigenvalues --   -0.67805  -0.67793  -0.59613  -0.59478  -0.57315
 Alpha  occ. eigenvalues --   -0.56784  -0.53287  -0.52579  -0.50780  -0.50721
 Alpha  occ. eigenvalues --   -0.49832  -0.49408  -0.47160  -0.46872  -0.45013
 Alpha  occ. eigenvalues --   -0.44875  -0.41085  -0.40925  -0.39510  -0.39123
 Alpha  occ. eigenvalues --   -0.39113  -0.38949  -0.29628  -0.27729
 Alpha virt. eigenvalues --    0.04057   0.04783   0.11361   0.12919   0.14272
 Alpha virt. eigenvalues --    0.15229   0.15323   0.16244   0.16408   0.16897
 Alpha virt. eigenvalues --    0.17727   0.17740   0.18065   0.19197   0.20887
 Alpha virt. eigenvalues --    0.21700   0.22447   0.23458   0.23753   0.24322
 Alpha virt. eigenvalues --    0.25692   0.26452   0.26609   0.27561   0.28598
 Alpha virt. eigenvalues --    0.28754   0.29502   0.29684   0.30508   0.31040
 Alpha virt. eigenvalues --    0.31864   0.32377   0.32474   0.32772   0.33361
 Alpha virt. eigenvalues --    0.33919   0.34534   0.35644   0.35961   0.37862
 Alpha virt. eigenvalues --    0.38025   0.38725   0.40360   0.41573   0.41879
 Alpha virt. eigenvalues --    0.42061   0.43705   0.44551   0.45769   0.46399
 Alpha virt. eigenvalues --    0.46697   0.46902   0.48215   0.48623   0.48840
 Alpha virt. eigenvalues --    0.49143   0.49624   0.49913   0.50304   0.50459
 Alpha virt. eigenvalues --    0.51277   0.51350   0.51927   0.52448   0.53171
 Alpha virt. eigenvalues --    0.53382   0.53987   0.54971   0.55056   0.55710
 Alpha virt. eigenvalues --    0.57661   0.57904   0.58067   0.59732   0.59802
 Alpha virt. eigenvalues --    0.60330   0.61459   0.63167   0.63634   0.64514
 Alpha virt. eigenvalues --    0.65143   0.66832   0.68202   0.68780   0.69510
 Alpha virt. eigenvalues --    0.71109   0.72583   0.73362   0.73633   0.75334
 Alpha virt. eigenvalues --    0.76898   0.78384   0.78614   0.80944   0.81881
 Alpha virt. eigenvalues --    0.82164   0.82353   0.83245   0.87005   0.87250
 Alpha virt. eigenvalues --    0.87671   0.88810   0.91147   0.91588   0.92556
 Alpha virt. eigenvalues --    0.92681   0.95493   0.96428   0.98743   0.99233
 Alpha virt. eigenvalues --    1.01077   1.03601   1.04110   1.04270   1.04669
 Alpha virt. eigenvalues --    1.06911   1.07297   1.08532   1.09901   1.11713
 Alpha virt. eigenvalues --    1.13493   1.13584   1.14471   1.14915   1.15746
 Alpha virt. eigenvalues --    1.16406   1.16451   1.16902   1.19174   1.20646
 Alpha virt. eigenvalues --    1.21620   1.22921   1.23584   1.23880   1.24859
 Alpha virt. eigenvalues --    1.25298   1.25987   1.27056   1.27095   1.28662
 Alpha virt. eigenvalues --    1.28951   1.30566   1.32336   1.32651   1.32908
 Alpha virt. eigenvalues --    1.34549   1.34974   1.35788   1.37128   1.38568
 Alpha virt. eigenvalues --    1.38942   1.39724   1.40786   1.41080   1.41998
 Alpha virt. eigenvalues --    1.42331   1.42755   1.43995   1.45301   1.45418
 Alpha virt. eigenvalues --    1.46006   1.46763   1.46843   1.46911   1.48840
 Alpha virt. eigenvalues --    1.50252   1.50382   1.51116   1.53309   1.55677
 Alpha virt. eigenvalues --    1.56162   1.57641   1.57938   1.58495   1.60925
 Alpha virt. eigenvalues --    1.61078   1.62543   1.63366   1.65090   1.67533
 Alpha virt. eigenvalues --    1.68589   1.69800   1.70262   1.72289   1.75724
 Alpha virt. eigenvalues --    1.75753   1.79901   1.80630   1.82533   1.83575
 Alpha virt. eigenvalues --    1.86748   1.87976   1.89427   1.89772   1.91479
 Alpha virt. eigenvalues --    1.92516   1.95910   2.00088   2.01292   2.01489
 Alpha virt. eigenvalues --    2.04071   2.05147   2.07005   2.07656   2.08863
 Alpha virt. eigenvalues --    2.09051   2.11717   2.12371   2.13327   2.15525
 Alpha virt. eigenvalues --    2.18822   2.19715   2.20082   2.20634   2.22396
 Alpha virt. eigenvalues --    2.23186   2.23340   2.24009   2.25677   2.26263
 Alpha virt. eigenvalues --    2.28785   2.32488   2.37266   2.38019   2.40385
 Alpha virt. eigenvalues --    2.42725   2.46137   2.46856   2.48640   2.49683
 Alpha virt. eigenvalues --    2.50134   2.50392   2.52923   2.54262   2.54569
 Alpha virt. eigenvalues --    2.55213   2.57294   2.57552   2.60501   2.60918
 Alpha virt. eigenvalues --    2.62108   2.64260   2.64454   2.65259   2.66591
 Alpha virt. eigenvalues --    2.67829   2.68443   2.70335   2.72324   2.72458
 Alpha virt. eigenvalues --    2.73242   2.73340   2.74940   2.76045   2.76837
 Alpha virt. eigenvalues --    2.77658   2.77777   2.78944   2.80536   2.81187
 Alpha virt. eigenvalues --    2.81629   2.81970   2.82498   2.83872   2.84402
 Alpha virt. eigenvalues --    2.84908   2.86084   2.87144   2.88881   2.88929
 Alpha virt. eigenvalues --    2.89888   2.90073   2.92411   2.92834   2.93281
 Alpha virt. eigenvalues --    2.94557   2.94804   2.95122   2.96065   2.98850
 Alpha virt. eigenvalues --    3.01893   3.01953   3.02977   3.04183   3.06300
 Alpha virt. eigenvalues --    3.06579   3.08369   3.09018   3.09584   3.11031
 Alpha virt. eigenvalues --    3.12267   3.12599   3.12783   3.14090   3.14915
 Alpha virt. eigenvalues --    3.15054   3.17106   3.17315   3.18589   3.18874
 Alpha virt. eigenvalues --    3.19535   3.19719   3.20202   3.21066   3.21186
 Alpha virt. eigenvalues --    3.22457   3.22652   3.23465   3.23534   3.24265
 Alpha virt. eigenvalues --    3.25506   3.26147   3.27017   3.27811   3.28252
 Alpha virt. eigenvalues --    3.28905   3.29397   3.30228   3.31298   3.31442
 Alpha virt. eigenvalues --    3.32543   3.33037   3.33281   3.33723   3.34515
 Alpha virt. eigenvalues --    3.34940   3.35514   3.36139   3.37780   3.38489
 Alpha virt. eigenvalues --    3.39034   3.39478   3.42016   3.43742   3.43885
 Alpha virt. eigenvalues --    3.44922   3.45698   3.46480   3.46728   3.47076
 Alpha virt. eigenvalues --    3.48351   3.48972   3.49095   3.49572   3.51230
 Alpha virt. eigenvalues --    3.51433   3.52063   3.53507   3.54383   3.54576
 Alpha virt. eigenvalues --    3.54809   3.55549   3.59319   3.59519   3.61828
 Alpha virt. eigenvalues --    3.63452   3.64662   3.64861   3.65001   3.65147
 Alpha virt. eigenvalues --    3.67944   3.68587   3.70229   3.71678   3.71899
 Alpha virt. eigenvalues --    3.74012   3.76345   3.76472   3.78353   3.78886
 Alpha virt. eigenvalues --    3.84364   3.84798   3.85322   3.86226   3.86425
 Alpha virt. eigenvalues --    3.87903   3.89729   3.90376   3.92672   3.93669
 Alpha virt. eigenvalues --    3.94411   3.95452   3.99458   3.99505   4.01927
 Alpha virt. eigenvalues --    4.04205   4.08247   4.09137   4.09151   4.10752
 Alpha virt. eigenvalues --    4.11910   4.12798   4.13305   4.15994   4.18062
 Alpha virt. eigenvalues --    4.19151   4.20098   4.21762   4.22717   4.23172
 Alpha virt. eigenvalues --    4.25027   4.27192   4.31049   4.31079   4.33443
 Alpha virt. eigenvalues --    4.35419   4.37156   4.37455   4.39360   4.40141
 Alpha virt. eigenvalues --    4.43653   4.44870   4.45798   4.47460   4.48808
 Alpha virt. eigenvalues --    4.49097   4.59104   4.60676   4.61706   4.64967
 Alpha virt. eigenvalues --    4.69309   4.69332   4.71620   4.73938   4.74213
 Alpha virt. eigenvalues --    4.75218   4.77254   4.78176   4.79774   4.82545
 Alpha virt. eigenvalues --    4.83987   4.84521   4.89203   4.89278   4.94196
 Alpha virt. eigenvalues --    4.94356   4.95485   4.97435   5.05560   5.08453
 Alpha virt. eigenvalues --    5.10256   5.11279   5.17962   5.19102   5.23111
 Alpha virt. eigenvalues --    5.23766   5.29427   5.31827   5.39850   5.40428
 Alpha virt. eigenvalues --    5.43455   5.44772   5.48383   5.48889   5.66463
 Alpha virt. eigenvalues --    5.70209   5.74912   5.76779   5.91889   5.97651
 Alpha virt. eigenvalues --    7.94148   7.95788   8.02147   8.02728   8.05994
 Alpha virt. eigenvalues --    8.07255   8.11071   8.11185   8.17431   8.18293
 Alpha virt. eigenvalues --    8.33748   8.35959  34.76314  34.77910  34.81039
 Alpha virt. eigenvalues --   34.82088  34.85264  34.87120  34.97416  34.97876
 Alpha virt. eigenvalues --   35.00423  35.01518  35.15369  35.18625
  Beta  occ. eigenvalues --  -10.28256 -10.28254 -10.28137 -10.28135 -10.28095
  Beta  occ. eigenvalues --  -10.28093 -10.28036 -10.28035 -10.27804 -10.27802
  Beta  occ. eigenvalues --  -10.27533 -10.27532  -0.93978  -0.93595  -0.83982
  Beta  occ. eigenvalues --   -0.83952  -0.83777  -0.83590  -0.71142  -0.71112
  Beta  occ. eigenvalues --   -0.67805  -0.67793  -0.59613  -0.59478  -0.57315
  Beta  occ. eigenvalues --   -0.56784  -0.53287  -0.52579  -0.50780  -0.50721
  Beta  occ. eigenvalues --   -0.49832  -0.49408  -0.47160  -0.46872  -0.45013
  Beta  occ. eigenvalues --   -0.44875  -0.41085  -0.40925  -0.39510  -0.39123
  Beta  occ. eigenvalues --   -0.39113  -0.38949  -0.29628  -0.27729
  Beta virt. eigenvalues --    0.04057   0.04783   0.11361   0.12919   0.14272
  Beta virt. eigenvalues --    0.15229   0.15323   0.16244   0.16408   0.16897
  Beta virt. eigenvalues --    0.17727   0.17740   0.18065   0.19197   0.20887
  Beta virt. eigenvalues --    0.21700   0.22447   0.23458   0.23753   0.24322
  Beta virt. eigenvalues --    0.25692   0.26452   0.26609   0.27561   0.28598
  Beta virt. eigenvalues --    0.28754   0.29502   0.29684   0.30508   0.31040
  Beta virt. eigenvalues --    0.31864   0.32377   0.32474   0.32772   0.33361
  Beta virt. eigenvalues --    0.33919   0.34534   0.35644   0.35961   0.37862
  Beta virt. eigenvalues --    0.38025   0.38725   0.40360   0.41573   0.41879
  Beta virt. eigenvalues --    0.42061   0.43705   0.44551   0.45769   0.46399
  Beta virt. eigenvalues --    0.46697   0.46902   0.48215   0.48623   0.48840
  Beta virt. eigenvalues --    0.49143   0.49624   0.49913   0.50304   0.50459
  Beta virt. eigenvalues --    0.51277   0.51350   0.51927   0.52448   0.53171
  Beta virt. eigenvalues --    0.53382   0.53987   0.54971   0.55056   0.55710
  Beta virt. eigenvalues --    0.57661   0.57904   0.58067   0.59732   0.59802
  Beta virt. eigenvalues --    0.60330   0.61459   0.63167   0.63634   0.64514
  Beta virt. eigenvalues --    0.65143   0.66832   0.68202   0.68780   0.69510
  Beta virt. eigenvalues --    0.71109   0.72583   0.73362   0.73633   0.75334
  Beta virt. eigenvalues --    0.76898   0.78384   0.78614   0.80944   0.81881
  Beta virt. eigenvalues --    0.82164   0.82353   0.83245   0.87005   0.87250
  Beta virt. eigenvalues --    0.87671   0.88810   0.91147   0.91588   0.92556
  Beta virt. eigenvalues --    0.92681   0.95493   0.96428   0.98743   0.99233
  Beta virt. eigenvalues --    1.01077   1.03601   1.04110   1.04270   1.04669
  Beta virt. eigenvalues --    1.06911   1.07297   1.08532   1.09901   1.11713
  Beta virt. eigenvalues --    1.13493   1.13584   1.14471   1.14915   1.15746
  Beta virt. eigenvalues --    1.16406   1.16451   1.16902   1.19174   1.20646
  Beta virt. eigenvalues --    1.21620   1.22921   1.23584   1.23880   1.24859
  Beta virt. eigenvalues --    1.25298   1.25987   1.27056   1.27095   1.28662
  Beta virt. eigenvalues --    1.28951   1.30566   1.32336   1.32651   1.32908
  Beta virt. eigenvalues --    1.34549   1.34974   1.35788   1.37128   1.38568
  Beta virt. eigenvalues --    1.38942   1.39724   1.40786   1.41080   1.41998
  Beta virt. eigenvalues --    1.42331   1.42755   1.43995   1.45301   1.45418
  Beta virt. eigenvalues --    1.46006   1.46763   1.46843   1.46911   1.48840
  Beta virt. eigenvalues --    1.50252   1.50382   1.51116   1.53309   1.55677
  Beta virt. eigenvalues --    1.56162   1.57641   1.57938   1.58495   1.60925
  Beta virt. eigenvalues --    1.61078   1.62543   1.63366   1.65090   1.67533
  Beta virt. eigenvalues --    1.68589   1.69800   1.70262   1.72289   1.75724
  Beta virt. eigenvalues --    1.75753   1.79901   1.80630   1.82533   1.83575
  Beta virt. eigenvalues --    1.86748   1.87976   1.89427   1.89772   1.91479
  Beta virt. eigenvalues --    1.92516   1.95910   2.00088   2.01292   2.01489
  Beta virt. eigenvalues --    2.04071   2.05147   2.07005   2.07656   2.08863
  Beta virt. eigenvalues --    2.09051   2.11717   2.12371   2.13327   2.15525
  Beta virt. eigenvalues --    2.18822   2.19715   2.20082   2.20634   2.22396
  Beta virt. eigenvalues --    2.23186   2.23340   2.24009   2.25677   2.26263
  Beta virt. eigenvalues --    2.28785   2.32488   2.37266   2.38019   2.40385
  Beta virt. eigenvalues --    2.42725   2.46137   2.46856   2.48640   2.49683
  Beta virt. eigenvalues --    2.50134   2.50392   2.52923   2.54262   2.54569
  Beta virt. eigenvalues --    2.55213   2.57294   2.57552   2.60501   2.60918
  Beta virt. eigenvalues --    2.62108   2.64260   2.64454   2.65259   2.66591
  Beta virt. eigenvalues --    2.67829   2.68443   2.70335   2.72324   2.72458
  Beta virt. eigenvalues --    2.73242   2.73340   2.74940   2.76045   2.76837
  Beta virt. eigenvalues --    2.77658   2.77777   2.78944   2.80536   2.81187
  Beta virt. eigenvalues --    2.81629   2.81970   2.82498   2.83872   2.84402
  Beta virt. eigenvalues --    2.84908   2.86084   2.87144   2.88881   2.88929
  Beta virt. eigenvalues --    2.89888   2.90073   2.92411   2.92834   2.93281
  Beta virt. eigenvalues --    2.94557   2.94804   2.95122   2.96065   2.98850
  Beta virt. eigenvalues --    3.01893   3.01953   3.02977   3.04183   3.06300
  Beta virt. eigenvalues --    3.06579   3.08369   3.09018   3.09584   3.11031
  Beta virt. eigenvalues --    3.12267   3.12599   3.12783   3.14090   3.14915
  Beta virt. eigenvalues --    3.15054   3.17106   3.17315   3.18589   3.18874
  Beta virt. eigenvalues --    3.19535   3.19719   3.20202   3.21066   3.21186
  Beta virt. eigenvalues --    3.22457   3.22652   3.23465   3.23534   3.24265
  Beta virt. eigenvalues --    3.25506   3.26147   3.27017   3.27811   3.28252
  Beta virt. eigenvalues --    3.28905   3.29397   3.30228   3.31298   3.31442
  Beta virt. eigenvalues --    3.32543   3.33037   3.33281   3.33723   3.34515
  Beta virt. eigenvalues --    3.34940   3.35514   3.36139   3.37780   3.38489
  Beta virt. eigenvalues --    3.39034   3.39478   3.42016   3.43742   3.43885
  Beta virt. eigenvalues --    3.44922   3.45698   3.46480   3.46728   3.47076
  Beta virt. eigenvalues --    3.48351   3.48972   3.49095   3.49572   3.51230
  Beta virt. eigenvalues --    3.51433   3.52063   3.53507   3.54383   3.54576
  Beta virt. eigenvalues --    3.54809   3.55549   3.59319   3.59519   3.61828
  Beta virt. eigenvalues --    3.63452   3.64662   3.64861   3.65001   3.65147
  Beta virt. eigenvalues --    3.67944   3.68587   3.70229   3.71678   3.71899
  Beta virt. eigenvalues --    3.74012   3.76345   3.76472   3.78353   3.78886
  Beta virt. eigenvalues --    3.84364   3.84798   3.85322   3.86226   3.86425
  Beta virt. eigenvalues --    3.87903   3.89729   3.90376   3.92672   3.93669
  Beta virt. eigenvalues --    3.94411   3.95452   3.99458   3.99505   4.01927
  Beta virt. eigenvalues --    4.04205   4.08247   4.09137   4.09151   4.10752
  Beta virt. eigenvalues --    4.11910   4.12798   4.13305   4.15994   4.18062
  Beta virt. eigenvalues --    4.19151   4.20098   4.21762   4.22717   4.23172
  Beta virt. eigenvalues --    4.25027   4.27192   4.31049   4.31079   4.33443
  Beta virt. eigenvalues --    4.35419   4.37156   4.37455   4.39360   4.40141
  Beta virt. eigenvalues --    4.43653   4.44870   4.45798   4.47460   4.48808
  Beta virt. eigenvalues --    4.49097   4.59104   4.60676   4.61706   4.64967
  Beta virt. eigenvalues --    4.69309   4.69332   4.71620   4.73938   4.74213
  Beta virt. eigenvalues --    4.75218   4.77254   4.78176   4.79774   4.82545
  Beta virt. eigenvalues --    4.83987   4.84521   4.89203   4.89278   4.94196
  Beta virt. eigenvalues --    4.94356   4.95485   4.97435   5.05560   5.08453
  Beta virt. eigenvalues --    5.10256   5.11279   5.17962   5.19102   5.23111
  Beta virt. eigenvalues --    5.23766   5.29427   5.31827   5.39850   5.40428
  Beta virt. eigenvalues --    5.43455   5.44772   5.48383   5.48889   5.66463
  Beta virt. eigenvalues --    5.70209   5.74912   5.76779   5.91889   5.97651
  Beta virt. eigenvalues --    7.94148   7.95788   8.02147   8.02728   8.05994
  Beta virt. eigenvalues --    8.07255   8.11071   8.11185   8.17431   8.18293
  Beta virt. eigenvalues --    8.33748   8.35959  34.76314  34.77910  34.81039
  Beta virt. eigenvalues --   34.82088  34.85264  34.87120  34.97416  34.97876
  Beta virt. eigenvalues --   35.00423  35.01518  35.15369  35.18625
          Condensed to atoms (all electrons):
               1          2          3          4          5          6
     1  C    5.143359   0.009619   0.421860  -0.001802   0.000198  -0.003096
     2  C    0.009619   5.257901  -0.001735   0.423630  -0.018674  -0.040616
     3  H    0.421860  -0.001735   0.490700   0.000028  -0.000041  -0.000036
     4  H   -0.001802   0.423630   0.000028   0.472976  -0.001345   0.001414
     5  C    0.000198  -0.018674  -0.000041  -0.001345   5.109273   0.535227
     6  C   -0.003096  -0.040616  -0.000036   0.001414   0.535227   5.259115
     7  H    0.000204  -0.000827  -0.000000  -0.000052   0.422646  -0.027211
     8  H   -0.000565   0.001407   0.000004  -0.000017  -0.040959   0.423674
     9  C    0.000931   0.000325  -0.000002  -0.000762  -0.070574   0.254527
    10  H   -0.000018  -0.000234  -0.000001  -0.000042  -0.003206  -0.034651
    11  H   -0.000013  -0.001379  -0.000000   0.000041   0.007681  -0.052102
    12  C   -0.000079   0.006212   0.000002   0.000779   0.307153  -0.072929
    13  H   -0.000001   0.000022   0.000000  -0.000005  -0.033572   0.004006
    14  C    0.000111  -0.003088  -0.000000  -0.000576  -0.063269   0.009655
    15  H   -0.000000  -0.000036  -0.000000   0.000004   0.006483  -0.001732
    16  C   -0.000523   0.007430  -0.000001   0.000589   0.007842  -0.070494
    17  H   -0.000072  -0.001516  -0.000001  -0.000490   0.010195  -0.001783
    18  H    0.000001   0.000585   0.000000   0.000097  -0.002823   0.011270
    19  C   -0.063267   0.535769   0.006485  -0.040829  -0.000578  -0.018737
    20  H    0.003236  -0.026850  -0.000095  -0.004740   0.000126  -0.000835
    21  C    0.582043  -0.072897  -0.030736   0.005355   0.000488   0.006240
    22  H   -0.023722   0.004071  -0.005340  -0.000061   0.000009   0.000023
    23  C   -0.083159   0.254936   0.004688  -0.014102   0.002538   0.000314
    24  H    0.012940  -0.052148  -0.000095  -0.003978   0.002376  -0.001370
    25  H    0.004601  -0.034732  -0.000011  -0.000199   0.000237  -0.000234
    26  C    0.279730  -0.070420  -0.027006   0.003613  -0.001788   0.007422
    27  H   -0.039686   0.011259  -0.004489  -0.000102   0.000340   0.000584
    28  H   -0.036279  -0.001761   0.001061  -0.000124  -0.002294  -0.001490
               7          8          9         10         11         12
     1  C    0.000204  -0.000565   0.000931  -0.000018  -0.000013  -0.000079
     2  C   -0.000827   0.001407   0.000325  -0.000234  -0.001379   0.006212
     3  H   -0.000000   0.000004  -0.000002  -0.000001  -0.000000   0.000002
     4  H   -0.000052  -0.000017  -0.000762  -0.000042   0.000041   0.000779
     5  C    0.422646  -0.040959  -0.070574  -0.003206   0.007681   0.307153
     6  C   -0.027211   0.423674   0.254527  -0.034651  -0.052102  -0.072929
     7  H    0.478623  -0.004735   0.002962  -0.000265  -0.000030  -0.028208
     8  H   -0.004735   0.472569  -0.013942  -0.000203  -0.003970   0.005356
     9  C    0.002962  -0.013942   4.944675   0.385928   0.449826   0.036718
    10  H   -0.000265  -0.000203   0.385928   0.569138  -0.020041   0.001532
    11  H   -0.000030  -0.003970   0.449826  -0.020041   0.536195  -0.004016
    12  C   -0.028208   0.005356   0.036718   0.001532  -0.004016   5.004082
    13  H   -0.003021  -0.000061  -0.000216  -0.000054   0.000027   0.422687
    14  C    0.003205  -0.001803  -0.083227   0.004586   0.012939   0.581734
    15  H   -0.000095   0.000028   0.004686  -0.000012  -0.000095  -0.030778
    16  C   -0.000588   0.003606   0.360731  -0.025108  -0.051735  -0.064442
    17  H    0.000028  -0.000124  -0.035349   0.006978  -0.007831  -0.014523
    18  H    0.000028  -0.000101  -0.045187  -0.007541  -0.001466   0.006391
    19  C    0.000127  -0.001347   0.002553   0.000236   0.002369   0.000488
    20  H    0.000006  -0.000052   0.001240   0.000074  -0.000455  -0.000083
    21  C   -0.000084   0.000786  -0.000113   0.000019  -0.000297  -0.000239
    22  H   -0.000000  -0.000005  -0.000029  -0.000001   0.000003  -0.000000
    23  C    0.001219  -0.000753   0.000003  -0.000004   0.000025  -0.000108
    24  H   -0.000446   0.000041   0.000024   0.000003  -0.000012  -0.000296
    25  H    0.000075  -0.000042  -0.000004   0.000001   0.000003   0.000019
    26  C   -0.000993   0.000545  -0.000526   0.000039  -0.000014   0.000482
    27  H   -0.000017   0.000097  -0.000022   0.000001  -0.000001  -0.000048
    28  H    0.001227  -0.000507   0.000319  -0.000008   0.000026   0.000598
              13         14         15         16         17         18
     1  C   -0.000001   0.000111  -0.000000  -0.000523  -0.000072   0.000001
     2  C    0.000022  -0.003088  -0.000036   0.007430  -0.001516   0.000585
     3  H    0.000000  -0.000000  -0.000000  -0.000001  -0.000001   0.000000
     4  H   -0.000005  -0.000576   0.000004   0.000589  -0.000490   0.000097
     5  C   -0.033572  -0.063269   0.006483   0.007842   0.010195  -0.002823
     6  C    0.004006   0.009655  -0.001732  -0.070494  -0.001783   0.011270
     7  H   -0.003021   0.003205  -0.000095  -0.000588   0.000028   0.000028
     8  H   -0.000061  -0.001803   0.000028   0.003606  -0.000124  -0.000101
     9  C   -0.000216  -0.083227   0.004686   0.360731  -0.035349  -0.045187
    10  H   -0.000054   0.004586  -0.000012  -0.025108   0.006978  -0.007541
    11  H    0.000027   0.012939  -0.000095  -0.051735  -0.007831  -0.001466
    12  C    0.422687   0.581734  -0.030778  -0.064442  -0.014523   0.006391
    13  H    0.487792  -0.023954  -0.005341   0.003736  -0.000355  -0.000090
    14  C   -0.023954   5.143763   0.421878   0.279558  -0.036243  -0.039672
    15  H   -0.005341   0.421878   0.490697  -0.026980   0.001057  -0.004485
    16  C    0.003736   0.279558  -0.026980   4.926852   0.401103   0.437558
    17  H   -0.000355  -0.036243   0.001057   0.401103   0.588992  -0.021325
    18  H   -0.000090  -0.039672  -0.004485   0.437558  -0.021325   0.537973
    19  C    0.000009   0.000201  -0.000041  -0.001788  -0.002288   0.000340
    20  H   -0.000000   0.000204  -0.000000  -0.001003   0.001222  -0.000017
    21  C   -0.000000  -0.000079   0.000002   0.000484   0.000597  -0.000048
    22  H    0.000000  -0.000001   0.000000   0.000009  -0.000003  -0.000001
    23  C   -0.000029   0.000930  -0.000002  -0.000533   0.000317  -0.000022
    24  H    0.000003  -0.000013  -0.000000  -0.000013   0.000026  -0.000001
    25  H   -0.000001  -0.000018  -0.000001   0.000039  -0.000008   0.000001
    26  C    0.000009  -0.000523  -0.000001   0.000965   0.000126  -0.000002
    27  H   -0.000001   0.000001   0.000000  -0.000002   0.000003  -0.000000
    28  H   -0.000003  -0.000072  -0.000001   0.000126  -0.000027   0.000003
              19         20         21         22         23         24
     1  C   -0.063267   0.003236   0.582043  -0.023722  -0.083159   0.012940
     2  C    0.535769  -0.026850  -0.072897   0.004071   0.254936  -0.052148
     3  H    0.006485  -0.000095  -0.030736  -0.005340   0.004688  -0.000095
     4  H   -0.040829  -0.004740   0.005355  -0.000061  -0.014102  -0.003978
     5  C   -0.000578   0.000126   0.000488   0.000009   0.002538   0.002376
     6  C   -0.018737  -0.000835   0.006240   0.000023   0.000314  -0.001370
     7  H    0.000127   0.000006  -0.000084  -0.000000   0.001219  -0.000446
     8  H   -0.001347  -0.000052   0.000786  -0.000005  -0.000753   0.000041
     9  C    0.002553   0.001240  -0.000113  -0.000029   0.000003   0.000024
    10  H    0.000236   0.000074   0.000019  -0.000001  -0.000004   0.000003
    11  H    0.002369  -0.000455  -0.000297   0.000003   0.000025  -0.000012
    12  C    0.000488  -0.000083  -0.000239  -0.000000  -0.000108  -0.000296
    13  H    0.000009  -0.000000  -0.000000   0.000000  -0.000029   0.000003
    14  C    0.000201   0.000204  -0.000079  -0.000001   0.000930  -0.000013
    15  H   -0.000041  -0.000000   0.000002   0.000000  -0.000002  -0.000000
    16  C   -0.001788  -0.001003   0.000484   0.000009  -0.000533  -0.000013
    17  H   -0.002288   0.001222   0.000597  -0.000003   0.000317   0.000026
    18  H    0.000340  -0.000017  -0.000048  -0.000001  -0.000022  -0.000001
    19  C    5.108910   0.422332   0.307102  -0.033693  -0.070734   0.007685
    20  H    0.422332   0.478544  -0.028285  -0.003019   0.002953  -0.000030
    21  C    0.307102  -0.028285   5.003934   0.422496   0.036664  -0.004011
    22  H   -0.033693  -0.003019   0.422496   0.487731  -0.000217   0.000027
    23  C   -0.070734   0.002953   0.036664  -0.000217   4.944243   0.449775
    24  H    0.007685  -0.000030  -0.004011   0.000027   0.449775   0.536563
    25  H   -0.003168  -0.000264   0.001527  -0.000054   0.385990  -0.020054
    26  C    0.007802  -0.000588  -0.064551   0.003740   0.360671  -0.051742
    27  H   -0.002820   0.000028   0.006400  -0.000091  -0.045175  -0.001464
    28  H    0.010180   0.000027  -0.014470  -0.000355  -0.035438  -0.007841
              25         26         27         28
     1  C    0.004601   0.279730  -0.039686  -0.036279
     2  C   -0.034732  -0.070420   0.011259  -0.001761
     3  H   -0.000011  -0.027006  -0.004489   0.001061
     4  H   -0.000199   0.003613  -0.000102  -0.000124
     5  C    0.000237  -0.001788   0.000340  -0.002294
     6  C   -0.000234   0.007422   0.000584  -0.001490
     7  H    0.000075  -0.000993  -0.000017   0.001227
     8  H   -0.000042   0.000545   0.000097  -0.000507
     9  C   -0.000004  -0.000526  -0.000022   0.000319
    10  H    0.000001   0.000039   0.000001  -0.000008
    11  H    0.000003  -0.000014  -0.000001   0.000026
    12  C    0.000019   0.000482  -0.000048   0.000598
    13  H   -0.000001   0.000009  -0.000001  -0.000003
    14  C   -0.000018  -0.000523   0.000001  -0.000072
    15  H   -0.000001  -0.000001   0.000000  -0.000001
    16  C    0.000039   0.000965  -0.000002   0.000126
    17  H   -0.000008   0.000126   0.000003  -0.000027
    18  H    0.000001  -0.000002  -0.000000   0.000003
    19  C   -0.003168   0.007802  -0.002820   0.010180
    20  H   -0.000264  -0.000588   0.000028   0.000027
    21  C    0.001527  -0.064551   0.006400  -0.014470
    22  H   -0.000054   0.003740  -0.000091  -0.000355
    23  C    0.385990   0.360671  -0.045175  -0.035438
    24  H   -0.020054  -0.051742  -0.001464  -0.007841
    25  H    0.569180  -0.025133  -0.007545   0.006984
    26  C   -0.025133   4.926987   0.437574   0.401115
    27  H   -0.007545   0.437574   0.537907  -0.021362
    28  H    0.006984   0.401115  -0.021362   0.589192
          Atomic-Atomic Spin Densities.
               1          2          3          4          5          6
     1  C   -0.000001  -0.000000   0.000000   0.000000   0.000000  -0.000000
     2  C   -0.000000   0.000000   0.000000   0.000000  -0.000000  -0.000000
     3  H    0.000000   0.000000   0.000000  -0.000000  -0.000000   0.000000
     4  H    0.000000   0.000000  -0.000000   0.000000   0.000000  -0.000000
     5  C    0.000000  -0.000000  -0.000000   0.000000  -0.000001   0.000000
     6  C   -0.000000  -0.000000   0.000000  -0.000000   0.000000   0.000000
     7  H   -0.000000   0.000000   0.000000  -0.000000  -0.000000  -0.000000
     8  H    0.000000   0.000000  -0.000000  -0.000000  -0.000000  -0.000000
     9  C   -0.000000   0.000000  -0.000000  -0.000000  -0.000000   0.000000
    10  H   -0.000000  -0.000000  -0.000000   0.000000  -0.000000   0.000000
    11  H    0.000000  -0.000000   0.000000   0.000000   0.000000  -0.000000
    12  C   -0.000000   0.000000   0.000000  -0.000000   0.000000  -0.000000
    13  H    0.000000   0.000000   0.000000   0.000000   0.000000  -0.000000
    14  C   -0.000000   0.000000  -0.000000  -0.000000   0.000000   0.000000
    15  H    0.000000  -0.000000  -0.000000   0.000000  -0.000000  -0.000000
    16  C   -0.000000   0.000000   0.000000   0.000000  -0.000000  -0.000000
    17  H   -0.000000  -0.000000  -0.000000   0.000000   0.000000  -0.000000
    18  H   -0.000000   0.000000  -0.000000   0.000000   0.000000  -0.000000
    19  C    0.000000  -0.000000   0.000000   0.000000   0.000000   0.000000
    20  H   -0.000000   0.000000   0.000000   0.000000  -0.000000  -0.000000
    21  C    0.000000  -0.000000  -0.000000  -0.000000   0.000000  -0.000000
    22  H   -0.000000   0.000000  -0.000000  -0.000000   0.000000  -0.000000
    23  C   -0.000000  -0.000000   0.000000  -0.000000   0.000000   0.000000
    24  H   -0.000000   0.000000  -0.000000   0.000000   0.000000   0.000000
    25  H   -0.000000  -0.000000   0.000000   0.000000  -0.000000   0.000000
    26  C    0.000000   0.000000  -0.000000  -0.000000  -0.000000  -0.000000
    27  H    0.000000   0.000000  -0.000000   0.000000   0.000000  -0.000000
    28  H    0.000000   0.000000  -0.000000   0.000000  -0.000000   0.000000
               7          8          9         10         11         12
     1  C   -0.000000   0.000000  -0.000000  -0.000000   0.000000  -0.000000
     2  C    0.000000   0.000000   0.000000  -0.000000  -0.000000   0.000000
     3  H    0.000000  -0.000000  -0.000000  -0.000000   0.000000   0.000000
     4  H   -0.000000  -0.000000  -0.000000   0.000000   0.000000  -0.000000
     5  C   -0.000000  -0.000000  -0.000000  -0.000000   0.000000   0.000000
     6  C   -0.000000  -0.000000   0.000000   0.000000  -0.000000  -0.000000
     7  H    0.000000  -0.000000   0.000000  -0.000000  -0.000000  -0.000000
     8  H   -0.000000  -0.000000   0.000000  -0.000000   0.000000   0.000000
     9  C    0.000000   0.000000  -0.000001  -0.000000   0.000000  -0.000000
    10  H   -0.000000  -0.000000  -0.000000   0.000000  -0.000000   0.000000
    11  H   -0.000000   0.000000   0.000000  -0.000000   0.000000  -0.000000
    12  C   -0.000000   0.000000  -0.000000   0.000000  -0.000000   0.000000
    13  H    0.000000   0.000000   0.000000  -0.000000  -0.000000  -0.000000
    14  C    0.000000   0.000000   0.000000   0.000000   0.000000  -0.000000
    15  H   -0.000000   0.000000  -0.000000  -0.000000   0.000000   0.000000
    16  C   -0.000000   0.000000   0.000000  -0.000000  -0.000000   0.000000
    17  H   -0.000000  -0.000000   0.000000   0.000000  -0.000000   0.000000
    18  H    0.000000  -0.000000   0.000000   0.000000  -0.000000  -0.000000
    19  C    0.000000  -0.000000  -0.000000   0.000000  -0.000000  -0.000000
    20  H    0.000000   0.000000   0.000000  -0.000000   0.000000   0.000000
    21  C   -0.000000   0.000000  -0.000000   0.000000   0.000000  -0.000000
    22  H   -0.000000  -0.000000  -0.000000   0.000000   0.000000   0.000000
    23  C   -0.000000   0.000000  -0.000000   0.000000   0.000000   0.000000
    24  H   -0.000000  -0.000000  -0.000000   0.000000  -0.000000  -0.000000
    25  H    0.000000  -0.000000  -0.000000  -0.000000  -0.000000  -0.000000
    26  C   -0.000000  -0.000000   0.000000   0.000000  -0.000000  -0.000000
    27  H   -0.000000  -0.000000  -0.000000   0.000000  -0.000000  -0.000000
    28  H    0.000000  -0.000000   0.000000   0.000000  -0.000000  -0.000000
              13         14         15         16         17         18
     1  C    0.000000  -0.000000   0.000000  -0.000000  -0.000000  -0.000000
     2  C    0.000000   0.000000  -0.000000   0.000000  -0.000000   0.000000
     3  H    0.000000  -0.000000  -0.000000   0.000000  -0.000000  -0.000000
     4  H    0.000000  -0.000000   0.000000   0.000000   0.000000   0.000000
     5  C    0.000000   0.000000  -0.000000  -0.000000   0.000000   0.000000
     6  C   -0.000000   0.000000  -0.000000  -0.000000  -0.000000  -0.000000
     7  H    0.000000   0.000000  -0.000000  -0.000000  -0.000000   0.000000
     8  H    0.000000   0.000000   0.000000   0.000000  -0.000000  -0.000000
     9  C    0.000000   0.000000  -0.000000   0.000000   0.000000   0.000000
    10  H   -0.000000   0.000000  -0.000000  -0.000000   0.000000   0.000000
    11  H   -0.000000   0.000000   0.000000  -0.000000  -0.000000  -0.000000
    12  C   -0.000000  -0.000000   0.000000   0.000000   0.000000  -0.000000
    13  H   -0.000000   0.000000   0.000000  -0.000000  -0.000000   0.000000
    14  C    0.000000   0.000001  -0.000000  -0.000000  -0.000000  -0.000000
    15  H    0.000000  -0.000000  -0.000000   0.000000   0.000000   0.000000
    16  C   -0.000000  -0.000000   0.000000   0.000001  -0.000000  -0.000000
    17  H   -0.000000  -0.000000   0.000000  -0.000000   0.000000   0.000000
    18  H    0.000000  -0.000000   0.000000  -0.000000   0.000000  -0.000000
    19  C   -0.000000   0.000000   0.000000   0.000000   0.000000  -0.000000
    20  H    0.000000   0.000000  -0.000000   0.000000  -0.000000   0.000000
    21  C   -0.000000   0.000000  -0.000000   0.000000   0.000000   0.000000
    22  H    0.000000  -0.000000  -0.000000   0.000000  -0.000000   0.000000
    23  C    0.000000   0.000000   0.000000  -0.000000  -0.000000   0.000000
    24  H   -0.000000  -0.000000  -0.000000  -0.000000   0.000000   0.000000
    25  H   -0.000000   0.000000   0.000000  -0.000000  -0.000000  -0.000000
    26  C   -0.000000   0.000000  -0.000000  -0.000000   0.000000   0.000000
    27  H   -0.000000   0.000000   0.000000  -0.000000   0.000000   0.000000
    28  H    0.000000   0.000000   0.000000  -0.000000   0.000000  -0.000000
              19         20         21         22         23         24
     1  C    0.000000  -0.000000   0.000000  -0.000000  -0.000000  -0.000000
     2  C   -0.000000   0.000000  -0.000000   0.000000  -0.000000   0.000000
     3  H    0.000000   0.000000  -0.000000  -0.000000   0.000000  -0.000000
     4  H    0.000000   0.000000  -0.000000  -0.000000  -0.000000   0.000000
     5  C    0.000000  -0.000000   0.000000   0.000000   0.000000   0.000000
     6  C    0.000000  -0.000000  -0.000000  -0.000000   0.000000   0.000000
     7  H    0.000000   0.000000  -0.000000  -0.000000  -0.000000  -0.000000
     8  H   -0.000000   0.000000   0.000000  -0.000000   0.000000  -0.000000
     9  C   -0.000000   0.000000  -0.000000  -0.000000  -0.000000  -0.000000
    10  H    0.000000  -0.000000   0.000000   0.000000   0.000000   0.000000
    11  H   -0.000000   0.000000   0.000000   0.000000   0.000000  -0.000000
    12  C   -0.000000   0.000000  -0.000000   0.000000   0.000000  -0.000000
    13  H   -0.000000   0.000000  -0.000000   0.000000   0.000000  -0.000000
    14  C    0.000000   0.000000   0.000000  -0.000000   0.000000  -0.000000
[...]
              25         26         27         28
     1  C   -0.000000   0.000000   0.000000   0.000000
     2  C   -0.000000   0.000000  -0.000000   0.000000
     3  H    0.000000  -0.000000  -0.000000  -0.000000
     4  H    0.000000  -0.000000   0.000000   0.000000
     5  C   -0.000000  -0.000000   0.000000  -0.000000
     6  C    0.000000  -0.000000  -0.000000   0.000000
     7  H    0.000000  -0.000000  -0.000000   0.000000
     8  H   -0.000000  -0.000000  -0.000000  -0.000000
     9  C   -0.000000   0.000000  -0.000000   0.000000
    10  H   -0.000000   0.000000   0.000000   0.000000
    11  H   -0.000000  -0.000000  -0.000000  -0.000000
    12  C   -0.000000  -0.000000  -0.000000  -0.000000
    13  H   -0.000000  -0.000000  -0.000000   0.000000
    14  C    0.000000   0.000000   0.000000   0.000000
    15  H    0.000000  -0.000000   0.000000   0.000000
    16  C   -0.000000  -0.000000  -0.000000  -0.000000
    17  H   -0.000000   0.000000   0.000000   0.000000
    18  H   -0.000000   0.000000   0.000000  -0.000000
    19  C    0.000000   0.000000  -0.000000  -0.000000
    20  H    0.000000   0.000000  -0.000000   0.000000
    21  C   -0.000000  -0.000000   0.000000  -0.000000
    22  H    0.000000   0.000000  -0.000000   0.000000
    23  C    0.000000  -0.000000  -0.000000  -0.000000
    24  H    0.000000   0.000000   0.000000   0.000000
    25  H   -0.000000   0.000000  -0.000000  -0.000000
    26  C    0.000000  -0.000001   0.000000   0.000000
    27  H   -0.000000   0.000000   0.000000  -0.000000
    28  H   -0.000000   0.000000  -0.000000  -0.000000
 Mulliken charges and spin densities:
               1          2
     1  C   -0.203864  -0.000001
     2  C   -0.199943   0.000000
     3  H    0.148640   0.000000
     4  H    0.168860   0.000000
     5  C   -0.189859  -0.000000
     6  C   -0.196594   0.000000
     7  H    0.165866   0.000000
     8  H    0.168995  -0.000000
     9  C   -0.207247  -0.000001
    10  H    0.131020   0.000000
    11  H    0.138432   0.000000
    12  C   -0.164274   0.000000
    13  H    0.152523  -0.000000
    14  C   -0.203413   0.000000
    15  H    0.148700  -0.000000
    16  C   -0.191880   0.000000
    17  H    0.114785  -0.000000
    18  H    0.132987  -0.000000
    19  C   -0.189321   0.000000
    20  H    0.167738  -0.000000
    21  C   -0.162119   0.000000
    22  H    0.151855   0.000000
    23  C   -0.206296   0.000001
    24  H    0.138501  -0.000000
    25  H    0.130927  -0.000000
    26  C   -0.191110  -0.000000
    27  H    0.132654   0.000000
    28  H    0.113437   0.000000
 Sum of Mulliken charges =  -0.00000  -0.00000
 Mulliken charges and spin densities with hydrogens summed into heavy atoms:
               1          2
     1  C   -0.055224  -0.000001
     2  C   -0.031083   0.000000
     5  C   -0.023993  -0.000000
     6  C   -0.027599  -0.000000
     9  C    0.062204  -0.000000
    12  C   -0.011751  -0.000000
    14  C   -0.054713   0.000000
    16  C    0.055892   0.000000
    19  C   -0.021583  -0.000000
    21  C   -0.010264   0.000000
    23  C    0.063133   0.000000
    26  C    0.054981  -0.000000
 Electronic spatial extent (au):  <R**2>=           2352.4759
 Charge=             -0.0000 electrons
 Dipole moment (field-independent basis, Debye):
    X=              0.0002    Y=             -0.0000    Z=              0.0003  Tot=              0.0003
 Quadrupole moment (field-independent basis, Debye-Ang):
   XX=            -70.6053   YY=            -68.0525   ZZ=            -74.8620
   XY=             -3.2629   XZ=             -3.9884   YZ=             -1.6951
 Traceless Quadrupole moment (field-independent basis, Debye-Ang):
   XX=              0.5680   YY=              3.1208   ZZ=             -3.6887
   XY=             -3.2629   XZ=             -3.9884   YZ=             -1.6951
 Octapole moment (field-independent basis, Debye-Ang**2):
  XXX=             -0.0051  YYY=              0.0076  ZZZ=             -0.0012  XYY=              0.0104
  XXY=              0.0075  XXZ=              0.0087  XZZ=             -0.0071  YZZ=             -0.0033
  YYZ=             -0.0043  XYZ=              0.0082
 Hexadecapole moment (field-independent basis, Debye-Ang**3):
 XXXX=          -2079.2072 YYYY=           -608.2917 ZZZZ=           -454.7290 XXXY=           -120.8026
 XXXZ=           -180.1839 YYYX=            -69.9726 YYYZ=            -10.6785 ZZZX=           -120.1276
 ZZZY=            -24.7443 XXYY=           -441.2944 XXZZ=           -441.1562 YYZZ=           -192.2931
 XXYZ=            -27.6651 YYXZ=            -42.6419 ZZXY=            -48.5117
 N-N= 6.692604417796D+02 E-N=-2.421121846522D+03  KE= 4.642856683427D+02
                          Isotropic Fermi Contact Couplings
        Atom                 a.u.       MegaHertz       Gauss      10(-4) cm-1
     1  C(13)             -0.00000      -0.00003      -0.00001      -0.00001
     2  C(13)             -0.00000      -0.00004      -0.00001      -0.00001
     3  H(1)               0.00000       0.00001       0.00000       0.00000
     4  H(1)               0.00000       0.00005       0.00002       0.00002
     5  C(13)             -0.00000      -0.00014      -0.00005      -0.00005
     6  C(13)              0.00000       0.00005       0.00002       0.00002
     7  H(1)               0.00000       0.00024       0.00008       0.00008
     8  H(1)              -0.00000      -0.00006      -0.00002      -0.00002
     9  C(13)             -0.00000      -0.00023      -0.00008      -0.00008
    10  H(1)               0.00000       0.00010       0.00004       0.00003
    11  H(1)               0.00000       0.00012       0.00004       0.00004
    12  C(13)              0.00000       0.00010       0.00004       0.00003
    13  H(1)              -0.00000      -0.00019      -0.00007      -0.00006
    14  C(13)              0.00000       0.00002       0.00001       0.00001
    15  H(1)               0.00000       0.00000       0.00000       0.00000
    16  C(13)              0.00000       0.00013       0.00005       0.00004
    17  H(1)              -0.00000      -0.00004      -0.00001      -0.00001
    18  H(1)              -0.00000      -0.00004      -0.00001      -0.00001
    19  C(13)              0.00000       0.00013       0.00005       0.00004
    20  H(1)              -0.00000      -0.00023      -0.00008      -0.00008
    21  C(13)             -0.00000      -0.00009      -0.00003      -0.00003
    22  H(1)               0.00000       0.00019       0.00007       0.00006
    23  C(13)              0.00000       0.00022       0.00008       0.00007
    24  H(1)              -0.00000      -0.00012      -0.00004      -0.00004
    25  H(1)              -0.00000      -0.00009      -0.00003      -0.00003
    26  C(13)             -0.00000      -0.00012      -0.00004      -0.00004
    27  H(1)               0.00000       0.00004       0.00001       0.00001
    28  H(1)               0.00000       0.00002       0.00001       0.00001
 --------------------------------------------------------
       Center         ----  Spin Dipole Couplings  ----
                      3XX-RR        3YY-RR        3ZZ-RR
 --------------------------------------------------------
     1   Atom       -0.000000      0.000000      0.000000
     2   Atom        0.000000     -0.000000     -0.000000
     3   Atom        0.000000      0.000000     -0.000000
     4   Atom       -0.000000     -0.000000      0.000000
     5   Atom       -0.000000     -0.000000      0.000001
     6   Atom       -0.000000      0.000000      0.000000
     7   Atom        0.000000     -0.000000      0.000000
     8   Atom        0.000000      0.000000     -0.000000
     9   Atom       -0.000000      0.000000     -0.000000
    10   Atom        0.000000      0.000000     -0.000000
    11   Atom        0.000000     -0.000000      0.000000
    12   Atom        0.000000      0.000000     -0.000001
    13   Atom       -0.000000      0.000000     -0.000000
    14   Atom        0.000000     -0.000000     -0.000000
    15   Atom       -0.000000     -0.000000      0.000000
    16   Atom        0.000000     -0.000000      0.000000
    17   Atom        0.000000     -0.000000      0.000000
    18   Atom        0.000000      0.000000     -0.000000
    19   Atom        0.000000      0.000000     -0.000001
    20   Atom       -0.000000      0.000000     -0.000000
    21   Atom       -0.000000     -0.000001      0.000001
    22   Atom        0.000000     -0.000000      0.000000
    23   Atom        0.000000     -0.000000      0.000000
    24   Atom       -0.000000      0.000000     -0.000000
    25   Atom       -0.000000     -0.000000      0.000000
    26   Atom       -0.000000      0.000000     -0.000000
    27   Atom       -0.000000     -0.000000      0.000000
    28   Atom       -0.000000      0.000000     -0.000000
 --------------------------------------------------------
                        XY            XZ            YZ
 --------------------------------------------------------
     1   Atom        0.000000     -0.000001      0.000000
     2   Atom        0.000000      0.000000      0.000000
     3   Atom       -0.000000      0.000000      0.000000
     4   Atom       -0.000000     -0.000000      0.000000
     5   Atom        0.000000     -0.000000     -0.000000
     6   Atom       -0.000000     -0.000000     -0.000000
     7   Atom        0.000000      0.000000     -0.000000
     8   Atom        0.000000      0.000000     -0.000000
     9   Atom       -0.000000      0.000000     -0.000000
    10   Atom        0.000000     -0.000000      0.000000
    11   Atom       -0.000000     -0.000000     -0.000000
    12   Atom        0.000000     -0.000000     -0.000000
    13   Atom        0.000000     -0.000000     -0.000000
    14   Atom       -0.000000      0.000001     -0.000000
    15   Atom        0.000000     -0.000000     -0.000000
    16   Atom       -0.000000     -0.000000     -0.000000
    17   Atom        0.000000      0.000000      0.000000
    18   Atom       -0.000000      0.000000     -0.000000
    19   Atom       -0.000000     -0.000000      0.000000
    20   Atom       -0.000000     -0.000000      0.000000
    21   Atom       -0.000000      0.000000      0.000000
    22   Atom       -0.000000      0.000000      0.000000
    23   Atom        0.000000     -0.000000      0.000000
    24   Atom        0.000000      0.000000      0.000000
    25   Atom       -0.000000      0.000000     -0.000000
    26   Atom        0.000000      0.000000      0.000000
    27   Atom        0.000000     -0.000000      0.000000
    28   Atom       -0.000000     -0.000000     -0.000000
 --------------------------------------------------------


 ---------------------------------------------------------------------------------
              Anisotropic Spin Dipole Couplings in Principal Axis System
 ---------------------------------------------------------------------------------

       Atom             a.u.   MegaHertz   Gauss  10(-4) cm-1        Axes

              Baa    -0.0000    -0.000    -0.000    -0.000  0.7900 -0.1328  0.5985
     1 C(13)  Bbb     0.0000     0.000     0.000     0.000  0.1391  0.9896  0.0359
              Bcc     0.0000     0.000     0.000     0.000 -0.5971  0.0549  0.8003
 
              Baa    -0.0000    -0.000    -0.000    -0.000 -0.6063  0.2872  0.7415
     2 C(13)  Bbb    -0.0000    -0.000    -0.000    -0.000 -0.0583  0.9139 -0.4017
              Bcc     0.0000     0.000     0.000     0.000  0.7931  0.2868  0.5374
 
              Baa    -0.0000    -0.000    -0.000    -0.000 -0.3371 -0.1764  0.9248
     3 H(1)   Bbb     0.0000     0.000     0.000     0.000  0.9382  0.0182  0.3455
              Bcc     0.0000     0.000     0.000     0.000 -0.0778  0.9841  0.1594
 
              Baa    -0.0000    -0.000    -0.000    -0.000  0.9575  0.2246  0.1811
     4 H(1)   Bbb    -0.0000    -0.000    -0.000    -0.000 -0.1701  0.9464 -0.2746
              Bcc     0.0000     0.000     0.000     0.000 -0.2330  0.2321  0.9444
 
              Baa    -0.0000    -0.000    -0.000    -0.000  0.8425 -0.5385  0.0166
     5 C(13)  Bbb    -0.0000    -0.000    -0.000    -0.000  0.5287  0.8323  0.1664
              Bcc     0.0000     0.000     0.000     0.000 -0.1034 -0.1314  0.9859
 
              Baa    -0.0000    -0.000    -0.000    -0.000  0.8589  0.3300  0.3918
     6 C(13)  Bbb     0.0000     0.000     0.000     0.000 -0.1914  0.9162 -0.3520
              Bcc     0.0000     0.000     0.000     0.000 -0.4751  0.2273  0.8501
 
              Baa    -0.0000    -0.000    -0.000    -0.000 -0.4859  0.8367  0.2526
     7 H(1)   Bbb     0.0000     0.000     0.000     0.000  0.8422  0.5255 -0.1207
              Bcc     0.0000     0.000     0.000     0.000  0.2338 -0.1541  0.9600
 
              Baa    -0.0000    -0.000    -0.000    -0.000 -0.1681  0.2862  0.9433
     8 H(1)   Bbb     0.0000     0.000     0.000     0.000 -0.1486  0.9386 -0.3112
              Bcc     0.0000     0.000     0.000     0.000  0.9745  0.1925  0.1152
 
              Baa    -0.0000    -0.000    -0.000    -0.000  0.7974  0.1674 -0.5797
     9 C(13)  Bbb    -0.0000    -0.000    -0.000    -0.000  0.4229  0.5302  0.7349
              Bcc     0.0000     0.000     0.000     0.000 -0.4304  0.8312 -0.3520
 
              Baa    -0.0000    -0.000    -0.000    -0.000  0.5125 -0.1770  0.8402
    10 H(1)   Bbb     0.0000     0.000     0.000     0.000  0.6123 -0.6107 -0.5021
              Bcc     0.0000     0.000     0.000     0.000  0.6020  0.7718 -0.2047
 
              Baa    -0.0000    -0.000    -0.000    -0.000  0.5689  0.8182  0.0834
    11 H(1)   Bbb     0.0000     0.000     0.000     0.000 -0.4716  0.2414  0.8481
              Bcc     0.0000     0.000     0.000     0.000  0.6738 -0.5218  0.5232
 
              Baa    -0.0000    -0.000    -0.000    -0.000  0.1040  0.0702  0.9921
    12 C(13)  Bbb     0.0000     0.000     0.000     0.000  0.8448 -0.5327 -0.0509
              Bcc     0.0000     0.000     0.000     0.000  0.5249  0.8434 -0.1147
 
              Baa    -0.0000    -0.000    -0.000    -0.000  0.3096  0.2402  0.9200
    13 H(1)   Bbb    -0.0000    -0.000    -0.000    -0.000  0.9317 -0.2698 -0.2431
              Bcc     0.0000     0.000     0.000     0.000  0.1898  0.9325 -0.3074
 
              Baa    -0.0000    -0.000    -0.000    -0.000 -0.5213  0.0679  0.8507
    14 C(13)  Bbb    -0.0000    -0.000    -0.000    -0.000  0.1668  0.9857  0.0235
              Bcc     0.0000     0.000     0.000     0.000  0.8369 -0.1542  0.5252
 
              Baa    -0.0000    -0.000    -0.000    -0.000  0.9540  0.0508  0.2956
    15 H(1)   Bbb    -0.0000    -0.000    -0.000    -0.000 -0.1026  0.9814  0.1623
              Bcc     0.0000     0.000     0.000     0.000 -0.2818 -0.1851  0.9414
 
              Baa    -0.0000    -0.000    -0.000    -0.000  0.3126  0.9008  0.3015
    16 C(13)  Bbb    -0.0000    -0.000    -0.000    -0.000  0.6672 -0.4342  0.6052
              Bcc     0.0000     0.000     0.000     0.000 -0.6761 -0.0119  0.7368
 
              Baa    -0.0000    -0.000    -0.000    -0.000 -0.4101  0.8675 -0.2814
    17 H(1)   Bbb    -0.0000    -0.000    -0.000    -0.000 -0.6971 -0.0991  0.7101
              Bcc     0.0000     0.000     0.000     0.000  0.5881  0.4874  0.6454
 
              Baa    -0.0000    -0.000    -0.000    -0.000  0.5784  0.6203  0.5298
    18 H(1)   Bbb    -0.0000    -0.000    -0.000    -0.000 -0.5489 -0.1845  0.8153
              Bcc     0.0000     0.000     0.000     0.000 -0.6035  0.7624 -0.2337
 
              Baa    -0.0000    -0.000    -0.000    -0.000  0.0107 -0.0656  0.9978
    19 C(13)  Bbb     0.0000     0.000     0.000     0.000  0.8063  0.5908  0.0302
              Bcc     0.0000     0.000     0.000     0.000 -0.5914  0.8042  0.0592
 
              Baa    -0.0000    -0.000    -0.000    -0.000  0.3845 -0.0630  0.9210
    20 H(1)   Bbb    -0.0000    -0.000    -0.000    -0.000  0.7936  0.5322 -0.2949
              Bcc     0.0000     0.000     0.000     0.000 -0.4716  0.8443  0.2546
 
              Baa    -0.0000    -0.000    -0.000    -0.000  0.4345  0.8922 -0.1237
    21 C(13)  Bbb    -0.0000    -0.000    -0.000    -0.000  0.8827 -0.4491 -0.1386
              Bcc     0.0000     0.000     0.000     0.000  0.1792  0.0489  0.9826
 
              Baa    -0.0000    -0.000    -0.000    -0.000  0.1310  0.9472 -0.2926
    22 H(1)   Bbb     0.0000     0.000     0.000     0.000  0.9107 -0.2316 -0.3421
              Bcc     0.0000     0.000     0.000     0.000  0.3918  0.2217  0.8929
 
              Baa    -0.0000    -0.000    -0.000    -0.000 -0.4239  0.8368 -0.3465
    23 C(13)  Bbb     0.0000     0.000     0.000     0.000  0.4244  0.5215  0.7402
              Bcc     0.0000     0.000     0.000     0.000  0.8001  0.1667 -0.5763
 
              Baa    -0.0000    -0.000    -0.000    -0.000  0.6515 -0.4955  0.5744
    24 H(1)   Bbb    -0.0000    -0.000    -0.000    -0.000 -0.5177  0.2631  0.8141
              Bcc     0.0000     0.000     0.000     0.000  0.5545  0.8278  0.0851
 
              Baa    -0.0000    -0.000    -0.000    -0.000  0.6636  0.7006 -0.2623
    25 H(1)   Bbb    -0.0000    -0.000    -0.000    -0.000 -0.5313  0.6882  0.4940
              Bcc     0.0000     0.000     0.000     0.000  0.5266 -0.1885  0.8289
 
              Baa    -0.0000    -0.000    -0.000    -0.000 -0.6762 -0.0144  0.7366
    26 C(13)  Bbb     0.0000     0.000     0.000     0.000  0.6709 -0.4252  0.6076
              Bcc     0.0000     0.000     0.000     0.000  0.3045  0.9050  0.2972
 
              Baa    -0.0000    -0.000    -0.000    -0.000 -0.5773  0.7803 -0.2406
    27 H(1)   Bbb     0.0000     0.000     0.000     0.000 -0.6226 -0.2300  0.7480
              Bcc     0.0000     0.000     0.000     0.000  0.5283  0.5817  0.6185
 
              Baa    -0.0000    -0.000    -0.000    -0.000  0.6025  0.5279  0.5986
    28 H(1)   Bbb     0.0000     0.000     0.000     0.000 -0.5464 -0.2739  0.7915
              Bcc     0.0000     0.000     0.000     0.000 -0.5818  0.8039 -0.1234
 

 ---------------------------------------------------------------------------------

 No NMR shielding tensors so no spin-rotation constants.
 Leave Link  601 at Mon Aug  3 21:35:21 2020, MaxMem=  6442450944 cpu:               7.9 elap:               0.4
 (Enter /scratch/scicomp/CentOS/7.3.1611/Haswell/software/Gaussian/g16/l9999.exe)
 1\1\GINC-ATLAS-205\SP\UwB97XD\def2TZVP\C12H16\BOCHEN\03-Aug-2020\0\\#p
  uwb97xd guess=mix def2tzvp # scrf=(iefpcm,solvent=Cyclohexane,read) n
 osym 6d 10f\\endo-2 xp-pcm for eta=3\\0,1\C,0,-3.117905,-0.439074,0.28
 2722\C,0,-0.818524,-0.273593,-1.364901\H,0,-4.03333,-0.517117,0.857717
 \H,0,0.103373,-0.201366,-1.929344\C,0,1.228903,1.441011,0.876454\C,0,0
 .818524,0.273593,1.364901\H,0,0.64341,2.339945,1.029443\H,0,-0.103373,
 0.201366,1.929344\C,0,1.6454,-0.970035,1.20615\H,0,2.259726,-1.0838,2.
 109018\H,0,0.997461,-1.847095,1.165558\C,0,2.485196,1.535682,0.130802\
 H,0,2.886502,2.517404,-0.090679\C,0,3.117905,0.439074,-0.282722\H,0,4.
 03333,0.517117,-0.857717\C,0,2.546291,-0.929423,-0.030764\H,0,1.973763
 ,-1.230286,-0.916701\H,0,3.3478,-1.663372,0.07074\C,0,-1.228903,-1.441
 011,-0.876454\H,0,-0.64341,-2.339945,-1.029443\C,0,-2.485196,-1.535682
 ,-0.130802\H,0,-2.886502,-2.517404,0.090679\C,0,-1.6454,0.970035,-1.20
 615\H,0,-0.997461,1.847095,-1.165558\H,0,-2.259726,1.0838,-2.109018\C,
 0,-2.546291,0.929423,0.030764\H,0,-3.3478,1.663372,-0.07074\H,0,-1.973
 763,1.230286,0.916701\\Version=ES64L-G16RevB.01\HF=-466.8113247\S2=0.\
 S2-1=0.\S2A=0.\RMSD=8.832e-09\Dipole=0.0000828,-0.0000036,0.0001056\Qu
 adrupole=0.4222818,2.320213,-2.7424948,-2.4258697,-2.9652588,-1.260263
 7\PG=CI [X(C12H16)]\\@


 WOMEN HOLD UP HALF THE SKY. -- MAO TSE TUNG
 Job cpu time:       0 days  2 hours  5 minutes 29.8 seconds.
 Elapsed time:       0 days  0 hours  5 minutes 16.9 seconds.
 File lengths (MBytes):  RWF=    660 Int=      0 D2E=      0 Chk=     25 Scr=      1
 Normal termination of Gaussian 16 at Mon Aug  3 21:35:22 2020.
