 Entering Gaussian System, Link 0=g16
 Input=meso-TS_19_1_pcm.com
 Output=meso-TS_19_1_pcm.log
 Initial command:
 /scratch/scicomp/CentOS/7.3.1611/Haswell/software/Gaussian/g16/l1.exe "/scratch/bochen/cyclohexadiene-dimerization/wb97xd-def2tzvp/xp-pcm/meso/Gau-59310.inp" -scrdir="/scratch/bochen/cyclohexadiene-dimerization/wb97xd-def2tzvp/xp-pcm/meso/"
 Entering Link 1 = /scratch/scicomp/CentOS/7.3.1611/Haswell/software/Gaussian/g16/l1.exe PID=     59311.
  
 Copyright (c) 1988-2017, Gaussian, Inc.  All Rights Reserved.
  
 This is part of the Gaussian(R) 16 program.  It is based on
 the Gaussian(R) 09 system (copyright 2009, Gaussian, Inc.),
 the Gaussian(R) 03 system (copyright 2003, Gaussian, Inc.),
 the Gaussian(R) 98 system (copyright 1998, Gaussian, Inc.),
 the Gaussian(R) 94 system (copyright 1995, Gaussian, Inc.),
 the Gaussian 92(TM) system (copyright 1992, Gaussian, Inc.),
 the Gaussian 90(TM) system (copyright 1990, Gaussian, Inc.),
 the Gaussian 88(TM) system (copyright 1988, Gaussian, Inc.),
 the Gaussian 86(TM) system (copyright 1986, Carnegie Mellon
 University), and the Gaussian 82(TM) system (copyright 1983,
 Carnegie Mellon University). Gaussian is a federally registered
 trademark of Gaussian, Inc.
  
 This software contains proprietary and confidential information,
 including trade secrets, belonging to Gaussian, Inc.
  
 This software is provided under written license and may be
 used, copied, transmitted, or stored only in accord with that
 written license.
  
 The following legend is applicable only to US Government
 contracts under FAR:
  
                    RESTRICTED RIGHTS LEGEND
  
 Use, reproduction and disclosure by the US Government is
 subject to restrictions as set forth in subparagraphs (a)
 and (c) of the Commercial Computer Software - Restricted
 Rights clause in FAR 52.227-19.
  
 Gaussian, Inc.
 340 Quinnipiac St., Bldg. 40, Wallingford CT 06492
  
  
 ---------------------------------------------------------------
 Warning -- This program may not be used in any manner that
 competes with the business of Gaussian, Inc. or will provide
 assistance to any competitor of Gaussian, Inc.  The licensee
 of this program is prohibited from giving any competitor of
 Gaussian, Inc. access to this program.  By using this program,
 the user acknowledges that Gaussian, Inc. is engaged in the
 business of creating and licensing software in the field of
 computational chemistry and represents and warrants to the
 licensee that it is not a competitor of Gaussian, Inc. and that
 it will not use this program in any manner prohibited above.
 ---------------------------------------------------------------
  

 Cite this work as:
 Gaussian 16, Revision B.01,
 M. J. Frisch, G. W. Trucks, H. B. Schlegel, G. E. Scuseria, 
 M. A. Robb, J. R. Cheeseman, G. Scalmani, V. Barone, 
 G. A. Petersson, H. Nakatsuji, X. Li, M. Caricato, A. V. Marenich, 
 J. Bloino, B. G. Janesko, R. Gomperts, B. Mennucci, H. P. Hratchian, 
 J. V. Ortiz, A. F. Izmaylov, J. L. Sonnenberg, D. Williams-Young, 
 F. Ding, F. Lipparini, F. Egidi, J. Goings, B. Peng, A. Petrone, 
 T. Henderson, D. Ranasinghe, V. G. Zakrzewski, J. Gao, N. Rega, 
 G. Zheng, W. Liang, M. Hada, M. Ehara, K. Toyota, R. Fukuda, 
 J. Hasegawa, M. Ishida, T. Nakajima, Y. Honda, O. Kitao, H. Nakai, 
 T. Vreven, K. Throssell, J. A. Montgomery, Jr., J. E. Peralta, 
 F. Ogliaro, M. J. Bearpark, J. J. Heyd, E. N. Brothers, K. N. Kudin, 
 V. N. Staroverov, T. A. Keith, R. Kobayashi, J. Normand, 
 K. Raghavachari, A. P. Rendell, J. C. Burant, S. S. Iyengar, 
 J. Tomasi, M. Cossi, J. M. Millam, M. Klene, C. Adamo, R. Cammi, 
 J. W. Ochterski, R. L. Martin, K. Morokuma, O. Farkas, 
 J. B. Foresman, and D. J. Fox, Gaussian, Inc., Wallingford CT, 2016.
 
 ******************************************
 Gaussian 16:  ES64L-G16RevB.01 20-Dec-2017
                 3-Aug-2020 
 ******************************************
 %nproc=24
 Will use up to   24 processors via shared memory.
 %mem=48GB
 ----------------------------------------------------------------------
 #p uwb97xd guess=mix def2tzvp # scrf=(iefpcm,solvent=Cyclohexane,read)
  nosym 6d 10f
 ----------------------------------------------------------------------
 1/38=1,40=2,172=1/1;
 2/12=2,15=1,17=6,18=5,40=1/2;
 3/5=44,7=101,8=22,11=2,25=1,30=1,70=2203,72=17,74=-58,116=2/1,2,3;
 4/13=-1/1;
 5/5=2,38=5,53=17/2;
 6/7=2,8=2,9=2,10=2,28=1/1;
 99/5=1,9=1/99;
 Leave Link    1 at Mon Aug  3 16:53:42 2020, MaxMem=  6442450944 cpu:               1.7 elap:               0.1
 (Enter /scratch/scicomp/CentOS/7.3.1611/Haswell/software/Gaussian/g16/l101.exe)
 -----------------------
 endo-2 xp-pcm for eta=3
 -----------------------
 Symbolic Z-matrix:
 Charge =  0 Multiplicity = 1
 6                    -3.11913  -0.42421   0.24875 
 6                    -0.41172  -0.11762  -0.69084 
 1                    -4.08958  -0.5461    0.714 
 1                     0.3311   -0.10625  -1.49222 
 6                     1.11322   1.43375   0.65615 
 6                     0.41172   0.11762   0.69084 
 1                     0.57554   2.33229   0.93198 
 1                    -0.3311    0.10625   1.49222 
 6                     1.44301  -0.99389   0.9656 
 1                     1.8466   -0.84722   1.97102 
 1                     0.95777  -1.97142   0.9566 
 6                     2.39326   1.5312    0.12958 
 1                     2.83489   2.51373   0.00292 
 6                     3.11913   0.42421  -0.24875 
 1                     4.08958   0.5461   -0.714 
 6                     2.59244  -0.96087  -0.04308 
 1                     2.25401  -1.36584  -1.0064 
 1                     3.39902  -1.62452   0.2803 
 6                    -1.11322  -1.43375  -0.65615 
 1                    -0.57554  -2.33229  -0.93198 
 6                    -2.39326  -1.5312   -0.12958 
 1                    -2.83489  -2.51373  -0.00292 
 6                    -1.44301   0.99389  -0.9656 
 1                    -0.95777   1.97142  -0.9566 
 1                    -1.8466    0.84722  -1.97102 
 6                    -2.59244   0.96087   0.04308 
 1                    -3.39902   1.62452  -0.2803 
 1                    -2.25401   1.36584   1.0064 
 
 ITRead=  0  0  0  0  0  0  0  0  0  0  0  0  0  0  0  0  0  0  0  0
 ITRead=  0  0  0  0  0  0  0  0
 MicOpt= -1 -1 -1 -1 -1 -1 -1 -1 -1 -1 -1 -1 -1 -1 -1 -1 -1 -1 -1 -1
 MicOpt= -1 -1 -1 -1 -1 -1 -1 -1
 NAtoms=     28 NQM=       28 NQMF=       0 NMMI=      0 NMMIF=      0
                NMic=       0 NMicF=      0.
                    Isotopes and Nuclear Properties:
 (Nuclear quadrupole moments (NQMom) in fm**2, nuclear magnetic moments (NMagM)
  in nuclear magnetons)

  Atom         1           2           3           4           5           6           7           8           9          10
 IAtWgt=          12          12           1           1          12          12           1           1          12           1
 AtmWgt=  12.0000000  12.0000000   1.0078250   1.0078250  12.0000000  12.0000000   1.0078250   1.0078250  12.0000000   1.0078250
 NucSpn=           0           0           1           1           0           0           1           1           0           1
 AtZEff=  -0.0000000  -0.0000000  -0.0000000  -0.0000000  -0.0000000  -0.0000000  -0.0000000  -0.0000000  -0.0000000  -0.0000000
 NQMom=    0.0000000   0.0000000   0.0000000   0.0000000   0.0000000   0.0000000   0.0000000   0.0000000   0.0000000   0.0000000
 NMagM=    0.0000000   0.0000000   2.7928460   2.7928460   0.0000000   0.0000000   2.7928460   2.7928460   0.0000000   2.7928460
 AtZNuc=   6.0000000   6.0000000   1.0000000   1.0000000   6.0000000   6.0000000   1.0000000   1.0000000   6.0000000   1.0000000

  Atom        11          12          13          14          15          16          17          18          19          20
 IAtWgt=           1          12           1          12           1          12           1           1          12           1
 AtmWgt=   1.0078250  12.0000000   1.0078250  12.0000000   1.0078250  12.0000000   1.0078250   1.0078250  12.0000000   1.0078250
 NucSpn=           1           0           1           0           1           0           1           1           0           1
 AtZEff=  -0.0000000  -0.0000000  -0.0000000  -0.0000000  -0.0000000  -0.0000000  -0.0000000  -0.0000000  -0.0000000  -0.0000000
 NQMom=    0.0000000   0.0000000   0.0000000   0.0000000   0.0000000   0.0000000   0.0000000   0.0000000   0.0000000   0.0000000
 NMagM=    2.7928460   0.0000000   2.7928460   0.0000000   2.7928460   0.0000000   2.7928460   2.7928460   0.0000000   2.7928460
 AtZNuc=   1.0000000   6.0000000   1.0000000   6.0000000   1.0000000   6.0000000   1.0000000   1.0000000   6.0000000   1.0000000

  Atom        21          22          23          24          25          26          27          28
 IAtWgt=          12           1          12           1           1          12           1           1
 AtmWgt=  12.0000000   1.0078250  12.0000000   1.0078250   1.0078250  12.0000000   1.0078250   1.0078250
 NucSpn=           0           1           0           1           1           0           1           1
 AtZEff=  -0.0000000  -0.0000000  -0.0000000  -0.0000000  -0.0000000  -0.0000000  -0.0000000  -0.0000000
 NQMom=    0.0000000   0.0000000   0.0000000   0.0000000   0.0000000   0.0000000   0.0000000   0.0000000
 NMagM=    0.0000000   2.7928460   0.0000000   2.7928460   2.7928460   0.0000000   2.7928460   2.7928460
 AtZNuc=   6.0000000   1.0000000   6.0000000   1.0000000   1.0000000   6.0000000   1.0000000   1.0000000
 Leave Link  101 at Mon Aug  3 16:53:42 2020, MaxMem=  6442450944 cpu:               2.4 elap:               0.1
 (Enter /scratch/scicomp/CentOS/7.3.1611/Haswell/software/Gaussian/g16/l202.exe)
                          Input orientation:                          
 ---------------------------------------------------------------------
 Center     Atomic      Atomic             Coordinates (Angstroms)
 Number     Number       Type             X           Y           Z
 ---------------------------------------------------------------------
      1          6           0       -3.119127   -0.424214    0.248750
      2          6           0       -0.411716   -0.117621   -0.690842
      3          1           0       -4.089584   -0.546101    0.713998
      4          1           0        0.331104   -0.106248   -1.492216
      5          6           0        1.113220    1.433745    0.656146
      6          6           0        0.411716    0.117621    0.690842
      7          1           0        0.575541    2.332289    0.931979
      8          1           0       -0.331104    0.106248    1.492216
      9          6           0        1.443013   -0.993893    0.965601
     10          1           0        1.846597   -0.847218    1.971019
     11          1           0        0.957769   -1.971415    0.956603
     12          6           0        2.393256    1.531202    0.129580
     13          1           0        2.834891    2.513727    0.002918
     14          6           0        3.119127    0.424214   -0.248750
     15          1           0        4.089584    0.546101   -0.713998
     16          6           0        2.592435   -0.960873   -0.043075
     17          1           0        2.254014   -1.365839   -1.006400
     18          1           0        3.399024   -1.624515    0.280295
     19          6           0       -1.113220   -1.433745   -0.656146
     20          1           0       -0.575541   -2.332289   -0.931979
     21          6           0       -2.393256   -1.531202   -0.129580
     22          1           0       -2.834891   -2.513727   -0.002918
     23          6           0       -1.443013    0.993893   -0.965601
     24          1           0       -0.957769    1.971415   -0.956603
     25          1           0       -1.846597    0.847218   -1.971019
     26          6           0       -2.592435    0.960873    0.043075
     27          1           0       -3.399023    1.624515   -0.280295
     28          1           0       -2.254014    1.365839    1.006400
 ---------------------------------------------------------------------
                    Distance matrix (angstroms):
                    1          2          3          4          5
     1  C    0.000000
     2  C    2.882170   0.000000
     3  H    1.083097   3.960288   0.000000
     4  H    3.877649   1.092754   4.960175   0.000000
     5  C    4.640123   2.558621   5.567073   2.756582   0.000000
     6  C    3.599428   1.625555   4.550029   2.195987   1.491809
     7  H    4.660009   3.100046   5.485985   3.447163   1.082850
     8  H    3.098495   2.195987   3.893245   3.064394   2.132448
     9  C    4.653121   2.636603   5.556388   2.839915   2.469403
    10  H    5.272908   3.566202   6.075279   3.852240   2.733043
    11  H    4.417688   2.833040   5.250348   3.141381   3.421923
    12  C    5.850147   3.355529   6.832565   3.092561   1.387538
    13  H    6.643964   4.236243   7.603719   3.920286   2.134764
    14  C    6.315311   3.599428   7.337159   3.098495   2.421085
    15  H    7.337159   4.550029   8.374417   3.893245   3.394694
    16  C    5.744137   3.186785   6.737549   2.818512   2.900204
    17  H    5.597562   2.960362   6.623668   2.349504   3.450093
    18  H    6.627821   4.211363   7.578280   3.854746   3.836550
    19  C    2.421085   1.491809   3.394694   2.132448   3.860265
    20  H    3.391858   2.233773   4.271792   2.468021   4.422337
    21  C    1.376752   2.497945   2.135316   3.362946   4.658718
    22  H    2.123721   3.476541   2.441265   4.247056   5.621786
    23  C    2.508991   1.540951   3.492416   2.152934   3.059062
    24  H    3.444326   2.175517   4.351673   2.502950   2.679374
    25  H    2.857140   2.151430   3.765852   2.425022   4.000816
    26  C    1.496052   2.541126   2.227681   3.470295   3.785676
    27  H    2.134367   3.482469   2.485371   4.286973   4.612337
    28  H    2.127615   2.911245   2.666520   3.884966   3.386082
                    6          7          8          9         10
     6  C    0.000000
     7  H    2.233773   0.000000
     8  H    1.092754   2.468021   0.000000
     9  C    1.540951   3.437605   2.152934   0.000000
    10  H    2.151430   3.578331   2.425022   1.093279   0.000000
    11  H    2.175517   4.320714   2.502950   1.091372   1.755811
    12  C    2.497945   2.142352   3.362946   2.824535   3.057223
    13  H    3.476541   2.449640   4.247056   3.894545   4.018221
    14  C    2.882170   3.391858   3.877649   2.508991   2.857140
    15  H    3.960288   4.271792   4.960175   3.492416   3.765852
    16  C    2.541126   3.982902   3.470295   1.529604   2.150759
    17  H    2.911245   4.500082   3.884966   2.164452   3.049587
    18  H    3.482470   4.904391   4.286974   2.166404   2.423379
    19  C    2.558621   4.422337   2.756582   3.059062   4.000816
    20  H    3.100046   5.153408   3.447163   3.076796   4.061968
    21  C    3.355529   4.986705   3.092561   4.025554   4.780869
    22  H    4.236243   5.999079   3.920286   4.642024   5.346963
    23  C    2.636603   3.076796   2.839915   4.001247   4.778594
    24  H    2.833040   2.459271   3.141381   4.272198   4.937624
    25  H    3.566202   4.061968   3.852240   4.778594   5.661312
    26  C    3.186785   3.564689   2.818512   4.577882   5.166349
    27  H    4.211362   4.215176   3.854745   5.643902   6.220483
    28  H    2.960362   2.990977   2.349504   4.386115   4.758479
                   11         12         13         14         15
    11  H    0.000000
    12  C    3.874650   0.000000
    13  H    4.954755   1.084638   0.000000
    14  C    3.444326   1.376752   2.123721   0.000000
    15  H    4.351673   2.135316   2.441265   1.083097   0.000000
    16  C    2.166260   2.505977   3.483353   1.496052   2.227681
    17  H    2.429064   3.114913   4.050577   2.127615   2.666520
    18  H    2.556845   3.315544   4.185717   2.134367   2.485370
    19  C    2.679374   4.658718   5.621786   4.640123   5.567073
    20  H    2.459271   4.986705   5.999079   4.660009   5.485985
    21  C    3.550063   5.688249   6.611545   5.850147   6.832565
    22  H    3.949564   6.611545   7.577714   6.643964   7.603719
    23  C    4.272198   4.025554   4.642024   4.653121   5.556388
    24  H    4.782839   3.550063   3.949564   4.417688   5.250348
    25  H    4.937624   4.780869   5.346963   5.272908   6.075279
    26  C    4.694336   5.018951   5.645249   5.744137   6.737549
    27  H    5.782929   5.807512   6.303379   6.627820   7.578279
    28  H    4.631986   4.732153   5.312398   5.597562   6.623668
                   16         17         18         19         20
    16  C    0.000000
    17  H    1.098418   0.000000
    18  H    1.093423   1.741708   0.000000
    19  C    3.785676   3.386082   4.612338   0.000000
    20  H    3.564689   2.990977   4.215177   1.082850   0.000000
    21  C    5.018951   4.732153   5.807513   1.387538   2.142352
    22  H    5.645249   5.312398   6.303380   2.134764   2.449640
    23  C    4.577882   4.386115   5.643903   2.469403   3.437605
    24  H    4.694336   4.631986   5.782930   3.421923   4.320714
    25  H    5.166349   4.758479   6.220484   2.733043   3.578331
    26  C    5.530227   5.477504   6.529784   2.900204   3.982902
    27  H    6.529784   6.436324   7.555389   3.836550   4.904390
    28  H    5.477504   5.642317   6.436325   3.450093   4.500082
                   21         22         23         24         25
    21  C    0.000000
    22  H    1.084638   0.000000
    23  C    2.824535   3.894545   0.000000
    24  H    3.874650   4.954755   1.091372   0.000000
    25  H    3.057223   4.018221   1.093279   1.755811   0.000000
    26  C    2.505977   3.483353   1.529604   2.166260   2.150759
    27  H    3.315544   4.185717   2.166403   2.556844   2.423379
    28  H    3.114913   4.050577   2.164452   2.429064   3.049587
                   26         27         28
    26  C    0.000000
    27  H    1.093423   0.000000
    28  H    1.098418   1.741707   0.000000
 Symmetry turned off by external request.
 Stoichiometry    C12H16
 Framework group  CI[X(C12H16)]
 Deg. of freedom    39
 Full point group                 CI      NOp   2
 Rotational constants (GHZ):           1.9934721           0.6464597           0.5547569
 Leave Link  202 at Mon Aug  3 16:53:42 2020, MaxMem=  6442450944 cpu:               0.3 elap:               0.1
 (Enter /scratch/scicomp/CentOS/7.3.1611/Haswell/software/Gaussian/g16/l301.exe)
 Standard basis: def2TZVP (6D, 10F)
 Ernie: Thresh=  0.10000D-02 Tol=  0.10000D-05 Strict=F.
   528 basis functions,   740 primitive gaussians,   528 cartesian basis functions
    44 alpha electrons       44 beta electrons
       nuclear repulsion energy       695.3715821447 Hartrees.
 IExCor= 4639 DFT=T Ex+Corr=wB97XD ExCW=0 ScaHFX=  1.000000
 ScaDFX=  1.000000  1.000000  1.000000  1.000000 ScalE2=  1.000000  1.000000
 IRadAn=      5 IRanWt=     -1 IRanGd=            0 ICorTp=0 IEmpDi=121
 HFx  wShort=  0.000000 wLong=  0.200000 cFull=  0.222036 cShort=  0.000000 cLong=  0.777964
 DFx  wShort=  0.000000 wLong=  0.200000 cFull=  0.000000 cShort=  0.000000 cLong=  1.000000
 NAtoms=   28 NActive=   28 NUniq=   28 SFac= 1.00D+00 NAtFMM=   60 NAOKFM=F Big=F
 Integral buffers will be    131072 words long.
 Raffenetti 2 integral format.
 Two-electron integral symmetry is turned off.
 R6Disp:  Grimme-D2 Dispersion energy=       -0.0228650701 Hartrees.
 Nuclear repulsion after empirical dispersion term =      695.3487170746 Hartrees.
 Using the following non-standard input for PCM:
 norep pcmdoc geomview  nodis nocav g03defaults tsare=0.075
 Warning! Using old PCM defaults because the g03defaults keyword was found.
 These settings can be overridden by following keywords.
 nsfe=28
 NVESolv=36  SolvMW=84.1595   Rsolv=2.815
 eps=2.0165 RhoS=0.7781
 --- end of non-standard input.
 Reading user-defined spheres from input:
 ISph  on   Nord    Re0     Alpha      Xe            Ye            Ze
 --- end of user-defined spheres data.
 ------------------------------------------------------------------------------
 Polarizable Continuum Model (PCM)
 =================================
 Model                : PCM.
 Atomic radii         : UA0 (Simple United Atom Topological Model).
 Polarization charges : Total charges.
 Charge compensation  : None.
 Solution method      : On-the-fly selection.
 Cavity type          : SES (Solvent Excluding Surface) (Alpha=1.000).
 Cavity algorithm     : GePol (RMin=0.200 OFac=0.890).
                        User-defined sphere list used, NSphG=   28.
                        Tesserae with average area of 0.075 Ang**2.
                        Smoothing algorithm: None.
                        Polarization charges: point-like.
                        Self-potential: constant (ISelfS= 1).
                        Self-field    : global E.n sum rule (ISelfD= 3).
 Solvent              : CycloHexane, Eps=   2.016500 Eps(inf)=   2.035188
                        RSolv=   2.815000 Ang.
 ------------------------------------------------------------------------------
 GePol: Number of generator spheres                  =      28
 GePol: Total number of spheres                      =     155
 GePol: Number of exposed spheres                    =     113 ( 72.90%)
 GePol: Number of tesserae                           =    4604
 GePol: Average area of tesserae                     =       0.05 Ang**2
 GePol: Minimum area of tessera                      =   0.10D-02 Ang**2
 GePol: Maximum area of tessera                      =    0.12395 Ang**2
 GePol: Number of small tesserae                     =       0
 GePol: Fraction of small tesserae (<1% of avg)      =       0.00%
 GePol: Total count of vertices                      =   16236
 GePol: Maximum number of vertices in a tessera      =       7
 GePol: Cavity surface area                          =    218.424 Ang**2
 GePol: Cavity volume                                =    244.795 Ang**3
 Leave Link  301 at Mon Aug  3 16:53:43 2020, MaxMem=  6442450944 cpu:               7.2 elap:               0.3
 (Enter /scratch/scicomp/CentOS/7.3.1611/Haswell/software/Gaussian/g16/l302.exe)
 NPDir=0 NMtPBC=     1 NCelOv=     1 NCel=       1 NClECP=     1 NCelD=      1
         NCelK=      1 NCelE2=     1 NClLst=     1 CellRange=     0.0.
 One-electron integrals computed using PRISM.
   1 Symmetry operations used in ECPInt.
 ECPInt:  NShTT=   19306 NPrTT=   56928 LenC2=   18538 LenP2D=   42322.
 LDataN:  DoStor=T MaxTD1= 6 Len=  172
 NBasis=   528 RedAO= T EigKep=  2.60D-05  NBF=   528
 NBsUse=   528 1.00D-06 EigRej= -1.00D+00 NBFU=   528
 Precomputing XC quadrature grid using
 IXCGrd= 4 IRadAn=           5 IRanWt=          -1 IRanGd=           0 AccXCQ= 0.00D+00.
 Generated NRdTot=       0 NPtTot=           0 NUsed=           0 NTot=          32
 NSgBfM=   526   526   526   526   526 MxSgAt=    28 MxSgA2=    28.
 Leave Link  302 at Mon Aug  3 16:53:43 2020, MaxMem=  6442450944 cpu:              12.7 elap:               0.6
 (Enter /scratch/scicomp/CentOS/7.3.1611/Haswell/software/Gaussian/g16/l303.exe)
 DipDrv:  MaxL=1.
 Leave Link  303 at Mon Aug  3 16:53:43 2020, MaxMem=  6442450944 cpu:               1.5 elap:               0.1
 (Enter /scratch/scicomp/CentOS/7.3.1611/Haswell/software/Gaussian/g16/l401.exe)
 ExpMin= 9.52D-02 ExpMax= 1.36D+04 ExpMxC= 4.63D+02 IAcc=3 IRadAn=         5 AccDes= 0.00D+00
 Harris functional with IExCor= 4639 and IRadAn=       5 diagonalized for initial guess.
 HarFok:  IExCor= 4639 AccDes= 0.00D+00 IRadAn=         5 IDoV= 1 UseB2=F ITyADJ=14
 ICtDFT=  3500011 ScaDFX=  1.000000  1.000000  1.000000  1.000000
 FoFCou: FMM=F IPFlag=           0 FMFlag=      100000 FMFlg1=           0
         NFxFlg=           0 DoJE=T BraDBF=F KetDBF=T FulRan=T
         wScrn=  0.000000 ICntrl=       500 IOpCl=  0 I1Cent=   200000004 NGrid=           0
         NMat0=    1 NMatS0=      1 NMatT0=    0 NMatD0=    1 NMtDS0=    0 NMtDT0=    0
 Symmetry not used in FoFCou.
 Harris En= -444.605566966634    
 JPrj=0 DoOrth=F DoCkMO=T.
 Mixing orbitals, IMix= 1 IMixAn=  0 NRI=1 NE=   44 Coef=  7.07106781D-01  7.07106781D-01
 Mixing orbitals, IMix= 1 IMixAn=  0 NRI=1 NE=   44 Coef= -7.07106781D-01  7.07106781D-01
 Initial guess <Sx>= 0.0000 <Sy>= 0.0000 <Sz>= 0.0000 <S**2>= 1.0000 S= 0.6180
 Leave Link  401 at Mon Aug  3 16:53:46 2020, MaxMem=  6442450944 cpu:              49.1 elap:               2.1
 (Enter /scratch/scicomp/CentOS/7.3.1611/Haswell/software/Gaussian/g16/l502.exe)
 Two-electron integral symmetry not used.
 UHF open shell SCF:
 Using DIIS extrapolation, IDIIS=  1040.
 NGot=  6442450944 LenX=  6441877030 LenY=  6441597718
 Requested convergence on RMS density matrix=1.00D-08 within 128 cycles.
 Requested convergence on MAX density matrix=1.00D-06.
 Requested convergence on             energy=1.00D-06.
 No special actions if energy rises.
 Fock matrices will be formed incrementally for  20 cycles.

 Cycle   1  Pass 1  IDiag  1:
 FoFJK:  IHMeth= 1 ICntrl=       0 DoSepK=T KAlg= 0 I1Cent=           0 FoldK=F
 IRaf=         1 NMat=       1 IRICut=       1 DoRegI=T DoRafI=F ISym2E= 0 IDoP0=0 IntGTp=1.
 FoFCou: FMM=F IPFlag=           0 FMFlag=      100000 FMFlg1=           0
         NFxFlg=           0 DoJE=T BraDBF=F KetDBF=F FulRan=T
         wScrn=  0.000000 ICntrl=       500 IOpCl=  0 I1Cent=           0 NGrid=           0
         NMat0=    1 NMatS0=      1 NMatT0=    0 NMatD0=    1 NMtDS0=    0 NMtDT0=    0
 Symmetry not used in FoFCou.
 Inv3:  Mode=1 IEnd=    63590448.
 Iteration    1 A*A^-1 deviation from unit magnitude is 3.77D-15 for   2331.
 Iteration    1 A*A^-1 deviation from orthogonality  is 1.44D-15 for   2307   1552.
 Iteration    1 A^-1*A deviation from unit magnitude is 4.00D-15 for   1147.
 Iteration    1 A^-1*A deviation from orthogonality  is 1.49D-15 for   3206   3196.
 E= -466.692062774647    
 DIIS: error= 6.42D-02 at cycle   1 NSaved=   1.
 NSaved= 1 IEnMin= 1 EnMin= -466.692062774647     IErMin= 1 ErrMin= 6.42D-02
 ErrMax= 6.42D-02  0.00D+00 EMaxC= 1.00D-01 BMatC= 4.10D+00 BMatP= 4.10D+00
 IDIUse=3 WtCom= 3.58D-01 WtEn= 6.42D-01
 Coeff-Com:  0.100D+01
 Coeff-En:   0.100D+01
 Coeff:      0.100D+01
 Gap=     0.232 Goal=   None    Shift=    0.000
 Gap=     0.232 Goal=   None    Shift=    0.000
 GapD=    0.232 DampG=1.000 DampE=0.500 DampFc=0.5000 IDamp=-1.
 Damping current iteration by 5.00D-01
 RMSDP=1.36D-03 MaxDP=9.22D-02              OVMax= 5.62D-02

 Cycle   2  Pass 1  IDiag  1:
 RMSU=  6.65D-04    CP:  9.76D-01
 E= -466.762053881483     Delta-E=       -0.069991106836 Rises=F Damp=T
 DIIS: error= 3.04D-02 at cycle   2 NSaved=   2.
 NSaved= 2 IEnMin= 2 EnMin= -466.762053881483     IErMin= 2 ErrMin= 3.04D-02
 ErrMax= 3.04D-02  0.00D+00 EMaxC= 1.00D-01 BMatC= 9.19D-01 BMatP= 4.10D+00
 IDIUse=3 WtCom= 6.96D-01 WtEn= 3.04D-01
 Coeff-Com: -0.862D+00 0.186D+01
 Coeff-En:   0.000D+00 0.100D+01
 Coeff:     -0.601D+00 0.160D+01
 Gap=     0.240 Goal=   None    Shift=    0.000
 Gap=     0.240 Goal=   None    Shift=    0.000
 RMSDP=8.19D-04 MaxDP=4.85D-02 DE=-7.00D-02 OVMax= 3.17D-02

 Cycle   3  Pass 1  IDiag  1:
 RMSU=  4.18D-04    CP:  9.48D-01  2.03D+00
 E= -466.830418116848     Delta-E=       -0.068364235365 Rises=F Damp=F
 DIIS: error= 2.49D-03 at cycle   3 NSaved=   3.
 NSaved= 3 IEnMin= 3 EnMin= -466.830418116848     IErMin= 3 ErrMin= 2.49D-03
 ErrMax= 2.49D-03  0.00D+00 EMaxC= 1.00D-01 BMatC= 1.64D-02 BMatP= 9.19D-01
 IDIUse=3 WtCom= 9.75D-01 WtEn= 2.49D-02
 Coeff-Com: -0.301D+00 0.652D+00 0.649D+00
 Coeff-En:   0.000D+00 0.000D+00 0.100D+01
 Coeff:     -0.293D+00 0.635D+00 0.658D+00
 Gap=     0.244 Goal=   None    Shift=    0.000
 Gap=     0.244 Goal=   None    Shift=    0.000
 RMSDP=1.06D-04 MaxDP=4.70D-03 DE=-6.84D-02 OVMax= 1.27D-02

 Cycle   4  Pass 1  IDiag  1:
 RMSU=  8.62D-05    CP:  9.46D-01  2.09D+00  9.03D-01
 E= -466.834660147471     Delta-E=       -0.004242030624 Rises=F Damp=F
 DIIS: error= 9.57D-04 at cycle   4 NSaved=   4.
 NSaved= 4 IEnMin= 4 EnMin= -466.834660147471     IErMin= 4 ErrMin= 9.57D-04
 ErrMax= 9.57D-04  0.00D+00 EMaxC= 1.00D-01 BMatC= 5.46D-04 BMatP= 1.64D-02
 IDIUse=3 WtCom= 9.90D-01 WtEn= 9.57D-03
 Coeff-Com:  0.112D+00-0.242D+00-0.141D+00 0.127D+01
 Coeff-En:   0.000D+00 0.000D+00 0.000D+00 0.100D+01
 Coeff:      0.111D+00-0.240D+00-0.140D+00 0.127D+01
 Gap=     0.250 Goal=   None    Shift=    0.000
 Gap=     0.250 Goal=   None    Shift=    0.000
 RMSDP=7.64D-05 MaxDP=4.81D-03 DE=-4.24D-03 OVMax= 1.24D-02

 Cycle   5  Pass 1  IDiag  1:
 RMSU=  3.24D-05    CP:  9.45D-01  2.13D+00  1.03D+00  1.45D+00
 E= -466.835301398668     Delta-E=       -0.000641251196 Rises=F Damp=F
 DIIS: error= 4.77D-04 at cycle   5 NSaved=   5.
 NSaved= 5 IEnMin= 5 EnMin= -466.835301398668     IErMin= 5 ErrMin= 4.77D-04
 ErrMax= 4.77D-04  0.00D+00 EMaxC= 1.00D-01 BMatC= 1.28D-04 BMatP= 5.46D-04
 IDIUse=3 WtCom= 9.95D-01 WtEn= 4.77D-03
 Coeff-Com:  0.398D-01-0.865D-01-0.819D-01 0.334D-01 0.110D+01
 Coeff-En:   0.000D+00 0.000D+00 0.000D+00 0.000D+00 0.100D+01
 Coeff:      0.396D-01-0.861D-01-0.815D-01 0.332D-01 0.109D+01
 Gap=     0.252 Goal=   None    Shift=    0.000
 Gap=     0.252 Goal=   None    Shift=    0.000
 RMSDP=2.88D-05 MaxDP=1.60D-03 DE=-6.41D-04 OVMax= 6.81D-03

 Cycle   6  Pass 1  IDiag  1:
 RMSU=  1.46D-05    CP:  9.44D-01  2.13D+00  1.05D+00  1.63D+00  1.50D+00
 E= -466.835444165293     Delta-E=       -0.000142766625 Rises=F Damp=F
 DIIS: error= 2.30D-04 at cycle   6 NSaved=   6.
 NSaved= 6 IEnMin= 6 EnMin= -466.835444165293     IErMin= 6 ErrMin= 2.30D-04
 ErrMax= 2.30D-04  0.00D+00 EMaxC= 1.00D-01 BMatC= 4.85D-05 BMatP= 1.28D-04
 IDIUse=3 WtCom= 9.98D-01 WtEn= 2.30D-03
 Coeff-Com: -0.225D-01 0.483D-01 0.150D-01-0.423D+00 0.461D+00 0.921D+00
 Coeff-En:   0.000D+00 0.000D+00 0.000D+00 0.000D+00 0.000D+00 0.100D+01
 Coeff:     -0.224D-01 0.482D-01 0.150D-01-0.422D+00 0.460D+00 0.922D+00
 Gap=     0.253 Goal=   None    Shift=    0.000
 Gap=     0.253 Goal=   None    Shift=    0.000
 RMSDP=1.61D-05 MaxDP=1.06D-03 DE=-1.43D-04 OVMax= 4.19D-03

 Cycle   7  Pass 1  IDiag  1:
 RMSU=  8.19D-06    CP:  9.44D-01  2.13D+00  1.06D+00  1.70D+00  1.85D+00
                    CP:  1.19D+00
 E= -466.835483671362     Delta-E=       -0.000039506069 Rises=F Damp=F
 DIIS: error= 6.01D-05 at cycle   7 NSaved=   7.
 NSaved= 7 IEnMin= 7 EnMin= -466.835483671362     IErMin= 7 ErrMin= 6.01D-05
 ErrMax= 6.01D-05  0.00D+00 EMaxC= 1.00D-01 BMatC= 3.29D-06 BMatP= 4.85D-05
 IDIUse=1 WtCom= 1.00D+00 WtEn= 0.00D+00
 Coeff-Com: -0.959D-02 0.208D-01 0.120D-01-0.979D-01-0.220D-01 0.205D+00
 Coeff-Com:  0.892D+00
 Coeff:     -0.959D-02 0.208D-01 0.120D-01-0.979D-01-0.220D-01 0.205D+00
 Coeff:      0.892D+00
 Gap=     0.254 Goal=   None    Shift=    0.000
 Gap=     0.254 Goal=   None    Shift=    0.000
 RMSDP=4.84D-06 MaxDP=3.20D-04 DE=-3.95D-05 OVMax= 1.11D-03

 Cycle   8  Pass 1  IDiag  1:
 RMSU=  2.24D-06    CP:  9.44D-01  2.13D+00  1.06D+00  1.70D+00  1.91D+00
                    CP:  1.37D+00  1.20D+00
 E= -466.835486273027     Delta-E=       -0.000002601665 Rises=F Damp=F
 DIIS: error= 3.16D-05 at cycle   8 NSaved=   8.
 NSaved= 8 IEnMin= 8 EnMin= -466.835486273027     IErMin= 8 ErrMin= 3.16D-05
 ErrMax= 3.16D-05  0.00D+00 EMaxC= 1.00D-01 BMatC= 5.55D-07 BMatP= 3.29D-06
 IDIUse=1 WtCom= 1.00D+00 WtEn= 0.00D+00
 Coeff-Com:  0.423D-03-0.890D-03 0.143D-02 0.343D-01-0.753D-01-0.801D-01
 Coeff-Com:  0.249D+00 0.871D+00
 Coeff:      0.423D-03-0.890D-03 0.143D-02 0.343D-01-0.753D-01-0.801D-01
 Coeff:      0.249D+00 0.871D+00
 Gap=     0.254 Goal=   None    Shift=    0.000
 Gap=     0.254 Goal=   None    Shift=    0.000
 RMSDP=2.10D-06 MaxDP=1.23D-04 DE=-2.60D-06 OVMax= 4.43D-04

 Cycle   9  Pass 1  IDiag  1:
 RMSU=  9.62D-07    CP:  9.44D-01  2.13D+00  1.05D+00  1.69D+00  1.92D+00
                    CP:  1.41D+00  1.37D+00  1.29D+00
 E= -466.835486651294     Delta-E=       -0.000000378266 Rises=F Damp=F
 DIIS: error= 1.33D-05 at cycle   9 NSaved=   9.
 NSaved= 9 IEnMin= 9 EnMin= -466.835486651294     IErMin= 9 ErrMin= 1.33D-05
 ErrMax= 1.33D-05  0.00D+00 EMaxC= 1.00D-01 BMatC= 6.14D-08 BMatP= 5.55D-07
 IDIUse=1 WtCom= 1.00D+00 WtEn= 0.00D+00
 Coeff-Com:  0.145D-02-0.314D-02-0.134D-02 0.219D-01-0.160D-01-0.485D-01
 Coeff-Com: -0.537D-01 0.228D+00 0.872D+00
 Coeff:      0.145D-02-0.314D-02-0.134D-02 0.219D-01-0.160D-01-0.485D-01
 Coeff:     -0.537D-01 0.228D+00 0.872D+00
 Gap=     0.254 Goal=   None    Shift=    0.000
 Gap=     0.254 Goal=   None    Shift=    0.000
 RMSDP=8.32D-07 MaxDP=5.15D-05 DE=-3.78D-07 OVMax= 1.83D-04

 Cycle  10  Pass 1  IDiag  1:
 RMSU=  3.21D-07    CP:  9.44D-01  2.13D+00  1.05D+00  1.69D+00  1.91D+00
                    CP:  1.42D+00  1.42D+00  1.49D+00  1.31D+00
 E= -466.835486697231     Delta-E=       -0.000000045938 Rises=F Damp=F
 DIIS: error= 4.44D-06 at cycle  10 NSaved=  10.
 NSaved=10 IEnMin=10 EnMin= -466.835486697231     IErMin=10 ErrMin= 4.44D-06
 ErrMax= 4.44D-06  0.00D+00 EMaxC= 1.00D-01 BMatC= 4.87D-09 BMatP= 6.14D-08
 IDIUse=1 WtCom= 1.00D+00 WtEn= 0.00D+00
 Coeff-Com: -0.106D-03 0.229D-03-0.849D-04-0.435D-02 0.775D-02 0.101D-01
 Coeff-Com: -0.206D-01-0.943D-01-0.349D-01 0.114D+01
 Coeff:     -0.106D-03 0.229D-03-0.849D-04-0.435D-02 0.775D-02 0.101D-01
 Coeff:     -0.206D-01-0.943D-01-0.349D-01 0.114D+01
 Gap=     0.254 Goal=   None    Shift=    0.000
 Gap=     0.254 Goal=   None    Shift=    0.000
 RMSDP=3.62D-07 MaxDP=2.94D-05 DE=-4.59D-08 OVMax= 7.62D-05

 Cycle  11  Pass 1  IDiag  1:
 RMSU=  1.13D-07    CP:  9.44D-01  2.13D+00  1.05D+00  1.69D+00  1.91D+00
                    CP:  1.41D+00  1.43D+00  1.56D+00  1.53D+00  1.43D+00
 E= -466.835486702754     Delta-E=       -0.000000005523 Rises=F Damp=F
 DIIS: error= 9.98D-07 at cycle  11 NSaved=  11.
 NSaved=11 IEnMin=11 EnMin= -466.835486702754     IErMin=11 ErrMin= 9.98D-07
 ErrMax= 9.98D-07  0.00D+00 EMaxC= 1.00D-01 BMatC= 1.19D-09 BMatP= 4.87D-09
 IDIUse=1 WtCom= 1.00D+00 WtEn= 0.00D+00
 Coeff-Com: -0.231D-03 0.500D-03 0.144D-03-0.446D-02 0.481D-02 0.102D-01
 Coeff-Com: -0.689D-04-0.624D-01-0.125D+00 0.396D+00 0.781D+00
 Coeff:     -0.231D-03 0.500D-03 0.144D-03-0.446D-02 0.481D-02 0.102D-01
 Coeff:     -0.689D-04-0.624D-01-0.125D+00 0.396D+00 0.781D+00
 Gap=     0.254 Goal=   None    Shift=    0.000
 Gap=     0.254 Goal=   None    Shift=    0.000
 RMSDP=1.09D-07 MaxDP=9.10D-06 DE=-5.52D-09 OVMax= 1.99D-05

 Cycle  12  Pass 1  IDiag  1:
 RMSU=  4.17D-08    CP:  9.44D-01  2.13D+00  1.05D+00  1.69D+00  1.91D+00
                    CP:  1.41D+00  1.43D+00  1.57D+00  1.58D+00  1.58D+00
                    CP:  1.34D+00
 E= -466.835486703474     Delta-E=       -0.000000000720 Rises=F Damp=F
 DIIS: error= 3.22D-07 at cycle  12 NSaved=  12.
 NSaved=12 IEnMin=12 EnMin= -466.835486703474     IErMin=12 ErrMin= 3.22D-07
 ErrMax= 3.22D-07  0.00D+00 EMaxC= 1.00D-01 BMatC= 1.20D-10 BMatP= 1.19D-09
 IDIUse=1 WtCom= 1.00D+00 WtEn= 0.00D+00
 Coeff-Com:  0.147D-04-0.322D-04 0.563D-05 0.536D-03-0.962D-03-0.112D-02
 Coeff-Com:  0.241D-02 0.114D-01 0.442D-02-0.142D+00 0.230D-01 0.110D+01
 Coeff:      0.147D-04-0.322D-04 0.563D-05 0.536D-03-0.962D-03-0.112D-02
 Coeff:      0.241D-02 0.114D-01 0.442D-02-0.142D+00 0.230D-01 0.110D+01
 Gap=     0.254 Goal=   None    Shift=    0.000
 Gap=     0.254 Goal=   None    Shift=    0.000
 RMSDP=4.68D-08 MaxDP=2.75D-06 DE=-7.20D-10 OVMax= 7.57D-06

 Cycle  13  Pass 1  IDiag  1:
 RMSU=  1.68D-08    CP:  9.44D-01  2.13D+00  1.05D+00  1.69D+00  1.91D+00
                    CP:  1.41D+00  1.43D+00  1.57D+00  1.59D+00  1.64D+00
                    CP:  1.61D+00  1.43D+00
 E= -466.835486703631     Delta-E=       -0.000000000157 Rises=F Damp=F
 DIIS: error= 1.84D-07 at cycle  13 NSaved=  13.
 NSaved=13 IEnMin=13 EnMin= -466.835486703631     IErMin=13 ErrMin= 1.84D-07
 ErrMax= 1.84D-07  0.00D+00 EMaxC= 1.00D-01 BMatC= 2.86D-11 BMatP= 1.20D-10
 IDIUse=1 WtCom= 1.00D+00 WtEn= 0.00D+00
 Coeff-Com:  0.402D-04-0.869D-04-0.218D-04 0.811D-03-0.933D-03-0.185D-02
 Coeff-Com:  0.484D-03 0.118D-01 0.219D-01-0.878D-01-0.133D+00 0.132D+00
 Coeff-Com:  0.106D+01
 Coeff:      0.402D-04-0.869D-04-0.218D-04 0.811D-03-0.933D-03-0.185D-02
 Coeff:      0.484D-03 0.118D-01 0.219D-01-0.878D-01-0.133D+00 0.132D+00
 Coeff:      0.106D+01
 Gap=     0.254 Goal=   None    Shift=    0.000
 Gap=     0.254 Goal=   None    Shift=    0.000
 RMSDP=2.09D-08 MaxDP=9.75D-07 DE=-1.57D-10 OVMax= 4.41D-06

 Cycle  14  Pass 1  IDiag  1:
 RMSU=  8.08D-09    CP:  9.44D-01  2.13D+00  1.05D+00  1.69D+00  1.91D+00
                    CP:  1.41D+00  1.43D+00  1.57D+00  1.59D+00  1.65D+00
                    CP:  1.72D+00  1.65D+00  1.52D+00
 E= -466.835486703671     Delta-E=       -0.000000000040 Rises=F Damp=F
 DIIS: error= 1.04D-07 at cycle  14 NSaved=  14.
 NSaved=14 IEnMin=14 EnMin= -466.835486703671     IErMin=14 ErrMin= 1.04D-07
 ErrMax= 1.04D-07  0.00D+00 EMaxC= 1.00D-01 BMatC= 8.16D-12 BMatP= 2.86D-11
 IDIUse=1 WtCom= 1.00D+00 WtEn= 0.00D+00
 Coeff-Com:  0.254D-05-0.540D-05-0.252D-05 0.152D-04 0.567D-04-0.783D-04
 Coeff-Com: -0.394D-03-0.697D-03 0.307D-02 0.155D-01-0.277D-01-0.213D+00
 Coeff-Com:  0.194D+00 0.103D+01
 Coeff:      0.254D-05-0.540D-05-0.252D-05 0.152D-04 0.567D-04-0.783D-04
 Coeff:     -0.394D-03-0.697D-03 0.307D-02 0.155D-01-0.277D-01-0.213D+00
 Coeff:      0.194D+00 0.103D+01
 Gap=     0.254 Goal=   None    Shift=    0.000
 Gap=     0.254 Goal=   None    Shift=    0.000
 RMSDP=9.43D-09 MaxDP=4.30D-07 DE=-4.02D-11 OVMax= 2.61D-06

 Error on total polarization charges =  0.01165
 SCF Done:  E(UwB97XD) =  -466.835486704     A.U. after   14 cycles
            NFock= 14  Conv=0.94D-08     -V/T= 2.0062
 <Sx>= 0.0000 <Sy>= 0.0000 <Sz>= 0.0000 <S**2>= 1.0497 S= 0.6401
 <L.S>=  0.00000000000    
 KE= 4.639795264152D+02 PE=-2.472234057143D+03 EE= 8.460703269493D+02
 --------------------------------------------------------------------
 Variational PCM results
 =======================
 <psi(f)|   H    |psi(f)>                     (a.u.) =    -466.834278
 <psi(f)|H+V(f)/2|psi(f)>                     (a.u.) =    -466.835487
 (Polarized solute)-Solvent               (kcal/mol) =      -0.76
 --------------------------------------------------------------------
 Partition over spheres:
 Sphere  on Atom  Surface  Charge   GEl     GCav    GDR
    1      C1       7.56   0.010   -0.04    0.00    0.00
    2      C2       0.07  -0.000   -0.00    0.00    0.00
    3      H3       7.51  -0.010   -0.04    0.00    0.00
    4      H4       3.52  -0.004   -0.01    0.00    0.00
    5      C5       4.19   0.007   -0.04    0.00    0.00
    6      C6       0.07  -0.000    0.00    0.00    0.00
    7      H7       5.51  -0.008   -0.03    0.00    0.00
    8      H8       3.52  -0.003   -0.01    0.00    0.00
    9      C9       3.17   0.002   -0.00    0.00    0.00
   10      H10      6.15  -0.005   -0.01    0.00    0.00
   11      H11      3.76  -0.003   -0.01    0.00    0.00
   12      C12      6.91   0.011   -0.06    0.00    0.00
   13      H13      7.51  -0.010   -0.03    0.00    0.00
   14      C14      7.54   0.010   -0.04    0.00    0.00
   15      H15      7.51  -0.010   -0.04    0.00    0.00
   16      C16      3.87   0.002    0.00    0.00    0.00
   17      H17      4.85  -0.004   -0.02    0.00    0.00
   18      H18      7.54  -0.008   -0.03    0.00    0.00
   19      C19      4.62   0.008   -0.04    0.00    0.00
   20      H20      5.33  -0.007   -0.03    0.00    0.00
   21      C21      7.09   0.011   -0.06    0.00    0.00
   22      H22      7.53  -0.010   -0.03    0.00    0.00
   23      C23      3.25   0.002   -0.00    0.00    0.00
   24      H24      4.22  -0.003   -0.01    0.00    0.00
   25      H25      6.64  -0.006   -0.01    0.00    0.00
   26      C26      3.71   0.002    0.00    0.00    0.00
   27      H27      7.54  -0.008   -0.03    0.00    0.00
   28      H28      4.62  -0.005   -0.02    0.00    0.00
 Added spheres:    73.11   0.024   -0.17    0.00    0.00
 --------------------------------------------------------------------
 After PCM corrections, the energy is  -466.835486704     a.u.
 --------------------------------------------------------------------
 Annihilation of the first spin contaminant:
 S**2 before annihilation     1.0497,   after     0.5383
 Leave Link  502 at Mon Aug  3 16:58:00 2020, MaxMem=  6442450944 cpu:            6052.7 elap:             254.7
 (Enter /scratch/scicomp/CentOS/7.3.1611/Haswell/software/Gaussian/g16/l601.exe)
 Copying SCF densities to generalized density rwf, IOpCl= 1 IROHF=0.

 **********************************************************************

            Population analysis using the SCF Density.

 **********************************************************************

 Alpha  occ. eigenvalues --  -10.29417 -10.29281 -10.28861 -10.28592 -10.28430
 Alpha  occ. eigenvalues --  -10.28385 -10.28218 -10.28148 -10.27914 -10.27899
 Alpha  occ. eigenvalues --  -10.27893 -10.27864  -0.95295  -0.92701  -0.85738
 Alpha  occ. eigenvalues --   -0.84550  -0.83570  -0.81079  -0.71327  -0.70628
 Alpha  occ. eigenvalues --   -0.69234  -0.67570  -0.60082  -0.59255  -0.58697
 Alpha  occ. eigenvalues --   -0.56256  -0.53604  -0.52638  -0.50829  -0.49082
 Alpha  occ. eigenvalues --   -0.48892  -0.48497  -0.48219  -0.47349  -0.46082
 Alpha  occ. eigenvalues --   -0.44753  -0.41479  -0.40911  -0.40062  -0.39052
 Alpha  occ. eigenvalues --   -0.37814  -0.37265  -0.34604  -0.25237
 Alpha virt. eigenvalues --    0.00129   0.10407   0.10557   0.12383   0.13156
 Alpha virt. eigenvalues --    0.14053   0.14710   0.15413   0.16051   0.16304
 Alpha virt. eigenvalues --    0.16991   0.17120   0.18389   0.19977   0.20229
 Alpha virt. eigenvalues --    0.21342   0.22185   0.22400   0.23423   0.24428
 Alpha virt. eigenvalues --    0.25214   0.25360   0.26206   0.26518   0.26799
 Alpha virt. eigenvalues --    0.28469   0.28894   0.29606   0.30537   0.31502
 Alpha virt. eigenvalues --    0.31597   0.31932   0.32260   0.33320   0.33830
 Alpha virt. eigenvalues --    0.34086   0.35525   0.35977   0.36627   0.37123
 Alpha virt. eigenvalues --    0.37943   0.38323   0.40948   0.41159   0.41741
 Alpha virt. eigenvalues --    0.43275   0.43688   0.45081   0.45467   0.45995
 Alpha virt. eigenvalues --    0.46641   0.46751   0.47480   0.48102   0.48360
 Alpha virt. eigenvalues --    0.48615   0.49086   0.49309   0.49803   0.50634
 Alpha virt. eigenvalues --    0.50884   0.51034   0.51536   0.52219   0.52767
 Alpha virt. eigenvalues --    0.52869   0.53933   0.54045   0.54671   0.55319
 Alpha virt. eigenvalues --    0.56016   0.56659   0.57439   0.58217   0.58257
 Alpha virt. eigenvalues --    0.58593   0.61017   0.61567   0.64000   0.65500
 Alpha virt. eigenvalues --    0.66638   0.67064   0.67610   0.68992   0.69721
 Alpha virt. eigenvalues --    0.70403   0.71544   0.75054   0.75124   0.75443
 Alpha virt. eigenvalues --    0.78906   0.78993   0.80178   0.81337   0.82392
 Alpha virt. eigenvalues --    0.83129   0.84168   0.87117   0.87306   0.88543
 Alpha virt. eigenvalues --    0.90044   0.90750   0.91836   0.93656   0.94860
 Alpha virt. eigenvalues --    0.96185   0.97506   0.97945   0.98923   0.99579
 Alpha virt. eigenvalues --    1.01581   1.01743   1.03828   1.04772   1.05391
 Alpha virt. eigenvalues --    1.06804   1.08688   1.09950   1.10452   1.10607
 Alpha virt. eigenvalues --    1.11648   1.14260   1.15648   1.16869   1.17281
 Alpha virt. eigenvalues --    1.18381   1.18855   1.19493   1.19727   1.20702
 Alpha virt. eigenvalues --    1.21837   1.23718   1.24930   1.25913   1.26744
 Alpha virt. eigenvalues --    1.26823   1.27975   1.28610   1.29307   1.29540
 Alpha virt. eigenvalues --    1.30381   1.31093   1.33292   1.33700   1.34778
 Alpha virt. eigenvalues --    1.35132   1.36615   1.37004   1.38126   1.38584
 Alpha virt. eigenvalues --    1.39020   1.39308   1.40120   1.41118   1.42127
 Alpha virt. eigenvalues --    1.43019   1.43051   1.44330   1.45269   1.46158
 Alpha virt. eigenvalues --    1.46565   1.47739   1.47956   1.50583   1.50731
 Alpha virt. eigenvalues --    1.52190   1.53853   1.54194   1.57044   1.57798
 Alpha virt. eigenvalues --    1.58874   1.60440   1.61944   1.62110   1.63553
 Alpha virt. eigenvalues --    1.67339   1.68315   1.68649   1.69456   1.70077
 Alpha virt. eigenvalues --    1.73641   1.74086   1.76881   1.77959   1.78639
 Alpha virt. eigenvalues --    1.80565   1.81423   1.83459   1.84853   1.87870
 Alpha virt. eigenvalues --    1.88556   1.91675   1.91917   1.92735   1.94716
 Alpha virt. eigenvalues --    1.96645   1.98733   2.01905   2.05208   2.07238
 Alpha virt. eigenvalues --    2.07821   2.08193   2.09063   2.11969   2.12626
 Alpha virt. eigenvalues --    2.13397   2.14489   2.16469   2.18230   2.18422
 Alpha virt. eigenvalues --    2.19809   2.20230   2.20918   2.22595   2.23934
 Alpha virt. eigenvalues --    2.26577   2.27461   2.29216   2.31794   2.33729
 Alpha virt. eigenvalues --    2.35421   2.36498   2.37614   2.40353   2.41759
 Alpha virt. eigenvalues --    2.45576   2.46291   2.46868   2.48994   2.50454
 Alpha virt. eigenvalues --    2.50901   2.53833   2.55470   2.56089   2.57512
 Alpha virt. eigenvalues --    2.57731   2.60610   2.61488   2.62870   2.63275
 Alpha virt. eigenvalues --    2.64791   2.65108   2.67258   2.67637   2.68329
 Alpha virt. eigenvalues --    2.69152   2.70750   2.72474   2.72718   2.73032
 Alpha virt. eigenvalues --    2.74395   2.74893   2.76124   2.77671   2.79932
 Alpha virt. eigenvalues --    2.80226   2.81938   2.82068   2.82788   2.83089
 Alpha virt. eigenvalues --    2.83905   2.85274   2.86571   2.86811   2.87752
 Alpha virt. eigenvalues --    2.88003   2.88513   2.89535   2.90319   2.90914
 Alpha virt. eigenvalues --    2.93265   2.93581   2.94565   2.95686   2.97453
 Alpha virt. eigenvalues --    2.98836   3.01073   3.01255   3.02493   3.03926
 Alpha virt. eigenvalues --    3.06427   3.06499   3.06683   3.07594   3.08288
 Alpha virt. eigenvalues --    3.10076   3.10566   3.11205   3.12353   3.12821
 Alpha virt. eigenvalues --    3.12869   3.14142   3.15267   3.15821   3.16375
 Alpha virt. eigenvalues --    3.16578   3.17059   3.17342   3.19134   3.20037
 Alpha virt. eigenvalues --    3.20590   3.21061   3.21701   3.22903   3.23997
 Alpha virt. eigenvalues --    3.24745   3.25198   3.25443   3.25601   3.26307
 Alpha virt. eigenvalues --    3.27164   3.28636   3.29312   3.31317   3.31600
 Alpha virt. eigenvalues --    3.32282   3.32627   3.32998   3.34797   3.35554
 Alpha virt. eigenvalues --    3.36500   3.36862   3.38137   3.38528   3.39731
 Alpha virt. eigenvalues --    3.40645   3.41198   3.41343   3.43005   3.43558
 Alpha virt. eigenvalues --    3.44233   3.44332   3.46275   3.46553   3.48937
 Alpha virt. eigenvalues --    3.49361   3.50591   3.51000   3.51252   3.52408
 Alpha virt. eigenvalues --    3.52925   3.54473   3.55135   3.56536   3.57245
 Alpha virt. eigenvalues --    3.58111   3.58436   3.59281   3.60533   3.62115
 Alpha virt. eigenvalues --    3.62813   3.63486   3.63868   3.64607   3.66312
 Alpha virt. eigenvalues --    3.67830   3.69859   3.72066   3.72255   3.73420
 Alpha virt. eigenvalues --    3.74352   3.78329   3.78610   3.79629   3.81187
 Alpha virt. eigenvalues --    3.82928   3.83398   3.83933   3.84794   3.85352
 Alpha virt. eigenvalues --    3.88493   3.90312   3.90559   3.93568   3.94813
 Alpha virt. eigenvalues --    3.95476   3.96539   3.97698   3.99244   4.03036
 Alpha virt. eigenvalues --    4.04579   4.05883   4.08193   4.08680   4.08956
 Alpha virt. eigenvalues --    4.11606   4.12787   4.13664   4.15683   4.17514
 Alpha virt. eigenvalues --    4.18474   4.21171   4.22078   4.23858   4.25360
 Alpha virt. eigenvalues --    4.25669   4.27307   4.28359   4.28650   4.29180
 Alpha virt. eigenvalues --    4.31172   4.35416   4.39465   4.40276   4.40876
 Alpha virt. eigenvalues --    4.42282   4.42585   4.44320   4.45588   4.50037
 Alpha virt. eigenvalues --    4.52807   4.54610   4.56243   4.57563   4.57881
 Alpha virt. eigenvalues --    4.59538   4.62278   4.63476   4.64589   4.68304
 Alpha virt. eigenvalues --    4.69586   4.70218   4.73445   4.74926   4.77587
 Alpha virt. eigenvalues --    4.81071   4.82400   4.86744   4.88795   4.89185
 Alpha virt. eigenvalues --    4.91793   4.92022   4.95108   4.97227   4.99267
 Alpha virt. eigenvalues --    5.03535   5.06913   5.08010   5.12086   5.13678
 Alpha virt. eigenvalues --    5.19586   5.23354   5.25481   5.25993   5.30226
 Alpha virt. eigenvalues --    5.33196   5.35226   5.37430   5.38833   5.41535
 Alpha virt. eigenvalues --    5.43174   5.45971   5.51670   5.53907   5.56612
 Alpha virt. eigenvalues --    5.63255   5.71912   5.74001   5.80336   5.81199
 Alpha virt. eigenvalues --    7.94282   7.95171   8.02990   8.04676   8.08224
 Alpha virt. eigenvalues --    8.10884   8.11986   8.16022   8.17222   8.21548
 Alpha virt. eigenvalues --    8.32519   8.36799  34.75029  34.75664  34.81971
 Alpha virt. eigenvalues --   34.82607  34.85855  34.89477  34.98716  35.00934
 Alpha virt. eigenvalues --   35.01202  35.03321  35.15714  35.23657
  Beta  occ. eigenvalues --  -10.29417 -10.29281 -10.28861 -10.28592 -10.28431
  Beta  occ. eigenvalues --  -10.28384 -10.28218 -10.28148 -10.27912 -10.27898
  Beta  occ. eigenvalues --  -10.27894 -10.27864  -0.95294  -0.92701  -0.85738
  Beta  occ. eigenvalues --   -0.84550  -0.83571  -0.81079  -0.71327  -0.70628
  Beta  occ. eigenvalues --   -0.69234  -0.67570  -0.60082  -0.59255  -0.58697
  Beta  occ. eigenvalues --   -0.56256  -0.53604  -0.52638  -0.50829  -0.49082
  Beta  occ. eigenvalues --   -0.48893  -0.48497  -0.48219  -0.47349  -0.46082
  Beta  occ. eigenvalues --   -0.44753  -0.41479  -0.40911  -0.40061  -0.39052
  Beta  occ. eigenvalues --   -0.37814  -0.37265  -0.34604  -0.25237
  Beta virt. eigenvalues --    0.00129   0.10407   0.10557   0.12383   0.13156
  Beta virt. eigenvalues --    0.14053   0.14711   0.15413   0.16051   0.16304
  Beta virt. eigenvalues --    0.16991   0.17120   0.18389   0.19977   0.20229
  Beta virt. eigenvalues --    0.21342   0.22185   0.22400   0.23423   0.24428
  Beta virt. eigenvalues --    0.25214   0.25360   0.26206   0.26518   0.26799
  Beta virt. eigenvalues --    0.28469   0.28894   0.29606   0.30537   0.31502
  Beta virt. eigenvalues --    0.31596   0.31932   0.32260   0.33320   0.33830
  Beta virt. eigenvalues --    0.34086   0.35525   0.35977   0.36627   0.37123
  Beta virt. eigenvalues --    0.37943   0.38324   0.40949   0.41159   0.41741
  Beta virt. eigenvalues --    0.43275   0.43688   0.45081   0.45467   0.45995
  Beta virt. eigenvalues --    0.46641   0.46751   0.47480   0.48102   0.48360
  Beta virt. eigenvalues --    0.48615   0.49086   0.49309   0.49803   0.50634
  Beta virt. eigenvalues --    0.50885   0.51034   0.51536   0.52219   0.52768
  Beta virt. eigenvalues --    0.52869   0.53933   0.54045   0.54671   0.55319
  Beta virt. eigenvalues --    0.56016   0.56659   0.57439   0.58217   0.58257
  Beta virt. eigenvalues --    0.58592   0.61017   0.61567   0.64000   0.65500
  Beta virt. eigenvalues --    0.66638   0.67064   0.67610   0.68992   0.69721
  Beta virt. eigenvalues --    0.70403   0.71544   0.75055   0.75124   0.75443
  Beta virt. eigenvalues --    0.78905   0.78993   0.80178   0.81337   0.82392
  Beta virt. eigenvalues --    0.83129   0.84168   0.87117   0.87306   0.88543
  Beta virt. eigenvalues --    0.90044   0.90750   0.91836   0.93656   0.94860
  Beta virt. eigenvalues --    0.96185   0.97506   0.97945   0.98923   0.99579
  Beta virt. eigenvalues --    1.01582   1.01743   1.03828   1.04772   1.05391
  Beta virt. eigenvalues --    1.06804   1.08688   1.09950   1.10452   1.10607
  Beta virt. eigenvalues --    1.11648   1.14260   1.15648   1.16870   1.17280
  Beta virt. eigenvalues --    1.18381   1.18855   1.19493   1.19726   1.20702
  Beta virt. eigenvalues --    1.21837   1.23718   1.24930   1.25913   1.26744
  Beta virt. eigenvalues --    1.26823   1.27975   1.28610   1.29307   1.29540
  Beta virt. eigenvalues --    1.30381   1.31093   1.33292   1.33700   1.34778
  Beta virt. eigenvalues --    1.35132   1.36615   1.37004   1.38125   1.38584
  Beta virt. eigenvalues --    1.39020   1.39308   1.40120   1.41118   1.42127
  Beta virt. eigenvalues --    1.43019   1.43052   1.44330   1.45269   1.46158
  Beta virt. eigenvalues --    1.46565   1.47739   1.47956   1.50582   1.50732
  Beta virt. eigenvalues --    1.52190   1.53853   1.54194   1.57044   1.57798
  Beta virt. eigenvalues --    1.58874   1.60440   1.61944   1.62110   1.63553
  Beta virt. eigenvalues --    1.67338   1.68315   1.68649   1.69457   1.70077
  Beta virt. eigenvalues --    1.73641   1.74086   1.76881   1.77959   1.78639
  Beta virt. eigenvalues --    1.80565   1.81423   1.83459   1.84853   1.87870
  Beta virt. eigenvalues --    1.88556   1.91675   1.91917   1.92735   1.94716
  Beta virt. eigenvalues --    1.96645   1.98733   2.01905   2.05208   2.07238
  Beta virt. eigenvalues --    2.07821   2.08193   2.09063   2.11969   2.12625
  Beta virt. eigenvalues --    2.13397   2.14489   2.16469   2.18230   2.18422
  Beta virt. eigenvalues --    2.19809   2.20230   2.20918   2.22595   2.23934
  Beta virt. eigenvalues --    2.26577   2.27461   2.29216   2.31794   2.33729
  Beta virt. eigenvalues --    2.35421   2.36498   2.37614   2.40353   2.41759
  Beta virt. eigenvalues --    2.45576   2.46291   2.46868   2.48994   2.50454
  Beta virt. eigenvalues --    2.50901   2.53833   2.55470   2.56089   2.57512
  Beta virt. eigenvalues --    2.57731   2.60610   2.61488   2.62870   2.63275
  Beta virt. eigenvalues --    2.64791   2.65108   2.67258   2.67637   2.68329
  Beta virt. eigenvalues --    2.69152   2.70750   2.72474   2.72718   2.73032
  Beta virt. eigenvalues --    2.74395   2.74893   2.76124   2.77671   2.79932
  Beta virt. eigenvalues --    2.80226   2.81938   2.82068   2.82789   2.83089
  Beta virt. eigenvalues --    2.83905   2.85274   2.86571   2.86811   2.87752
  Beta virt. eigenvalues --    2.88003   2.88513   2.89536   2.90319   2.90914
  Beta virt. eigenvalues --    2.93265   2.93581   2.94565   2.95686   2.97453
  Beta virt. eigenvalues --    2.98837   3.01073   3.01255   3.02494   3.03926
  Beta virt. eigenvalues --    3.06427   3.06499   3.06683   3.07594   3.08288
  Beta virt. eigenvalues --    3.10076   3.10566   3.11205   3.12353   3.12821
  Beta virt. eigenvalues --    3.12869   3.14142   3.15267   3.15821   3.16374
  Beta virt. eigenvalues --    3.16578   3.17059   3.17342   3.19134   3.20037
  Beta virt. eigenvalues --    3.20590   3.21061   3.21701   3.22903   3.23996
  Beta virt. eigenvalues --    3.24745   3.25198   3.25443   3.25601   3.26307
  Beta virt. eigenvalues --    3.27164   3.28636   3.29312   3.31317   3.31600
  Beta virt. eigenvalues --    3.32282   3.32627   3.32998   3.34797   3.35554
  Beta virt. eigenvalues --    3.36500   3.36862   3.38137   3.38528   3.39731
  Beta virt. eigenvalues --    3.40645   3.41198   3.41343   3.43005   3.43558
  Beta virt. eigenvalues --    3.44233   3.44332   3.46275   3.46553   3.48937
  Beta virt. eigenvalues --    3.49361   3.50591   3.51000   3.51252   3.52408
  Beta virt. eigenvalues --    3.52925   3.54473   3.55135   3.56536   3.57245
  Beta virt. eigenvalues --    3.58112   3.58436   3.59281   3.60533   3.62115
  Beta virt. eigenvalues --    3.62814   3.63486   3.63868   3.64607   3.66312
  Beta virt. eigenvalues --    3.67830   3.69859   3.72066   3.72255   3.73420
  Beta virt. eigenvalues --    3.74352   3.78329   3.78610   3.79629   3.81187
  Beta virt. eigenvalues --    3.82928   3.83398   3.83933   3.84794   3.85352
  Beta virt. eigenvalues --    3.88493   3.90312   3.90559   3.93568   3.94813
  Beta virt. eigenvalues --    3.95476   3.96539   3.97698   3.99244   4.03036
  Beta virt. eigenvalues --    4.04579   4.05883   4.08193   4.08681   4.08956
  Beta virt. eigenvalues --    4.11606   4.12786   4.13664   4.15683   4.17514
  Beta virt. eigenvalues --    4.18474   4.21171   4.22078   4.23858   4.25360
  Beta virt. eigenvalues --    4.25669   4.27307   4.28359   4.28650   4.29180
  Beta virt. eigenvalues --    4.31171   4.35416   4.39465   4.40276   4.40876
  Beta virt. eigenvalues --    4.42282   4.42584   4.44320   4.45588   4.50037
  Beta virt. eigenvalues --    4.52807   4.54610   4.56243   4.57563   4.57881
  Beta virt. eigenvalues --    4.59538   4.62278   4.63476   4.64589   4.68304
  Beta virt. eigenvalues --    4.69586   4.70218   4.73445   4.74926   4.77587
  Beta virt. eigenvalues --    4.81071   4.82400   4.86744   4.88795   4.89184
  Beta virt. eigenvalues --    4.91794   4.92022   4.95108   4.97227   4.99267
  Beta virt. eigenvalues --    5.03535   5.06913   5.08009   5.12086   5.13678
  Beta virt. eigenvalues --    5.19586   5.23354   5.25481   5.25992   5.30226
  Beta virt. eigenvalues --    5.33196   5.35226   5.37430   5.38833   5.41535
  Beta virt. eigenvalues --    5.43174   5.45971   5.51670   5.53907   5.56612
  Beta virt. eigenvalues --    5.63255   5.71912   5.74001   5.80336   5.81199
  Beta virt. eigenvalues --    7.94283   7.95171   8.02990   8.04676   8.08224
  Beta virt. eigenvalues --    8.10883   8.11986   8.16022   8.17221   8.21548
  Beta virt. eigenvalues --    8.32519   8.36799  34.75029  34.75664  34.81971
  Beta virt. eigenvalues --   34.82607  34.85855  34.89477  34.98716  35.00934
  Beta virt. eigenvalues --   35.01202  35.03321  35.15714  35.23657
          Condensed to atoms (all electrons):
               1          2          3          4          5          6
     1  C    5.254556   0.028139   0.430464  -0.003136   0.001079  -0.010617
     2  C    0.028139   5.296232  -0.001762   0.422583  -0.109323   0.265512
     3  H    0.430464  -0.001762   0.491045   0.000042  -0.000004   0.000200
     4  H   -0.003136   0.422583   0.000042   0.539286  -0.002320  -0.012234
     5  C    0.001079  -0.109323  -0.000004  -0.002320   5.328830   0.276493
     6  C   -0.010617   0.265512   0.000200  -0.012234   0.276493   5.296195
     7  H    0.000045   0.000549   0.000004   0.000229   0.429083  -0.032814
     8  H   -0.001751  -0.012217  -0.000109   0.002499  -0.050186   0.422574
     9  C    0.002223  -0.067303   0.000001  -0.010096  -0.052888   0.266961
    10  H   -0.000042   0.007580  -0.000001  -0.000253  -0.000596  -0.046399
    11  H   -0.000322  -0.005158   0.000002   0.000944   0.011659  -0.049893
    12  C   -0.000162   0.011198  -0.000001   0.004267   0.436045  -0.073125
    13  H   -0.000000  -0.000268   0.000000  -0.000052  -0.029473   0.003947
    14  C    0.000059  -0.010619  -0.000000  -0.001752  -0.060087   0.028161
    15  H   -0.000000   0.000200  -0.000000  -0.000109   0.004380  -0.001762
    16  C   -0.000326   0.020277   0.000000   0.002554  -0.004428  -0.081964
    17  H    0.000043   0.002632  -0.000000  -0.003582   0.005612  -0.011262
    18  H    0.000002  -0.000422   0.000000   0.000361  -0.001516   0.012142
    19  C   -0.060093   0.276416   0.004384  -0.050210   0.010761  -0.109335
    20  H    0.004648  -0.032903  -0.000153  -0.005709  -0.000565   0.000550
    21  C    0.460645  -0.073137  -0.034761   0.007194  -0.000563   0.011203
    22  H   -0.030859   0.003944  -0.005455  -0.000156   0.000054  -0.000268
    23  C   -0.101040   0.266954   0.005701  -0.022780   0.013480  -0.067285
    24  H    0.012935  -0.049887  -0.000074  -0.003273   0.005187  -0.005162
    25  H   -0.000585  -0.046383  -0.000144  -0.005475  -0.000215   0.007578
    26  C    0.281164  -0.081951  -0.030845   0.009836  -0.009341   0.020255
    27  H   -0.029540   0.012140  -0.003989  -0.000180   0.000104  -0.000422
    28  H   -0.039165  -0.011243   0.000489  -0.000186  -0.001061   0.002629
               7          8          9         10         11         12
     1  C    0.000045  -0.001751   0.002223  -0.000042  -0.000322  -0.000162
     2  C    0.000549  -0.012217  -0.067303   0.007580  -0.005158   0.011198
     3  H    0.000004  -0.000109   0.000001  -0.000001   0.000002  -0.000001
     4  H    0.000229   0.002499  -0.010096  -0.000253   0.000944   0.004267
     5  C    0.429083  -0.050186  -0.052888  -0.000596   0.011659   0.436045
     6  C   -0.032814   0.422574   0.266961  -0.046399  -0.049893  -0.073125
     7  H    0.481379  -0.005712   0.003593   0.000252  -0.000078  -0.033707
     8  H   -0.005712   0.539292  -0.022826  -0.005475  -0.003270   0.007203
     9  C    0.003593  -0.022826   5.016837   0.413822   0.446121   0.028648
    10  H    0.000252  -0.005475   0.413822   0.555819  -0.015858   0.001407
    11  H   -0.000078  -0.003270   0.446121  -0.015858   0.531215  -0.004967
    12  C   -0.033707   0.007203   0.028648   0.001407  -0.004967   4.992159
    13  H   -0.004923  -0.000156   0.000234  -0.000131   0.000039   0.420642
    14  C    0.004657  -0.003139  -0.101021  -0.000584   0.012933   0.460602
    15  H   -0.000152   0.000042   0.005700  -0.000144  -0.000074  -0.034753
    16  C   -0.001323   0.009842   0.337322  -0.027498  -0.053294  -0.046591
    17  H   -0.000023  -0.000186  -0.028791   0.005260  -0.004340  -0.005720
    18  H    0.000063  -0.000180  -0.038769  -0.006200  -0.003010   0.003586
    19  C   -0.000564  -0.002327   0.013500  -0.000215   0.005183  -0.000565
    20  H    0.000003   0.000229   0.002693   0.000286  -0.003042  -0.000056
    21  C   -0.000056   0.004271  -0.004041  -0.000024   0.000378   0.000129
    22  H   -0.000002  -0.000052  -0.000066  -0.000002  -0.000009   0.000000
    23  C    0.002696  -0.010084   0.009636  -0.000245   0.000004  -0.004043
    24  H   -0.003041   0.000944   0.000004  -0.000018  -0.000010   0.000378
    25  H    0.000286  -0.000253  -0.000245   0.000016  -0.000018  -0.000024
    26  C   -0.001179   0.002550  -0.002397   0.000077   0.000064   0.001212
    27  H   -0.000029   0.000361   0.000036  -0.000001  -0.000003  -0.000010
    28  H    0.002169  -0.003580   0.000869   0.000010   0.000009  -0.000040
              13         14         15         16         17         18
     1  C   -0.000000   0.000059  -0.000000  -0.000326   0.000043   0.000002
     2  C   -0.000268  -0.010619   0.000200   0.020277   0.002632  -0.000422
     3  H    0.000000  -0.000000  -0.000000   0.000000  -0.000000   0.000000
     4  H   -0.000052  -0.001752  -0.000109   0.002554  -0.003582   0.000361
     5  C   -0.029473  -0.060087   0.004380  -0.004428   0.005612  -0.001516
     6  C    0.003947   0.028161  -0.001762  -0.081964  -0.011262   0.012142
     7  H   -0.004923   0.004657  -0.000152  -0.001323  -0.000023   0.000063
     8  H   -0.000156  -0.003139   0.000042   0.009842  -0.000186  -0.000180
     9  C    0.000234  -0.101021   0.005700   0.337322  -0.028791  -0.038769
    10  H   -0.000131  -0.000584  -0.000144  -0.027498   0.005260  -0.006200
    11  H    0.000039   0.012933  -0.000074  -0.053294  -0.004340  -0.003010
    12  C    0.420642   0.460602  -0.034753  -0.046591  -0.005720   0.003586
    13  H    0.500183  -0.030819  -0.005455   0.004735  -0.000385  -0.000158
    14  C   -0.030819   5.254603   0.430462   0.281173  -0.039203  -0.029540
    15  H   -0.005455   0.430462   0.491030  -0.030838   0.000485  -0.003988
    16  C    0.004735   0.281173  -0.030838   4.967298   0.401102   0.414929
    17  H   -0.000385  -0.039203   0.000485   0.401102   0.583148  -0.023390
    18  H   -0.000158  -0.029540  -0.003988   0.414929  -0.023390   0.548181
    19  C    0.000054   0.001080  -0.000004  -0.009349  -0.001060   0.000104
    20  H   -0.000002   0.000045   0.000004  -0.001176   0.002171  -0.000030
    21  C    0.000000  -0.000162  -0.000001   0.001212  -0.000039  -0.000010
    22  H    0.000000  -0.000000   0.000000   0.000002  -0.000006  -0.000001
    23  C   -0.000065   0.002223   0.000001  -0.002396   0.000869   0.000036
    24  H   -0.000009  -0.000322   0.000002   0.000064   0.000009  -0.000003
    25  H   -0.000002  -0.000042  -0.000001   0.000076   0.000010  -0.000001
    26  C    0.000002  -0.000326   0.000000   0.000484  -0.000049  -0.000002
    27  H   -0.000001   0.000002   0.000000  -0.000002   0.000001  -0.000000
    28  H   -0.000006   0.000043  -0.000000  -0.000049  -0.000003   0.000001
              19         20         21         22         23         24
     1  C   -0.060093   0.004648   0.460645  -0.030859  -0.101040   0.012935
     2  C    0.276416  -0.032903  -0.073137   0.003944   0.266954  -0.049887
     3  H    0.004384  -0.000153  -0.034761  -0.005455   0.005701  -0.000074
     4  H   -0.050210  -0.005709   0.007194  -0.000156  -0.022780  -0.003273
     5  C    0.010761  -0.000565  -0.000563   0.000054   0.013480   0.005187
     6  C   -0.109335   0.000550   0.011203  -0.000268  -0.067285  -0.005162
     7  H   -0.000564   0.000003  -0.000056  -0.000002   0.002696  -0.003041
     8  H   -0.002327   0.000229   0.004271  -0.000052  -0.010084   0.000944
     9  C    0.013500   0.002693  -0.004041  -0.000066   0.009636   0.000004
    10  H   -0.000215   0.000286  -0.000024  -0.000002  -0.000245  -0.000018
    11  H    0.005183  -0.003042   0.000378  -0.000009   0.000004  -0.000010
    12  C   -0.000565  -0.000056   0.000129   0.000000  -0.004043   0.000378
    13  H    0.000054  -0.000002   0.000000   0.000000  -0.000065  -0.000009
    14  C    0.001080   0.000045  -0.000162  -0.000000   0.002223  -0.000322
    15  H   -0.000004   0.000004  -0.000001   0.000000   0.000001   0.000002
    16  C   -0.009349  -0.001176   0.001212   0.000002  -0.002396   0.000064
    17  H   -0.001060   0.002171  -0.000039  -0.000006   0.000869   0.000009
    18  H    0.000104  -0.000030  -0.000010  -0.000001   0.000036  -0.000003
    19  C    5.328903   0.429071   0.436130  -0.029444  -0.052876   0.011657
    20  H    0.429071   0.481411  -0.033606  -0.004924   0.003593  -0.000078
    21  C    0.436130  -0.033606   4.992087   0.420658   0.028672  -0.004967
    22  H   -0.029444  -0.004924   0.420658   0.500148   0.000232   0.000039
    23  C   -0.052876   0.003593   0.028672   0.000232   5.016730   0.446099
    24  H    0.011657  -0.000078  -0.004967   0.000039   0.446099   0.531261
    25  H   -0.000593   0.000252   0.001407  -0.000131   0.413825  -0.015868
    26  C   -0.004438  -0.001318  -0.046588   0.004736   0.337379  -0.053286
    27  H   -0.001517   0.000064   0.003588  -0.000158  -0.038773  -0.003010
    28  H    0.005616  -0.000023  -0.005746  -0.000385  -0.028766  -0.004341
              25         26         27         28
     1  C   -0.000585   0.281164  -0.029540  -0.039165
     2  C   -0.046383  -0.081951   0.012140  -0.011243
     3  H   -0.000144  -0.030845  -0.003989   0.000489
     4  H   -0.005475   0.009836  -0.000180  -0.000186
     5  C   -0.000215  -0.009341   0.000104  -0.001061
     6  C    0.007578   0.020255  -0.000422   0.002629
     7  H    0.000286  -0.001179  -0.000029   0.002169
     8  H   -0.000253   0.002550   0.000361  -0.003580
     9  C   -0.000245  -0.002397   0.000036   0.000869
    10  H    0.000016   0.000077  -0.000001   0.000010
    11  H   -0.000018   0.000064  -0.000003   0.000009
    12  C   -0.000024   0.001212  -0.000010  -0.000040
    13  H   -0.000002   0.000002  -0.000001  -0.000006
    14  C   -0.000042  -0.000326   0.000002   0.000043
    15  H   -0.000001   0.000000   0.000000  -0.000000
    16  C    0.000076   0.000484  -0.000002  -0.000049
    17  H    0.000010  -0.000049   0.000001  -0.000003
    18  H   -0.000001  -0.000002  -0.000000   0.000001
    19  C   -0.000593  -0.004438  -0.001517   0.005616
    20  H    0.000252  -0.001318   0.000064  -0.000023
    21  C    0.001407  -0.046588   0.003588  -0.005746
    22  H   -0.000131   0.004736  -0.000158  -0.000385
    23  C    0.413825   0.337379  -0.038773  -0.028766
    24  H   -0.015868  -0.053286  -0.003010  -0.004341
    25  H    0.555740  -0.027488  -0.006202   0.005258
    26  C   -0.027488   4.967345   0.414925   0.401094
    27  H   -0.006202   0.414925   0.548193  -0.023393
    28  H    0.005258   0.401094  -0.023393   0.582990
          Atomic-Atomic Spin Densities.
               1          2          3          4          5          6
     1  C   -0.697152  -0.006075   0.001139  -0.000029   0.000325  -0.005127
     2  C   -0.006075   0.104623  -0.000207  -0.003045  -0.046764   0.000003
     3  H    0.001139  -0.000207   0.025186   0.000002   0.000003   0.000031
     4  H   -0.000029  -0.003045   0.000002  -0.009998   0.002172   0.007946
     5  C    0.000325  -0.046764   0.000003   0.002172   0.769149  -0.034424
     6  C   -0.005127   0.000003   0.000031   0.007946  -0.034424  -0.104622
     7  H   -0.000002   0.000528   0.000000   0.000002  -0.002835   0.000569
     8  H    0.001585  -0.007946   0.000007   0.000000  -0.000593   0.003046
     9  C   -0.000148  -0.011446   0.000000  -0.000917  -0.005674   0.010292
    10  H   -0.000015   0.000359  -0.000000  -0.000012  -0.001899   0.000302
    11  H    0.000257   0.001017  -0.000000  -0.000005   0.000066   0.001309
    12  C    0.000075   0.007356  -0.000000  -0.001383  -0.006286   0.007290
    13  H    0.000000   0.000182  -0.000000  -0.000022  -0.001654   0.000403
    14  C    0.000000   0.005131  -0.000000  -0.001585  -0.060870   0.006082
    15  H    0.000000  -0.000031   0.000000  -0.000007  -0.000471   0.000207
    16  C    0.000028  -0.001304   0.000000   0.001042   0.007517  -0.003193
    17  H   -0.000011  -0.002936   0.000000   0.000401   0.003845  -0.002865
    18  H    0.000001   0.000240   0.000000  -0.000039  -0.000107   0.000811
    19  C    0.060865   0.034429   0.000471   0.000592  -0.000002   0.046763
    20  H    0.000317  -0.000576  -0.000007  -0.000313  -0.000076  -0.000529
    21  C   -0.008156  -0.007297  -0.000659   0.000914   0.000647  -0.007360
    22  H    0.000987  -0.000404  -0.000292   0.000023   0.000009  -0.000182
    23  C   -0.002910  -0.010290   0.000300  -0.004093  -0.002659   0.011448
    24  H   -0.000188  -0.001310  -0.000006   0.000211   0.001664  -0.001017
    25  H    0.000422  -0.000302   0.000006   0.000109  -0.000018  -0.000359
    26  C    0.034203   0.003190  -0.001155  -0.000151   0.000261   0.001301
    27  H    0.007442  -0.000810  -0.000259   0.000046   0.000027  -0.000240
    28  H    0.022180   0.002863   0.000181  -0.000195  -0.000102   0.002935
               7          8          9         10         11         12
     1  C   -0.000002   0.001585  -0.000148  -0.000015   0.000257   0.000075
     2  C    0.000528  -0.007946  -0.011446   0.000359   0.001017   0.007356
     3  H    0.000000   0.000007   0.000000  -0.000000  -0.000000  -0.000000
     4  H    0.000002   0.000000  -0.000917  -0.000012  -0.000005  -0.001383
     5  C   -0.002835  -0.000593  -0.005674  -0.001899   0.000066  -0.006286
     6  C    0.000569   0.003046   0.010292   0.000302   0.001309   0.007290
     7  H   -0.026184   0.000313  -0.000309  -0.000028   0.000008   0.002037
     8  H    0.000313   0.009997   0.004093  -0.000109  -0.000211  -0.000914
     9  C   -0.000309   0.004093   0.008181  -0.000976  -0.001067  -0.002216
    10  H   -0.000028  -0.000109  -0.000976   0.000559   0.000399   0.001130
    11  H    0.000008  -0.000211  -0.001067   0.000399  -0.000166  -0.000096
    12  C    0.002037  -0.000914  -0.002216   0.001130  -0.000096  -0.247343
    13  H    0.000302  -0.000023  -0.000144   0.000020  -0.000000   0.001940
    14  C   -0.000317   0.000028   0.002904  -0.000423   0.000188   0.008151
    15  H    0.000007  -0.000002  -0.000300  -0.000006   0.000006   0.000659
    16  C    0.000039   0.000152   0.006409   0.000598  -0.000202   0.003329
    17  H   -0.000025   0.000195  -0.002228   0.000233  -0.000554  -0.000302
    18  H    0.000003  -0.000046   0.002693  -0.000513   0.000297   0.000644
    19  C    0.000076  -0.002172   0.002657   0.000018  -0.001661  -0.000646
    20  H   -0.000000  -0.000002   0.000159   0.000016  -0.000155   0.000029
    21  C   -0.000029   0.001384  -0.000604  -0.000011   0.000129  -0.000000
    22  H   -0.000000   0.000022  -0.000020   0.000000   0.000012  -0.000000
    23  C   -0.000159   0.000917  -0.000000  -0.000011  -0.000159   0.000605
    24  H    0.000155   0.000005   0.000159  -0.000000  -0.000000  -0.000129
    25  H   -0.000016   0.000012   0.000011   0.000000   0.000000   0.000011
    26  C    0.000159  -0.001042  -0.000014   0.000007  -0.000040  -0.000226
    27  H    0.000006   0.000039   0.000007  -0.000000   0.000002   0.000007
    28  H   -0.000087  -0.000401  -0.000079  -0.000000  -0.000037  -0.000122
              13         14         15         16         17         18
     1  C    0.000000   0.000000   0.000000   0.000028  -0.000011   0.000001
     2  C    0.000182   0.005131  -0.000031  -0.001304  -0.002936   0.000240
     3  H   -0.000000  -0.000000   0.000000   0.000000   0.000000   0.000000
     4  H   -0.000022  -0.001585  -0.000007   0.001042   0.000401  -0.000039
     5  C   -0.001654  -0.060870  -0.000471   0.007517   0.003845  -0.000107
     6  C    0.000403   0.006082   0.000207  -0.003193  -0.002865   0.000811
     7  H    0.000302  -0.000317   0.000007   0.000039  -0.000025   0.000003
     8  H   -0.000023   0.000028  -0.000002   0.000152   0.000195  -0.000046
     9  C   -0.000144   0.002904  -0.000300   0.006409  -0.002228   0.002693
    10  H    0.000020  -0.000423  -0.000006   0.000598   0.000233  -0.000513
    11  H   -0.000000   0.000188   0.000006  -0.000202  -0.000554   0.000297
    12  C    0.001940   0.008151   0.000659   0.003329  -0.000302   0.000644
    13  H    0.009159  -0.000985   0.000292   0.000057  -0.000054   0.000021
    14  C   -0.000985   0.697148  -0.001140  -0.034186  -0.022191  -0.007440
    15  H    0.000292  -0.001140  -0.025186   0.001155  -0.000181   0.000260
    16  C    0.000057  -0.034186   0.001155  -0.035360   0.012701   0.004764
    17  H   -0.000054  -0.022191  -0.000181   0.012701   0.055260  -0.008779
    18  H    0.000021  -0.007440   0.000260   0.004764  -0.008779   0.021363
    19  C   -0.000009  -0.000326  -0.000003  -0.000261   0.000102  -0.000027
    20  H    0.000000   0.000001  -0.000000  -0.000159   0.000087  -0.000006
    21  C    0.000000  -0.000076   0.000000   0.000226   0.000122  -0.000007
    22  H   -0.000000  -0.000000   0.000000   0.000003   0.000002  -0.000000
    23  C    0.000020   0.000148  -0.000000   0.000014   0.000079  -0.000007
    24  H   -0.000012  -0.000258   0.000000   0.000040   0.000038  -0.000002
    25  H   -0.000000   0.000015   0.000000  -0.000007  -0.000000   0.000000
    26  C   -0.000003  -0.000028  -0.000000  -0.000000   0.000013  -0.000001
    27  H    0.000000  -0.000001  -0.000000   0.000001   0.000000   0.000000
    28  H   -0.000002   0.000011  -0.000000  -0.000013  -0.000000  -0.000000
              19         20         21         22         23         24
     1  C    0.060865   0.000317  -0.008156   0.000987  -0.002910  -0.000188
     2  C    0.034429  -0.000576  -0.007297  -0.000404  -0.010290  -0.001310
     3  H    0.000471  -0.000007  -0.000659  -0.000292   0.000300  -0.000006
     4  H    0.000592  -0.000313   0.000914   0.000023  -0.004093   0.000211
     5  C   -0.000002  -0.000076   0.000647   0.000009  -0.002659   0.001664
     6  C    0.046763  -0.000529  -0.007360  -0.000182   0.011448  -0.001017
     7  H    0.000076  -0.000000  -0.000029  -0.000000  -0.000159   0.000155
     8  H   -0.002172  -0.000002   0.001384   0.000022   0.000917   0.000005
     9  C    0.002657   0.000159  -0.000604  -0.000020  -0.000000   0.000159
    10  H    0.000018   0.000016  -0.000011   0.000000  -0.000011  -0.000000
    11  H   -0.001661  -0.000155   0.000129   0.000012  -0.000159  -0.000000
    12  C   -0.000646   0.000029  -0.000000  -0.000000   0.000605  -0.000129
    13  H   -0.000009   0.000000   0.000000  -0.000000   0.000020  -0.000012
    14  C   -0.000326   0.000001  -0.000076  -0.000000   0.000148  -0.000258
    15  H   -0.000003  -0.000000   0.000000   0.000000  -0.000000   0.000000
    16  C   -0.000261  -0.000159   0.000226   0.000003   0.000014   0.000040
    17  H    0.000102   0.000087   0.000122   0.000002   0.000079   0.000038
    18  H   -0.000027  -0.000006  -0.000007  -0.000000  -0.000007  -0.000002
    19  C   -0.769164   0.002836   0.006308   0.001655   0.005671  -0.000067
    20  H    0.002836   0.026186  -0.002032  -0.000303   0.000309  -0.000008
    21  C    0.006308  -0.002032   0.247329  -0.001942   0.002221   0.000097
    22  H    0.001655  -0.000303  -0.001942  -0.009160   0.000144   0.000000
    23  C    0.005671   0.000309   0.002221   0.000144  -0.008181   0.001066
    24  H   -0.000067  -0.000008   0.000097   0.000000   0.001066   0.000166
    25  H    0.001900   0.000028  -0.001130  -0.000020   0.000976  -0.000399
    26  C   -0.007517  -0.000039  -0.003331  -0.000058  -0.006405   0.000202
    27  H    0.000107  -0.000003  -0.000645  -0.000021  -0.002691  -0.000297
    28  H   -0.003843   0.000025   0.000306   0.000054   0.002225   0.000554
              25         26         27         28
     1  C    0.000422   0.034203   0.007442   0.022180
     2  C   -0.000302   0.003190  -0.000810   0.002863
     3  H    0.000006  -0.001155  -0.000259   0.000181
     4  H    0.000109  -0.000151   0.000046  -0.000195
     5  C   -0.000018   0.000261   0.000027  -0.000102
     6  C   -0.000359   0.001301  -0.000240   0.002935
     7  H   -0.000016   0.000159   0.000006  -0.000087
     8  H    0.000012  -0.001042   0.000039  -0.000401
     9  C    0.000011  -0.000014   0.000007  -0.000079
    10  H    0.000000   0.000007  -0.000000  -0.000000
    11  H    0.000000  -0.000040   0.000002  -0.000037
    12  C    0.000011  -0.000226   0.000007  -0.000122
    13  H   -0.000000  -0.000003   0.000000  -0.000002
    14  C    0.000015  -0.000028  -0.000001   0.000011
    15  H    0.000000  -0.000000  -0.000000  -0.000000
    16  C   -0.000007  -0.000000   0.000001  -0.000013
    17  H   -0.000000   0.000013   0.000000  -0.000000
    18  H    0.000000  -0.000001   0.000000  -0.000000
    19  C    0.001900  -0.007517   0.000107  -0.003843
    20  H    0.000028  -0.000039  -0.000003   0.000025
    21  C   -0.001130  -0.003331  -0.000645   0.000306
    22  H   -0.000020  -0.000058  -0.000021   0.000054
    23  C    0.000976  -0.006405  -0.002691   0.002225
    24  H   -0.000399   0.000202  -0.000297   0.000554
    25  H   -0.000559  -0.000597   0.000513  -0.000234
    26  C   -0.000597   0.035348  -0.004764  -0.012706
    27  H    0.000513  -0.004764  -0.021365   0.008777
    28  H   -0.000234  -0.012706   0.008777  -0.055239
 Mulliken charges and spin densities:
               1          2
     1  C   -0.198363  -0.589987
     2  C   -0.111781   0.059178
     3  H    0.144967   0.024742
     4  H    0.131706  -0.008334
     5  C   -0.200203   0.621250
     6  C   -0.111859  -0.059181
     7  H    0.158598  -0.025784
     8  H    0.131697   0.008334
     9  C   -0.219758   0.011423
    10  H    0.119157  -0.000362
    11  H    0.134796  -0.000662
    12  C   -0.163711  -0.226401
    13  H    0.142070   0.009489
    14  C   -0.198426   0.589983
    15  H    0.144977  -0.024742
    16  C   -0.181838  -0.036609
    17  H    0.116698   0.032951
    18  H    0.127816   0.014123
    19  C   -0.200267  -0.621249
    20  H    0.158565   0.025785
    21  C   -0.163872   0.226405
    22  H    0.142104  -0.009489
    23  C   -0.219777  -0.011423
    24  H    0.134770   0.000663
    25  H    0.119221   0.000362
    26  C   -0.181916   0.036609
    27  H    0.127818  -0.014123
    28  H    0.116810  -0.032949
 Sum of Mulliken charges =  -0.00000   0.00000
 Mulliken charges and spin densities with hydrogens summed into heavy atoms:
               1          2
     1  C   -0.053396  -0.565245
     2  C    0.019925   0.050844
     5  C   -0.041605   0.595467
     6  C    0.019839  -0.050847
     9  C    0.034195   0.010399
    12  C   -0.021641  -0.216912
    14  C   -0.053448   0.565242
    16  C    0.062675   0.010464
    19  C   -0.041703  -0.595464
    21  C   -0.021769   0.216916
    23  C    0.034214  -0.010399
    26  C    0.062713  -0.010464
 Electronic spatial extent (au):  <R**2>=           2173.0452
 Charge=             -0.0000 electrons
 Dipole moment (field-independent basis, Debye):
    X=             -0.0004    Y=              0.0003    Z=              0.0003  Tot=              0.0006
 Quadrupole moment (field-independent basis, Debye-Ang):
   XX=            -72.0337   YY=            -71.2195   ZZ=            -76.3065
   XY=             -2.4743   XZ=             -2.8442   YZ=             -0.1168
 Traceless Quadrupole moment (field-independent basis, Debye-Ang):
   XX=              1.1529   YY=              1.9670   ZZ=             -3.1199
   XY=             -2.4743   XZ=             -2.8442   YZ=             -0.1168
 Octapole moment (field-independent basis, Debye-Ang**2):
  XXX=              0.0024  YYY=             -0.0015  ZZZ=             -0.0003  XYY=             -0.0026
  XXY=             -0.0005  XXZ=              0.0002  XZZ=             -0.0013  YZZ=              0.0016
  YYZ=              0.0010  XYZ=             -0.0005
 Hexadecapole moment (field-independent basis, Debye-Ang**3):
 XXXX=          -2008.4330 YYYY=           -640.6781 ZZZZ=           -293.3070 XXXY=            -88.2373
 XXXZ=           -108.8183 YYYX=            -60.6192 YYYZ=              1.2511 ZZZX=            -60.2697
 ZZZY=             -6.5407 XXYY=           -440.5231 XXZZ=           -413.1557 YYZZ=           -170.0557
 XXYZ=            -19.1805 YYXZ=            -23.2584 ZZXY=            -40.4125
 N-N= 6.953487170746D+02 E-N=-2.472234070346D+03  KE= 4.639795264152D+02
                          Isotropic Fermi Contact Couplings
        Atom                 a.u.       MegaHertz       Gauss      10(-4) cm-1
     1  C(13)             -0.04517     -25.39020      -9.05985      -8.46926
     2  C(13)              0.05662      31.82574      11.35622      10.61592
     3  H(1)               0.00886      19.80821       7.06806       6.60731
     4  H(1)              -0.00428      -9.56590      -3.41335      -3.19084
     5  C(13)              0.04858      27.30756       9.74402       9.10882
     6  C(13)             -0.05662     -31.82602     -11.35632     -10.61602
     7  H(1)              -0.00939     -20.99689      -7.49221      -7.00381
     8  H(1)               0.00428       9.56601       3.41339       3.19088
     9  C(13)              0.00353       1.98657       0.70886       0.66265
    10  H(1)              -0.00028      -0.63626      -0.22703      -0.21223
    11  H(1)              -0.00029      -0.64560      -0.23036      -0.21535
    12  C(13)             -0.04342     -24.40570      -8.70856      -8.14087
    13  H(1)               0.00310       6.93806       2.47567       2.31429
    14  C(13)              0.04517      25.39036       9.05991       8.46931
    15  H(1)              -0.00886     -19.80822      -7.06807      -6.60731
    16  C(13)             -0.01845     -10.37037      -3.70041      -3.45918
    17  H(1)               0.01597      35.69989      12.73861      11.90820
    18  H(1)               0.00673      15.03927       5.36638       5.01656
    19  C(13)             -0.04858     -27.30669      -9.74371      -9.10853
    20  H(1)               0.00939      20.99665       7.49213       7.00373
    21  C(13)              0.04342      24.40516       8.70837       8.14069
    22  H(1)              -0.00310      -6.93818      -2.47572      -2.31433
    23  C(13)             -0.00353      -1.98653      -0.70884      -0.66263
    24  H(1)               0.00029       0.64554       0.23034       0.21533
    25  H(1)               0.00028       0.63614       0.22699       0.21219
    26  C(13)              0.01845      10.36997       3.70026       3.45905
    27  H(1)              -0.00673     -15.04005      -5.36666      -5.01682
    28  H(1)              -0.01597     -35.70291     -12.73969     -11.90921
 --------------------------------------------------------
       Center         ----  Spin Dipole Couplings  ----
                      3XX-RR        3YY-RR        3ZZ-RR
 --------------------------------------------------------
     1   Atom        0.138884      0.349136     -0.488020
     2   Atom       -0.003871     -0.023890      0.027761
     3   Atom       -0.034479      0.044358     -0.009880
     4   Atom       -0.002930     -0.004705      0.007635
     5   Atom       -0.241133     -0.351194      0.592327
     6   Atom        0.003872      0.023890     -0.027762
     7   Atom       -0.019445      0.017068      0.002377
     8   Atom        0.002930      0.004705     -0.007635
     9   Atom       -0.001486      0.008571     -0.007084
    10   Atom       -0.004269      0.003729      0.000540
    11   Atom       -0.005860      0.007129     -0.001269
    12   Atom        0.073603      0.099317     -0.172920
    13   Atom        0.006981     -0.001735     -0.005247
    14   Atom       -0.138886     -0.349136      0.488022
    15   Atom        0.034479     -0.044358      0.009879
    16   Atom       -0.005315      0.002658      0.002657
    17   Atom       -0.008438      0.009151     -0.000713
    18   Atom       -0.006298      0.010641     -0.004343
    19   Atom        0.241130      0.351185     -0.592316
    20   Atom        0.019445     -0.017068     -0.002378
    21   Atom       -0.073601     -0.099314      0.172915
    22   Atom       -0.006980      0.001734      0.005247
    23   Atom        0.001486     -0.008571      0.007084
    24   Atom        0.005860     -0.007129      0.001269
    25   Atom        0.004269     -0.003729     -0.000540
    26   Atom        0.005316     -0.002655     -0.002661
    27   Atom        0.006298     -0.010641      0.004343
    28   Atom        0.008439     -0.009151      0.000711
 --------------------------------------------------------
                        XY            XZ            YZ
 --------------------------------------------------------
     1   Atom        0.001795     -0.404150      0.007229
     2   Atom        0.007721      0.035927      0.017260
     3   Atom       -0.008359      0.017790      0.004889
     4   Atom       -0.005242      0.005399      0.008848
     5   Atom       -0.051050      0.345216     -0.108640
     6   Atom       -0.007721     -0.035926     -0.017260
     7   Atom       -0.043282      0.003215      0.014915
     8   Atom        0.005242     -0.005399     -0.008848
     9   Atom       -0.013996     -0.012631      0.002749
    10   Atom       -0.001247     -0.003478     -0.005767
    11   Atom        0.004620     -0.008204     -0.000047
    12   Atom       -0.007661     -0.126141      0.025133
    13   Atom       -0.007415     -0.007721      0.003152
    14   Atom       -0.001797      0.404147     -0.007234
    15   Atom        0.008359     -0.017789     -0.004889
    16   Atom        0.001850      0.006421     -0.000543
    17   Atom        0.004555      0.001714      0.005435
    18   Atom       -0.002550     -0.000821     -0.002713
    19   Atom        0.051049     -0.345205      0.108639
    20   Atom        0.043281     -0.003215     -0.014914
    21   Atom        0.007662      0.126139     -0.025131
    22   Atom        0.007415      0.007721     -0.003152
    23   Atom        0.013996      0.012632     -0.002749
    24   Atom       -0.004620      0.008204      0.000047
    25   Atom        0.001247      0.003478      0.005767
    26   Atom       -0.001851     -0.006424      0.000542
    27   Atom        0.002551      0.000821      0.002713
    28   Atom       -0.004554     -0.001715     -0.005436
 --------------------------------------------------------


 ---------------------------------------------------------------------------------
              Anisotropic Spin Dipole Couplings in Principal Axis System
 ---------------------------------------------------------------------------------

       Atom             a.u.   MegaHertz   Gauss  10(-4) cm-1        Axes

              Baa    -0.6861   -92.065   -32.851   -30.710  0.4399 -0.0070  0.8980
     1 C(13)  Bbb     0.3367    45.181    16.122    15.071  0.8914  0.1246 -0.4357
              Bcc     0.3494    46.884    16.729    15.639 -0.1088  0.9922  0.0611
 
              Baa    -0.0307    -4.123    -1.471    -1.375  0.4486  0.7440 -0.4952
     2 C(13)  Bbb    -0.0249    -3.337    -1.191    -1.113  0.7233 -0.6277 -0.2879
              Bcc     0.0556     7.460     2.662     2.488  0.5250  0.2290  0.8197
 
              Baa    -0.0449   -23.933    -8.540    -7.983  0.8800  0.1078 -0.4626
     3 H(1)   Bbb    -0.0006    -0.297    -0.106    -0.099  0.4662 -0.0095  0.8846
              Bcc     0.0454    24.229     8.646     8.082 -0.0910  0.9941  0.0586
 
              Baa    -0.0140    -7.479    -2.669    -2.495  0.5485  0.7172 -0.4299
     4 H(1)   Bbb     0.0013     0.718     0.256     0.239  0.8177 -0.5675  0.0964
              Bcc     0.0127     6.761     2.413     2.255  0.1748  0.4044  0.8977
 
              Baa    -0.3761   -50.471   -18.009   -16.835  0.7075  0.6846 -0.1754
     5 C(13)  Bbb    -0.3538   -47.482   -16.943   -15.838 -0.6206  0.7206  0.3092
              Bcc     0.7300    97.953    34.952    32.674  0.3381 -0.1099  0.9347
 
              Baa    -0.0556    -7.460    -2.662    -2.488  0.5250  0.2290  0.8197
     6 C(13)  Bbb     0.0249     3.337     1.191     1.113  0.7233 -0.6277 -0.2879
              Bcc     0.0307     4.123     1.471     1.375  0.4486  0.7440 -0.4952
 
              Baa    -0.0505   -26.930    -9.609    -8.983  0.8024  0.5598 -0.2068
     7 H(1)   Bbb     0.0021     1.147     0.409     0.383  0.3003 -0.0792  0.9506
              Bcc     0.0483    25.783     9.200     8.600 -0.5158  0.8248  0.2317
 
              Baa    -0.0127    -6.761    -2.413    -2.255  0.1748  0.4044  0.8977
     8 H(1)   Bbb    -0.0013    -0.718    -0.256    -0.239  0.8177 -0.5675  0.0964
              Bcc     0.0140     7.479     2.669     2.495  0.5484  0.7172 -0.4299
 
              Baa    -0.0192    -2.578    -0.920    -0.860  0.6953  0.2850  0.6598
     9 C(13)  Bbb    -0.0026    -0.350    -0.125    -0.117 -0.3769 -0.6371  0.6724
              Bcc     0.0218     2.928     1.045     0.977 -0.6120  0.7162  0.3356
 
              Baa    -0.0076    -4.071    -1.453    -1.358  0.7307  0.3712  0.5730
    10 H(1)   Bbb    -0.0006    -0.318    -0.113    -0.106  0.6759 -0.5120 -0.5302
              Bcc     0.0082     4.389     1.566     1.464  0.0966  0.7747 -0.6249
 
              Baa    -0.0128    -6.813    -2.431    -2.273  0.8005 -0.1845  0.5703
    11 H(1)   Bbb     0.0033     1.741     0.621     0.581 -0.4184  0.5093  0.7521
              Bcc     0.0095     5.072     1.810     1.692  0.4292  0.8406 -0.3305
 
              Baa    -0.2273   -30.498   -10.883   -10.173  0.3846 -0.0619  0.9210
    12 C(13)  Bbb     0.0924    12.395     4.423     4.134  0.4267  0.8967 -0.1179
              Bcc     0.1349    18.104     6.460     6.039  0.8186 -0.4383 -0.3712
 
              Baa    -0.0090    -4.812    -1.717    -1.605  0.4687  0.0972  0.8780
    13 H(1)   Bbb    -0.0056    -3.013    -1.075    -1.005  0.3495  0.8924 -0.2854
              Bcc     0.0147     7.825     2.792     2.610  0.8113 -0.4406 -0.3843
 
              Baa    -0.3494   -46.884   -16.729   -15.639 -0.1088  0.9922  0.0611
    14 C(13)  Bbb    -0.3367   -45.181   -16.122   -15.071  0.8914  0.1246 -0.4357
              Bcc     0.6861    92.065    32.851    30.710  0.4399 -0.0070  0.8980
 
              Baa    -0.0454   -24.229    -8.646    -8.082 -0.0910  0.9941  0.0586
    15 H(1)   Bbb     0.0006     0.297     0.106     0.099  0.4662 -0.0095  0.8846
              Bcc     0.0449    23.933     8.540     7.983  0.8800  0.1078 -0.4626
 
              Baa    -0.0092    -1.233    -0.440    -0.411  0.8652 -0.1570 -0.4763
    16 C(13)  Bbb     0.0029     0.390     0.139     0.130  0.0758  0.9798 -0.1852
              Bcc     0.0063     0.843     0.301     0.281  0.4957  0.1242  0.8596
 
              Baa    -0.0096    -5.105    -1.822    -1.703  0.9737 -0.2217 -0.0524
    17 H(1)   Bbb    -0.0031    -1.659    -0.592    -0.553 -0.0399 -0.3925  0.9189
              Bcc     0.0127     6.764     2.413     2.256  0.2243  0.8926  0.3911
 
              Baa    -0.0072    -3.867    -1.380    -1.290  0.8834  0.1908  0.4280
    18 H(1)   Bbb    -0.0042    -2.235    -0.797    -0.745 -0.4493  0.0854  0.8893
              Bcc     0.0114     6.101     2.177     2.035 -0.1332  0.9779 -0.1612
 
              Baa    -0.7299   -97.951   -34.951   -32.673  0.3381 -0.1099  0.9347
    19 C(13)  Bbb     0.3538    47.481    16.942    15.838 -0.6206  0.7206  0.3092
              Bcc     0.3761    50.470    18.009    16.835  0.7075  0.6846 -0.1754
 
              Baa    -0.0483   -25.782    -9.200    -8.600 -0.5158  0.8248  0.2316
    20 H(1)   Bbb    -0.0022    -1.147    -0.409    -0.383  0.3003 -0.0792  0.9506
              Bcc     0.0505    26.930     9.609     8.983  0.8024  0.5598 -0.2068
 
              Baa    -0.1349   -18.103    -6.460    -6.039  0.8186 -0.4383 -0.3712
    21 C(13)  Bbb    -0.0924   -12.394    -4.423    -4.134  0.4267  0.8967 -0.1179
              Bcc     0.2273    30.497    10.882    10.173  0.3846 -0.0619  0.9210
 
              Baa    -0.0147    -7.825    -2.792    -2.610  0.8112 -0.4407 -0.3843
    22 H(1)   Bbb     0.0056     3.013     1.075     1.005  0.3496  0.8924 -0.2854
              Bcc     0.0090     4.812     1.717     1.605  0.4687  0.0972  0.8780
 
              Baa    -0.0218    -2.928    -1.045    -0.977 -0.6120  0.7162  0.3356
    23 C(13)  Bbb     0.0026     0.350     0.125     0.117 -0.3768 -0.6371  0.6724
              Bcc     0.0192     2.578     0.920     0.860  0.6953  0.2850  0.6598
 
              Baa    -0.0095    -5.072    -1.810    -1.692  0.4292  0.8406 -0.3305
    24 H(1)   Bbb    -0.0033    -1.741    -0.621    -0.581 -0.4184  0.5093  0.7521
              Bcc     0.0128     6.813     2.431     2.273  0.8005 -0.1845  0.5703
 
              Baa    -0.0082    -4.389    -1.566    -1.464  0.0966  0.7747 -0.6249
    25 H(1)   Bbb     0.0006     0.318     0.113     0.106  0.6759 -0.5120 -0.5302
              Bcc     0.0076     4.071     1.453     1.358  0.7307  0.3712  0.5730
 
              Baa    -0.0063    -0.844    -0.301    -0.281  0.4957  0.1243  0.8595
    26 C(13)  Bbb    -0.0029    -0.389    -0.139    -0.130  0.0757  0.9797 -0.1854
              Bcc     0.0092     1.233     0.440     0.411  0.8652 -0.1570 -0.4762
 
              Baa    -0.0114    -6.101    -2.177    -2.035 -0.1332  0.9779 -0.1612
    27 H(1)   Bbb     0.0042     2.235     0.797     0.745 -0.4494  0.0854  0.8892
              Bcc     0.0072     3.867     1.380     1.290  0.8834  0.1909  0.4281
 
              Baa    -0.0127    -6.764    -2.414    -2.256  0.2243  0.8926  0.3911
    28 H(1)   Bbb     0.0031     1.659     0.592     0.553 -0.0399 -0.3926  0.9188
              Bcc     0.0096     5.105     1.822     1.703  0.9737 -0.2217 -0.0524
 

 ---------------------------------------------------------------------------------

 No NMR shielding tensors so no spin-rotation constants.
 Leave Link  601 at Mon Aug  3 16:58:01 2020, MaxMem=  6442450944 cpu:               8.3 elap:               0.4
 (Enter /scratch/scicomp/CentOS/7.3.1611/Haswell/software/Gaussian/g16/l9999.exe)
 1\1\GINC-ATLAS-205\SP\UwB97XD\def2TZVP\C12H16\BOCHEN\03-Aug-2020\0\\#p
  uwb97xd guess=mix def2tzvp # scrf=(iefpcm,solvent=Cyclohexane,read) n
 osym 6d 10f\\endo-2 xp-pcm for eta=3\\0,1\C,0,-3.119127,-0.424214,0.24
 875\C,0,-0.411716,-0.117621,-0.690842\H,0,-4.089584,-0.546101,0.713998
 \H,0,0.331104,-0.106248,-1.492216\C,0,1.11322,1.433745,0.656146\C,0,0.
 411716,0.117621,0.690842\H,0,0.575541,2.332289,0.931979\H,0,-0.331104,
 0.106248,1.492216\C,0,1.443013,-0.993893,0.965601\H,0,1.846597,-0.8472
 18,1.971019\H,0,0.957769,-1.971415,0.956603\C,0,2.393256,1.531202,0.12
 958\H,0,2.834891,2.513727,0.002918\C,0,3.119127,0.424214,-0.24875\H,0,
 4.089584,0.546101,-0.713998\C,0,2.592435,-0.960873,-0.043075\H,0,2.254
 014,-1.365839,-1.0064\H,0,3.399024,-1.624515,0.280295\C,0,-1.11322,-1.
 433745,-0.656146\H,0,-0.575541,-2.332289,-0.931979\C,0,-2.393256,-1.53
 1202,-0.12958\H,0,-2.834891,-2.513727,-0.002918\C,0,-1.443013,0.993893
 ,-0.965601\H,0,-0.957769,1.971415,-0.956603\H,0,-1.846597,0.847218,-1.
 971019\C,0,-2.592435,0.960873,0.043075\H,0,-3.399023,1.624515,-0.28029
 5\H,0,-2.254014,1.365839,1.0064\\Version=ES64L-G16RevB.01\HF=-466.8354
 867\S2=1.049721\S2-1=0.\S2A=0.538268\RMSD=9.432e-09\Dipole=-0.0001379,
 0.0001313,0.000111\Quadrupole=0.8571355,1.462453,-2.3195885,-1.8396022
 ,-2.1146146,-0.0868279\PG=CI [X(C12H16)]\\@


 IT MATTERS NOT HOW DEEP YOU PLOW,
 BUT HOW LONG YOU STAY IN THE FURROW.
 Job cpu time:       0 days  1 hours 42 minutes 17.7 seconds.
 Elapsed time:       0 days  0 hours  4 minutes 18.7 seconds.
 File lengths (MBytes):  RWF=    624 Int=      0 D2E=      0 Chk=     23 Scr=      1
 Normal termination of Gaussian 16 at Mon Aug  3 16:58:01 2020.
