 Entering Gaussian System, Link 0=g16
 Input=meso-TS_30_1_pcm.com
 Output=meso-TS_30_1_pcm.log
 Initial command:
 /scratch/scicomp/CentOS/7.3.1611/Haswell/software/Gaussian/g16/l1.exe "/scratch/bochen/cyclohexadiene-dimerization/wb97xd-def2tzvp/xp-pcm/meso/Gau-64264.inp" -scrdir="/scratch/bochen/cyclohexadiene-dimerization/wb97xd-def2tzvp/xp-pcm/meso/"
 Entering Link 1 = /scratch/scicomp/CentOS/7.3.1611/Haswell/software/Gaussian/g16/l1.exe PID=     64265.
  
 Copyright (c) 1988-2017, Gaussian, Inc.  All Rights Reserved.
  
 This is part of the Gaussian(R) 16 program.  It is based on
 the Gaussian(R) 09 system (copyright 2009, Gaussian, Inc.),
 the Gaussian(R) 03 system (copyright 2003, Gaussian, Inc.),
 the Gaussian(R) 98 system (copyright 1998, Gaussian, Inc.),
 the Gaussian(R) 94 system (copyright 1995, Gaussian, Inc.),
 the Gaussian 92(TM) system (copyright 1992, Gaussian, Inc.),
 the Gaussian 90(TM) system (copyright 1990, Gaussian, Inc.),
 the Gaussian 88(TM) system (copyright 1988, Gaussian, Inc.),
 the Gaussian 86(TM) system (copyright 1986, Carnegie Mellon
 University), and the Gaussian 82(TM) system (copyright 1983,
 Carnegie Mellon University). Gaussian is a federally registered
 trademark of Gaussian, Inc.
  
 This software contains proprietary and confidential information,
 including trade secrets, belonging to Gaussian, Inc.
  
 This software is provided under written license and may be
 used, copied, transmitted, or stored only in accord with that
 written license.
  
 The following legend is applicable only to US Government
 contracts under FAR:
  
                    RESTRICTED RIGHTS LEGEND
  
 Use, reproduction and disclosure by the US Government is
 subject to restrictions as set forth in subparagraphs (a)
 and (c) of the Commercial Computer Software - Restricted
 Rights clause in FAR 52.227-19.
  
 Gaussian, Inc.
 340 Quinnipiac St., Bldg. 40, Wallingford CT 06492
  
  
 ---------------------------------------------------------------
 Warning -- This program may not be used in any manner that
 competes with the business of Gaussian, Inc. or will provide
 assistance to any competitor of Gaussian, Inc.  The licensee
 of this program is prohibited from giving any competitor of
 Gaussian, Inc. access to this program.  By using this program,
 the user acknowledges that Gaussian, Inc. is engaged in the
 business of creating and licensing software in the field of
 computational chemistry and represents and warrants to the
 licensee that it is not a competitor of Gaussian, Inc. and that
 it will not use this program in any manner prohibited above.
 ---------------------------------------------------------------
  

 Cite this work as:
 Gaussian 16, Revision B.01,
 M. J. Frisch, G. W. Trucks, H. B. Schlegel, G. E. Scuseria, 
 M. A. Robb, J. R. Cheeseman, G. Scalmani, V. Barone, 
 G. A. Petersson, H. Nakatsuji, X. Li, M. Caricato, A. V. Marenich, 
 J. Bloino, B. G. Janesko, R. Gomperts, B. Mennucci, H. P. Hratchian, 
 J. V. Ortiz, A. F. Izmaylov, J. L. Sonnenberg, D. Williams-Young, 
 F. Ding, F. Lipparini, F. Egidi, J. Goings, B. Peng, A. Petrone, 
 T. Henderson, D. Ranasinghe, V. G. Zakrzewski, J. Gao, N. Rega, 
 G. Zheng, W. Liang, M. Hada, M. Ehara, K. Toyota, R. Fukuda, 
 J. Hasegawa, M. Ishida, T. Nakajima, Y. Honda, O. Kitao, H. Nakai, 
 T. Vreven, K. Throssell, J. A. Montgomery, Jr., J. E. Peralta, 
 F. Ogliaro, M. J. Bearpark, J. J. Heyd, E. N. Brothers, K. N. Kudin, 
 V. N. Staroverov, T. A. Keith, R. Kobayashi, J. Normand, 
 K. Raghavachari, A. P. Rendell, J. C. Burant, S. S. Iyengar, 
 J. Tomasi, M. Cossi, J. M. Millam, M. Klene, C. Adamo, R. Cammi, 
 J. W. Ochterski, R. L. Martin, K. Morokuma, O. Farkas, 
 J. B. Foresman, and D. J. Fox, Gaussian, Inc., Wallingford CT, 2016.
 
 ******************************************
 Gaussian 16:  ES64L-G16RevB.01 20-Dec-2017
                 3-Aug-2020 
 ******************************************
 %nproc=24
 Will use up to   24 processors via shared memory.
 %mem=48GB
 ----------------------------------------------------------------------
 #p uwb97xd guess=mix def2tzvp # scrf=(iefpcm,solvent=Cyclohexane,read)
  nosym 6d 10f
 ----------------------------------------------------------------------
 1/38=1,40=2,172=1/1;
 2/12=2,15=1,17=6,18=5,40=1/2;
 3/5=44,7=101,8=22,11=2,25=1,30=1,70=2203,72=17,74=-58,116=2/1,2,3;
 4/13=-1/1;
 5/5=2,38=5,53=17/2;
 6/7=2,8=2,9=2,10=2,28=1/1;
 99/5=1,9=1/99;
 Leave Link    1 at Mon Aug  3 17:11:51 2020, MaxMem=  6442450944 cpu:               1.6 elap:               0.1
 (Enter /scratch/scicomp/CentOS/7.3.1611/Haswell/software/Gaussian/g16/l101.exe)
 -----------------------
 endo-2 xp-pcm for eta=3
 -----------------------
 Symbolic Z-matrix:
 Charge =  0 Multiplicity = 1
 6                    -3.14099  -0.42504   0.22382 
 6                    -0.4063   -0.1269   -0.65908 
 1                    -4.13565  -0.54469   0.63509 
 1                     0.31741  -0.13066  -1.47881 
 6                     1.10894   1.44553   0.60737 
 6                     0.4063    0.1269    0.65908 
 1                     0.57318   2.34463   0.8844 
 1                    -0.31741   0.13066   1.47881 
 6                     1.42998  -0.98206   0.93298 
 1                     1.83176  -0.82932   1.93798 
 1                     0.94414  -1.95883   0.9306 
 6                     2.4096    1.53504   0.14459 
 1                     2.86887   2.51402   0.06052 
 6                     3.14099   0.42504  -0.22382 
 1                     4.13565   0.54469  -0.63509 
 6                     2.58898  -0.95563  -0.06333 
 1                     2.2607   -1.33761  -1.03945 
 1                     3.37789  -1.63847   0.26323 
 6                    -1.10894  -1.44553  -0.60737 
 1                    -0.57318  -2.34463  -0.8844 
 6                    -2.4096   -1.53504  -0.14459 
 1                    -2.86887  -2.51402  -0.06052 
 6                    -1.42998   0.98206  -0.93298 
 1                    -0.94414   1.95883  -0.9306 
 1                    -1.83176   0.82932  -1.93798 
 6                    -2.58898   0.95563   0.06333 
 1                    -3.37789   1.63847  -0.26323 
 1                    -2.2607    1.33761   1.03945 
 
 ITRead=  0  0  0  0  0  0  0  0  0  0  0  0  0  0  0  0  0  0  0  0
 ITRead=  0  0  0  0  0  0  0  0
 MicOpt= -1 -1 -1 -1 -1 -1 -1 -1 -1 -1 -1 -1 -1 -1 -1 -1 -1 -1 -1 -1
 MicOpt= -1 -1 -1 -1 -1 -1 -1 -1
 NAtoms=     28 NQM=       28 NQMF=       0 NMMI=      0 NMMIF=      0
                NMic=       0 NMicF=      0.
                    Isotopes and Nuclear Properties:
 (Nuclear quadrupole moments (NQMom) in fm**2, nuclear magnetic moments (NMagM)
  in nuclear magnetons)

  Atom         1           2           3           4           5           6           7           8           9          10
 IAtWgt=          12          12           1           1          12          12           1           1          12           1
 AtmWgt=  12.0000000  12.0000000   1.0078250   1.0078250  12.0000000  12.0000000   1.0078250   1.0078250  12.0000000   1.0078250
 NucSpn=           0           0           1           1           0           0           1           1           0           1
 AtZEff=  -0.0000000  -0.0000000  -0.0000000  -0.0000000  -0.0000000  -0.0000000  -0.0000000  -0.0000000  -0.0000000  -0.0000000
 NQMom=    0.0000000   0.0000000   0.0000000   0.0000000   0.0000000   0.0000000   0.0000000   0.0000000   0.0000000   0.0000000
 NMagM=    0.0000000   0.0000000   2.7928460   2.7928460   0.0000000   0.0000000   2.7928460   2.7928460   0.0000000   2.7928460
 AtZNuc=   6.0000000   6.0000000   1.0000000   1.0000000   6.0000000   6.0000000   1.0000000   1.0000000   6.0000000   1.0000000

  Atom        11          12          13          14          15          16          17          18          19          20
 IAtWgt=           1          12           1          12           1          12           1           1          12           1
 AtmWgt=   1.0078250  12.0000000   1.0078250  12.0000000   1.0078250  12.0000000   1.0078250   1.0078250  12.0000000   1.0078250
 NucSpn=           1           0           1           0           1           0           1           1           0           1
 AtZEff=  -0.0000000  -0.0000000  -0.0000000  -0.0000000  -0.0000000  -0.0000000  -0.0000000  -0.0000000  -0.0000000  -0.0000000
 NQMom=    0.0000000   0.0000000   0.0000000   0.0000000   0.0000000   0.0000000   0.0000000   0.0000000   0.0000000   0.0000000
 NMagM=    2.7928460   0.0000000   2.7928460   0.0000000   2.7928460   0.0000000   2.7928460   2.7928460   0.0000000   2.7928460
 AtZNuc=   1.0000000   6.0000000   1.0000000   6.0000000   1.0000000   6.0000000   1.0000000   1.0000000   6.0000000   1.0000000

  Atom        21          22          23          24          25          26          27          28
 IAtWgt=          12           1          12           1           1          12           1           1
 AtmWgt=  12.0000000   1.0078250  12.0000000   1.0078250   1.0078250  12.0000000   1.0078250   1.0078250
 NucSpn=           0           1           0           1           1           0           1           1
 AtZEff=  -0.0000000  -0.0000000  -0.0000000  -0.0000000  -0.0000000  -0.0000000  -0.0000000  -0.0000000
 NQMom=    0.0000000   0.0000000   0.0000000   0.0000000   0.0000000   0.0000000   0.0000000   0.0000000
 NMagM=    0.0000000   2.7928460   0.0000000   2.7928460   2.7928460   0.0000000   2.7928460   2.7928460
 AtZNuc=   6.0000000   1.0000000   6.0000000   1.0000000   1.0000000   6.0000000   1.0000000   1.0000000
 Leave Link  101 at Mon Aug  3 17:11:51 2020, MaxMem=  6442450944 cpu:               2.4 elap:               0.1
 (Enter /scratch/scicomp/CentOS/7.3.1611/Haswell/software/Gaussian/g16/l202.exe)
                          Input orientation:                          
 ---------------------------------------------------------------------
 Center     Atomic      Atomic             Coordinates (Angstroms)
 Number     Number       Type             X           Y           Z
 ---------------------------------------------------------------------
      1          6           0       -3.140994   -0.425040    0.223816
      2          6           0       -0.406297   -0.126897   -0.659080
      3          1           0       -4.135653   -0.544691    0.635088
      4          1           0        0.317409   -0.130657   -1.478814
      5          6           0        1.108935    1.445531    0.607368
      6          6           0        0.406297    0.126897    0.659080
      7          1           0        0.573183    2.344629    0.884397
      8          1           0       -0.317409    0.130657    1.478814
      9          6           0        1.429977   -0.982064    0.932984
     10          1           0        1.831758   -0.829324    1.937981
     11          1           0        0.944143   -1.958831    0.930603
     12          6           0        2.409595    1.535044    0.144587
     13          1           0        2.868872    2.514015    0.060519
     14          6           0        3.140994    0.425040   -0.223816
     15          1           0        4.135653    0.544691   -0.635088
     16          6           0        2.588982   -0.955630   -0.063327
     17          1           0        2.260703   -1.337606   -1.039452
     18          1           0        3.377886   -1.638473    0.263228
     19          6           0       -1.108935   -1.445531   -0.607368
     20          1           0       -0.573183   -2.344629   -0.884397
     21          6           0       -2.409595   -1.535044   -0.144587
     22          1           0       -2.868872   -2.514015   -0.060519
     23          6           0       -1.429977    0.982064   -0.932984
     24          1           0       -0.944143    1.958831   -0.930603
     25          1           0       -1.831758    0.829324   -1.937981
     26          6           0       -2.588982    0.955630    0.063327
     27          1           0       -3.377886    1.638473   -0.263228
     28          1           0       -2.260703    1.337606    1.039452
 ---------------------------------------------------------------------
                    Distance matrix (angstroms):
                    1          2          3          4          5
     1  C    0.000000
     2  C    2.889111   0.000000
     3  H    1.082962   3.969574   0.000000
     4  H    3.866027   1.093494   4.946693   0.000000
     5  C    4.659189   2.524351   5.609586   2.731856   0.000000
     6  C    3.616264   1.569161   4.591396   2.155186   1.495048
     7  H    4.680015   3.074109   5.530232   3.431797   1.082660
     8  H    3.139499   2.155186   3.968243   3.036255   2.126680
     9  C    4.659074   2.576408   5.590731   2.789170   2.470286
    10  H    5.275421   3.499574   6.114617   3.802088   2.732759
    11  H    4.420453   2.776106   5.281236   3.088739   3.423641
    12  C    5.887040   3.367072   6.885213   3.128455   1.383436
    13  H    6.692025   4.268369   7.664802   3.984194   2.130277
    14  C    6.355028   3.616264   7.391054   3.139499   2.421060
    15  H    7.391054   4.591396   8.438875   3.968243   3.393557
    16  C    5.761649   3.164398   6.773284   2.800755   2.899301
    17  H    5.622006   2.953538   6.659292   2.329411   3.432847
    18  H    6.630970   4.177985   7.601836   3.830762   3.844171
    19  C    2.421060   1.495048   3.393557   2.126680   3.840934
    20  H    3.392140   2.235387   4.270808   2.459300   4.406835
    21  C    1.379411   2.502156   2.137281   3.344999   4.672185
    22  H    2.125727   3.481506   2.442712   4.224256   5.652170
    23  C    2.499141   1.533864   3.480016   2.142297   3.005588
    24  H    3.441174   2.171005   4.347959   2.501601   2.616097
    25  H    2.821506   2.140534   3.717060   2.398190   3.937790
    26  C    1.495568   2.541230   2.229364   3.464870   3.769691
    27  H    2.133405   3.479019   2.479393   4.273485   4.574574
    28  H    2.132392   2.910086   2.687376   3.891545   3.398942
                    6          7          8          9         10
     6  C    0.000000
     7  H    2.235387   0.000000
     8  H    1.093494   2.459300   0.000000
     9  C    1.533864   3.435599   2.142297   0.000000
    10  H    2.140534   3.573238   2.398190   1.093058   0.000000
    11  H    2.171005   4.319666   2.501601   1.090924   1.754553
    12  C    2.502156   2.138961   3.344999   2.813726   3.023308
    13  H    3.481506   2.444924   4.224256   3.879972   3.972201
    14  C    2.889111   3.392140   3.866027   2.499141   2.821506
    15  H    3.969574   4.270808   4.946693   3.480016   3.717060
    16  C    2.541230   3.981625   3.464870   1.528603   2.143496
    17  H    2.910086   4.484169   3.891545   2.169567   3.050812
    18  H    3.479019   4.910938   4.273485   2.161896   2.418684
    19  C    2.524351   4.406835   2.731856   3.005588   3.937790
    20  H    3.074109   5.141199   3.431797   3.028549   4.005709
    21  C    3.367072   5.000763   3.128455   4.026072   4.777469
    22  H    4.268369   6.028850   3.984194   4.670549   5.378486
    23  C    2.576408   3.028549   2.789170   3.939413   4.707705
    24  H    2.776106   2.396945   3.088739   4.214056   4.869108
    25  H    3.499574   4.005709   3.802088   4.707705   5.585297
    26  C    3.164398   3.550037   2.800755   4.545656   5.122824
    27  H    4.177985   4.174523   3.830762   5.604791   6.170554
    28  H    2.953538   3.011486   2.329411   4.360427   4.717115
                   11         12         13         14         15
    11  H    0.000000
    12  C    3.869436   0.000000
    13  H    4.946512   1.084614   0.000000
    14  C    3.441174   1.379411   2.125727   0.000000
    15  H    4.347959   2.137281   2.442712   1.082962   0.000000
    16  C    2.167903   2.505766   3.483118   1.495568   2.229364
    17  H    2.449565   3.110665   4.051517   2.132392   2.687376
    18  H    2.543840   3.320071   4.188477   2.133405   2.479393
    19  C    2.616097   4.672185   5.652170   4.659189   5.609586
    20  H    2.396945   5.000763   6.028850   4.680015   5.530232
    21  C    3.547279   5.721333   6.655761   5.887040   6.885213
    22  H    3.978647   6.655761   7.630036   6.692025   7.664802
    23  C    4.214056   4.026072   4.670549   4.659074   5.590731
    24  H    4.730517   3.547279   3.978647   4.420453   5.281236
    25  H    4.869108   4.777469   5.378486   5.275421   6.114617
    26  C    4.661461   5.032703   5.675979   5.761649   6.773284
    27  H    5.748544   5.802753   6.316120   6.630970   7.601836
    28  H    4.598846   4.759354   5.353017   5.622006   6.659292
                   16         17         18         19         20
    16  C    0.000000
    17  H    1.098405   0.000000
    18  H    1.093290   1.742296   0.000000
    19  C    3.769691   3.398942   4.574574   0.000000
    20  H    3.550037   3.011486   4.174523   1.082660   0.000000
    21  C    5.032703   4.759354   5.802753   1.383436   2.138961
    22  H    5.675979   5.353017   6.316120   2.130277   2.444924
    23  C    4.545656   4.360427   5.604791   2.470286   3.435599
    24  H    4.661461   4.598846   5.748544   3.423641   4.319666
    25  H    5.122824   4.717115   6.170554   2.732759   3.573238
    26  C    5.520894   5.476723   6.509443   2.899301   3.981625
    27  H    6.509443   6.422870   7.527017   3.844171   4.910938
    28  H    5.476723   5.649930   6.422870   3.432847   4.484169
                   21         22         23         24         25
    21  C    0.000000
    22  H    1.084614   0.000000
    23  C    2.813726   3.879972   0.000000
    24  H    3.869436   4.946512   1.090924   0.000000
    25  H    3.023308   3.972201   1.093058   1.754553   0.000000
    26  C    2.505766   3.483118   1.528603   2.167903   2.143496
    27  H    3.320071   4.188477   2.161896   2.543840   2.418684
    28  H    3.110665   4.051517   2.169567   2.449565   3.050812
                   26         27         28
    26  C    0.000000
    27  H    1.093290   0.000000
    28  H    1.098405   1.742296   0.000000
 Symmetry turned off by external request.
 Stoichiometry    C12H16
 Framework group  CI[X(C12H16)]
 Deg. of freedom    39
 Full point group                 CI      NOp   2
 Rotational constants (GHZ):           2.0335666           0.6463832           0.5521611
 Leave Link  202 at Mon Aug  3 17:11:51 2020, MaxMem=  6442450944 cpu:               0.3 elap:               0.0
 (Enter /scratch/scicomp/CentOS/7.3.1611/Haswell/software/Gaussian/g16/l301.exe)
 Standard basis: def2TZVP (6D, 10F)
 Ernie: Thresh=  0.10000D-02 Tol=  0.10000D-05 Strict=F.
   528 basis functions,   740 primitive gaussians,   528 cartesian basis functions
    44 alpha electrons       44 beta electrons
       nuclear repulsion energy       697.2046426072 Hartrees.
 IExCor= 4639 DFT=T Ex+Corr=wB97XD ExCW=0 ScaHFX=  1.000000
 ScaDFX=  1.000000  1.000000  1.000000  1.000000 ScalE2=  1.000000  1.000000
 IRadAn=      5 IRanWt=     -1 IRanGd=            0 ICorTp=0 IEmpDi=121
 HFx  wShort=  0.000000 wLong=  0.200000 cFull=  0.222036 cShort=  0.000000 cLong=  0.777964
 DFx  wShort=  0.000000 wLong=  0.200000 cFull=  0.000000 cShort=  0.000000 cLong=  1.000000
 NAtoms=   28 NActive=   28 NUniq=   28 SFac= 1.00D+00 NAtFMM=   60 NAOKFM=F Big=F
 Integral buffers will be    131072 words long.
 Raffenetti 2 integral format.
 Two-electron integral symmetry is turned off.
 R6Disp:  Grimme-D2 Dispersion energy=       -0.0228434541 Hartrees.
 Nuclear repulsion after empirical dispersion term =      697.1817991531 Hartrees.
 Using the following non-standard input for PCM:
 norep pcmdoc geomview  nodis nocav g03defaults tsare=0.075
 Warning! Using old PCM defaults because the g03defaults keyword was found.
 These settings can be overridden by following keywords.
 nsfe=28
 NVESolv=36  SolvMW=84.1595   Rsolv=2.815
 eps=2.0165 RhoS=0.7781
 --- end of non-standard input.
 Reading user-defined spheres from input:
 ISph  on   Nord    Re0     Alpha      Xe            Ye            Ze
 --- end of user-defined spheres data.
 ------------------------------------------------------------------------------
 Polarizable Continuum Model (PCM)
 =================================
 Model                : PCM.
 Atomic radii         : UA0 (Simple United Atom Topological Model).
 Polarization charges : Total charges.
 Charge compensation  : None.
 Solution method      : On-the-fly selection.
 Cavity type          : SES (Solvent Excluding Surface) (Alpha=1.000).
 Cavity algorithm     : GePol (RMin=0.200 OFac=0.890).
                        User-defined sphere list used, NSphG=   28.
                        Tesserae with average area of 0.075 Ang**2.
                        Smoothing algorithm: None.
                        Polarization charges: point-like.
                        Self-potential: constant (ISelfS= 1).
                        Self-field    : global E.n sum rule (ISelfD= 3).
 Solvent              : CycloHexane, Eps=   2.016500 Eps(inf)=   2.035188
                        RSolv=   2.815000 Ang.
 ------------------------------------------------------------------------------
 GePol: Number of generator spheres                  =      28
 GePol: Total number of spheres                      =     156
 GePol: Number of exposed spheres                    =     116 ( 74.36%)
 GePol: Number of tesserae                           =    4607
 GePol: Average area of tesserae                     =       0.05 Ang**2
 GePol: Minimum area of tessera                      =   0.10D-02 Ang**2
 GePol: Maximum area of tessera                      =    0.12395 Ang**2
 GePol: Number of small tesserae                     =       0
 GePol: Fraction of small tesserae (<1% of avg)      =       0.00%
 GePol: Total count of vertices                      =   16246
 GePol: Maximum number of vertices in a tessera      =       7
 GePol: Cavity surface area                          =    218.195 Ang**2
 GePol: Cavity volume                                =    243.194 Ang**3
 Leave Link  301 at Mon Aug  3 17:11:51 2020, MaxMem=  6442450944 cpu:               7.1 elap:               0.3
 (Enter /scratch/scicomp/CentOS/7.3.1611/Haswell/software/Gaussian/g16/l302.exe)
 NPDir=0 NMtPBC=     1 NCelOv=     1 NCel=       1 NClECP=     1 NCelD=      1
         NCelK=      1 NCelE2=     1 NClLst=     1 CellRange=     0.0.
 One-electron integrals computed using PRISM.
   1 Symmetry operations used in ECPInt.
 ECPInt:  NShTT=   19306 NPrTT=   56928 LenC2=   18534 LenP2D=   42334.
 LDataN:  DoStor=T MaxTD1= 6 Len=  172
 NBasis=   528 RedAO= T EigKep=  2.41D-05  NBF=   528
 NBsUse=   528 1.00D-06 EigRej= -1.00D+00 NBFU=   528
 Precomputing XC quadrature grid using
 IXCGrd= 4 IRadAn=           5 IRanWt=          -1 IRanGd=           0 AccXCQ= 0.00D+00.
 Generated NRdTot=       0 NPtTot=           0 NUsed=           0 NTot=          32
 NSgBfM=   526   526   526   526   526 MxSgAt=    28 MxSgA2=    28.
 Leave Link  302 at Mon Aug  3 17:11:52 2020, MaxMem=  6442450944 cpu:              13.4 elap:               0.6
 (Enter /scratch/scicomp/CentOS/7.3.1611/Haswell/software/Gaussian/g16/l303.exe)
 DipDrv:  MaxL=1.
 Leave Link  303 at Mon Aug  3 17:11:52 2020, MaxMem=  6442450944 cpu:               1.6 elap:               0.1
 (Enter /scratch/scicomp/CentOS/7.3.1611/Haswell/software/Gaussian/g16/l401.exe)
 ExpMin= 9.52D-02 ExpMax= 1.36D+04 ExpMxC= 4.63D+02 IAcc=3 IRadAn=         5 AccDes= 0.00D+00
 Harris functional with IExCor= 4639 and IRadAn=       5 diagonalized for initial guess.
 HarFok:  IExCor= 4639 AccDes= 0.00D+00 IRadAn=         5 IDoV= 1 UseB2=F ITyADJ=14
 ICtDFT=  3500011 ScaDFX=  1.000000  1.000000  1.000000  1.000000
 FoFCou: FMM=F IPFlag=           0 FMFlag=      100000 FMFlg1=           0
         NFxFlg=           0 DoJE=T BraDBF=F KetDBF=T FulRan=T
         wScrn=  0.000000 ICntrl=       500 IOpCl=  0 I1Cent=   200000004 NGrid=           0
         NMat0=    1 NMatS0=      1 NMatT0=    0 NMatD0=    1 NMtDS0=    0 NMtDT0=    0
 Symmetry not used in FoFCou.
 Harris En= -444.598535346483    
 JPrj=0 DoOrth=F DoCkMO=T.
 Mixing orbitals, IMix= 1 IMixAn=  0 NRI=1 NE=   44 Coef=  7.07106781D-01  7.07106781D-01
 Mixing orbitals, IMix= 1 IMixAn=  0 NRI=1 NE=   44 Coef= -7.07106781D-01  7.07106781D-01
 Initial guess <Sx>= 0.0000 <Sy>= 0.0000 <Sz>= 0.0000 <S**2>= 1.0000 S= 0.6180
 Leave Link  401 at Mon Aug  3 17:11:54 2020, MaxMem=  6442450944 cpu:              49.0 elap:               2.1
 (Enter /scratch/scicomp/CentOS/7.3.1611/Haswell/software/Gaussian/g16/l502.exe)
 Two-electron integral symmetry not used.
 UHF open shell SCF:
 Using DIIS extrapolation, IDIIS=  1040.
 NGot=  6442450944 LenX=  6441877030 LenY=  6441597718
 Requested convergence on RMS density matrix=1.00D-08 within 128 cycles.
 Requested convergence on MAX density matrix=1.00D-06.
 Requested convergence on             energy=1.00D-06.
 No special actions if energy rises.
 Fock matrices will be formed incrementally for  20 cycles.

 Cycle   1  Pass 1  IDiag  1:
 FoFJK:  IHMeth= 1 ICntrl=       0 DoSepK=T KAlg= 0 I1Cent=           0 FoldK=F
 IRaf=         1 NMat=       1 IRICut=       1 DoRegI=T DoRafI=F ISym2E= 0 IDoP0=0 IntGTp=1.
 FoFCou: FMM=F IPFlag=           0 FMFlag=      100000 FMFlg1=           0
         NFxFlg=           0 DoJE=T BraDBF=F KetDBF=F FulRan=T
         wScrn=  0.000000 ICntrl=       500 IOpCl=  0 I1Cent=           0 NGrid=           0
         NMat0=    1 NMatS0=      1 NMatT0=    0 NMatD0=    1 NMtDS0=    0 NMtDT0=    0
 Symmetry not used in FoFCou.
 Inv3:  Mode=1 IEnd=    63673347.
 Iteration    1 A*A^-1 deviation from unit magnitude is 1.60D-14 for   1220.
 Iteration    1 A*A^-1 deviation from orthogonality  is 1.60D-14 for   2336   1220.
 Iteration    1 A^-1*A deviation from unit magnitude is 1.95D-14 for   2336.
 Iteration    1 A^-1*A deviation from orthogonality  is 3.11D-15 for   2336   1222.
 E= -466.693971986329    
 DIIS: error= 6.02D-02 at cycle   1 NSaved=   1.
 NSaved= 1 IEnMin= 1 EnMin= -466.693971986329     IErMin= 1 ErrMin= 6.02D-02
 ErrMax= 6.02D-02  0.00D+00 EMaxC= 1.00D-01 BMatC= 4.10D+00 BMatP= 4.10D+00
 IDIUse=3 WtCom= 3.98D-01 WtEn= 6.02D-01
 Coeff-Com:  0.100D+01
 Coeff-En:   0.100D+01
 Coeff:      0.100D+01
 Gap=     0.234 Goal=   None    Shift=    0.000
 Gap=     0.234 Goal=   None    Shift=    0.000
 GapD=    0.234 DampG=1.000 DampE=0.500 DampFc=0.5000 IDamp=-1.
 Damping current iteration by 5.00D-01
 RMSDP=1.38D-03 MaxDP=9.21D-02              OVMax= 4.88D-02

 Cycle   2  Pass 1  IDiag  1:
 RMSU=  6.73D-04    CP:  9.76D-01
 E= -466.763978602696     Delta-E=       -0.070006616367 Rises=F Damp=T
 DIIS: error= 2.85D-02 at cycle   2 NSaved=   2.
 NSaved= 2 IEnMin= 2 EnMin= -466.763978602696     IErMin= 2 ErrMin= 2.85D-02
 ErrMax= 2.85D-02  0.00D+00 EMaxC= 1.00D-01 BMatC= 9.19D-01 BMatP= 4.10D+00
 IDIUse=3 WtCom= 7.15D-01 WtEn= 2.85D-01
 Coeff-Com: -0.862D+00 0.186D+01
 Coeff-En:   0.000D+00 0.100D+01
 Coeff:     -0.616D+00 0.162D+01
 Gap=     0.241 Goal=   None    Shift=    0.000
 Gap=     0.241 Goal=   None    Shift=    0.000
 RMSDP=8.36D-04 MaxDP=4.86D-02 DE=-7.00D-02 OVMax= 3.24D-02

 Cycle   3  Pass 1  IDiag  1:
 RMSU=  4.47D-04    CP:  9.49D-01  2.02D+00
 E= -466.831761188409     Delta-E=       -0.067782585713 Rises=F Damp=F
 DIIS: error= 2.89D-03 at cycle   3 NSaved=   3.
 NSaved= 3 IEnMin= 3 EnMin= -466.831761188409     IErMin= 3 ErrMin= 2.89D-03
 ErrMax= 2.89D-03  0.00D+00 EMaxC= 1.00D-01 BMatC= 1.81D-02 BMatP= 9.19D-01
 IDIUse=3 WtCom= 9.71D-01 WtEn= 2.89D-02
 Coeff-Com: -0.310D+00 0.670D+00 0.640D+00
 Coeff-En:   0.000D+00 0.000D+00 0.100D+01
 Coeff:     -0.301D+00 0.650D+00 0.650D+00
 Gap=     0.245 Goal=   None    Shift=    0.000
 Gap=     0.245 Goal=   None    Shift=    0.000
 RMSDP=1.12D-04 MaxDP=4.62D-03 DE=-6.78D-02 OVMax= 1.27D-02

 Cycle   4  Pass 1  IDiag  1:
 RMSU=  8.70D-05    CP:  9.46D-01  2.09D+00  8.83D-01
 E= -466.836387905429     Delta-E=       -0.004626717021 Rises=F Damp=F
 DIIS: error= 9.84D-04 at cycle   4 NSaved=   4.
 NSaved= 4 IEnMin= 4 EnMin= -466.836387905429     IErMin= 4 ErrMin= 9.84D-04
 ErrMax= 9.84D-04  0.00D+00 EMaxC= 1.00D-01 BMatC= 5.75D-04 BMatP= 1.81D-02
 IDIUse=3 WtCom= 9.90D-01 WtEn= 9.84D-03
 Coeff-Com:  0.998D-01-0.215D+00-0.111D+00 0.123D+01
 Coeff-En:   0.000D+00 0.000D+00 0.000D+00 0.100D+01
 Coeff:      0.988D-01-0.213D+00-0.110D+00 0.122D+01
 Gap=     0.250 Goal=   None    Shift=    0.000
 Gap=     0.250 Goal=   None    Shift=    0.000
 RMSDP=7.67D-05 MaxDP=5.01D-03 DE=-4.63D-03 OVMax= 1.18D-02

 Cycle   5  Pass 1  IDiag  1:
 RMSU=  3.37D-05    CP:  9.45D-01  2.12D+00  1.01D+00  1.41D+00
 E= -466.837007462389     Delta-E=       -0.000619556960 Rises=F Damp=F
 DIIS: error= 5.03D-04 at cycle   5 NSaved=   5.
 NSaved= 5 IEnMin= 5 EnMin= -466.837007462389     IErMin= 5 ErrMin= 5.03D-04
 ErrMax= 5.03D-04  0.00D+00 EMaxC= 1.00D-01 BMatC= 1.79D-04 BMatP= 5.75D-04
 IDIUse=3 WtCom= 9.95D-01 WtEn= 5.03D-03
 Coeff-Com:  0.648D-01-0.140D+00-0.110D+00 0.287D+00 0.899D+00
 Coeff-En:   0.000D+00 0.000D+00 0.000D+00 0.000D+00 0.100D+01
 Coeff:      0.645D-01-0.140D+00-0.110D+00 0.285D+00 0.899D+00
 Gap=     0.253 Goal=   None    Shift=    0.000
 Gap=     0.253 Goal=   None    Shift=    0.000
 RMSDP=2.70D-05 MaxDP=1.60D-03 DE=-6.20D-04 OVMax= 6.55D-03

 Cycle   6  Pass 1  IDiag  1:
 RMSU=  1.71D-05    CP:  9.45D-01  2.12D+00  1.03D+00  1.58D+00  1.32D+00
 E= -466.837158871355     Delta-E=       -0.000151408966 Rises=F Damp=F
 DIIS: error= 2.81D-04 at cycle   6 NSaved=   6.
 NSaved= 6 IEnMin= 6 EnMin= -466.837158871355     IErMin= 6 ErrMin= 2.81D-04
 ErrMax= 2.81D-04  0.00D+00 EMaxC= 1.00D-01 BMatC= 5.77D-05 BMatP= 1.79D-04
 IDIUse=3 WtCom= 9.97D-01 WtEn= 2.81D-03
 Coeff-Com: -0.214D-01 0.459D-01 0.117D-01-0.426D+00 0.316D+00 0.107D+01
 Coeff-En:   0.000D+00 0.000D+00 0.000D+00 0.000D+00 0.000D+00 0.100D+01
 Coeff:     -0.213D-01 0.458D-01 0.117D-01-0.425D+00 0.315D+00 0.107D+01
 Gap=     0.254 Goal=   None    Shift=    0.000
 Gap=     0.254 Goal=   None    Shift=    0.000
 RMSDP=2.01D-05 MaxDP=1.26D-03 DE=-1.51D-04 OVMax= 5.06D-03

 Cycle   7  Pass 1  IDiag  1:
 RMSU=  8.98D-06    CP:  9.45D-01  2.12D+00  1.04D+00  1.67D+00  1.75D+00
                    CP:  1.24D+00
 E= -466.837214065094     Delta-E=       -0.000055193739 Rises=F Damp=F
 DIIS: error= 5.89D-05 at cycle   7 NSaved=   7.
 NSaved= 7 IEnMin= 7 EnMin= -466.837214065094     IErMin= 7 ErrMin= 5.89D-05
 ErrMax= 5.89D-05  0.00D+00 EMaxC= 1.00D-01 BMatC= 3.26D-06 BMatP= 5.77D-05
 IDIUse=1 WtCom= 1.00D+00 WtEn= 0.00D+00
 Coeff-Com: -0.107D-01 0.231D-01 0.125D-01-0.112D+00-0.249D-01 0.209D+00
 Coeff-Com:  0.903D+00
 Coeff:     -0.107D-01 0.231D-01 0.125D-01-0.112D+00-0.249D-01 0.209D+00
 Coeff:      0.903D+00
 Gap=     0.255 Goal=   None    Shift=    0.000
 Gap=     0.255 Goal=   None    Shift=    0.000
 RMSDP=4.84D-06 MaxDP=2.86D-04 DE=-5.52D-05 OVMax= 1.15D-03

 Cycle   8  Pass 1  IDiag  1:
 RMSU=  2.20D-06    CP:  9.45D-01  2.12D+00  1.03D+00  1.67D+00  1.80D+00
                    CP:  1.39D+00  1.24D+00
 E= -466.837216718949     Delta-E=       -0.000002653855 Rises=F Damp=F
 DIIS: error= 2.58D-05 at cycle   8 NSaved=   8.
 NSaved= 8 IEnMin= 8 EnMin= -466.837216718949     IErMin= 8 ErrMin= 2.58D-05
 ErrMax= 2.58D-05  0.00D+00 EMaxC= 1.00D-01 BMatC= 5.32D-07 BMatP= 3.26D-06
 IDIUse=1 WtCom= 1.00D+00 WtEn= 0.00D+00
 Coeff-Com:  0.219D-04-0.206D-04 0.179D-02 0.291D-01-0.501D-01-0.945D-01
 Coeff-Com:  0.229D+00 0.885D+00
 Coeff:      0.219D-04-0.206D-04 0.179D-02 0.291D-01-0.501D-01-0.945D-01
 Coeff:      0.229D+00 0.885D+00
 Gap=     0.255 Goal=   None    Shift=    0.000
 Gap=     0.255 Goal=   None    Shift=    0.000
 RMSDP=2.08D-06 MaxDP=1.27D-04 DE=-2.65D-06 OVMax= 3.64D-04

 Cycle   9  Pass 1  IDiag  1:
 RMSU=  9.22D-07    CP:  9.45D-01  2.12D+00  1.03D+00  1.66D+00  1.81D+00
                    CP:  1.41D+00  1.39D+00  1.30D+00
 E= -466.837217062824     Delta-E=       -0.000000343876 Rises=F Damp=F
 DIIS: error= 1.05D-05 at cycle   9 NSaved=   9.
 NSaved= 9 IEnMin= 9 EnMin= -466.837217062824     IErMin= 9 ErrMin= 1.05D-05
 ErrMax= 1.05D-05  0.00D+00 EMaxC= 1.00D-01 BMatC= 5.80D-08 BMatP= 5.32D-07
 IDIUse=1 WtCom= 1.00D+00 WtEn= 0.00D+00
 Coeff-Com:  0.145D-02-0.313D-02-0.126D-02 0.217D-01-0.823D-02-0.506D-01
 Coeff-Com: -0.645D-01 0.215D+00 0.890D+00
 Coeff:      0.145D-02-0.313D-02-0.126D-02 0.217D-01-0.823D-02-0.506D-01
 Coeff:     -0.645D-01 0.215D+00 0.890D+00
 Gap=     0.255 Goal=   None    Shift=    0.000
 Gap=     0.255 Goal=   None    Shift=    0.000
 RMSDP=8.10D-07 MaxDP=4.70D-05 DE=-3.44D-07 OVMax= 1.55D-04

 Cycle  10  Pass 1  IDiag  1:
 RMSU=  3.21D-07    CP:  9.45D-01  2.12D+00  1.03D+00  1.66D+00  1.80D+00
                    CP:  1.41D+00  1.44D+00  1.49D+00  1.32D+00
 E= -466.837217103587     Delta-E=       -0.000000040763 Rises=F Damp=F
 DIIS: error= 3.16D-06 at cycle  10 NSaved=  10.
 NSaved=10 IEnMin=10 EnMin= -466.837217103587     IErMin=10 ErrMin= 3.16D-06
 ErrMax= 3.16D-06  0.00D+00 EMaxC= 1.00D-01 BMatC= 4.45D-09 BMatP= 5.80D-08
 IDIUse=1 WtCom= 1.00D+00 WtEn= 0.00D+00
 Coeff-Com: -0.572D-04 0.126D-03-0.118D-03-0.343D-02 0.440D-02 0.103D-01
 Coeff-Com: -0.156D-01-0.846D-01-0.364D-01 0.113D+01
 Coeff:     -0.572D-04 0.126D-03-0.118D-03-0.343D-02 0.440D-02 0.103D-01
 Coeff:     -0.156D-01-0.846D-01-0.364D-01 0.113D+01
 Gap=     0.255 Goal=   None    Shift=    0.000
 Gap=     0.255 Goal=   None    Shift=    0.000
 RMSDP=3.11D-07 MaxDP=2.54D-05 DE=-4.08D-08 OVMax= 5.92D-05

 Cycle  11  Pass 1  IDiag  1:
 RMSU=  1.08D-07    CP:  9.45D-01  2.12D+00  1.03D+00  1.66D+00  1.80D+00
                    CP:  1.41D+00  1.44D+00  1.55D+00  1.51D+00  1.40D+00
 E= -466.837217108064     Delta-E=       -0.000000004476 Rises=F Damp=F
 DIIS: error= 7.17D-07 at cycle  11 NSaved=  11.
 NSaved=11 IEnMin=11 EnMin= -466.837217108064     IErMin=11 ErrMin= 7.17D-07
 ErrMax= 7.17D-07  0.00D+00 EMaxC= 1.00D-01 BMatC= 1.21D-09 BMatP= 4.45D-09
 IDIUse=1 WtCom= 1.00D+00 WtEn= 0.00D+00
 Coeff-Com: -0.228D-03 0.494D-03 0.137D-03-0.429D-02 0.270D-02 0.110D-01
 Coeff-Com:  0.310D-02-0.609D-01-0.134D+00 0.406D+00 0.776D+00
 Coeff:     -0.228D-03 0.494D-03 0.137D-03-0.429D-02 0.270D-02 0.110D-01
 Coeff:      0.310D-02-0.609D-01-0.134D+00 0.406D+00 0.776D+00
 Gap=     0.255 Goal=   None    Shift=    0.000
 Gap=     0.255 Goal=   None    Shift=    0.000
 RMSDP=9.78D-08 MaxDP=7.49D-06 DE=-4.48D-09 OVMax= 1.64D-05

 Cycle  12  Pass 1  IDiag  1:
 RMSU=  3.96D-08    CP:  9.45D-01  2.12D+00  1.03D+00  1.66D+00  1.80D+00
                    CP:  1.41D+00  1.44D+00  1.56D+00  1.56D+00  1.53D+00
                    CP:  1.32D+00
 E= -466.837217108805     Delta-E=       -0.000000000741 Rises=F Damp=F
 DIIS: error= 3.32D-07 at cycle  12 NSaved=  12.
 NSaved=12 IEnMin=12 EnMin= -466.837217108805     IErMin=12 ErrMin= 3.32D-07
 ErrMax= 3.32D-07  0.00D+00 EMaxC= 1.00D-01 BMatC= 1.40D-10 BMatP= 1.21D-09
 IDIUse=1 WtCom= 1.00D+00 WtEn= 0.00D+00
 Coeff-Com:  0.248D-04-0.540D-04-0.251D-05 0.709D-03-0.750D-03-0.186D-02
 Coeff-Com:  0.178D-02 0.140D-01 0.132D-01-0.173D+00-0.198D-01 0.117D+01
 Coeff:      0.248D-04-0.540D-04-0.251D-05 0.709D-03-0.750D-03-0.186D-02
 Coeff:      0.178D-02 0.140D-01 0.132D-01-0.173D+00-0.198D-01 0.117D+01
 Gap=     0.255 Goal=   None    Shift=    0.000
 Gap=     0.255 Goal=   None    Shift=    0.000
 RMSDP=4.86D-08 MaxDP=2.58D-06 DE=-7.41D-10 OVMax= 9.70D-06

 Cycle  13  Pass 1  IDiag  1:
 RMSU=  1.96D-08    CP:  9.45D-01  2.12D+00  1.03D+00  1.66D+00  1.80D+00
                    CP:  1.41D+00  1.44D+00  1.56D+00  1.57D+00  1.58D+00
                    CP:  1.64D+00  1.48D+00
 E= -466.837217109020     Delta-E=       -0.000000000215 Rises=F Damp=F
 DIIS: error= 2.10D-07 at cycle  13 NSaved=  13.
 NSaved=13 IEnMin=13 EnMin= -466.837217109020     IErMin=13 ErrMin= 2.10D-07
 ErrMax= 2.10D-07  0.00D+00 EMaxC= 1.00D-01 BMatC= 3.72D-11 BMatP= 1.40D-10
 IDIUse=1 WtCom= 1.00D+00 WtEn= 0.00D+00
 Coeff-Com:  0.436D-04-0.943D-04-0.223D-04 0.861D-03-0.566D-03-0.225D-02
 Coeff-Com: -0.320D-03 0.124D-01 0.266D-01-0.937D-01-0.146D+00 0.900D-01
 Coeff-Com:  0.111D+01
 Coeff:      0.436D-04-0.943D-04-0.223D-04 0.861D-03-0.566D-03-0.225D-02
 Coeff:     -0.320D-03 0.124D-01 0.266D-01-0.937D-01-0.146D+00 0.900D-01
 Coeff:      0.111D+01
 Gap=     0.255 Goal=   None    Shift=    0.000
 Gap=     0.255 Goal=   None    Shift=    0.000
 RMSDP=2.39D-08 MaxDP=1.07D-06 DE=-2.15D-10 OVMax= 5.89D-06

 Cycle  14  Pass 1  IDiag  1:
 RMSU=  8.61D-09    CP:  9.45D-01  2.12D+00  1.03D+00  1.66D+00  1.80D+00
                    CP:  1.41D+00  1.44D+00  1.56D+00  1.57D+00  1.58D+00
                    CP:  1.76D+00  1.73D+00  1.64D+00
 E= -466.837217109091     Delta-E=       -0.000000000071 Rises=F Damp=F
 DIIS: error= 1.33D-07 at cycle  14 NSaved=  14.
 NSaved=14 IEnMin=14 EnMin= -466.837217109091     IErMin=14 ErrMin= 1.33D-07
 ErrMax= 1.33D-07  0.00D+00 EMaxC= 1.00D-01 BMatC= 1.31D-11 BMatP= 3.72D-11
 IDIUse=1 WtCom= 1.00D+00 WtEn= 0.00D+00
 Coeff-Com:  0.315D-05-0.659D-05-0.317D-05 0.403D-05 0.830D-04-0.439D-04
 Coeff-Com: -0.486D-03-0.106D-02 0.301D-02 0.256D-01-0.336D-01-0.326D+00
 Coeff-Com:  0.307D+00 0.102D+01
 Coeff:      0.315D-05-0.659D-05-0.317D-05 0.403D-05 0.830D-04-0.439D-04
 Coeff:     -0.486D-03-0.106D-02 0.301D-02 0.256D-01-0.336D-01-0.326D+00
 Coeff:      0.307D+00 0.102D+01
 Gap=     0.255 Goal=   None    Shift=    0.000
 Gap=     0.255 Goal=   None    Shift=    0.000
 RMSDP=1.39D-08 MaxDP=7.03D-07 DE=-7.08D-11 OVMax= 4.25D-06

 Cycle  15  Pass 1  IDiag  1:
 RMSU=  4.46D-09    CP:  9.45D-01  2.12D+00  1.03D+00  1.66D+00  1.80D+00
                    CP:  1.41D+00  1.44D+00  1.55D+00  1.57D+00  1.58D+00
                    CP:  1.80D+00  1.84D+00  2.11D+00  1.70D+00
 E= -466.837217109114     Delta-E=       -0.000000000023 Rises=F Damp=F
 DIIS: error= 5.62D-08 at cycle  15 NSaved=  15.
 NSaved=15 IEnMin=15 EnMin= -466.837217109114     IErMin=15 ErrMin= 5.62D-08
 ErrMax= 5.62D-08  0.00D+00 EMaxC= 1.00D-01 BMatC= 2.61D-12 BMatP= 1.31D-11
 IDIUse=1 WtCom= 1.00D+00 WtEn= 0.00D+00
 Coeff-Com: -0.128D-04 0.276D-04 0.612D-05-0.262D-03 0.194D-03 0.671D-03
 Coeff-Com:  0.214D-04-0.416D-02-0.768D-02 0.328D-01 0.416D-01-0.715D-01
 Coeff-Com: -0.313D+00 0.124D+00 0.120D+01
 Coeff:     -0.128D-04 0.276D-04 0.612D-05-0.262D-03 0.194D-03 0.671D-03
 Coeff:      0.214D-04-0.416D-02-0.768D-02 0.328D-01 0.416D-01-0.715D-01
 Coeff:     -0.313D+00 0.124D+00 0.120D+01
 Gap=     0.255 Goal=   None    Shift=    0.000
 Gap=     0.255 Goal=   None    Shift=    0.000
 RMSDP=8.50D-09 MaxDP=3.78D-07 DE=-2.32D-11 OVMax= 2.59D-06

 Error on total polarization charges =  0.01168
 SCF Done:  E(UwB97XD) =  -466.837217109     A.U. after   15 cycles
            NFock= 15  Conv=0.85D-08     -V/T= 2.0059
 <Sx>= 0.0000 <Sy>= 0.0000 <Sz>= 0.0000 <S**2>= 1.0574 S= 0.6434
 <L.S>=  0.00000000000    
 KE= 4.640905705588D+02 PE=-2.475982851267D+03 EE= 8.478732644461D+02
 --------------------------------------------------------------------
 Variational PCM results
 =======================
 <psi(f)|   H    |psi(f)>                     (a.u.) =    -466.836006
 <psi(f)|H+V(f)/2|psi(f)>                     (a.u.) =    -466.837217
 (Polarized solute)-Solvent               (kcal/mol) =      -0.76
 --------------------------------------------------------------------
 Partition over spheres:
 Sphere  on Atom  Surface  Charge   GEl     GCav    GDR
    1      C1       7.93   0.011   -0.04    0.00    0.00
    2      C2       0.02  -0.000   -0.00    0.00    0.00
    3      H3       7.51  -0.010   -0.04    0.00    0.00
    4      H4       3.69  -0.004   -0.01    0.00    0.00
    5      C5       3.89   0.007   -0.03    0.00    0.00
    6      C6       0.05  -0.000   -0.00    0.00    0.00
    7      H7       5.84  -0.008   -0.03    0.00    0.00
    8      H8       3.49  -0.003   -0.01    0.00    0.00
    9      C9       3.17   0.002   -0.00    0.00    0.00
   10      H10      6.19  -0.005   -0.01    0.00    0.00
   11      H11      4.38  -0.003   -0.01    0.00    0.00
   12      C12      7.19   0.012   -0.07    0.00    0.00
   13      H13      7.51  -0.010   -0.03    0.00    0.00
   14      C14      7.50   0.011   -0.04    0.00    0.00
   15      H15      7.51  -0.010   -0.04    0.00    0.00
   16      C16      3.63   0.002    0.00    0.00    0.00
   17      H17      4.55  -0.005   -0.02    0.00    0.00
   18      H18      7.61  -0.007   -0.03    0.00    0.00
   19      C19      4.11   0.007   -0.03    0.00    0.00
   20      H20      5.50  -0.008   -0.03    0.00    0.00
   21      C21      7.22   0.012   -0.07    0.00    0.00
   22      H22      7.51  -0.010   -0.03    0.00    0.00
   23      C23      3.16   0.002   -0.00    0.00    0.00
   24      H24      4.36  -0.003   -0.01    0.00    0.00
   25      H25      6.32  -0.005   -0.00    0.00    0.00
   26      C26      3.96   0.002    0.00    0.00    0.00
   27      H27      7.53  -0.008   -0.03    0.00    0.00
   28      H28      4.55  -0.005   -0.02    0.00    0.00
 Added spheres:    72.32   0.024   -0.17    0.00    0.00
 --------------------------------------------------------------------
 After PCM corrections, the energy is  -466.837217109     a.u.
 --------------------------------------------------------------------
 Annihilation of the first spin contaminant:
 S**2 before annihilation     1.0574,   after     0.5451
 Leave Link  502 at Mon Aug  3 17:16:25 2020, MaxMem=  6442450944 cpu:            6435.7 elap:             270.8
 (Enter /scratch/scicomp/CentOS/7.3.1611/Haswell/software/Gaussian/g16/l601.exe)
 Copying SCF densities to generalized density rwf, IOpCl= 1 IROHF=0.

 **********************************************************************

            Population analysis using the SCF Density.

 **********************************************************************

 Alpha  occ. eigenvalues --  -10.29025 -10.28902 -10.28866 -10.28580 -10.28408
 Alpha  occ. eigenvalues --  -10.28360 -10.28214 -10.28141 -10.27897 -10.27859
 Alpha  occ. eigenvalues --  -10.27749 -10.27732  -0.95653  -0.92727  -0.86141
 Alpha  occ. eigenvalues --   -0.84640  -0.83577  -0.80949  -0.71570  -0.70775
 Alpha  occ. eigenvalues --   -0.69188  -0.67564  -0.60224  -0.59389  -0.58778
 Alpha  occ. eigenvalues --   -0.56249  -0.53643  -0.52642  -0.51068  -0.49065
 Alpha  occ. eigenvalues --   -0.49035  -0.48664  -0.48349  -0.47429  -0.45892
 Alpha  occ. eigenvalues --   -0.44734  -0.41395  -0.40894  -0.40034  -0.38902
 Alpha  occ. eigenvalues --   -0.37758  -0.37442  -0.34758  -0.25316
 Alpha virt. eigenvalues --    0.00153   0.10592   0.10620   0.12326   0.13170
 Alpha virt. eigenvalues --    0.14024   0.14765   0.15384   0.16055   0.16269
 Alpha virt. eigenvalues --    0.17034   0.17160   0.18408   0.20007   0.20234
 Alpha virt. eigenvalues --    0.21327   0.21996   0.22470   0.23431   0.24648
 Alpha virt. eigenvalues --    0.25434   0.25820   0.26503   0.26589   0.26893
 Alpha virt. eigenvalues --    0.28326   0.28659   0.29970   0.30570   0.31584
 Alpha virt. eigenvalues --    0.31762   0.32102   0.32142   0.33937   0.34107
 Alpha virt. eigenvalues --    0.34537   0.35503   0.36134   0.36713   0.37159
 Alpha virt. eigenvalues --    0.38176   0.38379   0.40802   0.41064   0.41700
 Alpha virt. eigenvalues --    0.43456   0.43663   0.45329   0.45602   0.46153
 Alpha virt. eigenvalues --    0.46836   0.47534   0.47610   0.47919   0.48285
 Alpha virt. eigenvalues --    0.48820   0.49195   0.49336   0.49710   0.50694
 Alpha virt. eigenvalues --    0.50995   0.51128   0.51941   0.52365   0.52844
 Alpha virt. eigenvalues --    0.53110   0.54087   0.54179   0.54775   0.55471
 Alpha virt. eigenvalues --    0.56411   0.57139   0.57464   0.58337   0.58457
 Alpha virt. eigenvalues --    0.58659   0.61486   0.61615   0.64478   0.65098
 Alpha virt. eigenvalues --    0.66653   0.66864   0.67618   0.68984   0.69827
 Alpha virt. eigenvalues --    0.70719   0.71623   0.75236   0.75700   0.76031
 Alpha virt. eigenvalues --    0.78029   0.79498   0.80033   0.81429   0.82607
 Alpha virt. eigenvalues --    0.83211   0.84351   0.86834   0.87747   0.89381
 Alpha virt. eigenvalues --    0.90806   0.91102   0.92520   0.93504   0.94708
 Alpha virt. eigenvalues --    0.96683   0.97470   0.98721   0.99233   0.99552
 Alpha virt. eigenvalues --    1.01874   1.02041   1.04172   1.04819   1.05442
 Alpha virt. eigenvalues --    1.06306   1.08629   1.10063   1.10424   1.10832
 Alpha virt. eigenvalues --    1.11923   1.14838   1.15795   1.17166   1.17612
 Alpha virt. eigenvalues --    1.18355   1.18679   1.19586   1.20269   1.20689
 Alpha virt. eigenvalues --    1.22018   1.24552   1.25127   1.26041   1.26522
 Alpha virt. eigenvalues --    1.27407   1.27816   1.28730   1.28945   1.30037
 Alpha virt. eigenvalues --    1.30148   1.31534   1.33681   1.34109   1.34676
 Alpha virt. eigenvalues --    1.35054   1.36858   1.37174   1.38179   1.38437
 Alpha virt. eigenvalues --    1.39159   1.39539   1.39888   1.41336   1.42299
 Alpha virt. eigenvalues --    1.43179   1.43395   1.44288   1.45318   1.45692
 Alpha virt. eigenvalues --    1.46888   1.47554   1.48501   1.50935   1.51455
 Alpha virt. eigenvalues --    1.52385   1.53990   1.54857   1.56562   1.58015
 Alpha virt. eigenvalues --    1.58733   1.60349   1.62505   1.63111   1.64213
 Alpha virt. eigenvalues --    1.67857   1.68881   1.69192   1.69296   1.70174
 Alpha virt. eigenvalues --    1.73540   1.74489   1.77277   1.78519   1.78744
 Alpha virt. eigenvalues --    1.80453   1.81877   1.83120   1.84366   1.88588
 Alpha virt. eigenvalues --    1.89316   1.91991   1.92054   1.94355   1.95591
 Alpha virt. eigenvalues --    1.96258   1.99407   2.01061   2.06264   2.07143
 Alpha virt. eigenvalues --    2.07590   2.09526   2.10732   2.12569   2.13296
 Alpha virt. eigenvalues --    2.13882   2.16102   2.16486   2.17861   2.18865
 Alpha virt. eigenvalues --    2.20674   2.20952   2.21469   2.23249   2.24118
 Alpha virt. eigenvalues --    2.27336   2.28644   2.30774   2.32145   2.35657
 Alpha virt. eigenvalues --    2.35919   2.36918   2.38339   2.40923   2.42014
 Alpha virt. eigenvalues --    2.45422   2.46027   2.47371   2.50131   2.50983
 Alpha virt. eigenvalues --    2.51581   2.52812   2.56014   2.56893   2.57650
 Alpha virt. eigenvalues --    2.59004   2.61417   2.61759   2.62900   2.63056
 Alpha virt. eigenvalues --    2.65263   2.65974   2.67425   2.67743   2.67940
 Alpha virt. eigenvalues --    2.68387   2.70355   2.72675   2.72957   2.73182
 Alpha virt. eigenvalues --    2.74603   2.75945   2.76236   2.78086   2.79956
 Alpha virt. eigenvalues --    2.80301   2.81974   2.82285   2.82552   2.84335
 Alpha virt. eigenvalues --    2.84683   2.85082   2.86650   2.86911   2.88178
 Alpha virt. eigenvalues --    2.88408   2.89718   2.89935   2.90159   2.91409
 Alpha virt. eigenvalues --    2.93142   2.94492   2.95338   2.96086   2.97429
 Alpha virt. eigenvalues --    2.98375   3.02011   3.02212   3.02757   3.04517
 Alpha virt. eigenvalues --    3.06301   3.06465   3.06968   3.08150   3.08935
 Alpha virt. eigenvalues --    3.10542   3.11074   3.11765   3.12628   3.13706
 Alpha virt. eigenvalues --    3.13821   3.14649   3.15652   3.15978   3.16425
 Alpha virt. eigenvalues --    3.16585   3.17383   3.18429   3.18903   3.20329
 Alpha virt. eigenvalues --    3.20556   3.20827   3.22200   3.22765   3.24069
 Alpha virt. eigenvalues --    3.24935   3.25450   3.25499   3.25988   3.26448
 Alpha virt. eigenvalues --    3.26775   3.29720   3.30821   3.31397   3.31717
 Alpha virt. eigenvalues --    3.32332   3.33037   3.33415   3.34874   3.35761
 Alpha virt. eigenvalues --    3.37261   3.37729   3.38220   3.39505   3.39632
 Alpha virt. eigenvalues --    3.41090   3.41325   3.42302   3.43512   3.43783
 Alpha virt. eigenvalues --    3.44571   3.45945   3.46963   3.47130   3.48760
 Alpha virt. eigenvalues --    3.49433   3.50706   3.51274   3.51659   3.53102
 Alpha virt. eigenvalues --    3.53402   3.54184   3.55157   3.57101   3.57802
 Alpha virt. eigenvalues --    3.58795   3.59150   3.59588   3.61834   3.62480
 Alpha virt. eigenvalues --    3.62892   3.64165   3.64386   3.65457   3.67671
 Alpha virt. eigenvalues --    3.69407   3.69556   3.71885   3.72310   3.74078
 Alpha virt. eigenvalues --    3.75966   3.79047   3.79867   3.80676   3.81566
 Alpha virt. eigenvalues --    3.83836   3.84135   3.84890   3.85276   3.86902
 Alpha virt. eigenvalues --    3.88384   3.91616   3.91936   3.94278   3.94818
 Alpha virt. eigenvalues --    3.95750   3.97959   3.99808   4.02401   4.04768
 Alpha virt. eigenvalues --    4.05211   4.07692   4.07811   4.09355   4.09499
 Alpha virt. eigenvalues --    4.12505   4.13278   4.15105   4.16489   4.18470
 Alpha virt. eigenvalues --    4.20250   4.21656   4.23764   4.24407   4.25969
 Alpha virt. eigenvalues --    4.26651   4.28469   4.28853   4.29320   4.30366
 Alpha virt. eigenvalues --    4.33439   4.35320   4.40477   4.41027   4.42124
 Alpha virt. eigenvalues --    4.43304   4.43979   4.44932   4.47507   4.50657
 Alpha virt. eigenvalues --    4.52593   4.55135   4.56472   4.57693   4.59558
 Alpha virt. eigenvalues --    4.61627   4.63294   4.63413   4.65972   4.68085
 Alpha virt. eigenvalues --    4.71200   4.72458   4.75547   4.76295   4.78697
 Alpha virt. eigenvalues --    4.83625   4.85616   4.87588   4.90138   4.91718
 Alpha virt. eigenvalues --    4.92452   4.93098   4.95132   4.99361   5.01994
 Alpha virt. eigenvalues --    5.07465   5.09172   5.10617   5.14169   5.14515
 Alpha virt. eigenvalues --    5.20937   5.25109   5.26414   5.28445   5.32381
 Alpha virt. eigenvalues --    5.34696   5.36148   5.39244   5.39532   5.43258
 Alpha virt. eigenvalues --    5.47482   5.48253   5.53740   5.56179   5.59459
 Alpha virt. eigenvalues --    5.63942   5.73018   5.75210   5.80788   5.81861
 Alpha virt. eigenvalues --    7.94108   7.95031   8.03361   8.04593   8.08668
 Alpha virt. eigenvalues --    8.11044   8.12686   8.16162   8.19142   8.19424
 Alpha virt. eigenvalues --    8.32575   8.37722  34.74611  34.75371  34.82318
 Alpha virt. eigenvalues --   34.82495  34.85396  34.90289  34.99015  35.00175
 Alpha virt. eigenvalues --   35.02884  35.03020  35.15409  35.25625
  Beta  occ. eigenvalues --  -10.29025 -10.28902 -10.28867 -10.28580 -10.28407
  Beta  occ. eigenvalues --  -10.28360 -10.28213 -10.28141 -10.27898 -10.27858
  Beta  occ. eigenvalues --  -10.27748 -10.27732  -0.95653  -0.92727  -0.86141
  Beta  occ. eigenvalues --   -0.84640  -0.83577  -0.80949  -0.71570  -0.70775
  Beta  occ. eigenvalues --   -0.69188  -0.67564  -0.60224  -0.59389  -0.58778
  Beta  occ. eigenvalues --   -0.56249  -0.53643  -0.52642  -0.51068  -0.49065
  Beta  occ. eigenvalues --   -0.49036  -0.48663  -0.48349  -0.47429  -0.45892
  Beta  occ. eigenvalues --   -0.44734  -0.41396  -0.40894  -0.40034  -0.38902
  Beta  occ. eigenvalues --   -0.37758  -0.37442  -0.34757  -0.25317
  Beta virt. eigenvalues --    0.00154   0.10592   0.10620   0.12326   0.13170
  Beta virt. eigenvalues --    0.14024   0.14765   0.15384   0.16055   0.16268
  Beta virt. eigenvalues --    0.17034   0.17159   0.18408   0.20007   0.20234
  Beta virt. eigenvalues --    0.21327   0.21997   0.22469   0.23431   0.24648
  Beta virt. eigenvalues --    0.25434   0.25820   0.26503   0.26589   0.26893
  Beta virt. eigenvalues --    0.28326   0.28659   0.29970   0.30570   0.31584
  Beta virt. eigenvalues --    0.31762   0.32102   0.32142   0.33937   0.34107
  Beta virt. eigenvalues --    0.34537   0.35503   0.36134   0.36713   0.37159
  Beta virt. eigenvalues --    0.38176   0.38379   0.40802   0.41064   0.41700
  Beta virt. eigenvalues --    0.43456   0.43663   0.45329   0.45603   0.46153
  Beta virt. eigenvalues --    0.46836   0.47534   0.47609   0.47919   0.48286
  Beta virt. eigenvalues --    0.48820   0.49195   0.49336   0.49710   0.50694
  Beta virt. eigenvalues --    0.50995   0.51128   0.51941   0.52365   0.52844
  Beta virt. eigenvalues --    0.53110   0.54087   0.54179   0.54775   0.55472
  Beta virt. eigenvalues --    0.56411   0.57139   0.57464   0.58337   0.58457
  Beta virt. eigenvalues --    0.58659   0.61486   0.61615   0.64478   0.65098
  Beta virt. eigenvalues --    0.66653   0.66864   0.67618   0.68984   0.69827
  Beta virt. eigenvalues --    0.70719   0.71623   0.75237   0.75700   0.76031
  Beta virt. eigenvalues --    0.78029   0.79498   0.80033   0.81429   0.82607
  Beta virt. eigenvalues --    0.83211   0.84351   0.86834   0.87748   0.89381
  Beta virt. eigenvalues --    0.90806   0.91102   0.92520   0.93504   0.94708
  Beta virt. eigenvalues --    0.96683   0.97470   0.98721   0.99233   0.99552
  Beta virt. eigenvalues --    1.01874   1.02041   1.04172   1.04820   1.05442
  Beta virt. eigenvalues --    1.06306   1.08630   1.10063   1.10424   1.10832
  Beta virt. eigenvalues --    1.11923   1.14838   1.15794   1.17166   1.17612
  Beta virt. eigenvalues --    1.18354   1.18679   1.19586   1.20269   1.20689
  Beta virt. eigenvalues --    1.22018   1.24552   1.25127   1.26041   1.26522
  Beta virt. eigenvalues --    1.27407   1.27816   1.28730   1.28945   1.30037
  Beta virt. eigenvalues --    1.30148   1.31534   1.33681   1.34109   1.34676
  Beta virt. eigenvalues --    1.35054   1.36858   1.37174   1.38179   1.38437
  Beta virt. eigenvalues --    1.39159   1.39539   1.39888   1.41336   1.42299
  Beta virt. eigenvalues --    1.43179   1.43395   1.44288   1.45318   1.45691
  Beta virt. eigenvalues --    1.46888   1.47554   1.48501   1.50935   1.51455
  Beta virt. eigenvalues --    1.52385   1.53990   1.54857   1.56562   1.58015
  Beta virt. eigenvalues --    1.58733   1.60349   1.62505   1.63111   1.64213
  Beta virt. eigenvalues --    1.67857   1.68881   1.69192   1.69296   1.70174
  Beta virt. eigenvalues --    1.73540   1.74489   1.77277   1.78519   1.78744
  Beta virt. eigenvalues --    1.80453   1.81877   1.83120   1.84366   1.88588
  Beta virt. eigenvalues --    1.89316   1.91991   1.92054   1.94355   1.95591
  Beta virt. eigenvalues --    1.96258   1.99407   2.01061   2.06264   2.07143
  Beta virt. eigenvalues --    2.07590   2.09526   2.10732   2.12569   2.13296
  Beta virt. eigenvalues --    2.13882   2.16102   2.16486   2.17861   2.18865
  Beta virt. eigenvalues --    2.20674   2.20951   2.21469   2.23249   2.24118
  Beta virt. eigenvalues --    2.27336   2.28644   2.30774   2.32145   2.35657
  Beta virt. eigenvalues --    2.35919   2.36918   2.38339   2.40923   2.42014
  Beta virt. eigenvalues --    2.45422   2.46027   2.47371   2.50131   2.50983
  Beta virt. eigenvalues --    2.51581   2.52812   2.56014   2.56893   2.57650
  Beta virt. eigenvalues --    2.59004   2.61417   2.61759   2.62899   2.63056
  Beta virt. eigenvalues --    2.65263   2.65974   2.67425   2.67743   2.67940
  Beta virt. eigenvalues --    2.68387   2.70355   2.72675   2.72957   2.73182
  Beta virt. eigenvalues --    2.74603   2.75945   2.76236   2.78085   2.79956
  Beta virt. eigenvalues --    2.80301   2.81974   2.82285   2.82552   2.84335
  Beta virt. eigenvalues --    2.84683   2.85082   2.86650   2.86911   2.88178
  Beta virt. eigenvalues --    2.88408   2.89718   2.89935   2.90159   2.91409
  Beta virt. eigenvalues --    2.93142   2.94492   2.95338   2.96086   2.97429
  Beta virt. eigenvalues --    2.98375   3.02011   3.02212   3.02757   3.04517
  Beta virt. eigenvalues --    3.06300   3.06465   3.06968   3.08150   3.08935
  Beta virt. eigenvalues --    3.10541   3.11074   3.11765   3.12629   3.13706
  Beta virt. eigenvalues --    3.13821   3.14649   3.15652   3.15978   3.16425
  Beta virt. eigenvalues --    3.16585   3.17383   3.18429   3.18903   3.20329
  Beta virt. eigenvalues --    3.20556   3.20827   3.22200   3.22765   3.24069
  Beta virt. eigenvalues --    3.24935   3.25450   3.25499   3.25988   3.26448
  Beta virt. eigenvalues --    3.26775   3.29720   3.30821   3.31397   3.31717
  Beta virt. eigenvalues --    3.32332   3.33037   3.33415   3.34874   3.35761
  Beta virt. eigenvalues --    3.37261   3.37729   3.38220   3.39505   3.39632
  Beta virt. eigenvalues --    3.41090   3.41325   3.42302   3.43512   3.43783
  Beta virt. eigenvalues --    3.44571   3.45945   3.46963   3.47130   3.48760
  Beta virt. eigenvalues --    3.49433   3.50706   3.51274   3.51659   3.53102
  Beta virt. eigenvalues --    3.53402   3.54184   3.55157   3.57101   3.57802
  Beta virt. eigenvalues --    3.58795   3.59150   3.59588   3.61834   3.62480
  Beta virt. eigenvalues --    3.62892   3.64165   3.64386   3.65457   3.67671
  Beta virt. eigenvalues --    3.69407   3.69555   3.71885   3.72310   3.74078
  Beta virt. eigenvalues --    3.75966   3.79047   3.79867   3.80676   3.81566
  Beta virt. eigenvalues --    3.83836   3.84135   3.84890   3.85276   3.86902
  Beta virt. eigenvalues --    3.88384   3.91616   3.91936   3.94278   3.94818
  Beta virt. eigenvalues --    3.95750   3.97959   3.99808   4.02401   4.04768
  Beta virt. eigenvalues --    4.05211   4.07692   4.07811   4.09355   4.09499
  Beta virt. eigenvalues --    4.12505   4.13278   4.15105   4.16489   4.18470
  Beta virt. eigenvalues --    4.20250   4.21656   4.23764   4.24407   4.25969
  Beta virt. eigenvalues --    4.26651   4.28469   4.28853   4.29320   4.30366
  Beta virt. eigenvalues --    4.33439   4.35320   4.40476   4.41027   4.42124
  Beta virt. eigenvalues --    4.43304   4.43979   4.44932   4.47507   4.50657
  Beta virt. eigenvalues --    4.52593   4.55135   4.56472   4.57692   4.59558
  Beta virt. eigenvalues --    4.61627   4.63294   4.63413   4.65972   4.68085
  Beta virt. eigenvalues --    4.71200   4.72458   4.75547   4.76295   4.78697
  Beta virt. eigenvalues --    4.83625   4.85616   4.87588   4.90137   4.91718
  Beta virt. eigenvalues --    4.92452   4.93098   4.95132   4.99361   5.01994
  Beta virt. eigenvalues --    5.07465   5.09171   5.10618   5.14169   5.14515
  Beta virt. eigenvalues --    5.20937   5.25109   5.26414   5.28445   5.32381
  Beta virt. eigenvalues --    5.34696   5.36148   5.39244   5.39532   5.43258
  Beta virt. eigenvalues --    5.47482   5.48253   5.53740   5.56179   5.59459
  Beta virt. eigenvalues --    5.63942   5.73018   5.75211   5.80788   5.81862
  Beta virt. eigenvalues --    7.94107   7.95032   8.03361   8.04593   8.08668
  Beta virt. eigenvalues --    8.11044   8.12686   8.16162   8.19142   8.19424
  Beta virt. eigenvalues --    8.32575   8.37722  34.74611  34.75371  34.82318
  Beta virt. eigenvalues --   34.82495  34.85396  34.90289  34.99015  35.00175
  Beta virt. eigenvalues --   35.02884  35.03020  35.15409  35.25625
          Condensed to atoms (all electrons):
               1          2          3          4          5          6
     1  C    5.253391   0.032443   0.431392  -0.003110   0.000780  -0.011516
     2  C    0.032443   5.308720  -0.001601   0.422744  -0.111432   0.243091
     3  H    0.431392  -0.001601   0.490951   0.000042   0.000000   0.000155
     4  H   -0.003110   0.422744   0.000042   0.544338  -0.001586  -0.012878
     5  C    0.000780  -0.111432   0.000000  -0.001586   5.344514   0.276637
     6  C   -0.011516   0.243091   0.000155  -0.012878   0.276637   5.308706
     7  H    0.000007   0.001514   0.000004   0.000269   0.424818  -0.032499
     8  H   -0.001671  -0.012874  -0.000081   0.003006  -0.052270   0.422733
     9  C    0.001842  -0.067953   0.000001  -0.010947  -0.054041   0.267496
    10  H   -0.000038   0.008301  -0.000001  -0.000235  -0.001209  -0.049141
    11  H   -0.000339  -0.005828   0.000003   0.001196   0.011412  -0.048389
    12  C   -0.000073   0.014940  -0.000001   0.003460   0.444808  -0.080232
    13  H    0.000000  -0.000311   0.000000  -0.000055  -0.029457   0.004049
    14  C    0.000043  -0.011502  -0.000000  -0.001675  -0.061011   0.032421
    15  H   -0.000000   0.000155  -0.000000  -0.000081   0.004678  -0.001603
    16  C   -0.000268   0.021375   0.000000   0.002458  -0.005885  -0.083573
    17  H    0.000031   0.002484  -0.000000  -0.003218   0.004992  -0.010032
    18  H    0.000002  -0.000482   0.000000   0.000366  -0.001063   0.011781
    19  C   -0.061035   0.276694   0.004673  -0.052278   0.012433  -0.111422
    20  H    0.003973  -0.032454  -0.000152  -0.005653  -0.000627   0.001515
    21  C    0.460566  -0.080283  -0.035829   0.006383  -0.000642   0.014959
    22  H   -0.030549   0.004045  -0.005475  -0.000168   0.000056  -0.000311
    23  C   -0.105207   0.267507   0.005691  -0.021698   0.009197  -0.067959
    24  H    0.013119  -0.048392  -0.000076  -0.003054   0.004556  -0.005835
    25  H   -0.002027  -0.049106  -0.000167  -0.006067  -0.000008   0.008298
    26  C    0.285076  -0.083604  -0.030834   0.009903  -0.008274   0.021389
    27  H   -0.029016   0.011781  -0.003906  -0.000192   0.000096  -0.000482
    28  H   -0.039406  -0.010032   0.000465  -0.000144  -0.000992   0.002479
               7          8          9         10         11         12
     1  C    0.000007  -0.001671   0.001842  -0.000038  -0.000339  -0.000073
     2  C    0.001514  -0.012874  -0.067953   0.008301  -0.005828   0.014940
     3  H    0.000004  -0.000081   0.000001  -0.000001   0.000003  -0.000001
     4  H    0.000269   0.003006  -0.010947  -0.000235   0.001196   0.003460
     5  C    0.424818  -0.052270  -0.054041  -0.001209   0.011412   0.444808
     6  C   -0.032499   0.422733   0.267496  -0.049141  -0.048389  -0.080232
     7  H    0.477752  -0.005652   0.003066   0.000211  -0.000073  -0.028376
     8  H   -0.005652   0.544404  -0.021709  -0.006070  -0.003054   0.006387
     9  C    0.003066  -0.021709   5.025057   0.416478   0.446938   0.032023
    10  H    0.000211  -0.006070   0.416478   0.555519  -0.014939   0.002771
    11  H   -0.000073  -0.003054   0.446938  -0.014939   0.529172  -0.004992
    12  C   -0.028376   0.006387   0.032023   0.002771  -0.004992   4.978505
    13  H   -0.004841  -0.000168   0.000231  -0.000118   0.000038   0.420193
    14  C    0.003972  -0.003112  -0.105218  -0.002015   0.013119   0.460571
    15  H   -0.000152   0.000042   0.005692  -0.000167  -0.000076  -0.035870
    16  C   -0.001154   0.009904   0.340007  -0.027518  -0.054342  -0.047990
    17  H   -0.000047  -0.000144  -0.029895   0.005260  -0.003439  -0.004480
    18  H    0.000067  -0.000192  -0.039220  -0.006137  -0.003412   0.002997
    19  C   -0.000627  -0.001594   0.009171  -0.000008   0.004560  -0.000641
    20  H    0.000003   0.000269   0.002126   0.000319  -0.003698  -0.000026
    21  C   -0.000026   0.003455  -0.003378  -0.000012   0.000544   0.000053
    22  H   -0.000002  -0.000055  -0.000070  -0.000002  -0.000003  -0.000000
    23  C    0.002124  -0.010941   0.009318  -0.000254  -0.000008  -0.003378
    24  H   -0.003698   0.001196  -0.000008  -0.000019  -0.000010   0.000543
    25  H    0.000319  -0.000235  -0.000254   0.000019  -0.000019  -0.000012
    26  C   -0.000947   0.002452  -0.002166   0.000082   0.000070   0.000776
    27  H   -0.000029   0.000366   0.000040  -0.000002  -0.000004  -0.000004
    28  H    0.002031  -0.003218   0.000910   0.000012   0.000015  -0.000041
              13         14         15         16         17         18
     1  C    0.000000   0.000043  -0.000000  -0.000268   0.000031   0.000002
     2  C   -0.000311  -0.011502   0.000155   0.021375   0.002484  -0.000482
     3  H    0.000000  -0.000000  -0.000000   0.000000  -0.000000   0.000000
     4  H   -0.000055  -0.001675  -0.000081   0.002458  -0.003218   0.000366
     5  C   -0.029457  -0.061011   0.004678  -0.005885   0.004992  -0.001063
     6  C    0.004049   0.032421  -0.001603  -0.083573  -0.010032   0.011781
     7  H   -0.004841   0.003972  -0.000152  -0.001154  -0.000047   0.000067
     8  H   -0.000168  -0.003112   0.000042   0.009904  -0.000144  -0.000192
     9  C    0.000231  -0.105218   0.005692   0.340007  -0.029895  -0.039220
    10  H   -0.000118  -0.002015  -0.000167  -0.027518   0.005260  -0.006137
    11  H    0.000038   0.013119  -0.000076  -0.054342  -0.003439  -0.003412
    12  C    0.420193   0.460571  -0.035870  -0.047990  -0.004480   0.002997
    13  H    0.500751  -0.030565  -0.005475   0.004812  -0.000358  -0.000167
    14  C   -0.030565   5.253422   0.431417   0.285084  -0.039388  -0.029020
    15  H   -0.005475   0.431417   0.490957  -0.030826   0.000465  -0.003906
    16  C    0.004812   0.285084  -0.030826   4.959669   0.400863   0.415700
    17  H   -0.000358  -0.039388   0.000465   0.400863   0.582952  -0.023587
    18  H   -0.000167  -0.029020  -0.003906   0.415700  -0.023587   0.548797
    19  C    0.000056   0.000779   0.000000  -0.008272  -0.000995   0.000096
    20  H   -0.000002   0.000007   0.000004  -0.000948   0.002030  -0.000029
    21  C   -0.000000  -0.000073  -0.000001   0.000776  -0.000042  -0.000004
    22  H    0.000000   0.000000   0.000000   0.000001  -0.000005  -0.000001
    23  C   -0.000070   0.001842   0.000001  -0.002164   0.000910   0.000040
    24  H   -0.000003  -0.000339   0.000003   0.000070   0.000015  -0.000004
    25  H   -0.000002  -0.000038  -0.000001   0.000082   0.000012  -0.000002
    26  C    0.000001  -0.000269   0.000000   0.000446  -0.000037  -0.000002
    27  H   -0.000001   0.000002   0.000000  -0.000002   0.000001  -0.000000
    28  H   -0.000005   0.000031  -0.000000  -0.000037  -0.000003   0.000001
              19         20         21         22         23         24
     1  C   -0.061035   0.003973   0.460566  -0.030549  -0.105207   0.013119
     2  C    0.276694  -0.032454  -0.080283   0.004045   0.267507  -0.048392
     3  H    0.004673  -0.000152  -0.035829  -0.005475   0.005691  -0.000076
     4  H   -0.052278  -0.005653   0.006383  -0.000168  -0.021698  -0.003054
     5  C    0.012433  -0.000627  -0.000642   0.000056   0.009197   0.004556
     6  C   -0.111422   0.001515   0.014959  -0.000311  -0.067959  -0.005835
     7  H   -0.000627   0.000003  -0.000026  -0.000002   0.002124  -0.003698
     8  H   -0.001594   0.000269   0.003455  -0.000055  -0.010941   0.001196
     9  C    0.009171   0.002126  -0.003378  -0.000070   0.009318  -0.000008
    10  H   -0.000008   0.000319  -0.000012  -0.000002  -0.000254  -0.000019
    11  H    0.004560  -0.003698   0.000544  -0.000003  -0.000008  -0.000010
    12  C   -0.000641  -0.000026   0.000053  -0.000000  -0.003378   0.000543
    13  H    0.000056  -0.000002  -0.000000   0.000000  -0.000070  -0.000003
    14  C    0.000779   0.000007  -0.000073   0.000000   0.001842  -0.000339
    15  H    0.000000   0.000004  -0.000001   0.000000   0.000001   0.000003
    16  C   -0.008272  -0.000948   0.000776   0.000001  -0.002164   0.000070
    17  H   -0.000995   0.002030  -0.000042  -0.000005   0.000910   0.000015
    18  H    0.000096  -0.000029  -0.000004  -0.000001   0.000040  -0.000004
    19  C    5.344512   0.424825   0.444784  -0.029464  -0.054050   0.011416
    20  H    0.424825   0.477667  -0.028414  -0.004840   0.003064  -0.000073
    21  C    0.444784  -0.028414   4.978705   0.420205   0.032043  -0.004994
    22  H   -0.029464  -0.004840   0.420205   0.500731   0.000230   0.000038
    23  C   -0.054050   0.003064   0.032043   0.000230   5.025089   0.446944
    24  H    0.011416  -0.000073  -0.004994   0.000038   0.446944   0.529161
    25  H   -0.001222   0.000211   0.002777  -0.000117   0.416460  -0.014940
    26  C   -0.005878  -0.001155  -0.048004   0.004812   0.340020  -0.054350
    27  H   -0.001063   0.000067   0.003000  -0.000167  -0.039197  -0.003411
    28  H    0.004983  -0.000047  -0.004463  -0.000357  -0.029904  -0.003442
              25         26         27         28
     1  C   -0.002027   0.285076  -0.029016  -0.039406
     2  C   -0.049106  -0.083604   0.011781  -0.010032
     3  H   -0.000167  -0.030834  -0.003906   0.000465
     4  H   -0.006067   0.009903  -0.000192  -0.000144
     5  C   -0.000008  -0.008274   0.000096  -0.000992
     6  C    0.008298   0.021389  -0.000482   0.002479
     7  H    0.000319  -0.000947  -0.000029   0.002031
     8  H   -0.000235   0.002452   0.000366  -0.003218
     9  C   -0.000254  -0.002166   0.000040   0.000910
    10  H    0.000019   0.000082  -0.000002   0.000012
    11  H   -0.000019   0.000070  -0.000004   0.000015
    12  C   -0.000012   0.000776  -0.000004  -0.000041
    13  H   -0.000002   0.000001  -0.000001  -0.000005
    14  C   -0.000038  -0.000269   0.000002   0.000031
    15  H   -0.000001   0.000000   0.000000  -0.000000
    16  C    0.000082   0.000446  -0.000002  -0.000037
    17  H    0.000012  -0.000037   0.000001  -0.000003
    18  H   -0.000002  -0.000002  -0.000000   0.000001
    19  C   -0.001222  -0.005878  -0.001063   0.004983
    20  H    0.000211  -0.001155   0.000067  -0.000047
    21  C    0.002777  -0.048004   0.003000  -0.004463
    22  H   -0.000117   0.004812  -0.000167  -0.000357
    23  C    0.416460   0.340020  -0.039197  -0.029904
    24  H   -0.014940  -0.054350  -0.003411  -0.003442
    25  H    0.555398  -0.027483  -0.006136   0.005258
    26  C   -0.027483   4.959661   0.415676   0.400881
    27  H   -0.006136   0.415676   0.548787  -0.023590
    28  H    0.005258   0.400881  -0.023590   0.582959
          Atomic-Atomic Spin Densities.
               1          2          3          4          5          6
     1  C   -0.714629  -0.005398   0.001229  -0.000109   0.000126  -0.004812
     2  C   -0.005398   0.094429  -0.000196  -0.004327  -0.042193   0.000009
     3  H    0.001229  -0.000196   0.025851   0.000002   0.000002   0.000032
     4  H   -0.000109  -0.004327   0.000002  -0.010812   0.002537   0.008372
     5  C    0.000126  -0.042193   0.000002   0.002537   0.758282  -0.031451
     6  C   -0.004812   0.000009   0.000032   0.008372  -0.031451  -0.094389
     7  H    0.000001   0.000939   0.000000  -0.000005  -0.003920   0.000867
     8  H    0.001394  -0.008375   0.000007   0.000000  -0.001399   0.004324
     9  C   -0.000273  -0.010753   0.000000  -0.000868  -0.006021   0.011534
    10  H   -0.000003   0.000363  -0.000000  -0.000024  -0.001804   0.000326
    11  H    0.000245   0.000625  -0.000000  -0.000000   0.000140   0.000878
    12  C    0.000080   0.006235  -0.000000  -0.001346  -0.003182   0.005886
    13  H    0.000000   0.000136  -0.000000  -0.000023  -0.000781   0.000197
    14  C   -0.000000   0.004814  -0.000000  -0.001394  -0.062214   0.005407
    15  H    0.000000  -0.000032  -0.000000  -0.000007  -0.000510   0.000196
    16  C    0.000030  -0.001217   0.000000   0.000954   0.007688  -0.002596
    17  H   -0.000014  -0.003422   0.000000   0.000496   0.003718  -0.001804
    18  H    0.000001   0.000270   0.000000  -0.000048  -0.000037   0.000552
    19  C    0.062202   0.031441   0.000509   0.001402  -0.000001   0.042160
    20  H    0.000341  -0.000865  -0.000006  -0.000183  -0.000088  -0.000940
    21  C   -0.008061  -0.005885  -0.000727   0.000835   0.000697  -0.006224
    22  H    0.000736  -0.000197  -0.000301   0.000023   0.000008  -0.000136
    23  C   -0.001926  -0.011555   0.000302  -0.003768  -0.005960   0.010748
    24  H   -0.000238  -0.000877  -0.000006   0.000135   0.001466  -0.000625
    25  H    0.000385  -0.000325   0.000010   0.000101   0.000176  -0.000363
    26  C    0.034017   0.002593  -0.001174  -0.000144   0.000735   0.001215
    27  H    0.007154  -0.000551  -0.000249   0.000050   0.000054  -0.000269
    28  H    0.022353   0.001800   0.000144  -0.000215  -0.000286   0.003422
               7          8          9         10         11         12
     1  C    0.000001   0.001394  -0.000273  -0.000003   0.000245   0.000080
     2  C    0.000939  -0.008375  -0.010753   0.000363   0.000625   0.006235
     3  H    0.000000   0.000007   0.000000  -0.000000  -0.000000  -0.000000
     4  H   -0.000005   0.000000  -0.000868  -0.000024  -0.000000  -0.001346
     5  C   -0.003920  -0.001399  -0.006021  -0.001804   0.000140  -0.003182
     6  C    0.000867   0.004324   0.011534   0.000326   0.000878   0.005886
     7  H   -0.025859   0.000183  -0.000380  -0.000027   0.000008   0.002372
     8  H    0.000183   0.010812   0.003768  -0.000101  -0.000135  -0.000836
     9  C   -0.000380   0.003768   0.003627  -0.001082  -0.000643  -0.001642
    10  H   -0.000027  -0.000101  -0.001082   0.000785   0.000343   0.001185
    11  H    0.000008  -0.000135  -0.000643   0.000343  -0.000287  -0.000174
    12  C    0.002372  -0.000836  -0.001642   0.001185  -0.000174  -0.248541
    13  H    0.000342  -0.000023  -0.000084   0.000020  -0.000001   0.001208
    14  C   -0.000340   0.000109   0.001918  -0.000385   0.000238   0.008076
    15  H    0.000006  -0.000002  -0.000302  -0.000010   0.000006   0.000730
    16  C    0.000029   0.000145   0.006752   0.000648  -0.000156   0.003322
    17  H   -0.000039   0.000215  -0.003993   0.000257  -0.000283   0.000019
    18  H    0.000005  -0.000050   0.003558  -0.000531   0.000168   0.000495
    19  C    0.000088  -0.002535   0.005978  -0.000176  -0.001469  -0.000698
    20  H    0.000000   0.000005   0.000150   0.000020  -0.000160   0.000033
    21  C   -0.000033   0.001343  -0.000831  -0.000001   0.000108  -0.000000
    22  H   -0.000000   0.000023  -0.000025   0.000000   0.000008  -0.000000
    23  C   -0.000150   0.000870   0.000002  -0.000017  -0.000119   0.000829
    24  H    0.000160   0.000000   0.000119   0.000001   0.000000  -0.000108
    25  H   -0.000020   0.000024   0.000017  -0.000000  -0.000001   0.000001
    26  C    0.000159  -0.000955   0.000075   0.000002  -0.000045  -0.000251
    27  H    0.000003   0.000048   0.000007   0.000000   0.000002   0.000007
    28  H   -0.000079  -0.000495  -0.000051  -0.000004  -0.000040  -0.000124
              13         14         15         16         17         18
     1  C    0.000000  -0.000000   0.000000   0.000030  -0.000014   0.000001
     2  C    0.000136   0.004814  -0.000032  -0.001217  -0.003422   0.000270
     3  H   -0.000000  -0.000000  -0.000000   0.000000   0.000000   0.000000
     4  H   -0.000023  -0.001394  -0.000007   0.000954   0.000496  -0.000048
     5  C   -0.000781  -0.062214  -0.000510   0.007688   0.003718  -0.000037
     6  C    0.000197   0.005407   0.000196  -0.002596  -0.001804   0.000552
     7  H    0.000342  -0.000340   0.000006   0.000029  -0.000039   0.000005
     8  H   -0.000023   0.000109  -0.000002   0.000145   0.000215  -0.000050
     9  C   -0.000084   0.001918  -0.000302   0.006752  -0.003993   0.003558
    10  H    0.000020  -0.000385  -0.000010   0.000648   0.000257  -0.000531
    11  H   -0.000001   0.000238   0.000006  -0.000156  -0.000283   0.000168
    12  C    0.001208   0.008076   0.000730   0.003322   0.000019   0.000495
    13  H    0.008587  -0.000735   0.000301   0.000029  -0.000037   0.000014
    14  C   -0.000735   0.714617  -0.001232  -0.034004  -0.022357  -0.007153
    15  H    0.000301  -0.001232  -0.025851   0.001174  -0.000144   0.000250
    16  C    0.000029  -0.034004   0.001174  -0.036235   0.012916   0.004382
    17  H   -0.000037  -0.022357  -0.000144   0.012916   0.056077  -0.008661
    18  H    0.000014  -0.007153   0.000250   0.004382  -0.008661   0.020644
    19  C   -0.000008  -0.000125  -0.000002  -0.000739   0.000286  -0.000053
    20  H    0.000000  -0.000001  -0.000000  -0.000159   0.000078  -0.000003
    21  C    0.000000  -0.000080   0.000000   0.000251   0.000124  -0.000007
    22  H   -0.000000  -0.000000   0.000000   0.000004   0.000002  -0.000000
    23  C    0.000025   0.000271  -0.000000  -0.000075   0.000052  -0.000007
    24  H   -0.000008  -0.000245   0.000000   0.000045   0.000040  -0.000002
    25  H   -0.000000   0.000003   0.000000  -0.000002   0.000004  -0.000000
    26  C   -0.000004  -0.000030  -0.000000  -0.000000   0.000019  -0.000001
    27  H    0.000000  -0.000001  -0.000000   0.000001   0.000000  -0.000000
    28  H   -0.000002   0.000014  -0.000000  -0.000019   0.000000  -0.000000
              19         20         21         22         23         24
     1  C    0.062202   0.000341  -0.008061   0.000736  -0.001926  -0.000238
     2  C    0.031441  -0.000865  -0.005885  -0.000197  -0.011555  -0.000877
     3  H    0.000509  -0.000006  -0.000727  -0.000301   0.000302  -0.000006
     4  H    0.001402  -0.000183   0.000835   0.000023  -0.003768   0.000135
     5  C   -0.000001  -0.000088   0.000697   0.000008  -0.005960   0.001466
     6  C    0.042160  -0.000940  -0.006224  -0.000136   0.010748  -0.000625
     7  H    0.000088   0.000000  -0.000033  -0.000000  -0.000150   0.000160
     8  H   -0.002535   0.000005   0.001343   0.000023   0.000870   0.000000
     9  C    0.005978   0.000150  -0.000831  -0.000025   0.000002   0.000119
    10  H   -0.000176   0.000020  -0.000001   0.000000  -0.000017   0.000001
    11  H   -0.001469  -0.000160   0.000108   0.000008  -0.000119   0.000000
    12  C   -0.000698   0.000033  -0.000000  -0.000000   0.000829  -0.000108
    13  H   -0.000008   0.000000   0.000000  -0.000000   0.000025  -0.000008
    14  C   -0.000125  -0.000001  -0.000080  -0.000000   0.000271  -0.000245
    15  H   -0.000002  -0.000000   0.000000   0.000000  -0.000000   0.000000
    16  C   -0.000739  -0.000159   0.000251   0.000004  -0.000075   0.000045
    17  H    0.000286   0.000078   0.000124   0.000002   0.000052   0.000040
    18  H   -0.000053  -0.000003  -0.000007  -0.000000  -0.000007  -0.000002
    19  C   -0.758240   0.003924   0.003160   0.000781   0.006024  -0.000141
    20  H    0.003924   0.025853  -0.002374  -0.000342   0.000381  -0.000008
    21  C    0.003160  -0.002374   0.248549  -0.001207   0.001649   0.000174
    22  H    0.000781  -0.000342  -0.001207  -0.008587   0.000085   0.000001
    23  C    0.006024   0.000381   0.001649   0.000085  -0.003621   0.000644
    24  H   -0.000141  -0.000008   0.000174   0.000001   0.000644   0.000287
    25  H    0.001804   0.000027  -0.001185  -0.000020   0.001080  -0.000343
    26  C   -0.007678  -0.000030  -0.003335  -0.000029  -0.006749   0.000156
    27  H    0.000036  -0.000005  -0.000493  -0.000014  -0.003557  -0.000168
    28  H   -0.003713   0.000039  -0.000022   0.000037   0.003992   0.000283
              25         26         27         28
     1  C    0.000385   0.034017   0.007154   0.022353
     2  C   -0.000325   0.002593  -0.000551   0.001800
     3  H    0.000010  -0.001174  -0.000249   0.000144
     4  H    0.000101  -0.000144   0.000050  -0.000215
     5  C    0.000176   0.000735   0.000054  -0.000286
     6  C   -0.000363   0.001215  -0.000269   0.003422
     7  H   -0.000020   0.000159   0.000003  -0.000079
     8  H    0.000024  -0.000955   0.000048  -0.000495
     9  C    0.000017   0.000075   0.000007  -0.000051
    10  H   -0.000000   0.000002   0.000000  -0.000004
    11  H   -0.000001  -0.000045   0.000002  -0.000040
    12  C    0.000001  -0.000251   0.000007  -0.000124
    13  H   -0.000000  -0.000004   0.000000  -0.000002
    14  C    0.000003  -0.000030  -0.000001   0.000014
    15  H    0.000000  -0.000000  -0.000000  -0.000000
    16  C   -0.000002  -0.000000   0.000001  -0.000019
    17  H    0.000004   0.000019   0.000000   0.000000
    18  H   -0.000000  -0.000001  -0.000000  -0.000000
    19  C    0.001804  -0.007678   0.000036  -0.003713
    20  H    0.000027  -0.000030  -0.000005   0.000039
    21  C   -0.001185  -0.003335  -0.000493  -0.000022
    22  H   -0.000020  -0.000029  -0.000014   0.000037
    23  C    0.001080  -0.006749  -0.003557   0.003992
    24  H   -0.000343   0.000156  -0.000168   0.000283
    25  H   -0.000784  -0.000647   0.000530  -0.000257
    26  C   -0.000647   0.036226  -0.004387  -0.012905
    27  H    0.000530  -0.004387  -0.020642   0.008661
    28  H   -0.000257  -0.012905   0.008661  -0.056082
 Mulliken charges and spin densities:
               1          2
     1  C   -0.198407  -0.605166
     2  C   -0.099939   0.047486
     3  H    0.144745   0.025429
     4  H    0.128874  -0.008365
     5  C   -0.210483   0.615783
     6  C   -0.099837  -0.047485
     7  H    0.161968  -0.025689
     8  H    0.128824   0.008365
     9  C   -0.225534   0.010556
    10  H    0.118914  -0.000216
    11  H    0.135560  -0.000744
    12  C   -0.161910  -0.226427
    13  H    0.141466   0.009150
    14  C   -0.198486   0.605170
    15  H    0.144746  -0.025430
    16  C   -0.178268  -0.036835
    17  H    0.115657   0.033548
    18  H    0.127381   0.013784
    19  C   -0.210434  -0.615784
    20  H    0.162038   0.025686
    21  C   -0.162083   0.226425
    22  H    0.141468  -0.009149
    23  C   -0.225649  -0.010551
    24  H    0.135588   0.000743
    25  H    0.119001   0.000215
    26  C   -0.178244   0.036835
    27  H    0.127388  -0.013784
    28  H    0.115658  -0.033549
 Sum of Mulliken charges =  -0.00000  -0.00000
 Mulliken charges and spin densities with hydrogens summed into heavy atoms:
               1          2
     1  C   -0.053662  -0.579738
     2  C    0.028935   0.039121
     5  C   -0.048515   0.590093
     6  C    0.028987  -0.039121
     9  C    0.028939   0.009596
    12  C   -0.020444  -0.217277
    14  C   -0.053740   0.579740
    16  C    0.064770   0.010496
    19  C   -0.048396  -0.590098
    21  C   -0.020616   0.217276
    23  C    0.028940  -0.009592
    26  C    0.064802  -0.010498
 Electronic spatial extent (au):  <R**2>=           2172.3208
 Charge=             -0.0000 electrons
 Dipole moment (field-independent basis, Debye):
    X=              0.0008    Y=             -0.0001    Z=             -0.0001  Tot=              0.0008
 Quadrupole moment (field-independent basis, Debye-Ang):
   XX=            -71.8205   YY=            -71.2099   ZZ=            -76.4372
   XY=             -2.3475   XZ=             -2.4985   YZ=              0.2107
 Traceless Quadrupole moment (field-independent basis, Debye-Ang):
   XX=              1.3354   YY=              1.9460   ZZ=             -3.2814
   XY=             -2.3475   XZ=             -2.4985   YZ=              0.2107
 Octapole moment (field-independent basis, Debye-Ang**2):
  XXX=              0.0094  YYY=             -0.0022  ZZZ=             -0.0020  XYY=              0.0001
  XXY=              0.0016  XXZ=              0.0008  XZZ=             -0.0006  YZZ=              0.0007
  YYZ=             -0.0006  XYZ=              0.0023
 Hexadecapole moment (field-independent basis, Debye-Ang**3):
 XXXX=          -2009.6625 YYYY=           -640.8802 ZZZZ=           -279.2733 XXXY=            -88.2546
 XXXZ=           -102.2329 YYYX=            -64.7925 YYYZ=              0.2947 ZZZX=            -58.7607
 ZZZY=             -8.1727 XXYY=           -441.2326 XXZZ=           -415.9412 YYZZ=           -168.1202
 XXYZ=            -16.9364 YYXZ=            -20.8589 ZZXY=            -41.9038
 N-N= 6.971817991531D+02 E-N=-2.475982853794D+03  KE= 4.640905705588D+02
                          Isotropic Fermi Contact Couplings
        Atom                 a.u.       MegaHertz       Gauss      10(-4) cm-1
     1  C(13)             -0.04645     -26.10923      -9.31642      -8.70910
     2  C(13)              0.05393      30.31595      10.81749      10.11231
     3  H(1)               0.00908      20.29246       7.24086       6.76884
     4  H(1)              -0.00450     -10.05392      -3.58749      -3.35363
     5  C(13)              0.04750      26.70105       9.52760       8.90651
     6  C(13)             -0.05393     -30.31617     -10.81756     -10.11238
     7  H(1)              -0.00934     -20.86568      -7.44539      -6.96004
     8  H(1)               0.00450      10.05374       3.58742       3.35357
     9  C(13)              0.00213       1.19744       0.42728       0.39942
    10  H(1)              -0.00027      -0.59273      -0.21150      -0.19771
    11  H(1)              -0.00042      -0.94243      -0.33628      -0.31436
    12  C(13)             -0.04395     -24.70155      -8.81413      -8.23955
    13  H(1)               0.00297       6.62991       2.36572       2.21150
    14  C(13)              0.04645      26.10959       9.31655       8.70922
    15  H(1)              -0.00908     -20.29280      -7.24098      -6.76895
    16  C(13)             -0.01877     -10.55265      -3.76545      -3.51999
    17  H(1)               0.01617      36.14377      12.89700      12.05626
    18  H(1)               0.00653      14.58565       5.20452       4.86525
    19  C(13)             -0.04750     -26.70030      -9.52733      -8.90626
    20  H(1)               0.00934      20.86588       7.44547       6.96011
    21  C(13)              0.04394      24.70089       8.81389       8.23933
    22  H(1)              -0.00297      -6.62959      -2.36560      -2.21139
    23  C(13)             -0.00213      -1.19701      -0.42712      -0.39928
    24  H(1)               0.00042       0.94235       0.33625       0.31433
    25  H(1)               0.00027       0.59272       0.21150       0.19771
    26  C(13)              0.01877      10.55245       3.76538       3.51992
    27  H(1)              -0.00653     -14.58580      -5.20458      -4.86530
    28  H(1)              -0.01617     -36.14411     -12.89712     -12.05638
 --------------------------------------------------------
       Center         ----  Spin Dipole Couplings  ----
                      3XX-RR        3YY-RR        3ZZ-RR
 --------------------------------------------------------
     1   Atom        0.180948      0.357011     -0.537958
     2   Atom        0.001247     -0.017825      0.016578
     3   Atom       -0.037522      0.045535     -0.008013
     4   Atom       -0.003465     -0.003770      0.007236
     5   Atom       -0.257304     -0.348506      0.605810
     6   Atom       -0.001248      0.017827     -0.016579
     7   Atom       -0.020062      0.017195      0.002866
     8   Atom        0.003465      0.003771     -0.007236
     9   Atom       -0.000148      0.006731     -0.006583
    10   Atom       -0.004145      0.003518      0.000627
    11   Atom       -0.006707      0.007448     -0.000741
    12   Atom        0.084502      0.098010     -0.182513
    13   Atom        0.007448     -0.001458     -0.005990
    14   Atom       -0.180951     -0.357015      0.537967
    15   Atom        0.037522     -0.045536      0.008014
    16   Atom       -0.005860      0.002973      0.002887
    17   Atom       -0.008228      0.009017     -0.000788
    18   Atom       -0.006587      0.011098     -0.004511
    19   Atom        0.257306      0.348504     -0.605810
    20   Atom        0.020061     -0.017195     -0.002866
    21   Atom       -0.084499     -0.098005      0.182504
    22   Atom       -0.007448      0.001458      0.005990
    23   Atom        0.000149     -0.006732      0.006582
    24   Atom        0.006707     -0.007448      0.000741
    25   Atom        0.004145     -0.003518     -0.000627
    26   Atom        0.005859     -0.002972     -0.002887
    27   Atom        0.006587     -0.011098      0.004511
    28   Atom        0.008228     -0.009017      0.000788
 --------------------------------------------------------
                        XY            XZ            YZ
 --------------------------------------------------------
     1   Atom        0.013008     -0.382113      0.033673
     2   Atom        0.007975      0.030493      0.014827
     3   Atom       -0.008275      0.016514      0.005500
     4   Atom       -0.004987      0.006203      0.009221
     5   Atom       -0.046282      0.319476     -0.104766
     6   Atom       -0.007975     -0.030495     -0.014828
     7   Atom       -0.042998      0.002415      0.014466
     8   Atom        0.004988     -0.006203     -0.009221
     9   Atom       -0.014026     -0.013112      0.001993
    10   Atom       -0.001116     -0.003981     -0.005866
    11   Atom        0.004594     -0.008528     -0.000021
    12   Atom       -0.006599     -0.113219      0.032310
    13   Atom       -0.007573     -0.007051      0.003119
    14   Atom       -0.013007      0.382116     -0.033670
    15   Atom        0.008275     -0.016514     -0.005499
    16   Atom        0.001636      0.006204     -0.000735
    17   Atom        0.004675      0.001965      0.005799
    18   Atom       -0.002262     -0.000853     -0.002525
    19   Atom        0.046281     -0.319468      0.104767
    20   Atom        0.042998     -0.002414     -0.014466
    21   Atom        0.006599      0.113214     -0.032308
    22   Atom        0.007573      0.007051     -0.003118
    23   Atom        0.014027      0.013112     -0.001993
    24   Atom       -0.004594      0.008529      0.000021
    25   Atom        0.001116      0.003981      0.005867
    26   Atom       -0.001636     -0.006205      0.000735
    27   Atom        0.002262      0.000853      0.002525
    28   Atom       -0.004675     -0.001965     -0.005799
 --------------------------------------------------------


 ---------------------------------------------------------------------------------
              Anisotropic Spin Dipole Couplings in Principal Axis System
 ---------------------------------------------------------------------------------

       Atom             a.u.   MegaHertz   Gauss  10(-4) cm-1        Axes

              Baa    -0.7043   -94.516   -33.726   -31.527  0.3965 -0.0340  0.9174
     1 C(13)  Bbb     0.3459    46.422    16.565    15.485  0.9134  0.1145 -0.3905
              Bcc     0.3584    48.094    17.161    16.042 -0.0918  0.9928  0.0764
 
              Baa    -0.0251    -3.371    -1.203    -1.124  0.4694  0.6658 -0.5800
     2 C(13)  Bbb    -0.0196    -2.636    -0.941    -0.879 -0.6607  0.7006  0.2694
              Bcc     0.0448     6.007     2.143     2.004  0.5857  0.2567  0.7688
 
              Baa    -0.0460   -24.524    -8.751    -8.180  0.9060  0.1066 -0.4097
     3 H(1)   Bbb    -0.0007    -0.362    -0.129    -0.121  0.4151 -0.0339  0.9091
              Bcc     0.0466    24.885     8.880     8.301 -0.0830  0.9937  0.0749
 
              Baa    -0.0142    -7.599    -2.712    -2.535  0.5765  0.6772 -0.4572
     4 H(1)   Bbb     0.0012     0.619     0.221     0.207  0.7913 -0.6022  0.1060
              Bcc     0.0131     6.980     2.491     2.328  0.2036  0.4229  0.8830
 
              Baa    -0.3728   -50.023   -17.850   -16.686  0.7240  0.6698 -0.1647
     5 C(13)  Bbb    -0.3505   -47.039   -16.785   -15.691 -0.6149  0.7349  0.2859
              Bcc     0.7233    97.063    34.634    32.377  0.3125 -0.1058  0.9440
 
              Baa    -0.0448    -6.007    -2.144    -2.004  0.5857  0.2567  0.7688
     6 C(13)  Bbb     0.0196     2.636     0.941     0.879 -0.6608  0.7006  0.2695
              Bcc     0.0251     3.371     1.203     1.124  0.4694  0.6658 -0.5800
 
              Baa    -0.0502   -26.787    -9.558    -8.935  0.8091  0.5566 -0.1885
     7 H(1)   Bbb     0.0022     1.149     0.410     0.383  0.2874 -0.0950  0.9531
              Bcc     0.0481    25.639     9.148     8.552 -0.5126  0.8253  0.2368
 
              Baa    -0.0131    -6.980    -2.491    -2.328  0.2036  0.4229  0.8830
     8 H(1)   Bbb    -0.0012    -0.619    -0.221    -0.207  0.7913 -0.6021  0.1060
              Bcc     0.0142     7.599     2.712     2.535  0.5765  0.6772 -0.4572
 
              Baa    -0.0193    -2.586    -0.923    -0.863  0.6838  0.3185  0.6565
     9 C(13)  Bbb    -0.0021    -0.286    -0.102    -0.095  0.3281  0.6694 -0.6665
              Bcc     0.0214     2.872     1.025     0.958 -0.6518  0.6712  0.3532
 
              Baa    -0.0080    -4.247    -1.515    -1.417  0.7204  0.3699  0.5867
    10 H(1)   Bbb    -0.0004    -0.200    -0.071    -0.067  0.6797 -0.5450 -0.4909
              Bcc     0.0083     4.447     1.587     1.483  0.1382  0.7524 -0.6440
 
              Baa    -0.0134    -7.171    -2.559    -2.392  0.8169 -0.1791  0.5483
    11 H(1)   Bbb     0.0037     1.995     0.712     0.665 -0.4028  0.5033  0.7645
              Bcc     0.0097     5.176     1.847     1.726  0.4129  0.8454 -0.3390
 
              Baa    -0.2265   -30.393   -10.845   -10.138  0.3392 -0.0864  0.9367
    12 C(13)  Bbb     0.0918    12.312     4.393     4.107  0.4492  0.8898 -0.0806
              Bcc     0.1347    18.080     6.452     6.031  0.8265 -0.4481 -0.3406
 
              Baa    -0.0090    -4.810    -1.716    -1.604  0.4044  0.0281  0.9141
    13 H(1)   Bbb    -0.0056    -3.000    -1.070    -1.001  0.4048  0.8908 -0.2064
              Bcc     0.0146     7.809     2.786     2.605  0.8201 -0.4535 -0.3489
 
              Baa    -0.3584   -48.094   -17.161   -16.043 -0.0918  0.9928  0.0764
    14 C(13)  Bbb    -0.3459   -46.423   -16.565   -15.485  0.9134  0.1145 -0.3905
              Bcc     0.7044    94.517    33.726    31.528  0.3965 -0.0340  0.9174
 
              Baa    -0.0466   -24.886    -8.880    -8.301 -0.0830  0.9937  0.0749
    15 H(1)   Bbb     0.0007     0.362     0.129     0.121  0.4151 -0.0339  0.9091
              Bcc     0.0460    24.524     8.751     8.180  0.9060  0.1066 -0.4097
 
              Baa    -0.0093    -1.253    -0.447    -0.418  0.8789 -0.1440 -0.4547
    16 C(13)  Bbb     0.0032     0.433     0.155     0.145  0.1118  0.9890 -0.0970
              Bcc     0.0061     0.820     0.292     0.273  0.4637  0.0345  0.8853
 
              Baa    -0.0094    -5.041    -1.799    -1.681  0.9720 -0.2239 -0.0706
    17 H(1)   Bbb    -0.0035    -1.854    -0.661    -0.618 -0.0288 -0.4121  0.9107
              Bcc     0.0129     6.895     2.460     2.300  0.2330  0.8832  0.4070
 
              Baa    -0.0074    -3.946    -1.408    -1.316  0.8967  0.1657  0.4104
    18 H(1)   Bbb    -0.0043    -2.317    -0.827    -0.773 -0.4275  0.0845  0.9000
              Bcc     0.0117     6.263     2.235     2.089 -0.1145  0.9825 -0.1467
 
              Baa    -0.7233   -97.062   -34.634   -32.376  0.3125 -0.1058  0.9440
    19 C(13)  Bbb     0.3505    47.039    16.785    15.691 -0.6149  0.7349  0.2859
              Bcc     0.3728    50.023    17.849    16.686  0.7240  0.6699 -0.1646
 
              Baa    -0.0481   -25.639    -9.148    -8.552 -0.5126  0.8253  0.2368
    20 H(1)   Bbb    -0.0022    -1.148    -0.410    -0.383  0.2874 -0.0950  0.9531
              Bcc     0.0502    26.787     9.558     8.935  0.8091  0.5566 -0.1885
 
              Baa    -0.1347   -18.080    -6.451    -6.031  0.8265 -0.4481 -0.3406
    21 C(13)  Bbb    -0.0917   -12.311    -4.393    -4.107  0.4492  0.8898 -0.0806
              Bcc     0.2265    30.391    10.844    10.137  0.3392 -0.0864  0.9367
 
              Baa    -0.0146    -7.809    -2.786    -2.605  0.8201 -0.4535 -0.3489
    22 H(1)   Bbb     0.0056     2.999     1.070     1.000  0.4048  0.8908 -0.2065
              Bcc     0.0090     4.810     1.716     1.604  0.4045  0.0281  0.9141
 
              Baa    -0.0214    -2.872    -1.025    -0.958 -0.6517  0.6712  0.3532
    23 C(13)  Bbb     0.0021     0.286     0.102     0.095  0.3281  0.6694 -0.6665
              Bcc     0.0193     2.586     0.923     0.863  0.6838  0.3185  0.6565
 
              Baa    -0.0097    -5.176    -1.847    -1.726  0.4129  0.8454 -0.3390
    24 H(1)   Bbb    -0.0037    -1.995    -0.712    -0.665 -0.4028  0.5033  0.7645
              Bcc     0.0134     7.171     2.559     2.392  0.8169 -0.1791  0.5483
 
              Baa    -0.0083    -4.447    -1.587    -1.483  0.1382  0.7524 -0.6440
    25 H(1)   Bbb     0.0004     0.200     0.071     0.067  0.6797 -0.5450 -0.4909
              Bcc     0.0080     4.247     1.515     1.417  0.7204  0.3699  0.5867
 
              Baa    -0.0061    -0.820    -0.292    -0.273  0.4637  0.0345  0.8853
    26 C(13)  Bbb    -0.0032    -0.433    -0.155    -0.145  0.1117  0.9890 -0.0971
              Bcc     0.0093     1.253     0.447     0.418  0.8789 -0.1440 -0.4548
 
              Baa    -0.0117    -6.263    -2.235    -2.089 -0.1145  0.9825 -0.1467
    27 H(1)   Bbb     0.0043     2.317     0.827     0.773 -0.4275  0.0845  0.9000
              Bcc     0.0074     3.946     1.408     1.316  0.8967  0.1657  0.4104
 
              Baa    -0.0129    -6.895    -2.460    -2.300  0.2330  0.8832  0.4070
    28 H(1)   Bbb     0.0035     1.854     0.661     0.618 -0.0288 -0.4121  0.9107
              Bcc     0.0094     5.041     1.799     1.681  0.9720 -0.2239 -0.0706
 

 ---------------------------------------------------------------------------------

 No NMR shielding tensors so no spin-rotation constants.
 Leave Link  601 at Mon Aug  3 17:16:26 2020, MaxMem=  6442450944 cpu:               8.2 elap:               0.4
 (Enter /scratch/scicomp/CentOS/7.3.1611/Haswell/software/Gaussian/g16/l9999.exe)
 1\1\GINC-ATLAS-205\SP\UwB97XD\def2TZVP\C12H16\BOCHEN\03-Aug-2020\0\\#p
  uwb97xd guess=mix def2tzvp # scrf=(iefpcm,solvent=Cyclohexane,read) n
 osym 6d 10f\\endo-2 xp-pcm for eta=3\\0,1\C,0,-3.140994,-0.42504,0.223
 816\C,0,-0.406297,-0.126897,-0.65908\H,0,-4.135653,-0.544691,0.635088\
 H,0,0.317409,-0.130657,-1.478814\C,0,1.108935,1.445531,0.607368\C,0,0.
 406297,0.126897,0.65908\H,0,0.573183,2.344629,0.884397\H,0,-0.317409,0
 .130657,1.478814\C,0,1.429977,-0.982064,0.932984\H,0,1.831758,-0.82932
 4,1.937981\H,0,0.944143,-1.958831,0.930603\C,0,2.409595,1.535044,0.144
 587\H,0,2.868872,2.514015,0.060519\C,0,3.140994,0.42504,-0.223816\H,0,
 4.135653,0.544691,-0.635088\C,0,2.588982,-0.95563,-0.063327\H,0,2.2607
 03,-1.337606,-1.039452\H,0,3.377886,-1.638473,0.263228\C,0,-1.108935,-
 1.445531,-0.607368\H,0,-0.573183,-2.344629,-0.884397\C,0,-2.409595,-1.
 535044,-0.144587\H,0,-2.868872,-2.514015,-0.060519\C,0,-1.429977,0.982
 064,-0.932984\H,0,-0.944143,1.958831,-0.930603\H,0,-1.831758,0.829324,
 -1.937981\C,0,-2.588982,0.95563,0.063327\H,0,-3.377886,1.638473,-0.263
 228\H,0,-2.260703,1.337606,1.039452\\Version=ES64L-G16RevB.01\HF=-466.
 8372171\S2=1.057402\S2-1=0.\S2A=0.545129\RMSD=8.503e-09\Dipole=0.00030
 49,-0.0000478,-0.0000577\Quadrupole=0.9928253,1.4467895,-2.4396147,-1.
 7453265,-1.8575435,0.1566775\PG=CI [X(C12H16)]\\@


 Time has a wonderful way of weeding out the trivial.
                                -- Richard Ben Sapir
 Job cpu time:       0 days  1 hours 48 minutes 41.2 seconds.
 Elapsed time:       0 days  0 hours  4 minutes 34.7 seconds.
 File lengths (MBytes):  RWF=    624 Int=      0 D2E=      0 Chk=     23 Scr=      1
 Normal termination of Gaussian 16 at Mon Aug  3 17:16:26 2020.
