 Entering Gaussian System, Link 0=g16
 Input=meso-TS_67_2_xp-Ger.com
 Output=meso-TS_67_2_xp-Ger.log
 Initial command:
 /scratch/scicomp/CentOS/7.3.1611/Haswell/software/Gaussian/g16/l1.exe "/scratch/bochen/cyclohexadiene-dimerization/wb97xd-def2tzvp/xp-pcm/meso/Gau-204567.inp" -scrdir="/scratch/bochen/cyclohexadiene-dimerization/wb97xd-def2tzvp/xp-pcm/meso/"
 Entering Link 1 = /scratch/scicomp/CentOS/7.3.1611/Haswell/software/Gaussian/g16/l1.exe PID=    204572.
  
 Copyright (c) 1988-2017, Gaussian, Inc.  All Rights Reserved.
  
 This is part of the Gaussian(R) 16 program.  It is based on
 the Gaussian(R) 09 system (copyright 2009, Gaussian, Inc.),
 the Gaussian(R) 03 system (copyright 2003, Gaussian, Inc.),
 the Gaussian(R) 98 system (copyright 1998, Gaussian, Inc.),
 the Gaussian(R) 94 system (copyright 1995, Gaussian, Inc.),
 the Gaussian 92(TM) system (copyright 1992, Gaussian, Inc.),
 the Gaussian 90(TM) system (copyright 1990, Gaussian, Inc.),
 the Gaussian 88(TM) system (copyright 1988, Gaussian, Inc.),
 the Gaussian 86(TM) system (copyright 1986, Carnegie Mellon
 University), and the Gaussian 82(TM) system (copyright 1983,
 Carnegie Mellon University). Gaussian is a federally registered
 trademark of Gaussian, Inc.
  
 This software contains proprietary and confidential information,
 including trade secrets, belonging to Gaussian, Inc.
  
 This software is provided under written license and may be
 used, copied, transmitted, or stored only in accord with that
 written license.
  
 The following legend is applicable only to US Government
 contracts under FAR:
  
                    RESTRICTED RIGHTS LEGEND
  
 Use, reproduction and disclosure by the US Government is
 subject to restrictions as set forth in subparagraphs (a)
 and (c) of the Commercial Computer Software - Restricted
 Rights clause in FAR 52.227-19.
  
 Gaussian, Inc.
 340 Quinnipiac St., Bldg. 40, Wallingford CT 06492
  
  
 ---------------------------------------------------------------
 Warning -- This program may not be used in any manner that
 competes with the business of Gaussian, Inc. or will provide
 assistance to any competitor of Gaussian, Inc.  The licensee
 of this program is prohibited from giving any competitor of
 Gaussian, Inc. access to this program.  By using this program,
 the user acknowledges that Gaussian, Inc. is engaged in the
 business of creating and licensing software in the field of
 computational chemistry and represents and warrants to the
 licensee that it is not a competitor of Gaussian, Inc. and that
 it will not use this program in any manner prohibited above.
 ---------------------------------------------------------------
  

 Cite this work as:
 Gaussian 16, Revision B.01,
 M. J. Frisch, G. W. Trucks, H. B. Schlegel, G. E. Scuseria, 
 M. A. Robb, J. R. Cheeseman, G. Scalmani, V. Barone, 
 G. A. Petersson, H. Nakatsuji, X. Li, M. Caricato, A. V. Marenich, 
 J. Bloino, B. G. Janesko, R. Gomperts, B. Mennucci, H. P. Hratchian, 
 J. V. Ortiz, A. F. Izmaylov, J. L. Sonnenberg, D. Williams-Young, 
 F. Ding, F. Lipparini, F. Egidi, J. Goings, B. Peng, A. Petrone, 
 T. Henderson, D. Ranasinghe, V. G. Zakrzewski, J. Gao, N. Rega, 
 G. Zheng, W. Liang, M. Hada, M. Ehara, K. Toyota, R. Fukuda, 
 J. Hasegawa, M. Ishida, T. Nakajima, Y. Honda, O. Kitao, H. Nakai, 
 T. Vreven, K. Throssell, J. A. Montgomery, Jr., J. E. Peralta, 
 F. Ogliaro, M. J. Bearpark, J. J. Heyd, E. N. Brothers, K. N. Kudin, 
 V. N. Staroverov, T. A. Keith, R. Kobayashi, J. Normand, 
 K. Raghavachari, A. P. Rendell, J. C. Burant, S. S. Iyengar, 
 J. Tomasi, M. Cossi, J. M. Millam, M. Klene, C. Adamo, R. Cammi, 
 J. W. Ochterski, R. L. Martin, K. Morokuma, O. Farkas, 
 J. B. Foresman, and D. J. Fox, Gaussian, Inc., Wallingford CT, 2016.
 
 ******************************************
 Gaussian 16:  ES64L-G16RevB.01 20-Dec-2017
                 3-Aug-2020 
 ******************************************
 %chk=meso-TS_67_2_xp-12.chk
 %nproc=24
 Will use up to   24 processors via shared memory.
 %mem=48GB
 ----------------------------------------------------------------------
 #p uwb97xd guess=mix def2tzvp # scrf=(iefpcm,solvent=Cyclohexane,read)
  nosym 6d 10f
 ----------------------------------------------------------------------
 1/38=1,40=2,172=1/1;
 2/12=2,15=1,17=6,18=5,40=1/2;
 3/5=44,7=101,8=22,11=2,25=1,30=1,70=2203,72=17,74=-58,116=2/1,2,3;
 4/13=-1/1;
 5/5=2,38=5,53=17/2;
 6/7=2,8=2,9=2,10=2,28=1/1;
 99/5=1,9=1/99;
 Leave Link    1 at Mon Aug  3 22:50:19 2020, MaxMem=  6442450944 cpu:               2.5 elap:               0.1
 (Enter /scratch/scicomp/CentOS/7.3.1611/Haswell/software/Gaussian/g16/l101.exe)
 -----------------------
 endo-2 xp-pcm for eta=3
 -----------------------
 Symbolic Z-matrix:
 Charge =  0 Multiplicity = 1
 6                    -3.12343  -0.44032   0.2754 
 6                    -0.78646  -0.26471  -1.31772 
 1                    -4.04944  -0.52376   0.83246 
 1                     0.14721  -0.18845  -1.86168 
 6                     1.2061    1.43479   0.84454 
 6                     0.78646   0.26471   1.31772 
 1                     0.61672   2.33237   0.99012 
 1                    -0.14721   0.18845   1.86168 
 6                     1.61569  -0.97881   1.17309 
 1                     2.1983   -1.10144   2.0954 
 1                     0.96723  -1.85357   1.10508 
 6                     2.47542   1.53376   0.12229 
 1                     2.87531   2.51708  -0.09466 
 6                     3.12343   0.44032  -0.2754 
 1                     4.04944   0.52376  -0.83246 
 6                     2.55976  -0.93311  -0.032 
 1                     2.02643  -1.24996  -0.93664 
 1                     3.36718  -1.65495   0.10431 
 6                    -1.2061   -1.43479  -0.84454 
 1                    -0.61672  -2.33237  -0.99012 
 6                    -2.47542  -1.53376  -0.12229 
 1                    -2.87531  -2.51708   0.09466 
 6                    -1.61569   0.97881  -1.17309 
 1                    -0.96723   1.85357  -1.10508 
 1                    -2.1983    1.10144  -2.0954 
 6                    -2.55976   0.93311   0.032 
 1                    -3.36718   1.65495  -0.10431 
 1                    -2.02643   1.24996   0.93664 
 
 ITRead=  0  0  0  0  0  0  0  0  0  0  0  0  0  0  0  0  0  0  0  0
 ITRead=  0  0  0  0  0  0  0  0
 MicOpt= -1 -1 -1 -1 -1 -1 -1 -1 -1 -1 -1 -1 -1 -1 -1 -1 -1 -1 -1 -1
 MicOpt= -1 -1 -1 -1 -1 -1 -1 -1
 NAtoms=     28 NQM=       28 NQMF=       0 NMMI=      0 NMMIF=      0
                NMic=       0 NMicF=      0.
                    Isotopes and Nuclear Properties:
 (Nuclear quadrupole moments (NQMom) in fm**2, nuclear magnetic moments (NMagM)
  in nuclear magnetons)

  Atom         1           2           3           4           5           6           7           8           9          10
 IAtWgt=          12          12           1           1          12          12           1           1          12           1
 AtmWgt=  12.0000000  12.0000000   1.0078250   1.0078250  12.0000000  12.0000000   1.0078250   1.0078250  12.0000000   1.0078250
 NucSpn=           0           0           1           1           0           0           1           1           0           1
 AtZEff=  -0.0000000  -0.0000000  -0.0000000  -0.0000000  -0.0000000  -0.0000000  -0.0000000  -0.0000000  -0.0000000  -0.0000000
 NQMom=    0.0000000   0.0000000   0.0000000   0.0000000   0.0000000   0.0000000   0.0000000   0.0000000   0.0000000   0.0000000
 NMagM=    0.0000000   0.0000000   2.7928460   2.7928460   0.0000000   0.0000000   2.7928460   2.7928460   0.0000000   2.7928460
 AtZNuc=   6.0000000   6.0000000   1.0000000   1.0000000   6.0000000   6.0000000   1.0000000   1.0000000   6.0000000   1.0000000

  Atom        11          12          13          14          15          16          17          18          19          20
 IAtWgt=           1          12           1          12           1          12           1           1          12           1
 AtmWgt=   1.0078250  12.0000000   1.0078250  12.0000000   1.0078250  12.0000000   1.0078250   1.0078250  12.0000000   1.0078250
 NucSpn=           1           0           1           0           1           0           1           1           0           1
 AtZEff=  -0.0000000  -0.0000000  -0.0000000  -0.0000000  -0.0000000  -0.0000000  -0.0000000  -0.0000000  -0.0000000  -0.0000000
 NQMom=    0.0000000   0.0000000   0.0000000   0.0000000   0.0000000   0.0000000   0.0000000   0.0000000   0.0000000   0.0000000
 NMagM=    2.7928460   0.0000000   2.7928460   0.0000000   2.7928460   0.0000000   2.7928460   2.7928460   0.0000000   2.7928460
 AtZNuc=   1.0000000   6.0000000   1.0000000   6.0000000   1.0000000   6.0000000   1.0000000   1.0000000   6.0000000   1.0000000

  Atom        21          22          23          24          25          26          27          28
 IAtWgt=          12           1          12           1           1          12           1           1
 AtmWgt=  12.0000000   1.0078250  12.0000000   1.0078250   1.0078250  12.0000000   1.0078250   1.0078250
 NucSpn=           0           1           0           1           1           0           1           1
 AtZEff=  -0.0000000  -0.0000000  -0.0000000  -0.0000000  -0.0000000  -0.0000000  -0.0000000  -0.0000000
 NQMom=    0.0000000   0.0000000   0.0000000   0.0000000   0.0000000   0.0000000   0.0000000   0.0000000
 NMagM=    0.0000000   2.7928460   0.0000000   2.7928460   2.7928460   0.0000000   2.7928460   2.7928460
 AtZNuc=   6.0000000   1.0000000   6.0000000   1.0000000   1.0000000   6.0000000   1.0000000   1.0000000
 Leave Link  101 at Mon Aug  3 22:50:19 2020, MaxMem=  6442450944 cpu:               2.4 elap:               0.1
 (Enter /scratch/scicomp/CentOS/7.3.1611/Haswell/software/Gaussian/g16/l202.exe)
                          Input orientation:                          
 ---------------------------------------------------------------------
 Center     Atomic      Atomic             Coordinates (Angstroms)
 Number     Number       Type             X           Y           Z
 ---------------------------------------------------------------------
      1          6           0       -3.123434   -0.440315    0.275397
      2          6           0       -0.786456   -0.264710   -1.317722
      3          1           0       -4.049438   -0.523755    0.832457
      4          1           0        0.147212   -0.188449   -1.861678
      5          6           0        1.206095    1.434790    0.844539
      6          6           0        0.786456    0.264710    1.317722
      7          1           0        0.616717    2.332368    0.990121
      8          1           0       -0.147212    0.188449    1.861678
      9          6           0        1.615689   -0.978810    1.173085
     10          1           0        2.198299   -1.101438    2.095398
     11          1           0        0.967232   -1.853572    1.105075
     12          6           0        2.475417    1.533757    0.122289
     13          1           0        2.875313    2.517075   -0.094658
     14          6           0        3.123434    0.440315   -0.275397
     15          1           0        4.049438    0.523755   -0.832457
     16          6           0        2.559757   -0.933106   -0.031997
     17          1           0        2.026432   -1.249959   -0.936638
     18          1           0        3.367180   -1.654954    0.104310
     19          6           0       -1.206095   -1.434790   -0.844539
     20          1           0       -0.616717   -2.332368   -0.990121
     21          6           0       -2.475417   -1.533757   -0.122289
     22          1           0       -2.875313   -2.517076    0.094658
     23          6           0       -1.615689    0.978810   -1.173085
     24          1           0       -0.967232    1.853572   -1.105075
     25          1           0       -2.198299    1.101438   -2.095398
     26          6           0       -2.559757    0.933106    0.031997
     27          1           0       -3.367180    1.654954   -0.104310
     28          1           0       -2.026432    1.249959    0.936638
 ---------------------------------------------------------------------
                    Distance matrix (angstroms):
                    1          2          3          4          5
     1  C    0.000000
     2  C    2.833784   0.000000
     3  H    1.083864   3.916303   0.000000
     4  H    3.915054   1.083254   4.998266   0.000000
     5  C    4.752343   3.396164   5.608625   3.328626   0.000000
     6  C    4.107401   3.114467   4.923721   3.274534   1.330070
     7  H    4.710343   3.746979   5.473143   3.835063   1.083608
     8  H    3.430675   3.274534   4.098036   3.753947   2.102232
     9  C    4.853360   3.533321   5.693572   3.462785   2.470056
    10  H    5.663067   4.610669   6.400231   4.549611   2.996927
    11  H    4.406723   3.386717   5.197087   3.499527   3.307304
    12  C    5.938648   3.993486   6.878330   3.510364   1.463768
    13  H    6.698363   4.758442   7.619604   4.229037   2.199936
    14  C    6.332633   4.107401   7.321671   3.430675   2.432987
    15  H    7.321671   4.923721   8.334327   4.098036   3.424456
    16  C    5.712792   3.646503   6.678047   3.118112   2.864899
    17  H    5.352165   3.004710   6.369715   2.348184   3.324669
    18  H    6.605504   4.605176   7.537641   4.047708   3.842492
    19  C    2.432987   1.330070   3.424456   2.102232   4.111707
    20  H    3.386005   2.100320   4.286776   2.437127   4.569475
    21  C    1.331802   2.427371   2.099806   3.422501   4.827065
    22  H    2.099325   3.381020   2.428219   4.287821   5.730398
    23  C    2.526917   1.501629   3.493284   2.223617   3.498741
    24  H    3.437561   2.136590   4.348069   2.446279   2.949529
    25  H    2.975491   2.112922   3.826265   2.686979   4.510460
    26  C    1.504414   2.530040   2.232113   3.488778   3.885042
    27  H    2.143302   3.437676   2.467748   4.340211   4.675856
    28  H    2.120773   2.985616   2.692484   3.824175   3.239116
                    6          7          8          9         10
     6  C    0.000000
     7  H    2.100320   0.000000
     8  H    1.083254   2.437127   0.000000
     9  C    1.501629   3.463426   2.223617   0.000000
    10  H    2.112922   3.938789   2.686979   1.097786   0.000000
    11  H    2.136590   4.202162   2.446279   1.091023   1.749849
    12  C    2.427371   2.201290   3.422501   2.855923   3.303666
    13  H    3.381019   2.512393   4.287821   3.926199   4.283495
    14  C    2.833784   3.386005   3.915054   2.526917   2.975491
    15  H    3.916303   4.286776   4.998266   3.493284   3.826265
    16  C    2.530040   3.934902   3.488778   1.531527   2.164439
    17  H    2.985616   4.304970   3.824175   2.166371   3.040533
    18  H    3.437676   4.924271   4.340211   2.160364   2.374257
    19  C    3.396164   4.569475   3.328626   3.498741   4.510460
    20  H    3.746979   5.215600   3.835063   3.390460   4.354300
    21  C    3.993486   5.074019   3.510364   4.327021   5.191210
    22  H    4.758442   6.042618   4.229038   4.868097   5.634583
    23  C    3.533321   3.390460   3.462785   4.447313   5.436627
    24  H    3.386717   2.669829   3.499527   4.459135   5.384765
    25  H    4.610669   4.354300   4.549611   5.436627   6.461076
    26  C    3.646503   3.600823   3.118112   4.732003   5.571004
    27  H    4.605176   4.186658   4.047708   5.779051   6.588700
    28  H    3.004710   2.856695   2.348184   4.276490   4.971936
                   11         12         13         14         15
    11  H    0.000000
    12  C    3.835947   0.000000
    13  H    4.917590   1.083465   0.000000
    14  C    3.437561   1.331802   2.099324   0.000000
    15  H    4.348069   2.099806   2.428218   1.083864   0.000000
    16  C    2.162482   2.473122   3.465148   1.504414   2.232113
    17  H    2.377992   3.011974   3.952224   2.120773   2.692484
    18  H    2.607821   3.311109   4.205633   2.143302   2.467748
    19  C    2.949529   4.827065   5.730397   4.752343   5.608625
    20  H    2.669829   5.074019   6.042617   4.710343   5.473143
    21  C    3.668860   5.829255   6.711208   5.938648   6.878330
    22  H    4.028192   6.711209   7.645143   6.698363   7.619604
    23  C    4.459135   4.327021   4.868096   4.853360   5.693572
    24  H    4.729676   3.668860   4.028192   4.406723   5.197087
    25  H    5.384765   5.191210   5.634583   5.663067   6.400231
    26  C    4.621333   5.071677   5.662595   5.712792   6.678047
    27  H    5.706093   5.848246   6.301751   6.605504   7.537641
    28  H    4.315356   4.583705   5.166842   5.352165   6.369715
                   16         17         18         19         20
    16  C    0.000000
    17  H    1.096908   0.000000
    18  H    1.091593   1.745050   0.000000
    19  C    3.885042   3.239116   4.675856   0.000000
    20  H    3.600823   2.856695   4.186658   1.083608   0.000000
    21  C    5.071677   4.583705   5.848246   1.463768   2.201290
    22  H    5.662596   5.166842   6.301751   2.199937   2.512393
    23  C    4.732003   4.276490   5.779051   2.470056   3.463426
    24  H    4.621333   4.315356   5.706093   3.307304   4.202162
    25  H    5.571004   4.971936   6.588700   2.996927   3.938789
    26  C    5.449428   5.170798   6.467756   2.864899   3.934902
    27  H    6.467756   6.182422   7.506705   3.842492   4.924271
    28  H    5.170798   5.117075   6.182422   3.324669   4.304970
                   21         22         23         24         25
    21  C    0.000000
    22  H    1.083466   0.000000
    23  C    2.855923   3.926200   0.000000
    24  H    3.835947   4.917590   1.091023   0.000000
    25  H    3.303666   4.283496   1.097786   1.749849   0.000000
    26  C    2.473122   3.465149   1.531527   2.162482   2.164439
    27  H    3.311109   4.205634   2.160364   2.607821   2.374257
    28  H    3.011974   3.952225   2.166371   2.377992   3.040533
                   26         27         28
    26  C    0.000000
    27  H    1.091593   0.000000
    28  H    1.096908   1.745050   0.000000
 Symmetry turned off by external request.
 Stoichiometry    C12H16
 Framework group  CI[X(C12H16)]
 Deg. of freedom    39
 Full point group                 CI      NOp   2
 Rotational constants (GHZ):           1.7058037           0.5802000           0.5303182
 Leave Link  202 at Mon Aug  3 22:50:19 2020, MaxMem=  6442450944 cpu:               0.3 elap:               0.0
 (Enter /scratch/scicomp/CentOS/7.3.1611/Haswell/software/Gaussian/g16/l301.exe)
 Standard basis: def2TZVP (6D, 10F)
 Ernie: Thresh=  0.10000D-02 Tol=  0.10000D-05 Strict=F.
   528 basis functions,   740 primitive gaussians,   528 cartesian basis functions
    44 alpha electrons       44 beta electrons
       nuclear repulsion energy       671.6703455441 Hartrees.
 IExCor= 4639 DFT=T Ex+Corr=wB97XD ExCW=0 ScaHFX=  1.000000
 ScaDFX=  1.000000  1.000000  1.000000  1.000000 ScalE2=  1.000000  1.000000
 IRadAn=      5 IRanWt=     -1 IRanGd=            0 ICorTp=0 IEmpDi=121
 HFx  wShort=  0.000000 wLong=  0.200000 cFull=  0.222036 cShort=  0.000000 cLong=  0.777964
 DFx  wShort=  0.000000 wLong=  0.200000 cFull=  0.000000 cShort=  0.000000 cLong=  1.000000
 NAtoms=   28 NActive=   28 NUniq=   28 SFac= 1.00D+00 NAtFMM=   60 NAOKFM=F Big=F
 Integral buffers will be    131072 words long.
 Raffenetti 2 integral format.
 Two-electron integral symmetry is turned off.
 R6Disp:  Grimme-D2 Dispersion energy=       -0.0214549178 Hartrees.
 Nuclear repulsion after empirical dispersion term =      671.6488906263 Hartrees.
 Using the following non-standard input for PCM:
 qrep pcmdoc geomview  nodis nocav g03defaults tsare=0.075
 Warning! Using old PCM defaults because the g03defaults keyword was found.
 These settings can be overridden by following keywords.
 nsfe=28
 NVESolv=36  SolvMW=84.1595   Rsolv=2.815
 eps=2.0165 RhoS=0.778099999999998
 --- end of non-standard input.
 Reading user-defined spheres from input:
 ISph  on   Nord    Re0     Alpha      Xe            Ye            Ze
 --- end of user-defined spheres data.
 ------------------------------------------------------------------------------
 Polarizable Continuum Model (PCM)
 =================================
 Model                : PCM.
 Atomic radii         : UA0 (Simple United Atom Topological Model).
 Polarization charges : Total charges.
 Charge compensation  : None.
 Solution method      : On-the-fly selection.
 Cavity type          : SES (Solvent Excluding Surface) (Alpha=1.000).
 Cavity algorithm     : GePol (RMin=0.200 OFac=0.890).
                        User-defined sphere list used, NSphG=   28.
                        Tesserae with average area of 0.075 Ang**2.
                        Smoothing algorithm: None.
                        Polarization charges: point-like.
                        Self-potential: constant (ISelfS= 1).
                        Self-field    : global E.n sum rule (ISelfD= 3).
 Solvent              : CycloHexane, Eps=   2.016500 Eps(inf)=   2.035188
                        RSolv=   2.815000 Ang.
 ------------------------------------------------------------------------------
 GePol: Number of generator spheres                  =      28
 GePol: Total number of spheres                      =     188
 GePol: Number of exposed spheres                    =     125 ( 66.49%)
 GePol: Number of tesserae                           =    4668
 GePol: Average area of tesserae                     =       0.05 Ang**2
 GePol: Minimum area of tessera                      =   0.10D-02 Ang**2
 GePol: Maximum area of tessera                      =    0.12651 Ang**2
 GePol: Number of small tesserae                     =       0
 GePol: Fraction of small tesserae (<1% of avg)      =       0.00%
 GePol: Total count of vertices                      =   16513
 GePol: Maximum number of vertices in a tessera      =       7
 GePol: Cavity surface area                          =    223.959 Ang**2
 GePol: Cavity volume                                =    255.990 Ang**3
 Leave Link  301 at Mon Aug  3 22:50:20 2020, MaxMem=  6442450944 cpu:               8.0 elap:               0.4
 (Enter /scratch/scicomp/CentOS/7.3.1611/Haswell/software/Gaussian/g16/l302.exe)
 NPDir=0 NMtPBC=     1 NCelOv=     1 NCel=       1 NClECP=     1 NCelD=      1
         NCelK=      1 NCelE2=     1 NClLst=     1 CellRange=     0.0.
 One-electron integrals computed using PRISM.
   1 Symmetry operations used in ECPInt.
 ECPInt:  NShTT=   19306 NPrTT=   56928 LenC2=   18453 LenP2D=   41775.
 LDataN:  DoStor=T MaxTD1= 6 Len=  172
 NBasis=   528 RedAO= T EigKep=  1.96D-05  NBF=   528
 NBsUse=   528 1.00D-06 EigRej= -1.00D+00 NBFU=   528
 Precomputing XC quadrature grid using
 IXCGrd= 4 IRadAn=           5 IRanWt=          -1 IRanGd=           0 AccXCQ= 0.00D+00.
 Generated NRdTot=       0 NPtTot=           0 NUsed=           0 NTot=          32
 NSgBfM=   525   524   524   524   525 MxSgAt=    28 MxSgA2=    28.
 Leave Link  302 at Mon Aug  3 22:50:20 2020, MaxMem=  6442450944 cpu:              12.6 elap:               0.6
 (Enter /scratch/scicomp/CentOS/7.3.1611/Haswell/software/Gaussian/g16/l303.exe)
 DipDrv:  MaxL=1.
 Leave Link  303 at Mon Aug  3 22:50:20 2020, MaxMem=  6442450944 cpu:               1.5 elap:               0.1
 (Enter /scratch/scicomp/CentOS/7.3.1611/Haswell/software/Gaussian/g16/l401.exe)
 ExpMin= 9.52D-02 ExpMax= 1.36D+04 ExpMxC= 4.63D+02 IAcc=3 IRadAn=         5 AccDes= 0.00D+00
 Harris functional with IExCor= 4639 and IRadAn=       5 diagonalized for initial guess.
 HarFok:  IExCor= 4639 AccDes= 0.00D+00 IRadAn=         5 IDoV= 1 UseB2=F ITyADJ=14
 ICtDFT=  3500011 ScaDFX=  1.000000  1.000000  1.000000  1.000000
 FoFCou: FMM=F IPFlag=           0 FMFlag=      100000 FMFlg1=           0
         NFxFlg=           0 DoJE=T BraDBF=F KetDBF=T FulRan=T
         wScrn=  0.000000 ICntrl=       500 IOpCl=  0 I1Cent=   200000004 NGrid=           0
         NMat0=    1 NMatS0=      1 NMatT0=    0 NMatD0=    1 NMtDS0=    0 NMtDT0=    0
 Symmetry not used in FoFCou.
 Harris En= -444.659936660098    
 JPrj=0 DoOrth=F DoCkMO=T.
 Mixing orbitals, IMix= 1 IMixAn=  0 NRI=1 NE=   44 Coef=  7.07106781D-01  7.07106781D-01
 Mixing orbitals, IMix= 1 IMixAn=  0 NRI=1 NE=   44 Coef= -7.07106781D-01  7.07106781D-01
 Initial guess <Sx>= 0.0000 <Sy>= 0.0000 <Sz>= 0.0000 <S**2>= 1.0000 S= 0.6180
 Leave Link  401 at Mon Aug  3 22:50:22 2020, MaxMem=  6442450944 cpu:              48.2 elap:               2.1
 (Enter /scratch/scicomp/CentOS/7.3.1611/Haswell/software/Gaussian/g16/l502.exe)
 Two-electron integral symmetry not used.
 UHF open shell SCF:
 Using DIIS extrapolation, IDIIS=  1040.
 NGot=  6442450944 LenX=  6441877030 LenY=  6441597718
 Requested convergence on RMS density matrix=1.00D-08 within 128 cycles.
 Requested convergence on MAX density matrix=1.00D-06.
 Requested convergence on             energy=1.00D-06.
 No special actions if energy rises.
 Fock matrices will be formed incrementally for  20 cycles.

 Cycle   1  Pass 1  IDiag  1:
 FoFJK:  IHMeth= 1 ICntrl=       0 DoSepK=T KAlg= 0 I1Cent=           0 FoldK=F
 IRaf=         1 NMat=       1 IRICut=       1 DoRegI=T DoRafI=F ISym2E= 0 IDoP0=0 IntGTp=1.
 FoFCou: FMM=F IPFlag=           0 FMFlag=      100000 FMFlg1=           0
         NFxFlg=           0 DoJE=T BraDBF=F KetDBF=F FulRan=T
         wScrn=  0.000000 ICntrl=       500 IOpCl=  0 I1Cent=           0 NGrid=           0
         NMat0=    1 NMatS0=      1 NMatT0=    0 NMatD0=    1 NMtDS0=    0 NMtDT0=    0
 Symmetry not used in FoFCou.
 Inv3:  Mode=1 IEnd=    65370672.
 Iteration    1 A*A^-1 deviation from unit magnitude is 3.77D-15 for   3805.
 Iteration    1 A*A^-1 deviation from orthogonality  is 1.66D-15 for   2150    349.
 Iteration    1 A^-1*A deviation from unit magnitude is 3.77D-15 for   3805.
 Iteration    1 A^-1*A deviation from orthogonality  is 1.78D-15 for   2342    840.
 E= -466.565917941615    
 DIIS: error= 4.73D-02 at cycle   1 NSaved=   1.
 NSaved= 1 IEnMin= 1 EnMin= -466.565917941615     IErMin= 1 ErrMin= 4.73D-02
 ErrMax= 4.73D-02  0.00D+00 EMaxC= 1.00D-01 BMatC= 4.12D+00 BMatP= 4.12D+00
 IDIUse=3 WtCom= 5.27D-01 WtEn= 4.73D-01
 Coeff-Com:  0.100D+01
 Coeff-En:   0.100D+01
 Coeff:      0.100D+01
 Gap=     0.180 Goal=   None    Shift=    0.000
 Gap=     0.180 Goal=   None    Shift=    0.000
 GapD=    0.180 DampG=1.000 DampE=0.500 DampFc=0.5000 IDamp=-1.
 Damping current iteration by 5.00D-01
 RMSDP=1.70D-03 MaxDP=9.32D-02              OVMax= 3.60D-01

 Cycle   2  Pass 1  IDiag  1:
 RMSU=  8.18D-04    CP:  9.62D-01
 E= -466.680167000123     Delta-E=       -0.114249058509 Rises=F Damp=T
 DIIS: error= 2.25D-02 at cycle   2 NSaved=   2.
 NSaved= 2 IEnMin= 2 EnMin= -466.680167000123     IErMin= 2 ErrMin= 2.25D-02
 ErrMax= 2.25D-02  0.00D+00 EMaxC= 1.00D-01 BMatC= 9.37D-01 BMatP= 4.12D+00
 IDIUse=3 WtCom= 7.75D-01 WtEn= 2.25D-01
 Coeff-Com: -0.869D+00 0.187D+01
 Coeff-En:   0.000D+00 0.100D+01
 Coeff:     -0.674D+00 0.167D+01
 Gap=     0.283 Goal=   None    Shift=    0.000
 Gap=     0.283 Goal=   None    Shift=    0.000
 RMSDP=1.22D-03 MaxDP=4.93D-02 DE=-1.14D-01 OVMax= 1.41D-01

 Cycle   3  Pass 1  IDiag  1:
 RMSU=  5.95D-04    CP:  9.05D-01  2.23D+00
 E= -466.830076328507     Delta-E=       -0.149909328383 Rises=F Damp=F
 DIIS: error= 7.78D-03 at cycle   3 NSaved=   3.
 NSaved= 3 IEnMin= 3 EnMin= -466.830076328507     IErMin= 3 ErrMin= 7.78D-03
 ErrMax= 7.78D-03  0.00D+00 EMaxC= 1.00D-01 BMatC= 2.45D-02 BMatP= 9.37D-01
 IDIUse=3 WtCom= 9.22D-01 WtEn= 7.78D-02
 Coeff-Com: -0.320D+00 0.684D+00 0.635D+00
 Coeff-En:   0.000D+00 0.000D+00 0.100D+01
 Coeff:     -0.295D+00 0.631D+00 0.664D+00
 Gap=     0.305 Goal=   None    Shift=    0.000
 Gap=     0.305 Goal=   None    Shift=    0.000
 RMSDP=2.09D-04 MaxDP=1.07D-02 DE=-1.50D-01 OVMax= 6.28D-02

 Cycle   4  Pass 1  IDiag  1:
 RMSU=  1.94D-04    CP:  8.99D-01  2.31D+00  1.00D+00
 E= -466.840788109930     Delta-E=       -0.010711781423 Rises=F Damp=F
 DIIS: error= 5.11D-03 at cycle   4 NSaved=   4.
 NSaved= 4 IEnMin= 4 EnMin= -466.840788109930     IErMin= 4 ErrMin= 5.11D-03
 ErrMax= 5.11D-03  0.00D+00 EMaxC= 1.00D-01 BMatC= 2.05D-03 BMatP= 2.45D-02
 IDIUse=3 WtCom= 9.49D-01 WtEn= 5.11D-02
 Coeff-Com:  0.151D+00-0.323D+00-0.755D-01 0.125D+01
 Coeff-En:   0.000D+00 0.000D+00 0.000D+00 0.100D+01
 Coeff:      0.143D+00-0.306D+00-0.717D-01 0.123D+01
 Gap=     0.316 Goal=   None    Shift=    0.000
 Gap=     0.316 Goal=   None    Shift=    0.000
 RMSDP=2.14D-04 MaxDP=1.25D-02 DE=-1.07D-02 OVMax= 7.67D-02

 Cycle   5  Pass 1  IDiag  1:
 RMSU=  8.45D-05    CP:  8.92D-01  2.37D+00  1.23D+00  1.65D+00
 E= -466.845393362672     Delta-E=       -0.004605252742 Rises=F Damp=F
 DIIS: error= 2.23D-03 at cycle   5 NSaved=   5.
 NSaved= 5 IEnMin= 5 EnMin= -466.845393362672     IErMin= 5 ErrMin= 2.23D-03
 ErrMax= 2.23D-03  0.00D+00 EMaxC= 1.00D-01 BMatC= 7.93D-04 BMatP= 2.05D-03
 IDIUse=3 WtCom= 9.78D-01 WtEn= 2.23D-02
 Coeff-Com:  0.575D-01-0.123D+00-0.610D-01 0.317D+00 0.810D+00
 Coeff-En:   0.000D+00 0.000D+00 0.000D+00 0.000D+00 0.100D+01
 Coeff:      0.562D-01-0.121D+00-0.597D-01 0.310D+00 0.814D+00
 Gap=     0.318 Goal=   None    Shift=    0.000
 Gap=     0.318 Goal=   None    Shift=    0.000
 RMSDP=7.28D-05 MaxDP=2.87D-03 DE=-4.61D-03 OVMax= 2.67D-02

 Cycle   6  Pass 1  IDiag  1:
 RMSU=  3.13D-05    CP:  8.90D-01  2.37D+00  1.27D+00  1.91D+00  1.40D+00
 E= -466.846703575576     Delta-E=       -0.001310212905 Rises=F Damp=F
 DIIS: error= 1.61D-03 at cycle   6 NSaved=   6.
 NSaved= 6 IEnMin= 6 EnMin= -466.846703575576     IErMin= 6 ErrMin= 1.61D-03
 ErrMax= 1.61D-03  0.00D+00 EMaxC= 1.00D-01 BMatC= 5.14D-04 BMatP= 7.93D-04
 IDIUse=3 WtCom= 9.84D-01 WtEn= 1.61D-02
 Coeff-Com: -0.845D-01 0.181D+00 0.553D-01-0.625D+00 0.940D-01 0.138D+01
 Coeff-En:   0.000D+00 0.000D+00 0.000D+00 0.000D+00 0.000D+00 0.100D+01
 Coeff:     -0.831D-01 0.178D+00 0.544D-01-0.615D+00 0.925D-01 0.137D+01
 Gap=     0.314 Goal=   None    Shift=    0.000
 Gap=     0.314 Goal=   None    Shift=    0.000
 RMSDP=9.99D-05 MaxDP=4.01D-03 DE=-1.31D-03 OVMax= 3.71D-02

 Cycle   7  Pass 1  IDiag  1:
 RMSU=  3.08D-05    CP:  8.89D-01  2.37D+00  1.31D+00  2.20D+00  2.12D+00
                    CP:  2.32D+00
 E= -466.848299150824     Delta-E=       -0.001595575248 Rises=F Damp=F
 DIIS: error= 1.02D-03 at cycle   7 NSaved=   7.
 NSaved= 7 IEnMin= 7 EnMin= -466.848299150824     IErMin= 7 ErrMin= 1.02D-03
 ErrMax= 1.02D-03  0.00D+00 EMaxC= 1.00D-01 BMatC= 2.57D-04 BMatP= 5.14D-04
 IDIUse=3 WtCom= 9.90D-01 WtEn= 1.02D-02
 Coeff-Com: -0.241D-01 0.522D-01 0.398D-01 0.150D-02-0.759D+00-0.417D+00
 Coeff-Com:  0.211D+01
 Coeff-En:   0.000D+00 0.000D+00 0.000D+00 0.000D+00 0.000D+00 0.000D+00
 Coeff-En:   0.100D+01
 Coeff:     -0.239D-01 0.517D-01 0.394D-01 0.149D-02-0.752D+00-0.413D+00
 Coeff:      0.210D+01
 Gap=     0.315 Goal=   None    Shift=    0.000
 Gap=     0.315 Goal=   None    Shift=    0.000
 RMSDP=1.36D-04 MaxDP=6.40D-03 DE=-1.60D-03 OVMax= 5.05D-02

 Cycle   8  Pass 1  IDiag  1:
 RMSU=  5.81D-05    CP:  8.87D-01  2.37D+00  1.35D+00  2.51D+00  3.00D+00
                    CP:  3.00D+00  2.58D+00
 E= -466.849658054503     Delta-E=       -0.001358903679 Rises=F Damp=F
 DIIS: error= 3.48D-04 at cycle   8 NSaved=   8.
 NSaved= 8 IEnMin= 8 EnMin= -466.849658054503     IErMin= 8 ErrMin= 3.48D-04
 ErrMax= 3.48D-04  0.00D+00 EMaxC= 1.00D-01 BMatC= 5.86D-05 BMatP= 2.57D-04
 IDIUse=3 WtCom= 9.97D-01 WtEn= 3.48D-03
 Coeff-Com:  0.248D-01-0.533D-01-0.652D-02 0.261D+00-0.251D+00-0.670D+00
 Coeff-Com:  0.591D+00 0.110D+01
 Coeff-En:   0.000D+00 0.000D+00 0.000D+00 0.000D+00 0.000D+00 0.000D+00
 Coeff-En:   0.000D+00 0.100D+01
 Coeff:      0.248D-01-0.532D-01-0.650D-02 0.260D+00-0.250D+00-0.668D+00
 Coeff:      0.589D+00 0.110D+01
 Gap=     0.316 Goal=   None    Shift=    0.000
 Gap=     0.316 Goal=   None    Shift=    0.000
 RMSDP=6.01D-05 MaxDP=2.93D-03 DE=-1.36D-03 OVMax= 2.22D-02

 Cycle   9  Pass 1  IDiag  1:
 RMSU=  3.39D-05    CP:  8.86D-01  2.37D+00  1.36D+00  2.61D+00  3.00D+00
                    CP:  3.00D+00  3.00D+00  1.65D+00
 E= -466.849880380170     Delta-E=       -0.000222325666 Rises=F Damp=F
 DIIS: error= 1.14D-04 at cycle   9 NSaved=   9.
 NSaved= 9 IEnMin= 9 EnMin= -466.849880380170     IErMin= 9 ErrMin= 1.14D-04
 ErrMax= 1.14D-04  0.00D+00 EMaxC= 1.00D-01 BMatC= 8.68D-06 BMatP= 5.86D-05
 IDIUse=3 WtCom= 9.99D-01 WtEn= 1.14D-03
 Coeff-Com:  0.124D-01-0.266D-01-0.802D-02 0.870D-01 0.329D-01-0.155D+00
 Coeff-Com: -0.127D+00 0.302D+00 0.882D+00
 Coeff-En:   0.000D+00 0.000D+00 0.000D+00 0.000D+00 0.000D+00 0.000D+00
 Coeff-En:   0.000D+00 0.000D+00 0.100D+01
 Coeff:      0.124D-01-0.266D-01-0.802D-02 0.869D-01 0.328D-01-0.155D+00
 Coeff:     -0.127D+00 0.302D+00 0.882D+00
 Gap=     0.316 Goal=   None    Shift=    0.000
 Gap=     0.316 Goal=   None    Shift=    0.000
 RMSDP=1.45D-05 MaxDP=7.12D-04 DE=-2.22D-04 OVMax= 5.34D-03

 Cycle  10  Pass 1  IDiag  1:
 RMSU=  5.39D-06    CP:  8.85D-01  2.37D+00  1.37D+00  2.63D+00  3.00D+00
                    CP:  3.00D+00  3.00D+00  1.80D+00  1.26D+00
 E= -466.849895988468     Delta-E=       -0.000015608298 Rises=F Damp=F
 DIIS: error= 4.84D-05 at cycle  10 NSaved=  10.
 NSaved=10 IEnMin=10 EnMin= -466.849895988468     IErMin=10 ErrMin= 4.84D-05
 ErrMax= 4.84D-05  0.00D+00 EMaxC= 1.00D-01 BMatC= 1.35D-06 BMatP= 8.68D-06
 IDIUse=1 WtCom= 1.00D+00 WtEn= 0.00D+00
 Coeff-Com: -0.159D-02 0.344D-02-0.492D-03-0.278D-01 0.435D-01 0.822D-01
 Coeff-Com: -0.108D+00-0.170D+00 0.161D+00 0.102D+01
 Coeff:     -0.159D-02 0.344D-02-0.492D-03-0.278D-01 0.435D-01 0.822D-01
 Coeff:     -0.108D+00-0.170D+00 0.161D+00 0.102D+01
 Gap=     0.316 Goal=   None    Shift=    0.000
 Gap=     0.315 Goal=   None    Shift=    0.000
 RMSDP=6.05D-06 MaxDP=2.84D-04 DE=-1.56D-05 OVMax= 2.22D-03

 Cycle  11  Pass 1  IDiag  1:
 RMSU=  2.11D-06    CP:  8.85D-01  2.37D+00  1.37D+00  2.63D+00  3.00D+00
                    CP:  3.00D+00  3.00D+00  1.85D+00  1.37D+00  1.42D+00
 E= -466.849897943882     Delta-E=       -0.000001955414 Rises=F Damp=F
 DIIS: error= 1.92D-05 at cycle  11 NSaved=  11.
 NSaved=11 IEnMin=11 EnMin= -466.849897943882     IErMin=11 ErrMin= 1.92D-05
 ErrMax= 1.92D-05  0.00D+00 EMaxC= 1.00D-01 BMatC= 2.98D-07 BMatP= 1.35D-06
 IDIUse=1 WtCom= 1.00D+00 WtEn= 0.00D+00
 Coeff-Com: -0.132D-02 0.285D-02 0.268D-03-0.154D-01 0.130D-01 0.383D-01
 Coeff-Com: -0.257D-01-0.840D-01-0.150D-01 0.374D+00 0.713D+00
 Coeff:     -0.132D-02 0.285D-02 0.268D-03-0.154D-01 0.130D-01 0.383D-01
 Coeff:     -0.257D-01-0.840D-01-0.150D-01 0.374D+00 0.713D+00
 Gap=     0.316 Goal=   None    Shift=    0.000
 Gap=     0.316 Goal=   None    Shift=    0.000
 RMSDP=8.78D-07 MaxDP=5.17D-05 DE=-1.96D-06 OVMax= 2.19D-04

 Cycle  12  Pass 1  IDiag  1:
 RMSU=  6.76D-07    CP:  8.85D-01  2.37D+00  1.37D+00  2.64D+00  3.00D+00
                    CP:  3.00D+00  3.00D+00  1.86D+00  1.38D+00  1.46D+00
                    CP:  1.15D+00
 E= -466.849898110925     Delta-E=       -0.000000167043 Rises=F Damp=F
 DIIS: error= 1.25D-05 at cycle  12 NSaved=  12.
 NSaved=12 IEnMin=12 EnMin= -466.849898110925     IErMin=12 ErrMin= 1.25D-05
 ErrMax= 1.25D-05  0.00D+00 EMaxC= 1.00D-01 BMatC= 6.99D-08 BMatP= 2.98D-07
 IDIUse=1 WtCom= 1.00D+00 WtEn= 0.00D+00
 Coeff-Com:  0.331D-03-0.722D-03 0.432D-05 0.536D-02-0.694D-02-0.157D-01
 Coeff-Com:  0.207D-01 0.312D-01-0.384D-01-0.211D+00 0.157D+00 0.106D+01
 Coeff:      0.331D-03-0.722D-03 0.432D-05 0.536D-02-0.694D-02-0.157D-01
 Coeff:      0.207D-01 0.312D-01-0.384D-01-0.211D+00 0.157D+00 0.106D+01
 Gap=     0.316 Goal=   None    Shift=    0.000
 Gap=     0.316 Goal=   None    Shift=    0.000
 RMSDP=7.12D-07 MaxDP=3.99D-05 DE=-1.67D-07 OVMax= 1.41D-04

 Cycle  13  Pass 1  IDiag  1:
 RMSU=  4.60D-07    CP:  8.85D-01  2.37D+00  1.37D+00  2.64D+00  3.00D+00
                    CP:  3.00D+00  3.00D+00  1.85D+00  1.38D+00  1.46D+00
                    CP:  1.27D+00  1.64D+00
 E= -466.849898195742     Delta-E=       -0.000000084817 Rises=F Damp=F
 DIIS: error= 7.00D-06 at cycle  13 NSaved=  13.
 NSaved=13 IEnMin=13 EnMin= -466.849898195742     IErMin=13 ErrMin= 7.00D-06
 ErrMax= 7.00D-06  0.00D+00 EMaxC= 1.00D-01 BMatC= 1.55D-08 BMatP= 6.99D-08
 IDIUse=1 WtCom= 1.00D+00 WtEn= 0.00D+00
 Coeff-Com: -0.804D-04 0.176D-03 0.761D-04-0.707D-03 0.599D-03 0.154D-02
 Coeff-Com: -0.311D-02-0.410D-03 0.931D-02 0.796D-02-0.172D+00-0.301D+00
 Coeff-Com:  0.146D+01
 Coeff:     -0.804D-04 0.176D-03 0.761D-04-0.707D-03 0.599D-03 0.154D-02
 Coeff:     -0.311D-02-0.410D-03 0.931D-02 0.796D-02-0.172D+00-0.301D+00
 Coeff:      0.146D+01
 Gap=     0.316 Goal=   None    Shift=    0.000
 Gap=     0.316 Goal=   None    Shift=    0.000
 RMSDP=4.33D-07 MaxDP=2.37D-05 DE=-8.48D-08 OVMax= 1.03D-04

 Cycle  14  Pass 1  IDiag  1:
 RMSU=  2.42D-07    CP:  8.85D-01  2.37D+00  1.37D+00  2.64D+00  3.00D+00
                    CP:  3.00D+00  3.00D+00  1.85D+00  1.38D+00  1.47D+00
                    CP:  1.31D+00  1.98D+00  1.56D+00
 E= -466.849898230139     Delta-E=       -0.000000034397 Rises=F Damp=F
 DIIS: error= 3.65D-06 at cycle  14 NSaved=  14.
 NSaved=14 IEnMin=14 EnMin= -466.849898230139     IErMin=14 ErrMin= 3.65D-06
 ErrMax= 3.65D-06  0.00D+00 EMaxC= 1.00D-01 BMatC= 4.39D-09 BMatP= 1.55D-08
 IDIUse=1 WtCom= 1.00D+00 WtEn= 0.00D+00
 Coeff-Com: -0.126D-03 0.272D-03 0.533D-04-0.153D-02 0.155D-02 0.411D-02
 Coeff-Com: -0.543D-02-0.749D-02 0.118D-01 0.570D-01-0.714D-01-0.336D+00
 Coeff-Com:  0.157D+00 0.119D+01
 Coeff:     -0.126D-03 0.272D-03 0.533D-04-0.153D-02 0.155D-02 0.411D-02
 Coeff:     -0.543D-02-0.749D-02 0.118D-01 0.570D-01-0.714D-01-0.336D+00
 Coeff:      0.157D+00 0.119D+01
 Gap=     0.316 Goal=   None    Shift=    0.000
 Gap=     0.316 Goal=   None    Shift=    0.000
 RMSDP=2.64D-07 MaxDP=1.24D-05 DE=-3.44D-08 OVMax= 6.52D-05

 Cycle  15  Pass 1  IDiag  1:
 RMSU=  9.49D-08    CP:  8.85D-01  2.37D+00  1.37D+00  2.64D+00  3.00D+00
                    CP:  3.00D+00  3.00D+00  1.85D+00  1.38D+00  1.47D+00
                    CP:  1.31D+00  2.12D+00  1.86D+00  1.75D+00
 E= -466.849898239611     Delta-E=       -0.000000009472 Rises=F Damp=F
 DIIS: error= 1.35D-06 at cycle  15 NSaved=  15.
 NSaved=15 IEnMin=15 EnMin= -466.849898239611     IErMin=15 ErrMin= 1.35D-06
 ErrMax= 1.35D-06  0.00D+00 EMaxC= 1.00D-01 BMatC= 7.39D-10 BMatP= 4.39D-09
 IDIUse=1 WtCom= 1.00D+00 WtEn= 0.00D+00
 Coeff-Com:  0.320D-04-0.694D-04-0.329D-04 0.217D-03 0.722D-06-0.302D-03
 Coeff-Com: -0.539D-04 0.210D-03 0.609D-03 0.396D-02 0.288D-01 0.207D-01
 Coeff-Com: -0.345D+00 0.193D+00 0.110D+01
 Coeff:      0.320D-04-0.694D-04-0.329D-04 0.217D-03 0.722D-06-0.302D-03
 Coeff:     -0.539D-04 0.210D-03 0.609D-03 0.396D-02 0.288D-01 0.207D-01
 Coeff:     -0.345D+00 0.193D+00 0.110D+01
 Gap=     0.316 Goal=   None    Shift=    0.000
 Gap=     0.316 Goal=   None    Shift=    0.000
 RMSDP=1.30D-07 MaxDP=5.44D-06 DE=-9.47D-09 OVMax= 2.95D-05

 Cycle  16  Pass 1  IDiag  1:
 RMSU=  4.13D-08    CP:  8.85D-01  2.37D+00  1.37D+00  2.64D+00  3.00D+00
                    CP:  3.00D+00  3.00D+00  1.85D+00  1.37D+00  1.47D+00
                    CP:  1.31D+00  2.14D+00  1.96D+00  2.14D+00  1.49D+00
 E= -466.849898240897     Delta-E=       -0.000000001286 Rises=F Damp=F
 DIIS: error= 2.40D-07 at cycle  16 NSaved=  16.
 NSaved=16 IEnMin=16 EnMin= -466.849898240897     IErMin=16 ErrMin= 2.40D-07
 ErrMax= 2.40D-07  0.00D+00 EMaxC= 1.00D-01 BMatC= 6.39D-11 BMatP= 7.39D-10
 IDIUse=1 WtCom= 1.00D+00 WtEn= 0.00D+00
 Coeff-Com:  0.109D-04-0.235D-04-0.953D-05 0.118D-03-0.866D-04-0.251D-03
 Coeff-Com:  0.295D-03 0.488D-03-0.927D-03-0.352D-02 0.135D-01 0.325D-01
 Coeff-Com: -0.948D-01-0.598D-01 0.262D+00 0.851D+00
 Coeff:      0.109D-04-0.235D-04-0.953D-05 0.118D-03-0.866D-04-0.251D-03
 Coeff:      0.295D-03 0.488D-03-0.927D-03-0.352D-02 0.135D-01 0.325D-01
 Coeff:     -0.948D-01-0.598D-01 0.262D+00 0.851D+00
 Gap=     0.316 Goal=   None    Shift=    0.000
 Gap=     0.316 Goal=   None    Shift=    0.000
 RMSDP=2.81D-08 MaxDP=1.26D-06 DE=-1.29D-09 OVMax= 4.44D-06

 Cycle  17  Pass 1  IDiag  1:
 RMSU=  1.23D-08    CP:  8.85D-01  2.37D+00  1.37D+00  2.64D+00  3.00D+00
                    CP:  3.00D+00  3.00D+00  1.85D+00  1.37D+00  1.47D+00
                    CP:  1.31D+00  2.14D+00  1.97D+00  2.20D+00  1.59D+00
                    CP:  1.31D+00
 E= -466.849898240939     Delta-E=       -0.000000000042 Rises=F Damp=F
 DIIS: error= 8.36D-08 at cycle  17 NSaved=  17.
 NSaved=17 IEnMin=17 EnMin= -466.849898240939     IErMin=17 ErrMin= 8.36D-08
 ErrMax= 8.36D-08  0.00D+00 EMaxC= 1.00D-01 BMatC= 7.33D-12 BMatP= 6.39D-11
 IDIUse=1 WtCom= 1.00D+00 WtEn= 0.00D+00
 Coeff-Com: -0.149D-05 0.327D-05 0.120D-05-0.122D-04-0.514D-05 0.361D-04
 Coeff-Com: -0.523D-05 0.103D-04-0.195D-03-0.771D-03-0.148D-02 0.128D-02
 Coeff-Com:  0.297D-01-0.320D-01-0.102D+00 0.129D+00 0.977D+00
 Coeff:     -0.149D-05 0.327D-05 0.120D-05-0.122D-04-0.514D-05 0.361D-04
 Coeff:     -0.523D-05 0.103D-04-0.195D-03-0.771D-03-0.148D-02 0.128D-02
 Coeff:      0.297D-01-0.320D-01-0.102D+00 0.129D+00 0.977D+00
 Gap=     0.316 Goal=   None    Shift=    0.000
 Gap=     0.316 Goal=   None    Shift=    0.000
 RMSDP=9.84D-09 MaxDP=3.32D-07 DE=-4.24D-11 OVMax= 1.44D-06

 Error on total polarization charges =  0.01123
 SCF Done:  E(UwB97XD) =  -466.849898241     A.U. after   17 cycles
            NFock= 17  Conv=0.98D-08     -V/T= 2.0057
 <Sx>= 0.0000 <Sy>= 0.0000 <Sz>= 0.0000 <S**2>= 0.0000 S= 0.0000
 <L.S>=  0.00000000000    
 KE= 4.641810428241D+02 PE=-2.425225688611D+03 EE= 8.225458569198D+02
 --------------------------------------------------------------------
 Variational PCM results
 =======================
 <psi(f)|   H    |psi(f)>                     (a.u.) =    -466.857651
 <psi(f)|H+V(f)/2|psi(f)>                     (a.u.) =    -466.859160
 Total free energy in solution:
 - with all non electrostatic terms           (a.u.) =    -466.849898
 --------------------------------------------------------------------
 (Polarized solute)-Solvent               (kcal/mol) =      -0.95
 --------------------------------------------------------------------
 Quantum repulsion energy                 (kcal/mol) =       5.81
 Total non electrostatic                  (kcal/mol) =       5.81
 --------------------------------------------------------------------
 Partition over spheres:
 Sphere  on Atom  Surface  Charge   GEl     GCav    GDR
    1               7.02   0.010   -0.05    0.00    0.00
    2               5.03   0.007   -0.04    0.00    0.00
    3               7.52  -0.010   -0.04    0.00    0.00
    4               3.57  -0.004   -0.01    0.00    0.00
    5               4.05   0.007   -0.04    0.00    0.00
    6               4.26   0.005   -0.03    0.00    0.00
    7               4.81  -0.007   -0.03    0.00    0.00
    8               3.99  -0.005   -0.01    0.00    0.00
    9               3.60   0.002    0.00    0.00    0.00
   10               7.18  -0.007   -0.01    0.00    0.00
   11               3.15  -0.003   -0.01    0.00    0.00
   12               6.30   0.010   -0.06    0.00    0.00
   13               7.52  -0.010   -0.03    0.00    0.00
   14               7.02   0.010   -0.05    0.00    0.00
   15               7.52  -0.010   -0.04    0.00    0.00
   16               3.55   0.002    0.00    0.00    0.00
   17               2.83  -0.003   -0.01    0.00    0.00
   18               7.42  -0.008   -0.03    0.00    0.00
   19               5.09   0.009   -0.06    0.00    0.00
   20               4.98  -0.007   -0.03    0.00    0.00
   21               6.53   0.010   -0.06    0.00    0.00
   22               7.51  -0.010   -0.03    0.00    0.00
   23               3.60   0.002    0.00    0.00    0.00
   24               2.93  -0.003   -0.01    0.00    0.00
   25               7.18  -0.007   -0.01    0.00    0.00
   26               3.48   0.002    0.00    0.00    0.00
   27               7.42  -0.008   -0.03    0.00    0.00
   28               2.86  -0.003   -0.01    0.00    0.00
 Added spheres:    76.06   0.017   -0.23    0.00    0.00
 --------------------------------------------------------------------
 After PCM corrections, the energy is  -466.849898241     a.u.
 --------------------------------------------------------------------
 Annihilation of the first spin contaminant:
 S**2 before annihilation     0.0000,   after    -0.0000
 Leave Link  502 at Mon Aug  3 22:55:33 2020, MaxMem=  6442450944 cpu:            7397.0 elap:             310.9
 (Enter /scratch/scicomp/CentOS/7.3.1611/Haswell/software/Gaussian/g16/l601.exe)
 Copying SCF densities to generalized density rwf, IOpCl= 1 IROHF=0.

 **********************************************************************

            Population analysis using the SCF Density.

 **********************************************************************

 Alpha  occ. eigenvalues --  -10.28292 -10.28290 -10.28131 -10.28130 -10.28091
 Alpha  occ. eigenvalues --  -10.28090 -10.28025 -10.28023 -10.27802 -10.27800
 Alpha  occ. eigenvalues --  -10.27484 -10.27482  -0.93995  -0.93544  -0.84038
 Alpha  occ. eigenvalues --   -0.83980  -0.83753  -0.83584  -0.71209  -0.71103
 Alpha  occ. eigenvalues --   -0.67820  -0.67804  -0.59617  -0.59477  -0.57286
 Alpha  occ. eigenvalues --   -0.56694  -0.53377  -0.52615  -0.50807  -0.50750
 Alpha  occ. eigenvalues --   -0.49806  -0.49360  -0.47184  -0.46832  -0.44983
 Alpha  occ. eigenvalues --   -0.44957  -0.41114  -0.40908  -0.39551  -0.39145
 Alpha  occ. eigenvalues --   -0.39117  -0.38912  -0.29640  -0.27623
 Alpha virt. eigenvalues --    0.03932   0.04918   0.11364   0.12960   0.14306
 Alpha virt. eigenvalues --    0.15294   0.15411   0.16271   0.16444   0.16906
 Alpha virt. eigenvalues --    0.17679   0.17706   0.18067   0.19191   0.20902
 Alpha virt. eigenvalues --    0.21846   0.22418   0.23560   0.23994   0.24298
 Alpha virt. eigenvalues --    0.25617   0.26404   0.26568   0.27563   0.28740
 Alpha virt. eigenvalues --    0.28789   0.29458   0.29772   0.30605   0.31084
 Alpha virt. eigenvalues --    0.32025   0.32393   0.32614   0.32853   0.33608
 Alpha virt. eigenvalues --    0.34138   0.34533   0.35931   0.36140   0.37828
 Alpha virt. eigenvalues --    0.38161   0.39083   0.40181   0.41686   0.42017
 Alpha virt. eigenvalues --    0.42087   0.43899   0.44635   0.45808   0.46521
 Alpha virt. eigenvalues --    0.46912   0.46951   0.48312   0.48620   0.48995
 Alpha virt. eigenvalues --    0.49127   0.49638   0.49893   0.50314   0.50544
 Alpha virt. eigenvalues --    0.51194   0.51335   0.52099   0.52547   0.53244
 Alpha virt. eigenvalues --    0.53588   0.54294   0.55032   0.55161   0.55774
 Alpha virt. eigenvalues --    0.57662   0.58127   0.58290   0.59493   0.59970
 Alpha virt. eigenvalues --    0.60386   0.61230   0.63317   0.63530   0.64568
 Alpha virt. eigenvalues --    0.65585   0.67063   0.68236   0.68763   0.69247
 Alpha virt. eigenvalues --    0.71537   0.72298   0.73203   0.73598   0.75108
 Alpha virt. eigenvalues --    0.77048   0.78458   0.78634   0.81060   0.81617
 Alpha virt. eigenvalues --    0.82221   0.82457   0.82896   0.87648   0.87761
 Alpha virt. eigenvalues --    0.88598   0.89000   0.90953   0.91785   0.92339
 Alpha virt. eigenvalues --    0.92728   0.95435   0.96543   0.98911   0.99140
 Alpha virt. eigenvalues --    1.00982   1.03946   1.04339   1.04621   1.04922
 Alpha virt. eigenvalues --    1.07026   1.07284   1.08272   1.09542   1.11871
 Alpha virt. eigenvalues --    1.13455   1.13761   1.14451   1.15111   1.15853
 Alpha virt. eigenvalues --    1.16164   1.16896   1.16922   1.19114   1.20836
 Alpha virt. eigenvalues --    1.21424   1.22378   1.24108   1.24133   1.25045
 Alpha virt. eigenvalues --    1.25742   1.25814   1.26808   1.27436   1.28720
 Alpha virt. eigenvalues --    1.28836   1.30719   1.32162   1.32777   1.32850
 Alpha virt. eigenvalues --    1.34312   1.34972   1.36474   1.37234   1.38207
 Alpha virt. eigenvalues --    1.38960   1.40244   1.40627   1.41285   1.41619
 Alpha virt. eigenvalues --    1.42889   1.42919   1.44117   1.44652   1.45473
 Alpha virt. eigenvalues --    1.46074   1.46813   1.47008   1.47415   1.48773
 Alpha virt. eigenvalues --    1.50194   1.50415   1.50694   1.53778   1.55742
 Alpha virt. eigenvalues --    1.56537   1.57895   1.58522   1.58607   1.61152
 Alpha virt. eigenvalues --    1.61393   1.62817   1.63677   1.65467   1.67916
 Alpha virt. eigenvalues --    1.68630   1.70269   1.70906   1.73861   1.76152
 Alpha virt. eigenvalues --    1.76504   1.80159   1.80270   1.83134   1.84168
 Alpha virt. eigenvalues --    1.86282   1.87989   1.89878   1.90347   1.91590
 Alpha virt. eigenvalues --    1.92864   1.96117   1.99696   2.00863   2.01491
 Alpha virt. eigenvalues --    2.04124   2.05739   2.06509   2.07948   2.08675
 Alpha virt. eigenvalues --    2.09182   2.11835   2.12671   2.13242   2.15577
 Alpha virt. eigenvalues --    2.18402   2.19817   2.20224   2.21015   2.22537
 Alpha virt. eigenvalues --    2.23317   2.23871   2.24548   2.26355   2.26517
 Alpha virt. eigenvalues --    2.29251   2.33648   2.37321   2.38096   2.40795
 Alpha virt. eigenvalues --    2.43120   2.46035   2.46049   2.48933   2.50101
 Alpha virt. eigenvalues --    2.50156   2.50433   2.53641   2.54179   2.55021
 Alpha virt. eigenvalues --    2.55329   2.57497   2.57706   2.60743   2.61464
 Alpha virt. eigenvalues --    2.62335   2.64523   2.64668   2.65245   2.66360
 Alpha virt. eigenvalues --    2.67784   2.67970   2.70641   2.72406   2.72563
 Alpha virt. eigenvalues --    2.73299   2.73397   2.74870   2.76019   2.77261
 Alpha virt. eigenvalues --    2.77738   2.77751   2.79168   2.80874   2.81304
 Alpha virt. eigenvalues --    2.81569   2.82318   2.82628   2.83886   2.84952
 Alpha virt. eigenvalues --    2.84972   2.86445   2.87459   2.88500   2.89277
 Alpha virt. eigenvalues --    2.90245   2.90434   2.92635   2.92889   2.93453
 Alpha virt. eigenvalues --    2.94882   2.95083   2.95351   2.96219   2.99481
 Alpha virt. eigenvalues --    3.01835   3.02175   3.03027   3.04446   3.06408
 Alpha virt. eigenvalues --    3.06763   3.08750   3.09508   3.09617   3.10950
 Alpha virt. eigenvalues --    3.12207   3.12938   3.13215   3.14399   3.15087
 Alpha virt. eigenvalues --    3.15117   3.17172   3.17244   3.18893   3.18913
 Alpha virt. eigenvalues --    3.19800   3.19989   3.20400   3.21081   3.21439
 Alpha virt. eigenvalues --    3.22297   3.23155   3.23357   3.23663   3.24162
 Alpha virt. eigenvalues --    3.25835   3.26281   3.26993   3.27328   3.28289
 Alpha virt. eigenvalues --    3.28948   3.29247   3.30797   3.31391   3.31427
 Alpha virt. eigenvalues --    3.32381   3.33107   3.33148   3.33686   3.34417
 Alpha virt. eigenvalues --    3.35124   3.35984   3.36156   3.37763   3.38337
 Alpha virt. eigenvalues --    3.39057   3.40355   3.42426   3.43788   3.43806
 Alpha virt. eigenvalues --    3.45001   3.45654   3.46507   3.46658   3.47006
 Alpha virt. eigenvalues --    3.48745   3.49167   3.49339   3.49967   3.51079
 Alpha virt. eigenvalues --    3.51439   3.52825   3.53490   3.54919   3.55313
 Alpha virt. eigenvalues --    3.55520   3.56567   3.58400   3.59150   3.63034
 Alpha virt. eigenvalues --    3.64311   3.65042   3.65230   3.65434   3.66188
 Alpha virt. eigenvalues --    3.68390   3.68592   3.70934   3.71926   3.72573
 Alpha virt. eigenvalues --    3.74870   3.76291   3.77323   3.79325   3.80176
 Alpha virt. eigenvalues --    3.84905   3.85160   3.85759   3.86233   3.86436
 Alpha virt. eigenvalues --    3.88274   3.90908   3.90940   3.93377   3.93851
 Alpha virt. eigenvalues --    3.95548   3.95670   4.00174   4.00423   4.02630
 Alpha virt. eigenvalues --    4.04776   4.08448   4.08743   4.09051   4.10634
 Alpha virt. eigenvalues --    4.11903   4.12998   4.13650   4.15960   4.18085
 Alpha virt. eigenvalues --    4.18803   4.19886   4.21263   4.22951   4.23896
 Alpha virt. eigenvalues --    4.25268   4.27552   4.30892   4.31110   4.33704
 Alpha virt. eigenvalues --    4.35160   4.37830   4.38087   4.39264   4.41136
 Alpha virt. eigenvalues --    4.43475   4.43985   4.46421   4.48061   4.49751
 Alpha virt. eigenvalues --    4.50869   4.58960   4.60941   4.62405   4.65983
 Alpha virt. eigenvalues --    4.68595   4.69222   4.72062   4.74021   4.75419
 Alpha virt. eigenvalues --    4.75850   4.78481   4.78773   4.81148   4.83985
 Alpha virt. eigenvalues --    4.84709   4.84772   4.89496   4.90385   4.93979
 Alpha virt. eigenvalues --    4.94121   4.96425   4.98594   5.06114   5.08215
 Alpha virt. eigenvalues --    5.12418   5.12547   5.18231   5.19331   5.22973
 Alpha virt. eigenvalues --    5.23532   5.30491   5.32318   5.40463   5.40838
 Alpha virt. eigenvalues --    5.43311   5.44682   5.49234   5.49348   5.67278
 Alpha virt. eigenvalues --    5.70659   5.75407   5.77727   5.92855   5.99715
 Alpha virt. eigenvalues --    7.94094   7.95692   8.01820   8.04224   8.06246
 Alpha virt. eigenvalues --    8.06644   8.10603   8.11415   8.17774   8.18363
 Alpha virt. eigenvalues --    8.34238   8.36161  34.76295  34.77862  34.81003
 Alpha virt. eigenvalues --   34.82048  34.86623  34.86842  34.97174  34.98028
 Alpha virt. eigenvalues --   35.00654  35.01840  35.15611  35.18939
  Beta  occ. eigenvalues --  -10.28292 -10.28290 -10.28131 -10.28130 -10.28091
  Beta  occ. eigenvalues --  -10.28090 -10.28025 -10.28023 -10.27802 -10.27800
  Beta  occ. eigenvalues --  -10.27484 -10.27482  -0.93995  -0.93544  -0.84038
  Beta  occ. eigenvalues --   -0.83980  -0.83753  -0.83584  -0.71209  -0.71103
  Beta  occ. eigenvalues --   -0.67820  -0.67804  -0.59617  -0.59477  -0.57286
  Beta  occ. eigenvalues --   -0.56694  -0.53377  -0.52615  -0.50807  -0.50750
  Beta  occ. eigenvalues --   -0.49806  -0.49360  -0.47184  -0.46832  -0.44983
  Beta  occ. eigenvalues --   -0.44957  -0.41114  -0.40908  -0.39551  -0.39145
  Beta  occ. eigenvalues --   -0.39117  -0.38912  -0.29640  -0.27623
  Beta virt. eigenvalues --    0.03932   0.04918   0.11364   0.12960   0.14306
  Beta virt. eigenvalues --    0.15294   0.15411   0.16271   0.16444   0.16906
  Beta virt. eigenvalues --    0.17679   0.17706   0.18067   0.19191   0.20902
  Beta virt. eigenvalues --    0.21846   0.22418   0.23560   0.23994   0.24298
  Beta virt. eigenvalues --    0.25617   0.26404   0.26568   0.27563   0.28740
  Beta virt. eigenvalues --    0.28789   0.29458   0.29772   0.30605   0.31084
  Beta virt. eigenvalues --    0.32025   0.32393   0.32614   0.32853   0.33608
  Beta virt. eigenvalues --    0.34138   0.34533   0.35931   0.36140   0.37828
  Beta virt. eigenvalues --    0.38161   0.39083   0.40181   0.41686   0.42017
  Beta virt. eigenvalues --    0.42087   0.43899   0.44635   0.45808   0.46521
  Beta virt. eigenvalues --    0.46912   0.46951   0.48312   0.48620   0.48995
  Beta virt. eigenvalues --    0.49127   0.49638   0.49893   0.50314   0.50544
  Beta virt. eigenvalues --    0.51194   0.51335   0.52099   0.52547   0.53244
  Beta virt. eigenvalues --    0.53588   0.54294   0.55032   0.55161   0.55774
  Beta virt. eigenvalues --    0.57662   0.58127   0.58290   0.59493   0.59970
  Beta virt. eigenvalues --    0.60386   0.61230   0.63317   0.63530   0.64568
  Beta virt. eigenvalues --    0.65585   0.67063   0.68236   0.68763   0.69247
  Beta virt. eigenvalues --    0.71537   0.72298   0.73203   0.73598   0.75108
  Beta virt. eigenvalues --    0.77048   0.78458   0.78634   0.81060   0.81617
  Beta virt. eigenvalues --    0.82221   0.82457   0.82896   0.87648   0.87761
  Beta virt. eigenvalues --    0.88598   0.89000   0.90953   0.91785   0.92339
  Beta virt. eigenvalues --    0.92728   0.95435   0.96543   0.98911   0.99140
  Beta virt. eigenvalues --    1.00982   1.03946   1.04339   1.04621   1.04922
  Beta virt. eigenvalues --    1.07026   1.07284   1.08272   1.09542   1.11871
  Beta virt. eigenvalues --    1.13455   1.13761   1.14451   1.15111   1.15853
  Beta virt. eigenvalues --    1.16164   1.16896   1.16922   1.19114   1.20836
  Beta virt. eigenvalues --    1.21424   1.22378   1.24108   1.24133   1.25045
  Beta virt. eigenvalues --    1.25742   1.25814   1.26808   1.27436   1.28720
  Beta virt. eigenvalues --    1.28836   1.30719   1.32162   1.32777   1.32850
  Beta virt. eigenvalues --    1.34312   1.34972   1.36474   1.37234   1.38207
  Beta virt. eigenvalues --    1.38960   1.40244   1.40627   1.41285   1.41619
  Beta virt. eigenvalues --    1.42889   1.42919   1.44117   1.44652   1.45473
  Beta virt. eigenvalues --    1.46074   1.46813   1.47008   1.47415   1.48773
  Beta virt. eigenvalues --    1.50194   1.50415   1.50694   1.53778   1.55742
  Beta virt. eigenvalues --    1.56537   1.57895   1.58522   1.58607   1.61152
  Beta virt. eigenvalues --    1.61393   1.62817   1.63677   1.65467   1.67916
  Beta virt. eigenvalues --    1.68630   1.70269   1.70906   1.73861   1.76152
  Beta virt. eigenvalues --    1.76504   1.80159   1.80270   1.83134   1.84168
  Beta virt. eigenvalues --    1.86282   1.87989   1.89878   1.90347   1.91590
  Beta virt. eigenvalues --    1.92864   1.96117   1.99696   2.00863   2.01491
  Beta virt. eigenvalues --    2.04124   2.05739   2.06509   2.07948   2.08675
  Beta virt. eigenvalues --    2.09182   2.11835   2.12671   2.13242   2.15577
  Beta virt. eigenvalues --    2.18402   2.19817   2.20224   2.21015   2.22537
  Beta virt. eigenvalues --    2.23317   2.23871   2.24548   2.26355   2.26517
  Beta virt. eigenvalues --    2.29251   2.33648   2.37321   2.38096   2.40795
  Beta virt. eigenvalues --    2.43120   2.46035   2.46049   2.48933   2.50101
  Beta virt. eigenvalues --    2.50156   2.50433   2.53641   2.54179   2.55021
  Beta virt. eigenvalues --    2.55329   2.57497   2.57706   2.60743   2.61464
  Beta virt. eigenvalues --    2.62335   2.64523   2.64668   2.65245   2.66360
  Beta virt. eigenvalues --    2.67784   2.67970   2.70641   2.72406   2.72563
  Beta virt. eigenvalues --    2.73299   2.73397   2.74870   2.76019   2.77261
  Beta virt. eigenvalues --    2.77738   2.77751   2.79168   2.80874   2.81304
  Beta virt. eigenvalues --    2.81569   2.82318   2.82628   2.83886   2.84952
  Beta virt. eigenvalues --    2.84972   2.86445   2.87459   2.88500   2.89277
  Beta virt. eigenvalues --    2.90245   2.90434   2.92635   2.92889   2.93453
  Beta virt. eigenvalues --    2.94882   2.95083   2.95351   2.96219   2.99481
  Beta virt. eigenvalues --    3.01835   3.02175   3.03027   3.04446   3.06408
  Beta virt. eigenvalues --    3.06763   3.08750   3.09508   3.09617   3.10950
  Beta virt. eigenvalues --    3.12207   3.12938   3.13215   3.14399   3.15087
  Beta virt. eigenvalues --    3.15117   3.17172   3.17244   3.18893   3.18913
  Beta virt. eigenvalues --    3.19800   3.19989   3.20400   3.21081   3.21439
  Beta virt. eigenvalues --    3.22297   3.23155   3.23357   3.23663   3.24162
  Beta virt. eigenvalues --    3.25835   3.26281   3.26993   3.27328   3.28289
  Beta virt. eigenvalues --    3.28948   3.29247   3.30797   3.31391   3.31427
  Beta virt. eigenvalues --    3.32381   3.33107   3.33148   3.33686   3.34417
  Beta virt. eigenvalues --    3.35124   3.35984   3.36156   3.37763   3.38337
  Beta virt. eigenvalues --    3.39057   3.40355   3.42426   3.43788   3.43806
  Beta virt. eigenvalues --    3.45001   3.45654   3.46507   3.46658   3.47006
  Beta virt. eigenvalues --    3.48745   3.49167   3.49339   3.49967   3.51079
  Beta virt. eigenvalues --    3.51439   3.52825   3.53490   3.54919   3.55313
  Beta virt. eigenvalues --    3.55520   3.56567   3.58400   3.59150   3.63034
  Beta virt. eigenvalues --    3.64311   3.65042   3.65230   3.65434   3.66188
  Beta virt. eigenvalues --    3.68390   3.68592   3.70934   3.71926   3.72573
  Beta virt. eigenvalues --    3.74870   3.76291   3.77323   3.79325   3.80176
  Beta virt. eigenvalues --    3.84905   3.85160   3.85759   3.86233   3.86436
  Beta virt. eigenvalues --    3.88274   3.90908   3.90940   3.93377   3.93851
  Beta virt. eigenvalues --    3.95548   3.95670   4.00174   4.00423   4.02630
  Beta virt. eigenvalues --    4.04776   4.08448   4.08743   4.09051   4.10634
  Beta virt. eigenvalues --    4.11903   4.12998   4.13650   4.15960   4.18085
  Beta virt. eigenvalues --    4.18803   4.19886   4.21263   4.22951   4.23896
  Beta virt. eigenvalues --    4.25268   4.27552   4.30892   4.31110   4.33704
  Beta virt. eigenvalues --    4.35160   4.37830   4.38087   4.39264   4.41136
  Beta virt. eigenvalues --    4.43475   4.43985   4.46421   4.48061   4.49751
  Beta virt. eigenvalues --    4.50869   4.58960   4.60941   4.62405   4.65983
  Beta virt. eigenvalues --    4.68595   4.69222   4.72062   4.74021   4.75419
  Beta virt. eigenvalues --    4.75850   4.78481   4.78773   4.81148   4.83985
  Beta virt. eigenvalues --    4.84709   4.84772   4.89496   4.90385   4.93979
  Beta virt. eigenvalues --    4.94121   4.96425   4.98594   5.06114   5.08215
  Beta virt. eigenvalues --    5.12418   5.12547   5.18231   5.19331   5.22973
  Beta virt. eigenvalues --    5.23532   5.30491   5.32318   5.40463   5.40838
  Beta virt. eigenvalues --    5.43311   5.44682   5.49234   5.49348   5.67278
  Beta virt. eigenvalues --    5.70659   5.75407   5.77727   5.92855   5.99715
  Beta virt. eigenvalues --    7.94094   7.95692   8.01820   8.04224   8.06246
  Beta virt. eigenvalues --    8.06644   8.10603   8.11415   8.17774   8.18363
  Beta virt. eigenvalues --    8.34238   8.36161  34.76295  34.77862  34.81003
  Beta virt. eigenvalues --   34.82048  34.86623  34.86842  34.97174  34.98028
  Beta virt. eigenvalues --   35.00654  35.01840  35.15611  35.18939
          Condensed to atoms (all electrons):
               1          2          3          4          5          6
     1  C    5.142132   0.006689   0.422471  -0.001809   0.000490  -0.003554
     2  C    0.006689   5.286319  -0.001874   0.424580  -0.022466  -0.044096
     3  H    0.422471  -0.001874   0.491066   0.000028  -0.000040  -0.000021
     4  H   -0.001809   0.424580   0.000028   0.471420  -0.001900   0.002144
     5  C    0.000490  -0.022466  -0.000040  -0.001900   5.131055   0.523769
     6  C   -0.003554  -0.044096  -0.000021   0.002144   0.523769   5.288006
     7  H    0.000234  -0.001088   0.000000  -0.000062   0.423252  -0.027112
     8  H   -0.000948   0.002145  -0.000005  -0.000022  -0.041304   0.424605
     9  C    0.001168  -0.000614  -0.000004  -0.001039  -0.067003   0.241943
    10  H   -0.000025  -0.000130  -0.000001  -0.000057  -0.003406  -0.035038
    11  H   -0.000006  -0.002246   0.000000   0.000084   0.007944  -0.054163
    12  C   -0.000096   0.007084   0.000002   0.000964   0.300508  -0.071425
    13  H   -0.000001   0.000018   0.000000   0.000000  -0.034367   0.004239
    14  C    0.000123  -0.003534  -0.000000  -0.000945  -0.059095   0.006705
    15  H   -0.000000  -0.000022  -0.000000  -0.000005   0.006671  -0.001873
    16  C   -0.000563   0.009241  -0.000000   0.000654   0.005075  -0.067364
    17  H   -0.000062  -0.001349  -0.000001  -0.000611   0.009940  -0.001815
    18  H    0.000002   0.000558   0.000000   0.000128  -0.002954   0.011406
    19  C   -0.059117   0.524420   0.006669  -0.041223  -0.002978  -0.022551
    20  H    0.003339  -0.026743  -0.000091  -0.004630   0.000192  -0.001099
    21  C    0.582229  -0.071433  -0.030992   0.005308   0.000624   0.007144
    22  H   -0.024109   0.004303  -0.005422  -0.000057   0.000012   0.000019
    23  C   -0.082213   0.242460   0.004828  -0.014001   0.004663  -0.000647
    24  H    0.013129  -0.054220  -0.000091  -0.003998   0.001947  -0.002236
    25  H    0.004210  -0.035137  -0.000031  -0.000272   0.000327  -0.000130
    26  C    0.278938  -0.067284  -0.027655   0.003593  -0.002939   0.009270
    27  H   -0.039607   0.011392  -0.004464  -0.000097   0.000322   0.000556
    28  H   -0.036241  -0.001809   0.001038  -0.000124  -0.002807  -0.001305
               7          8          9         10         11         12
     1  C    0.000234  -0.000948   0.001168  -0.000025  -0.000006  -0.000096
     2  C   -0.001088   0.002145  -0.000614  -0.000130  -0.002246   0.007084
     3  H    0.000000  -0.000005  -0.000004  -0.000001   0.000000   0.000002
     4  H   -0.000062  -0.000022  -0.001039  -0.000057   0.000084   0.000964
     5  C    0.423252  -0.041304  -0.067003  -0.003406   0.007944   0.300508
     6  C   -0.027112   0.424605   0.241943  -0.035038  -0.054163  -0.071425
     7  H    0.477406  -0.004613   0.002936  -0.000264  -0.000026  -0.028629
     8  H   -0.004613   0.470705  -0.013803  -0.000279  -0.003984   0.005298
     9  C    0.002936  -0.013803   4.958057   0.385867   0.453659   0.036912
    10  H   -0.000264  -0.000279   0.385867   0.568960  -0.020288   0.001496
    11  H   -0.000026  -0.003984   0.453659  -0.020288   0.535023  -0.004199
    12  C   -0.028629   0.005298   0.036912   0.001496  -0.004199   5.005051
    13  H   -0.003051  -0.000057  -0.000247  -0.000053   0.000026   0.423453
    14  C    0.003309  -0.001806  -0.082297   0.004200   0.013129   0.581843
    15  H   -0.000091   0.000027   0.004827  -0.000031  -0.000090  -0.031061
    16  C   -0.000636   0.003578   0.355549  -0.023676  -0.053473  -0.062665
    17  H    0.000025  -0.000124  -0.034497   0.006832  -0.008010  -0.014542
    18  H    0.000028  -0.000096  -0.045153  -0.007913  -0.001216   0.006354
    19  C    0.000194  -0.001913   0.004678   0.000326   0.001938   0.000626
    20  H    0.000007  -0.000061   0.001641   0.000109  -0.000728  -0.000104
    21  C   -0.000106   0.000981  -0.000451   0.000011  -0.000188  -0.000259
    22  H   -0.000001   0.000001  -0.000036  -0.000001   0.000007  -0.000000
    23  C    0.001612  -0.001024   0.000227  -0.000007   0.000066  -0.000443
    24  H   -0.000719   0.000085   0.000065   0.000001  -0.000015  -0.000186
    25  H    0.000110  -0.000058  -0.000008   0.000001   0.000001   0.000011
    26  C   -0.001201   0.000588  -0.000629   0.000052  -0.000042   0.000584
    27  H   -0.000019   0.000129  -0.000022   0.000001  -0.000002  -0.000047
    28  H    0.001330  -0.000653   0.000391  -0.000009   0.000022   0.000592
              13         14         15         16         17         18
     1  C   -0.000001   0.000123  -0.000000  -0.000563  -0.000062   0.000002
     2  C    0.000018  -0.003534  -0.000022   0.009241  -0.001349   0.000558
     3  H    0.000000  -0.000000  -0.000000  -0.000000  -0.000001   0.000000
     4  H    0.000000  -0.000945  -0.000005   0.000654  -0.000611   0.000128
     5  C   -0.034367  -0.059095   0.006671   0.005075   0.009940  -0.002954
     6  C    0.004239   0.006705  -0.001873  -0.067364  -0.001815   0.011406
     7  H   -0.003051   0.003309  -0.000091  -0.000636   0.000025   0.000028
     8  H   -0.000057  -0.001806   0.000027   0.003578  -0.000124  -0.000096
     9  C   -0.000247  -0.082297   0.004827   0.355549  -0.034497  -0.045153
    10  H   -0.000053   0.004200  -0.000031  -0.023676   0.006832  -0.007913
    11  H    0.000026   0.013129  -0.000090  -0.053473  -0.008010  -0.001216
    12  C    0.423453   0.581843  -0.031061  -0.062665  -0.014542   0.006354
    13  H    0.487973  -0.024368  -0.005425   0.003881  -0.000361  -0.000090
    14  C   -0.024368   5.142738   0.422515   0.278760  -0.036198  -0.039601
    15  H   -0.005425   0.422515   0.491046  -0.027635   0.001037  -0.004460
    16  C    0.003881   0.278760  -0.027635   4.930902   0.401692   0.437802
    17  H   -0.000361  -0.036198   0.001037   0.401692   0.587162  -0.021622
    18  H   -0.000090  -0.039601  -0.004460   0.437802  -0.021622   0.537658
    19  C    0.000012   0.000493  -0.000040  -0.002938  -0.002800   0.000321
    20  H   -0.000001   0.000234   0.000000  -0.001215   0.001320  -0.000019
    21  C   -0.000000  -0.000097   0.000002   0.000585   0.000592  -0.000047
    22  H    0.000000  -0.000001   0.000000   0.000011  -0.000002  -0.000001
    23  C   -0.000036   0.001167  -0.000004  -0.000637   0.000388  -0.000022
    24  H    0.000009  -0.000006   0.000000  -0.000042   0.000022  -0.000002
    25  H   -0.000001  -0.000025  -0.000001   0.000052  -0.000009   0.000001
    26  C    0.000011  -0.000563  -0.000001   0.000966   0.000108  -0.000002
    27  H   -0.000001   0.000002   0.000000  -0.000002   0.000002  -0.000000
    28  H   -0.000002  -0.000063  -0.000001   0.000108  -0.000025   0.000002
              19         20         21         22         23         24
     1  C   -0.059117   0.003339   0.582229  -0.024109  -0.082213   0.013129
     2  C    0.524420  -0.026743  -0.071433   0.004303   0.242460  -0.054220
     3  H    0.006669  -0.000091  -0.030992  -0.005422   0.004828  -0.000091
     4  H   -0.041223  -0.004630   0.005308  -0.000057  -0.014001  -0.003998
     5  C   -0.002978   0.000192   0.000624   0.000012   0.004663   0.001947
     6  C   -0.022551  -0.001099   0.007144   0.000019  -0.000647  -0.002236
     7  H    0.000194   0.000007  -0.000106  -0.000001   0.001612  -0.000719
     8  H   -0.001913  -0.000061   0.000981   0.000001  -0.001024   0.000085
     9  C    0.004678   0.001641  -0.000451  -0.000036   0.000227   0.000065
    10  H    0.000326   0.000109   0.000011  -0.000001  -0.000007   0.000001
    11  H    0.001938  -0.000728  -0.000188   0.000007   0.000066  -0.000015
    12  C    0.000626  -0.000104  -0.000259  -0.000000  -0.000443  -0.000186
    13  H    0.000012  -0.000001  -0.000000   0.000000  -0.000036   0.000009
    14  C    0.000493   0.000234  -0.000097  -0.000001   0.001167  -0.000006
    15  H   -0.000040   0.000000   0.000002   0.000000  -0.000004   0.000000
    16  C   -0.002938  -0.001215   0.000585   0.000011  -0.000637  -0.000042
    17  H   -0.002800   0.001320   0.000592  -0.000002   0.000388   0.000022
    18  H    0.000321  -0.000019  -0.000047  -0.000001  -0.000022  -0.000002
    19  C    5.130679   0.422947   0.300483  -0.034479  -0.067150   0.007959
    20  H    0.422947   0.477337  -0.028726  -0.003047   0.002926  -0.000026
    21  C    0.300483  -0.028726   5.004942   0.423235   0.036845  -0.004196
    22  H   -0.034479  -0.003047   0.423235   0.487903  -0.000249   0.000026
    23  C   -0.067150   0.002926   0.036845  -0.000249   4.957549   0.453613
    24  H    0.007959  -0.000026  -0.004196   0.000026   0.453613   0.535372
    25  H   -0.003378  -0.000263   0.001495  -0.000053   0.385932  -0.020306
    26  C    0.004999  -0.000638  -0.062752   0.003885   0.355510  -0.053483
    27  H   -0.002947   0.000028   0.006358  -0.000091  -0.045118  -0.001212
    28  H    0.009915   0.000025  -0.014456  -0.000360  -0.034576  -0.008020
              25         26         27         28
     1  C    0.004210   0.278938  -0.039607  -0.036241
     2  C   -0.035137  -0.067284   0.011392  -0.001809
     3  H   -0.000031  -0.027655  -0.004464   0.001038
     4  H   -0.000272   0.003593  -0.000097  -0.000124
     5  C    0.000327  -0.002939   0.000322  -0.002807
     6  C   -0.000130   0.009270   0.000556  -0.001305
     7  H    0.000110  -0.001201  -0.000019   0.001330
     8  H   -0.000058   0.000588   0.000129  -0.000653
     9  C   -0.000008  -0.000629  -0.000022   0.000391
    10  H    0.000001   0.000052   0.000001  -0.000009
    11  H    0.000001  -0.000042  -0.000002   0.000022
    12  C    0.000011   0.000584  -0.000047   0.000592
    13  H   -0.000001   0.000011  -0.000001  -0.000002
    14  C   -0.000025  -0.000563   0.000002  -0.000063
    15  H   -0.000001  -0.000001   0.000000  -0.000001
    16  C    0.000052   0.000966  -0.000002   0.000108
    17  H   -0.000009   0.000108   0.000002  -0.000025
    18  H    0.000001  -0.000002  -0.000000   0.000002
    19  C   -0.003378   0.004999  -0.002947   0.009915
    20  H   -0.000263  -0.000638   0.000028   0.000025
    21  C    0.001495  -0.062752   0.006358  -0.014456
    22  H   -0.000053   0.003885  -0.000091  -0.000360
    23  C    0.385932   0.355510  -0.045118  -0.034576
    24  H   -0.020306  -0.053483  -0.001212  -0.008020
    25  H    0.569009  -0.023680  -0.007921   0.006837
    26  C   -0.023680   4.930919   0.437775   0.401742
    27  H   -0.007921   0.437775   0.537676  -0.021661
    28  H    0.006837   0.401742  -0.021661   0.587248
          Atomic-Atomic Spin Densities.
               1          2          3          4          5          6
     1  C   -0.000001  -0.000000   0.000000   0.000000  -0.000000  -0.000000
     2  C   -0.000000   0.000001   0.000000   0.000000  -0.000000  -0.000000
     3  H    0.000000   0.000000   0.000000  -0.000000  -0.000000   0.000000
     4  H    0.000000   0.000000  -0.000000   0.000000   0.000000  -0.000000
     5  C   -0.000000  -0.000000  -0.000000   0.000000  -0.000001   0.000000
     6  C   -0.000000  -0.000000   0.000000  -0.000000   0.000000   0.000000
     7  H   -0.000000   0.000000   0.000000  -0.000000  -0.000000  -0.000000
     8  H    0.000000   0.000000  -0.000000  -0.000000  -0.000000  -0.000000
     9  C   -0.000000  -0.000000  -0.000000  -0.000000  -0.000000   0.000000
    10  H   -0.000000  -0.000000  -0.000000   0.000000  -0.000000   0.000000
    11  H    0.000000  -0.000000   0.000000   0.000000   0.000000  -0.000000
    12  C    0.000000   0.000000   0.000000  -0.000000   0.000000   0.000000
    13  H    0.000000   0.000000   0.000000  -0.000000   0.000000  -0.000000
    14  C   -0.000000   0.000000  -0.000000  -0.000000   0.000000   0.000000
    15  H    0.000000  -0.000000  -0.000000   0.000000  -0.000000  -0.000000
    16  C   -0.000000   0.000000   0.000000   0.000000  -0.000000  -0.000000
    17  H   -0.000000  -0.000000  -0.000000   0.000000   0.000000  -0.000000
    18  H   -0.000000   0.000000  -0.000000   0.000000   0.000000   0.000000
    19  C    0.000000  -0.000000   0.000000   0.000000  -0.000000   0.000000
    20  H   -0.000000   0.000000   0.000000   0.000000  -0.000000  -0.000000
    21  C    0.000000  -0.000000  -0.000000  -0.000000   0.000000  -0.000000
    22  H   -0.000000   0.000000  -0.000000  -0.000000   0.000000  -0.000000
    23  C   -0.000000  -0.000000   0.000000  -0.000000   0.000000   0.000000
    24  H   -0.000000   0.000000  -0.000000   0.000000   0.000000   0.000000
    25  H   -0.000000  -0.000000   0.000000   0.000000  -0.000000   0.000000
    26  C    0.000000   0.000000  -0.000000  -0.000000   0.000000  -0.000000
    27  H    0.000000  -0.000000  -0.000000   0.000000   0.000000  -0.000000
    28  H    0.000000   0.000000  -0.000000   0.000000  -0.000000   0.000000
               7          8          9         10         11         12
     1  C   -0.000000   0.000000  -0.000000  -0.000000   0.000000   0.000000
     2  C    0.000000   0.000000  -0.000000  -0.000000  -0.000000   0.000000
     3  H    0.000000  -0.000000  -0.000000  -0.000000   0.000000   0.000000
     4  H   -0.000000  -0.000000  -0.000000   0.000000   0.000000  -0.000000
     5  C   -0.000000  -0.000000  -0.000000  -0.000000   0.000000   0.000000
     6  C   -0.000000  -0.000000   0.000000   0.000000  -0.000000   0.000000
     7  H    0.000001  -0.000000   0.000000  -0.000000  -0.000000  -0.000000
     8  H   -0.000000  -0.000000   0.000000  -0.000000   0.000000   0.000000
     9  C    0.000000   0.000000  -0.000001  -0.000000   0.000000  -0.000000
    10  H   -0.000000  -0.000000  -0.000000   0.000000  -0.000000   0.000000
    11  H   -0.000000   0.000000   0.000000  -0.000000   0.000000  -0.000000
    12  C   -0.000000   0.000000  -0.000000   0.000000  -0.000000   0.000000
    13  H    0.000000   0.000000   0.000000  -0.000000  -0.000000  -0.000000
    14  C    0.000000  -0.000000   0.000000   0.000000   0.000000  -0.000000
    15  H   -0.000000   0.000000  -0.000000  -0.000000   0.000000   0.000000
    16  C   -0.000000   0.000000   0.000000  -0.000000  -0.000000   0.000000
    17  H   -0.000000  -0.000000   0.000000   0.000000  -0.000000   0.000000
    18  H    0.000000  -0.000000   0.000000   0.000000  -0.000000  -0.000000
    19  C    0.000000  -0.000000   0.000000   0.000000  -0.000000  -0.000000
    20  H    0.000000   0.000000   0.000000  -0.000000   0.000000   0.000000
    21  C   -0.000000   0.000000  -0.000000   0.000000   0.000000  -0.000000
    22  H   -0.000000  -0.000000  -0.000000   0.000000   0.000000   0.000000
    23  C   -0.000000   0.000000  -0.000000   0.000000   0.000000   0.000000
    24  H   -0.000000  -0.000000  -0.000000   0.000000  -0.000000  -0.000000
    25  H    0.000000  -0.000000  -0.000000  -0.000000  -0.000000  -0.000000
    26  C   -0.000000  -0.000000   0.000000   0.000000  -0.000000  -0.000000
    27  H   -0.000000  -0.000000  -0.000000   0.000000  -0.000000  -0.000000
    28  H    0.000000  -0.000000   0.000000   0.000000  -0.000000  -0.000000
              13         14         15         16         17         18
     1  C    0.000000  -0.000000   0.000000  -0.000000  -0.000000  -0.000000
     2  C    0.000000   0.000000  -0.000000   0.000000  -0.000000   0.000000
     3  H    0.000000  -0.000000  -0.000000   0.000000  -0.000000  -0.000000
     4  H   -0.000000  -0.000000   0.000000   0.000000   0.000000   0.000000
     5  C    0.000000   0.000000  -0.000000  -0.000000   0.000000   0.000000
     6  C   -0.000000   0.000000  -0.000000  -0.000000  -0.000000   0.000000
     7  H    0.000000   0.000000  -0.000000  -0.000000  -0.000000   0.000000
     8  H    0.000000  -0.000000   0.000000   0.000000  -0.000000  -0.000000
     9  C    0.000000   0.000000  -0.000000   0.000000   0.000000   0.000000
    10  H   -0.000000   0.000000  -0.000000  -0.000000   0.000000   0.000000
    11  H   -0.000000   0.000000   0.000000  -0.000000  -0.000000  -0.000000
    12  C   -0.000000  -0.000000   0.000000   0.000000   0.000000  -0.000000
    13  H   -0.000000   0.000000   0.000000  -0.000000  -0.000000   0.000000
    14  C    0.000000   0.000001  -0.000000  -0.000000  -0.000000  -0.000000
    15  H    0.000000  -0.000000  -0.000000   0.000000   0.000000   0.000000
    16  C   -0.000000  -0.000000   0.000000   0.000001  -0.000000  -0.000000
    17  H   -0.000000  -0.000000   0.000000  -0.000000   0.000000   0.000000
    18  H    0.000000  -0.000000   0.000000  -0.000000   0.000000  -0.000000
    19  C   -0.000000   0.000000   0.000000  -0.000000   0.000000  -0.000000
    20  H    0.000000   0.000000  -0.000000   0.000000  -0.000000   0.000000
    21  C   -0.000000  -0.000000  -0.000000   0.000000   0.000000   0.000000
    22  H   -0.000000  -0.000000  -0.000000   0.000000  -0.000000   0.000000
    23  C    0.000000   0.000000   0.000000  -0.000000   0.000000   0.000000
    24  H   -0.000000  -0.000000  -0.000000  -0.000000   0.000000   0.000000
    25  H   -0.000000   0.000000   0.000000  -0.000000  -0.000000  -0.000000
    26  C   -0.000000   0.000000  -0.000000  -0.000000   0.000000   0.000000
    27  H   -0.000000   0.000000   0.000000  -0.000000   0.000000   0.000000
    28  H    0.000000   0.000000   0.000000  -0.000000   0.000000  -0.000000
              19         20         21         22         23         24
     1  C    0.000000  -0.000000   0.000000  -0.000000  -0.000000  -0.000000
     2  C   -0.000000   0.000000  -0.000000   0.000000  -0.000000   0.000000
     3  H    0.000000   0.000000  -0.000000  -0.000000   0.000000  -0.000000
     4  H    0.000000   0.000000  -0.000000  -0.000000  -0.000000   0.000000
     5  C   -0.000000  -0.000000   0.000000   0.000000   0.000000   0.000000
     6  C    0.000000  -0.000000  -0.000000  -0.000000   0.000000   0.000000
     7  H    0.000000   0.000000  -0.000000  -0.000000  -0.000000  -0.000000
     8  H   -0.000000   0.000000   0.000000  -0.000000   0.000000  -0.000000
     9  C    0.000000   0.000000  -0.000000  -0.000000  -0.000000  -0.000000
    10  H    0.000000  -0.000000   0.000000   0.000000   0.000000   0.000000
    11  H   -0.000000   0.000000   0.000000   0.000000   0.000000  -0.000000
    12  C   -0.000000   0.000000  -0.000000   0.000000   0.000000  -0.000000
    13  H   -0.000000   0.000000  -0.000000  -0.000000   0.000000  -0.000000
    14  C    0.000000   0.000000  -0.000000  -0.000000   0.000000  -0.000000
[...]
     1  C   -0.000000   0.000000   0.000000   0.000000
     2  C   -0.000000   0.000000  -0.000000   0.000000
     3  H    0.000000  -0.000000  -0.000000  -0.000000
     4  H    0.000000  -0.000000   0.000000   0.000000
     5  C   -0.000000   0.000000   0.000000  -0.000000
     6  C    0.000000  -0.000000   0.000000   0.000000
     7  H    0.000000  -0.000000  -0.000000   0.000000
     8  H   -0.000000  -0.000000  -0.000000  -0.000000
     9  C   -0.000000   0.000000  -0.000000   0.000000
    10  H   -0.000000   0.000000   0.000000   0.000000
    11  H   -0.000000  -0.000000  -0.000000  -0.000000
    12  C    0.000000  -0.000000  -0.000000  -0.000000
    13  H   -0.000000  -0.000000  -0.000000   0.000000
    14  C    0.000000   0.000000   0.000000   0.000000
    15  H    0.000000  -0.000000   0.000000   0.000000
    16  C   -0.000000  -0.000000  -0.000000  -0.000000
    17  H   -0.000000   0.000000   0.000000   0.000000
    18  H   -0.000000   0.000000   0.000000  -0.000000
    19  C    0.000000   0.000000   0.000000  -0.000000
    20  H    0.000000   0.000000  -0.000000   0.000000
    21  C   -0.000000  -0.000000   0.000000  -0.000000
    22  H    0.000000   0.000000  -0.000000   0.000000
    23  C    0.000000  -0.000000  -0.000000  -0.000000
    24  H    0.000000   0.000000   0.000000   0.000000
    25  H   -0.000000   0.000000   0.000000  -0.000000
    26  C    0.000000  -0.000001   0.000000   0.000000
    27  H    0.000000   0.000000   0.000000   0.000000
    28  H   -0.000000   0.000000   0.000000  -0.000000
 Mulliken charges and spin densities:
               1          2
     1  C   -0.204867  -0.000002
     2  C   -0.195139   0.000001
     3  H    0.148569   0.000000
     4  H    0.168758   0.000000
     5  C   -0.191388  -0.000001
     6  C   -0.195458   0.000001
     7  H    0.166754   0.000000
     8  H    0.168757  -0.000000
     9  C   -0.211795  -0.000001
    10  H    0.131291   0.000000
    11  H    0.140334   0.000000
    12  C   -0.160284   0.000001
    13  H    0.152245  -0.000000
    14  C   -0.205017  -0.000000
    15  H    0.148591   0.000000
    16  C   -0.193072   0.000001
    17  H    0.115775  -0.000000
    18  H    0.133335  -0.000000
    19  C   -0.192711  -0.000000
    20  H    0.167288  -0.000000
    21  C   -0.160270   0.000001
    22  H    0.152244   0.000000
    23  C   -0.211197   0.000001
    24  H    0.139840  -0.000000
    25  H    0.131189  -0.000000
    26  C   -0.192761  -0.000000
    27  H    0.133254   0.000000
    28  H    0.115736  -0.000000
 Sum of Mulliken charges =  -0.00000   0.00000
 Mulliken charges and spin densities with hydrogens summed into heavy atoms:
               1          2
     1  C   -0.056299  -0.000001
     2  C   -0.026381   0.000001
     5  C   -0.024634  -0.000001
     6  C   -0.026701   0.000001
     9  C    0.059830  -0.000001
    12  C   -0.008039   0.000000
    14  C   -0.056426  -0.000000
    16  C    0.056037   0.000000
    19  C   -0.025423  -0.000001
    21  C   -0.008026   0.000001
    23  C    0.059833   0.000000
    26  C    0.056229  -0.000000
 Electronic spatial extent (au):  <R**2>=           2331.4946
 Charge=             -0.0000 electrons
 Dipole moment (field-independent basis, Debye):
    X=             -0.0015    Y=             -0.0010    Z=              0.0014  Tot=              0.0023
 Quadrupole moment (field-independent basis, Debye-Ang):
   XX=            -70.4198   YY=            -68.1113   ZZ=            -75.0569
   XY=             -3.3125   XZ=             -3.8946   YZ=             -1.7278
 Traceless Quadrupole moment (field-independent basis, Debye-Ang):
   XX=              0.7762   YY=              3.0847   ZZ=             -3.8609
   XY=             -3.3125   XZ=             -3.8946   YZ=             -1.7278
 Octapole moment (field-independent basis, Debye-Ang**2):
  XXX=             -0.0075  YYY=             -0.0022  ZZZ=              0.0044  XYY=              0.0037
  XXY=              0.0000  XXZ=              0.0059  XZZ=             -0.0097  YZZ=             -0.0054
  YYZ=              0.0088  XYZ=             -0.0009
 Hexadecapole moment (field-independent basis, Debye-Ang**3):
 XXXX=          -2063.7598 YYYY=           -609.4556 ZZZZ=           -433.7693 XXXY=           -117.6276
 XXXZ=           -170.0203 YYYX=            -67.4822 YYYZ=             -8.7819 ZZZX=           -110.7533
 ZZZY=            -22.2356 XXYY=           -440.1571 XXZZ=           -436.8860 YYZZ=           -188.9854
 XXYZ=            -26.7475 YYXZ=            -39.6790 ZZXY=            -47.6260
 N-N= 6.716488906263D+02 E-N=-2.425900968585D+03  KE= 4.642941241318D+02
                          Isotropic Fermi Contact Couplings
        Atom                 a.u.       MegaHertz       Gauss      10(-4) cm-1
     1  C(13)             -0.00000      -0.00008      -0.00003      -0.00003
     2  C(13)              0.00000       0.00000       0.00000       0.00000
     3  H(1)               0.00000       0.00005       0.00002       0.00002
     4  H(1)               0.00000       0.00004       0.00001       0.00001
     5  C(13)             -0.00000      -0.00020      -0.00007      -0.00007
     6  C(13)              0.00000       0.00012       0.00004       0.00004
     7  H(1)               0.00000       0.00028       0.00010       0.00009
     8  H(1)              -0.00000      -0.00011      -0.00004      -0.00004
     9  C(13)             -0.00000      -0.00028      -0.00010      -0.00009
    10  H(1)               0.00000       0.00016       0.00006       0.00005
    11  H(1)               0.00000       0.00016       0.00006       0.00005
    12  C(13)              0.00000       0.00017       0.00006       0.00006
    13  H(1)              -0.00000      -0.00023      -0.00008      -0.00008
    14  C(13)             -0.00000      -0.00004      -0.00001      -0.00001
    15  H(1)               0.00000       0.00003       0.00001       0.00001
    16  C(13)              0.00000       0.00015       0.00005       0.00005
    17  H(1)              -0.00000      -0.00008      -0.00003      -0.00003
    18  H(1)              -0.00000      -0.00005      -0.00002      -0.00002
    19  C(13)              0.00000       0.00008       0.00003       0.00003
    20  H(1)              -0.00000      -0.00021      -0.00008      -0.00007
    21  C(13)             -0.00000      -0.00004      -0.00002      -0.00001
    22  H(1)               0.00000       0.00017       0.00006       0.00006
    23  C(13)              0.00000       0.00023       0.00008       0.00008
    24  H(1)              -0.00000      -0.00012      -0.00004      -0.00004
    25  H(1)              -0.00000      -0.00006      -0.00002      -0.00002
    26  C(13)             -0.00000      -0.00010      -0.00004      -0.00003
    27  H(1)               0.00000       0.00001       0.00000       0.00000
    28  H(1)              -0.00000      -0.00003      -0.00001      -0.00001
 --------------------------------------------------------
       Center         ----  Spin Dipole Couplings  ----
                      3XX-RR        3YY-RR        3ZZ-RR
 --------------------------------------------------------
     1   Atom       -0.000000      0.000001     -0.000001
     2   Atom        0.000000     -0.000001      0.000001
     3   Atom       -0.000000      0.000000     -0.000000
     4   Atom        0.000000     -0.000000      0.000000
     5   Atom       -0.000000     -0.000000      0.000000
     6   Atom       -0.000000     -0.000000      0.000001
     7   Atom        0.000000     -0.000000      0.000000
     8   Atom        0.000000     -0.000000     -0.000000
     9   Atom       -0.000000      0.000000     -0.000000
    10   Atom        0.000000      0.000000     -0.000000
    11   Atom       -0.000000     -0.000000      0.000000
    12   Atom        0.000000      0.000000     -0.000000
    13   Atom       -0.000000      0.000000     -0.000000
    14   Atom        0.000000      0.000000     -0.000001
    15   Atom       -0.000000      0.000000      0.000000
    16   Atom        0.000000     -0.000000      0.000000
    17   Atom        0.000000     -0.000000      0.000000
    18   Atom        0.000000      0.000000     -0.000000
    19   Atom        0.000000      0.000001     -0.000001
    20   Atom       -0.000000      0.000000     -0.000000
    21   Atom       -0.000000     -0.000001      0.000001
    22   Atom       -0.000000     -0.000000      0.000000
    23   Atom        0.000000     -0.000000      0.000000
    24   Atom       -0.000000      0.000000     -0.000000
    25   Atom       -0.000000     -0.000000      0.000000
    26   Atom       -0.000000      0.000000     -0.000000
    27   Atom        0.000000     -0.000000      0.000000
    28   Atom        0.000000     -0.000000      0.000000
 --------------------------------------------------------
                        XY            XZ            YZ
 --------------------------------------------------------
     1   Atom        0.000000     -0.000001      0.000000
     2   Atom        0.000000      0.000001      0.000000
     3   Atom       -0.000000      0.000000      0.000000
     4   Atom       -0.000000     -0.000000      0.000000
     5   Atom        0.000000     -0.000000     -0.000000
     6   Atom       -0.000000      0.000000      0.000000
     7   Atom        0.000000      0.000000     -0.000000
     8   Atom        0.000000     -0.000000     -0.000000
     9   Atom       -0.000000      0.000000     -0.000000
    10   Atom        0.000000     -0.000000      0.000000
    11   Atom       -0.000000     -0.000000     -0.000000
    12   Atom        0.000000      0.000000     -0.000000
    13   Atom        0.000000     -0.000000     -0.000000
    14   Atom       -0.000000      0.000000     -0.000000
    15   Atom       -0.000000     -0.000000     -0.000000
    16   Atom       -0.000000     -0.000000     -0.000000
    17   Atom        0.000000      0.000000      0.000000
    18   Atom       -0.000000      0.000000     -0.000000
    19   Atom       -0.000000     -0.000000     -0.000000
    20   Atom       -0.000000     -0.000000      0.000000
    21   Atom       -0.000000      0.000001      0.000000
    22   Atom        0.000000      0.000000      0.000000
    23   Atom        0.000000     -0.000000      0.000000
    24   Atom        0.000000      0.000000      0.000000
    25   Atom       -0.000000      0.000000     -0.000000
    26   Atom        0.000000      0.000000      0.000000
    27   Atom        0.000000     -0.000000      0.000000
    28   Atom       -0.000000     -0.000000     -0.000000
 --------------------------------------------------------


 ---------------------------------------------------------------------------------
              Anisotropic Spin Dipole Couplings in Principal Axis System
 ---------------------------------------------------------------------------------

       Atom             a.u.   MegaHertz   Gauss  10(-4) cm-1        Axes

              Baa    -0.0000    -0.000    -0.000    -0.000  0.6735 -0.0949  0.7331
     1 C(13)  Bbb     0.0000     0.000     0.000     0.000  0.2269  0.9704 -0.0828
              Bcc     0.0000     0.000     0.000     0.000  0.7035 -0.2221 -0.6751
 
              Baa    -0.0000    -0.000    -0.000    -0.000  0.7377 -0.4741 -0.4806
     2 C(13)  Bbb    -0.0000    -0.000    -0.000    -0.000  0.2533  0.8542 -0.4540
              Bcc     0.0000     0.000     0.000     0.000  0.6258  0.2132  0.7503
 
              Baa    -0.0000    -0.000    -0.000    -0.000 -0.5182 -0.1604  0.8401
     3 H(1)   Bbb     0.0000     0.000     0.000     0.000  0.8510  0.0008  0.5251
              Bcc     0.0000     0.000     0.000     0.000 -0.0849  0.9871  0.1361
 
              Baa    -0.0000    -0.000    -0.000    -0.000 -0.0815  0.9783 -0.1905
     4 H(1)   Bbb    -0.0000    -0.000    -0.000    -0.000  0.8872  0.1583  0.4334
              Bcc     0.0000     0.000     0.000     0.000 -0.4542  0.1337  0.8808
 
              Baa    -0.0000    -0.000    -0.000    -0.000  0.8272  0.2429  0.5068
     5 C(13)  Bbb    -0.0000    -0.000    -0.000    -0.000 -0.3708  0.9135  0.1674
              Bcc     0.0000     0.000     0.000     0.000 -0.4223 -0.3264  0.8457
 
              Baa    -0.0000    -0.000    -0.000    -0.000  0.8016  0.5767 -0.1577
     6 C(13)  Bbb    -0.0000    -0.000    -0.000    -0.000 -0.5962  0.7904 -0.1404
              Bcc     0.0000     0.000     0.000     0.000  0.0436  0.2066  0.9775
 
              Baa    -0.0000    -0.000    -0.000    -0.000 -0.5146  0.8231  0.2400
     7 H(1)   Bbb     0.0000     0.000     0.000     0.000  0.6634  0.2049  0.7196
              Bcc     0.0000     0.000     0.000     0.000 -0.5432 -0.5296  0.6515
 
              Baa    -0.0000    -0.000    -0.000    -0.000 -0.1163  0.9106  0.3965
     8 H(1)   Bbb    -0.0000    -0.000    -0.000    -0.000  0.1412 -0.3800  0.9142
              Bcc     0.0000     0.000     0.000     0.000  0.9831  0.1623 -0.0844
 
              Baa    -0.0000    -0.000    -0.000    -0.000  0.8562  0.2341 -0.4605
     9 C(13)  Bbb    -0.0000    -0.000    -0.000    -0.000  0.3029  0.4947  0.8146
              Bcc     0.0000     0.000     0.000     0.000 -0.4186  0.8369 -0.3526
 
              Baa    -0.0000    -0.000    -0.000    -0.000  0.4408 -0.1516  0.8847
    10 H(1)   Bbb     0.0000     0.000     0.000     0.000  0.8652  0.3341 -0.3739
              Bcc     0.0000     0.000     0.000     0.000 -0.2389  0.9303  0.2784
 
              Baa    -0.0000    -0.000    -0.000    -0.000  0.6128  0.7841  0.0980
    11 H(1)   Bbb     0.0000     0.000     0.000     0.000 -0.3843  0.1874  0.9040
              Bcc     0.0000     0.000     0.000     0.000  0.6905 -0.5916  0.4161
 
              Baa    -0.0000    -0.000    -0.000    -0.000 -0.2912  0.2256  0.9297
    12 C(13)  Bbb     0.0000     0.000     0.000     0.000 -0.0005  0.9718 -0.2360
              Bcc     0.0000     0.000     0.000     0.000  0.9567  0.0692  0.2829
 
              Baa    -0.0000    -0.000    -0.000    -0.000 -0.4000  0.3933  0.8279
    13 H(1)   Bbb    -0.0000    -0.000    -0.000    -0.000  0.8667 -0.1313  0.4812
              Bcc     0.0000     0.000     0.000     0.000  0.2979  0.9100 -0.2883
 
              Baa    -0.0000    -0.000    -0.000    -0.000 -0.0963  0.0968  0.9906
    14 C(13)  Bbb     0.0000     0.000     0.000     0.000  0.3024  0.9511 -0.0635
              Bcc     0.0000     0.000     0.000     0.000  0.9483 -0.2934  0.1208
 
              Baa    -0.0000    -0.000    -0.000    -0.000  0.9884  0.0836  0.1269
    15 H(1)   Bbb     0.0000     0.000     0.000     0.000 -0.1161  0.9543  0.2752
              Bcc     0.0000     0.000     0.000     0.000 -0.0981 -0.2868  0.9530
 
              Baa    -0.0000    -0.000    -0.000    -0.000  0.3207  0.8912  0.3207
    16 C(13)  Bbb    -0.0000    -0.000    -0.000    -0.000  0.6482 -0.4534  0.6118
              Bcc     0.0000     0.000     0.000     0.000 -0.6906 -0.0117  0.7231
 
              Baa    -0.0000    -0.000    -0.000    -0.000  0.1578  0.8385 -0.5216
    17 H(1)   Bbb    -0.0000    -0.000    -0.000    -0.000  0.8512 -0.3832 -0.3585
              Bcc     0.0000     0.000     0.000     0.000  0.5005  0.3874  0.7742
 
              Baa    -0.0000    -0.000    -0.000    -0.000  0.6112  0.7155  0.3384
    18 H(1)   Bbb    -0.0000    -0.000    -0.000    -0.000 -0.4165 -0.0728  0.9062
              Bcc     0.0000     0.000     0.000     0.000 -0.6730  0.6948 -0.2535
 
              Baa    -0.0000    -0.000    -0.000    -0.000  0.2527  0.0779  0.9644
    19 C(13)  Bbb     0.0000     0.000     0.000     0.000  0.8600  0.4386 -0.2607
              Bcc     0.0000     0.000     0.000     0.000 -0.4433  0.8953  0.0439
 
              Baa    -0.0000    -0.000    -0.000    -0.000  0.5394 -0.0015  0.8421
    20 H(1)   Bbb     0.0000     0.000     0.000     0.000  0.7691  0.4082 -0.4919
              Bcc     0.0000     0.000     0.000     0.000 -0.3430  0.9129  0.2213
 
              Baa    -0.0000    -0.000    -0.000    -0.000  0.2299  0.9676 -0.1039
    21 C(13)  Bbb    -0.0000    -0.000    -0.000    -0.000  0.9248 -0.2505 -0.2863
              Bcc     0.0000     0.000     0.000     0.000  0.3031  0.0302  0.9525
 
              Baa    -0.0000    -0.000    -0.000    -0.000 -0.5066  0.8585  0.0793
    22 H(1)   Bbb    -0.0000    -0.000    -0.000    -0.000  0.7195  0.4716 -0.5099
              Bcc     0.0000     0.000     0.000     0.000  0.4751  0.2012  0.8566
 
              Baa    -0.0000    -0.000    -0.000    -0.000 -0.3699  0.8739 -0.3154
    23 C(13)  Bbb     0.0000     0.000     0.000     0.000  0.2345  0.4163  0.8785
              Bcc     0.0000     0.000     0.000     0.000  0.8990  0.2510 -0.3589
 
              Baa    -0.0000    -0.000    -0.000    -0.000  0.4725 -0.3799  0.7952
    24 H(1)   Bbb    -0.0000    -0.000    -0.000    -0.000  0.7185 -0.3565 -0.5972
              Bcc     0.0000     0.000     0.000     0.000  0.5104  0.8536  0.1045
 
              Baa    -0.0000    -0.000    -0.000    -0.000  0.7276  0.6143 -0.3054
    25 H(1)   Bbb    -0.0000    -0.000    -0.000    -0.000 -0.4310  0.7557  0.4931
              Bcc     0.0000     0.000     0.000     0.000  0.5337 -0.2272  0.8146
 
              Baa    -0.0000    -0.000    -0.000    -0.000 -0.6902 -0.0313  0.7230
    26 C(13)  Bbb     0.0000     0.000     0.000     0.000  0.6813 -0.3647  0.6347
              Bcc     0.0000     0.000     0.000     0.000  0.2438  0.9306  0.2731
 
              Baa    -0.0000    -0.000    -0.000    -0.000 -0.4665  0.8333 -0.2966
    27 H(1)   Bbb     0.0000     0.000     0.000     0.000  0.8797  0.4020 -0.2539
              Bcc     0.0000     0.000     0.000     0.000  0.0924  0.3794  0.9206
 
              Baa    -0.0000    -0.000    -0.000    -0.000  0.6049  0.6606  0.4447
    28 H(1)   Bbb     0.0000     0.000     0.000     0.000 -0.1899 -0.4227  0.8861
              Bcc     0.0000     0.000     0.000     0.000  0.7734 -0.6204 -0.1303
 

 ---------------------------------------------------------------------------------

 No NMR shielding tensors so no spin-rotation constants.
 Leave Link  601 at Mon Aug  3 23:27:35 2020, MaxMem=  6442450944 cpu:               8.0 elap:               0.4
 (Enter /scratch/scicomp/CentOS/7.3.1611/Haswell/software/Gaussian/g16/l9999.exe)
 1\1\GINC-ATLAS-205\SP\UwB97XD\def2TZVP\C12H16\BOCHEN\03-Aug-2020\0\\#p
  uwb97xd guess=mix def2tzvp # scrf=(iefpcm,solvent=Cyclohexane,read) n
 osym 6d 10f\\endo-2 xp-pcm for eta=3\\0,1\C,0,-3.123434,-0.440315,0.27
 5397\C,0,-0.786456,-0.26471,-1.317722\H,0,-4.049438,-0.523755,0.832457
 \H,0,0.147212,-0.188449,-1.861678\C,0,1.206095,1.43479,0.844539\C,0,0.
 786456,0.26471,1.317722\H,0,0.616717,2.332368,0.990121\H,0,-0.147212,0
 .188449,1.861678\C,0,1.615689,-0.97881,1.173085\H,0,2.198299,-1.101438
 ,2.095398\H,0,0.967232,-1.853572,1.105075\C,0,2.475417,1.533757,0.1222
 89\H,0,2.875313,2.517075,-0.094658\C,0,3.123434,0.440315,-0.275397\H,0
 ,4.049438,0.523755,-0.832457\C,0,2.559757,-0.933106,-0.031997\H,0,2.02
 6432,-1.249959,-0.936638\H,0,3.36718,-1.654954,0.10431\C,0,-1.206095,-
 1.43479,-0.844539\H,0,-0.616717,-2.332368,-0.990121\C,0,-2.475417,-1.5
 33757,-0.122289\H,0,-2.875313,-2.517076,0.094658\C,0,-1.615689,0.97881
 ,-1.173085\H,0,-0.967232,1.853572,-1.105075\H,0,-2.198299,1.101438,-2.
 095398\C,0,-2.559757,0.933106,0.031997\H,0,-3.36718,1.654954,-0.10431\
 H,0,-2.026432,1.249959,0.936638\\Version=ES64L-G16RevB.01\HF=-466.8102
 132\S2=0.\S2-1=0.\S2A=0.\RMSD=9.319e-09\Dipole=-0.0005987,-0.0004094,0
 .0005373\Quadrupole=0.5770925,2.2933848,-2.8704773,-2.4627401,-2.89552
 17,-1.2845785\PG=CI [X(C12H16)]\\@


 TELEVISION IS CALLED A MEDIUM BECAUSE IT ISN'T
 RARE, AND IT ISN'T WELL DONE.
 Job cpu time:       0 days  2 hours  6 minutes  9.3 seconds.
 Elapsed time:       0 days  0 hours  5 minutes 18.6 seconds.
 File lengths (MBytes):  RWF=    662 Int=      0 D2E=      0 Chk=     25 Scr=      1
 Normal termination of Gaussian 16 at Mon Aug  3 23:27:35 2020.
