 Entering Gaussian System, Link 0=g16
 Input=meso-TS_28_2_pcm.com
 Output=meso-TS_28_2_pcm.log
 Initial command:
 /scratch/scicomp/CentOS/7.3.1611/Haswell/software/Gaussian/g16/l1.exe "/scratch/bochen/cyclohexadiene-dimerization/wb97xd-def2tzvp/xp-pcm/meso/Gau-35798.inp" -scrdir="/scratch/bochen/cyclohexadiene-dimerization/wb97xd-def2tzvp/xp-pcm/meso/"
 Entering Link 1 = /scratch/scicomp/CentOS/7.3.1611/Haswell/software/Gaussian/g16/l1.exe PID=     35799.
  
 Copyright (c) 1988-2017, Gaussian, Inc.  All Rights Reserved.
  
 This is part of the Gaussian(R) 16 program.  It is based on
 the Gaussian(R) 09 system (copyright 2009, Gaussian, Inc.),
 the Gaussian(R) 03 system (copyright 2003, Gaussian, Inc.),
 the Gaussian(R) 98 system (copyright 1998, Gaussian, Inc.),
 the Gaussian(R) 94 system (copyright 1995, Gaussian, Inc.),
 the Gaussian 92(TM) system (copyright 1992, Gaussian, Inc.),
 the Gaussian 90(TM) system (copyright 1990, Gaussian, Inc.),
 the Gaussian 88(TM) system (copyright 1988, Gaussian, Inc.),
 the Gaussian 86(TM) system (copyright 1986, Carnegie Mellon
 University), and the Gaussian 82(TM) system (copyright 1983,
 Carnegie Mellon University). Gaussian is a federally registered
 trademark of Gaussian, Inc.
  
 This software contains proprietary and confidential information,
 including trade secrets, belonging to Gaussian, Inc.
  
 This software is provided under written license and may be
 used, copied, transmitted, or stored only in accord with that
 written license.
  
 The following legend is applicable only to US Government
 contracts under FAR:
  
                    RESTRICTED RIGHTS LEGEND
  
 Use, reproduction and disclosure by the US Government is
 subject to restrictions as set forth in subparagraphs (a)
 and (c) of the Commercial Computer Software - Restricted
 Rights clause in FAR 52.227-19.
  
 Gaussian, Inc.
 340 Quinnipiac St., Bldg. 40, Wallingford CT 06492
  
  
 ---------------------------------------------------------------
 Warning -- This program may not be used in any manner that
 competes with the business of Gaussian, Inc. or will provide
 assistance to any competitor of Gaussian, Inc.  The licensee
 of this program is prohibited from giving any competitor of
 Gaussian, Inc. access to this program.  By using this program,
 the user acknowledges that Gaussian, Inc. is engaged in the
 business of creating and licensing software in the field of
 computational chemistry and represents and warrants to the
 licensee that it is not a competitor of Gaussian, Inc. and that
 it will not use this program in any manner prohibited above.
 ---------------------------------------------------------------
  

 Cite this work as:
 Gaussian 16, Revision B.01,
 M. J. Frisch, G. W. Trucks, H. B. Schlegel, G. E. Scuseria, 
 M. A. Robb, J. R. Cheeseman, G. Scalmani, V. Barone, 
 G. A. Petersson, H. Nakatsuji, X. Li, M. Caricato, A. V. Marenich, 
 J. Bloino, B. G. Janesko, R. Gomperts, B. Mennucci, H. P. Hratchian, 
 J. V. Ortiz, A. F. Izmaylov, J. L. Sonnenberg, D. Williams-Young, 
 F. Ding, F. Lipparini, F. Egidi, J. Goings, B. Peng, A. Petrone, 
 T. Henderson, D. Ranasinghe, V. G. Zakrzewski, J. Gao, N. Rega, 
 G. Zheng, W. Liang, M. Hada, M. Ehara, K. Toyota, R. Fukuda, 
 J. Hasegawa, M. Ishida, T. Nakajima, Y. Honda, O. Kitao, H. Nakai, 
 T. Vreven, K. Throssell, J. A. Montgomery, Jr., J. E. Peralta, 
 F. Ogliaro, M. J. Bearpark, J. J. Heyd, E. N. Brothers, K. N. Kudin, 
 V. N. Staroverov, T. A. Keith, R. Kobayashi, J. Normand, 
 K. Raghavachari, A. P. Rendell, J. C. Burant, S. S. Iyengar, 
 J. Tomasi, M. Cossi, J. M. Millam, M. Klene, C. Adamo, R. Cammi, 
 J. W. Ochterski, R. L. Martin, K. Morokuma, O. Farkas, 
 J. B. Foresman, and D. J. Fox, Gaussian, Inc., Wallingford CT, 2016.
 
 ******************************************
 Gaussian 16:  ES64L-G16RevB.01 20-Dec-2017
                 3-Aug-2020 
 ******************************************
 %nproc=24
 Will use up to   24 processors via shared memory.
 %mem=48GB
 ----------------------------------------------------------------------
 #p uwb97xd guess=mix def2tzvp # scrf=(iefpcm,solvent=Cyclohexane,read)
  nosym 6d 10f
 ----------------------------------------------------------------------
 1/38=1,40=2,172=1/1;
 2/12=2,15=1,17=6,18=5,40=1/2;
 3/5=44,7=101,8=22,11=2,25=1,30=1,70=2203,72=17,74=-58,116=2/1,2,3;
 4/13=-1/1;
 5/5=2,38=5,53=17/2;
 6/7=2,8=2,9=2,10=2,28=1/1;
 99/5=1,9=1/99;
 Leave Link    1 at Mon Aug  3 15:21:18 2020, MaxMem=  6442450944 cpu:               1.6 elap:               0.1
 (Enter /scratch/scicomp/CentOS/7.3.1611/Haswell/software/Gaussian/g16/l101.exe)
 -----------------------
 endo-2 xp-pcm for eta=3
 -----------------------
 Symbolic Z-matrix:
 Charge =  0 Multiplicity = 1
 6                    -3.12353  -0.43891   0.24991 
 6                    -0.63462  -0.22677  -1.08382 
 1                    -4.08532  -0.54607   0.73806 
 1                     0.33681  -0.13301  -1.54998 
 6                     1.10979   1.41431   0.71848 
 6                     0.63462   0.22677   1.08382 
 1                     0.51978   2.31293   0.84805 
 1                    -0.33681   0.13301   1.54998 
 6                     1.49593  -1.00113   1.02887 
 1                     1.97316  -1.08186   2.01369 
 1                     0.88732  -1.89688   0.91688 
 6                     2.431     1.52048   0.10688 
 1                     2.83816   2.50784  -0.07587 
 6                     3.12353   0.43891  -0.24991 
 1                     4.08532   0.54607  -0.73806 
 6                     2.58842  -0.952    -0.04451 
 1                     2.21616  -1.33308  -1.00351 
 1                     3.40067  -1.62475   0.23842 
 6                    -1.10979  -1.41431  -0.71848 
 1                    -0.51978  -2.31293  -0.84805 
 6                    -2.431    -1.52048  -0.10688 
 1                    -2.83816  -2.50784   0.07587 
 6                    -1.49593   1.00113  -1.02887 
 1                    -0.88732   1.89688  -0.91688 
 1                    -1.97316   1.08186  -2.01369 
 6                    -2.58842   0.952     0.04451 
 1                    -3.40067   1.62475  -0.23842 
 1                    -2.21616   1.33308   1.00351 
 
 ITRead=  0  0  0  0  0  0  0  0  0  0  0  0  0  0  0  0  0  0  0  0
 ITRead=  0  0  0  0  0  0  0  0
 MicOpt= -1 -1 -1 -1 -1 -1 -1 -1 -1 -1 -1 -1 -1 -1 -1 -1 -1 -1 -1 -1
 MicOpt= -1 -1 -1 -1 -1 -1 -1 -1
 NAtoms=     28 NQM=       28 NQMF=       0 NMMI=      0 NMMIF=      0
                NMic=       0 NMicF=      0.
                    Isotopes and Nuclear Properties:
 (Nuclear quadrupole moments (NQMom) in fm**2, nuclear magnetic moments (NMagM)
  in nuclear magnetons)

  Atom         1           2           3           4           5           6           7           8           9          10
 IAtWgt=          12          12           1           1          12          12           1           1          12           1
 AtmWgt=  12.0000000  12.0000000   1.0078250   1.0078250  12.0000000  12.0000000   1.0078250   1.0078250  12.0000000   1.0078250
 NucSpn=           0           0           1           1           0           0           1           1           0           1
 AtZEff=  -0.0000000  -0.0000000  -0.0000000  -0.0000000  -0.0000000  -0.0000000  -0.0000000  -0.0000000  -0.0000000  -0.0000000
 NQMom=    0.0000000   0.0000000   0.0000000   0.0000000   0.0000000   0.0000000   0.0000000   0.0000000   0.0000000   0.0000000
 NMagM=    0.0000000   0.0000000   2.7928460   2.7928460   0.0000000   0.0000000   2.7928460   2.7928460   0.0000000   2.7928460
 AtZNuc=   6.0000000   6.0000000   1.0000000   1.0000000   6.0000000   6.0000000   1.0000000   1.0000000   6.0000000   1.0000000

  Atom        11          12          13          14          15          16          17          18          19          20
 IAtWgt=           1          12           1          12           1          12           1           1          12           1
 AtmWgt=   1.0078250  12.0000000   1.0078250  12.0000000   1.0078250  12.0000000   1.0078250   1.0078250  12.0000000   1.0078250
 NucSpn=           1           0           1           0           1           0           1           1           0           1
 AtZEff=  -0.0000000  -0.0000000  -0.0000000  -0.0000000  -0.0000000  -0.0000000  -0.0000000  -0.0000000  -0.0000000  -0.0000000
 NQMom=    0.0000000   0.0000000   0.0000000   0.0000000   0.0000000   0.0000000   0.0000000   0.0000000   0.0000000   0.0000000
 NMagM=    2.7928460   0.0000000   2.7928460   0.0000000   2.7928460   0.0000000   2.7928460   2.7928460   0.0000000   2.7928460
 AtZNuc=   1.0000000   6.0000000   1.0000000   6.0000000   1.0000000   6.0000000   1.0000000   1.0000000   6.0000000   1.0000000

  Atom        21          22          23          24          25          26          27          28
 IAtWgt=          12           1          12           1           1          12           1           1
 AtmWgt=  12.0000000   1.0078250  12.0000000   1.0078250   1.0078250  12.0000000   1.0078250   1.0078250
 NucSpn=           0           1           0           1           1           0           1           1
 AtZEff=  -0.0000000  -0.0000000  -0.0000000  -0.0000000  -0.0000000  -0.0000000  -0.0000000  -0.0000000
 NQMom=    0.0000000   0.0000000   0.0000000   0.0000000   0.0000000   0.0000000   0.0000000   0.0000000
 NMagM=    0.0000000   2.7928460   0.0000000   2.7928460   2.7928460   0.0000000   2.7928460   2.7928460
 AtZNuc=   6.0000000   1.0000000   6.0000000   1.0000000   1.0000000   6.0000000   1.0000000   1.0000000
 Leave Link  101 at Mon Aug  3 15:21:18 2020, MaxMem=  6442450944 cpu:               2.4 elap:               0.1
 (Enter /scratch/scicomp/CentOS/7.3.1611/Haswell/software/Gaussian/g16/l202.exe)
                          Input orientation:                          
 ---------------------------------------------------------------------
 Center     Atomic      Atomic             Coordinates (Angstroms)
 Number     Number       Type             X           Y           Z
 ---------------------------------------------------------------------
      1          6           0       -3.123533   -0.438909    0.249907
      2          6           0       -0.634623   -0.226767   -1.083823
      3          1           0       -4.085324   -0.546070    0.738063
      4          1           0        0.336814   -0.133008   -1.549979
      5          6           0        1.109786    1.414310    0.718484
      6          6           0        0.634623    0.226767    1.083823
      7          1           0        0.519777    2.312927    0.848046
      8          1           0       -0.336814    0.133008    1.549979
      9          6           0        1.495934   -1.001134    1.028869
     10          1           0        1.973156   -1.081856    2.013692
     11          1           0        0.887322   -1.896884    0.916876
     12          6           0        2.431004    1.520477    0.106878
     13          1           0        2.838163    2.507840   -0.075868
     14          6           0        3.123533    0.438909   -0.249907
     15          1           0        4.085324    0.546070   -0.738063
     16          6           0        2.588421   -0.951995   -0.044511
     17          1           0        2.216156   -1.333084   -1.003507
     18          1           0        3.400666   -1.624754    0.238421
     19          6           0       -1.109786   -1.414310   -0.718484
     20          1           0       -0.519777   -2.312927   -0.848046
     21          6           0       -2.431004   -1.520477   -0.106878
     22          1           0       -2.838163   -2.507840    0.075868
     23          6           0       -1.495934    1.001134   -1.028869
     24          1           0       -0.887321    1.896884   -0.916876
     25          1           0       -1.973156    1.081856   -2.013692
     26          6           0       -2.588421    0.951995    0.044511
     27          1           0       -3.400666    1.624754   -0.238421
     28          1           0       -2.216156    1.333084    1.003507
 ---------------------------------------------------------------------
                    Distance matrix (angstroms):
                    1          2          3          4          5
     1  C    0.000000
     2  C    2.831698   0.000000
     3  H    1.083892   3.915171   0.000000
     4  H    3.912437   1.081565   4.996105   0.000000
     5  C    4.644887   2.997400   5.552715   2.852648   0.000000
     6  C    3.906696   2.552522   4.795282   2.674891   1.330230
     7  H    4.604789   3.393347   5.421523   3.430247   1.082779
     8  H    3.127791   2.674891   3.895084   3.183438   2.103751
     9  C    4.718300   3.098772   5.607325   2.957644   2.465729
    10  H    5.431442   4.138392   6.214457   4.034561   2.941737
    11  H    4.319432   3.018013   5.155956   3.082157   3.324583
    12  C    5.891734   3.724070   6.865242   3.140831   1.459777
    13  H    6.658174   4.533684   7.610750   3.924771   2.194103
    14  C    6.328208   3.906696   7.342608   3.127791   2.438107
    15  H    7.342608   4.795282   8.374438   3.895084   3.424791
    16  C    5.742504   3.463255   6.731721   2.829648   2.892736
    17  H    5.557236   3.058975   6.584915   2.295809   3.426001
    18  H    6.631103   4.470599   7.579792   3.848489   3.835949
    19  C    2.438107   1.330230   3.424791   2.103751   3.872011
    20  H    3.390721   2.102580   4.283766   2.445098   4.359104
    21  C    1.332922   2.419730   2.097658   3.415908   4.672407
    22  H    2.095758   3.376946   2.417117   4.285287   5.602010
    23  C    2.521521   1.500872   3.495830   2.217386   3.164448
    24  H    3.437725   2.145139   4.351330   2.453526   2.625970
    25  H    2.959725   2.090173   3.831912   2.650827   4.132777
    26  C    1.504376   2.545573   2.228437   3.503802   3.787441
    27  H    2.138685   3.434214   2.476844   4.333436   4.615640
    28  H    2.128663   3.048168   2.663732   3.897098   3.339121
                    6          7          8          9         10
     6  C    0.000000
     7  H    2.102580   0.000000
     8  H    1.081565   2.445098   0.000000
     9  C    1.500872   3.459564   2.217386   0.000000
    10  H    2.090173   3.872414   2.650827   1.097330   0.000000
    11  H    2.145139   4.226386   2.453526   1.088724   1.745369
    12  C    2.419730   2.197748   3.415908   2.843052   3.258481
    13  H    3.376946   2.503302   4.285287   3.915983   4.242690
    14  C    2.831698   3.390721   3.912437   2.521521   2.959725
    15  H    3.915171   4.283766   4.996105   3.495830   3.831912
    16  C    2.545573   3.966820   3.503802   1.532347   2.152119
    17  H    3.048168   4.427115   3.897098   2.181619   3.037376
    18  H    3.434214   4.916960   4.333436   2.154464   2.341818
    19  C    2.997400   4.359104   2.852648   3.164448   4.132777
    20  H    3.393347   5.035467   3.430247   3.050689   3.989962
    21  C    3.724070   4.930920   3.140831   4.120738   4.907732
    22  H    4.533684   5.925522   3.924771   4.686445   5.379348
    23  C    3.098772   3.050689   2.957644   4.146642   5.062668
    24  H    3.018013   2.295205   3.082157   4.226622   5.063936
    25  H    4.138392   3.989962   4.034561   5.062668   6.039441
    26  C    3.463255   3.486933   2.829648   4.633101   5.368632
    27  H    4.470599   4.125999   3.848489   5.698948   6.424618
    28  H    3.058975   2.910256   2.295809   4.385069   4.939913
                   11         12         13         14         15
    11  H    0.000000
    12  C    3.836327   0.000000
    13  H    4.918629   1.083541   0.000000
    14  C    3.437725   1.332922   2.095758   0.000000
    15  H    4.351329   2.097658   2.417117   1.083892   0.000000
    16  C    2.170442   2.482099   3.468979   1.504376   2.228437
    17  H    2.402403   3.069515   4.000013   2.128663   2.663732
    18  H    2.617490   3.293938   4.182526   2.138685   2.476844
    19  C    2.625970   4.672407   5.602010   4.644887   5.552715
    20  H    2.295206   4.930920   5.925522   4.604789   5.421523
    21  C    3.492999   5.738660   6.632678   5.891734   6.865242
    22  H    3.867790   6.632678   7.576328   6.658174   7.610750
    23  C    4.226623   4.120738   4.686445   4.718300   5.607325
    24  H    4.572164   3.492998   3.867789   4.319432   5.155955
    25  H    5.063937   4.907732   5.379348   5.431442   6.214457
    26  C    4.577982   5.051900   5.646500   5.742504   6.731721
    27  H    5.667759   5.842814   6.303114   6.631103   7.579792
    28  H    4.480153   4.736576   5.300117   5.557236   6.584915
                   16         17         18         19         20
    16  C    0.000000
    17  H    1.097034   0.000000
    18  H    1.091969   1.740839   0.000000
    19  C    3.787441   3.339121   4.615640   0.000000
    20  H    3.486933   2.910256   4.125999   1.082779   0.000000
    21  C    5.051900   4.736576   5.842814   1.459777   2.197748
    22  H    5.646500   5.300117   6.303114   2.194103   2.503302
    23  C    4.633101   4.385069   5.698948   2.465729   3.459564
    24  H    4.577982   4.480153   5.667758   3.324584   4.226386
    25  H    5.368632   4.939913   6.424618   2.941737   3.872414
    26  C    5.516593   5.422535   6.522760   2.892736   3.966820
    27  H    6.522760   6.393970   7.552801   3.835949   4.916960
    28  H    5.422535   5.548148   6.393970   3.426001   4.427115
                   21         22         23         24         25
    21  C    0.000000
    22  H    1.083541   0.000000
    23  C    2.843052   3.915983   0.000000
    24  H    3.836328   4.918630   1.088724   0.000000
    25  H    3.258481   4.242690   1.097330   1.745369   0.000000
    26  C    2.482099   3.468979   1.532347   2.170443   2.152119
    27  H    3.293938   4.182526   2.154464   2.617491   2.341818
    28  H    3.069515   4.000013   2.181619   2.402404   3.037376
                   26         27         28
    26  C    0.000000
    27  H    1.091969   0.000000
    28  H    1.097034   1.740839   0.000000
 Symmetry turned off by external request.
 Stoichiometry    C12H16
 Framework group  CI[X(C12H16)]
 Deg. of freedom    39
 Full point group                 CI      NOp   2
 Rotational constants (GHZ):           1.8568539           0.6178971           0.5458048
 Leave Link  202 at Mon Aug  3 15:21:18 2020, MaxMem=  6442450944 cpu:               0.3 elap:               0.0
 (Enter /scratch/scicomp/CentOS/7.3.1611/Haswell/software/Gaussian/g16/l301.exe)
 Standard basis: def2TZVP (6D, 10F)
 Ernie: Thresh=  0.10000D-02 Tol=  0.10000D-05 Strict=F.
   528 basis functions,   740 primitive gaussians,   528 cartesian basis functions
    44 alpha electrons       44 beta electrons
       nuclear repulsion energy       684.7740105640 Hartrees.
 IExCor= 4639 DFT=T Ex+Corr=wB97XD ExCW=0 ScaHFX=  1.000000
 ScaDFX=  1.000000  1.000000  1.000000  1.000000 ScalE2=  1.000000  1.000000
 IRadAn=      5 IRanWt=     -1 IRanGd=            0 ICorTp=0 IEmpDi=121
 HFx  wShort=  0.000000 wLong=  0.200000 cFull=  0.222036 cShort=  0.000000 cLong=  0.777964
 DFx  wShort=  0.000000 wLong=  0.200000 cFull=  0.000000 cShort=  0.000000 cLong=  1.000000
 NAtoms=   28 NActive=   28 NUniq=   28 SFac= 1.00D+00 NAtFMM=   60 NAOKFM=F Big=F
 Integral buffers will be    131072 words long.
 Raffenetti 2 integral format.
 Two-electron integral symmetry is turned off.
 R6Disp:  Grimme-D2 Dispersion energy=       -0.0228986096 Hartrees.
 Nuclear repulsion after empirical dispersion term =      684.7511119544 Hartrees.
 Using the following non-standard input for PCM:
 norep pcmdoc geomview  nodis nocav g03defaults tsare=0.075
 Warning! Using old PCM defaults because the g03defaults keyword was found.
 These settings can be overridden by following keywords.
 nsfe=28
 NVESolv=36  SolvMW=84.1595   Rsolv=2.815
 eps=2.0165 RhoS=0.7781
 --- end of non-standard input.
 Reading user-defined spheres from input:
 ISph  on   Nord    Re0     Alpha      Xe            Ye            Ze
 --- end of user-defined spheres data.
 ------------------------------------------------------------------------------
 Polarizable Continuum Model (PCM)
 =================================
 Model                : PCM.
 Atomic radii         : UA0 (Simple United Atom Topological Model).
 Polarization charges : Total charges.
 Charge compensation  : None.
 Solution method      : On-the-fly selection.
 Cavity type          : SES (Solvent Excluding Surface) (Alpha=1.000).
 Cavity algorithm     : GePol (RMin=0.200 OFac=0.890).
                        User-defined sphere list used, NSphG=   28.
                        Tesserae with average area of 0.075 Ang**2.
                        Smoothing algorithm: None.
                        Polarization charges: point-like.
                        Self-potential: constant (ISelfS= 1).
                        Self-field    : global E.n sum rule (ISelfD= 3).
 Solvent              : CycloHexane, Eps=   2.016500 Eps(inf)=   2.035188
                        RSolv=   2.815000 Ang.
 ------------------------------------------------------------------------------
 GePol: Number of generator spheres                  =      28
 GePol: Total number of spheres                      =     175
 GePol: Number of exposed spheres                    =     124 ( 70.86%)
 GePol: Number of tesserae                           =    4605
 GePol: Average area of tesserae                     =       0.05 Ang**2
 GePol: Minimum area of tessera                      =   0.10D-02 Ang**2
 GePol: Maximum area of tessera                      =    0.12433 Ang**2
 GePol: Number of small tesserae                     =       0
 GePol: Fraction of small tesserae (<1% of avg)      =       0.00%
 GePol: Total count of vertices                      =   16287
 GePol: Maximum number of vertices in a tessera      =       7
 GePol: Cavity surface area                          =    219.490 Ang**2
 GePol: Cavity volume                                =    247.883 Ang**3
 Leave Link  301 at Mon Aug  3 15:21:19 2020, MaxMem=  6442450944 cpu:               7.3 elap:               0.3
 (Enter /scratch/scicomp/CentOS/7.3.1611/Haswell/software/Gaussian/g16/l302.exe)
 NPDir=0 NMtPBC=     1 NCelOv=     1 NCel=       1 NClECP=     1 NCelD=      1
         NCelK=      1 NCelE2=     1 NClLst=     1 CellRange=     0.0.
 One-electron integrals computed using PRISM.
   1 Symmetry operations used in ECPInt.
 ECPInt:  NShTT=   19306 NPrTT=   56928 LenC2=   18504 LenP2D=   42112.
 LDataN:  DoStor=T MaxTD1= 6 Len=  172
 NBasis=   528 RedAO= T EigKep=  1.79D-05  NBF=   528
 NBsUse=   528 1.00D-06 EigRej= -1.00D+00 NBFU=   528
 Precomputing XC quadrature grid using
 IXCGrd= 4 IRadAn=           5 IRanWt=          -1 IRanGd=           0 AccXCQ= 0.00D+00.
 Generated NRdTot=       0 NPtTot=           0 NUsed=           0 NTot=          32
 NSgBfM=   526   526   526   526   526 MxSgAt=    28 MxSgA2=    28.
 Leave Link  302 at Mon Aug  3 15:21:20 2020, MaxMem=  6442450944 cpu:              12.7 elap:               0.6
 (Enter /scratch/scicomp/CentOS/7.3.1611/Haswell/software/Gaussian/g16/l303.exe)
 DipDrv:  MaxL=1.
 Leave Link  303 at Mon Aug  3 15:21:20 2020, MaxMem=  6442450944 cpu:               1.5 elap:               0.1
 (Enter /scratch/scicomp/CentOS/7.3.1611/Haswell/software/Gaussian/g16/l401.exe)
 ExpMin= 9.52D-02 ExpMax= 1.36D+04 ExpMxC= 4.63D+02 IAcc=3 IRadAn=         5 AccDes= 0.00D+00
 Harris functional with IExCor= 4639 and IRadAn=       5 diagonalized for initial guess.
 HarFok:  IExCor= 4639 AccDes= 0.00D+00 IRadAn=         5 IDoV= 1 UseB2=F ITyADJ=14
 ICtDFT=  3500011 ScaDFX=  1.000000  1.000000  1.000000  1.000000
 FoFCou: FMM=F IPFlag=           0 FMFlag=      100000 FMFlg1=           0
         NFxFlg=           0 DoJE=T BraDBF=F KetDBF=T FulRan=T
         wScrn=  0.000000 ICntrl=       500 IOpCl=  0 I1Cent=   200000004 NGrid=           0
         NMat0=    1 NMatS0=      1 NMatT0=    0 NMatD0=    1 NMtDS0=    0 NMtDT0=    0
 Symmetry not used in FoFCou.
 Harris En= -444.643306020820    
 JPrj=0 DoOrth=F DoCkMO=T.
 Mixing orbitals, IMix= 1 IMixAn=  0 NRI=1 NE=   44 Coef=  7.07106781D-01  7.07106781D-01
 Mixing orbitals, IMix= 1 IMixAn=  0 NRI=1 NE=   44 Coef= -7.07106781D-01  7.07106781D-01
 Initial guess <Sx>= 0.0000 <Sy>= 0.0000 <Sz>= 0.0000 <S**2>= 1.0000 S= 0.6180
 Leave Link  401 at Mon Aug  3 15:21:22 2020, MaxMem=  6442450944 cpu:              48.9 elap:               2.1
 (Enter /scratch/scicomp/CentOS/7.3.1611/Haswell/software/Gaussian/g16/l502.exe)
 Two-electron integral symmetry not used.
 UHF open shell SCF:
 Using DIIS extrapolation, IDIIS=  1040.
 NGot=  6442450944 LenX=  6441877030 LenY=  6441597718
 Requested convergence on RMS density matrix=1.00D-08 within 128 cycles.
 Requested convergence on MAX density matrix=1.00D-06.
 Requested convergence on             energy=1.00D-06.
 No special actions if energy rises.
 Fock matrices will be formed incrementally for  20 cycles.

 Cycle   1  Pass 1  IDiag  1:
 FoFJK:  IHMeth= 1 ICntrl=       0 DoSepK=T KAlg= 0 I1Cent=           0 FoldK=F
 IRaf=         1 NMat=       1 IRICut=       1 DoRegI=T DoRafI=F ISym2E= 0 IDoP0=0 IntGTp=1.
 FoFCou: FMM=F IPFlag=           0 FMFlag=      100000 FMFlg1=           0
         NFxFlg=           0 DoJE=T BraDBF=F KetDBF=F FulRan=T
         wScrn=  0.000000 ICntrl=       500 IOpCl=  0 I1Cent=           0 NGrid=           0
         NMat0=    1 NMatS0=      1 NMatT0=    0 NMatD0=    1 NMtDS0=    0 NMtDT0=    0
 Symmetry not used in FoFCou.
 Inv3:  Mode=1 IEnd=    63618075.
 Iteration    1 A*A^-1 deviation from unit magnitude is 1.04D-14 for    272.
 Iteration    1 A*A^-1 deviation from orthogonality  is 6.73D-15 for    272     93.
 Iteration    1 A^-1*A deviation from unit magnitude is 1.58D-14 for    272.
 Iteration    1 A^-1*A deviation from orthogonality  is 4.43D-15 for    272     93.
 E= -466.587979943977    
 DIIS: error= 5.73D-02 at cycle   1 NSaved=   1.
 NSaved= 1 IEnMin= 1 EnMin= -466.587979943977     IErMin= 1 ErrMin= 5.73D-02
 ErrMax= 5.73D-02  0.00D+00 EMaxC= 1.00D-01 BMatC= 4.11D+00 BMatP= 4.11D+00
 IDIUse=3 WtCom= 4.27D-01 WtEn= 5.73D-01
 Coeff-Com:  0.100D+01
 Coeff-En:   0.100D+01
 Coeff:      0.100D+01
 Gap=     0.187 Goal=   None    Shift=    0.000
 Gap=     0.187 Goal=   None    Shift=    0.000
 GapD=    0.187 DampG=1.000 DampE=0.500 DampFc=0.5000 IDamp=-1.
 Damping current iteration by 5.00D-01
 RMSDP=1.61D-03 MaxDP=9.21D-02              OVMax= 3.15D-01

 Cycle   2  Pass 1  IDiag  1:
 RMSU=  7.79D-04    CP:  9.67D-01
 E= -466.691804114355     Delta-E=       -0.103824170378 Rises=F Damp=T
 DIIS: error= 2.72D-02 at cycle   2 NSaved=   2.
 NSaved= 2 IEnMin= 2 EnMin= -466.691804114355     IErMin= 2 ErrMin= 2.72D-02
 ErrMax= 2.72D-02  0.00D+00 EMaxC= 1.00D-01 BMatC= 9.33D-01 BMatP= 4.11D+00
 IDIUse=3 WtCom= 7.28D-01 WtEn= 2.72D-01
 Coeff-Com: -0.866D+00 0.187D+01
 Coeff-En:   0.000D+00 0.100D+01
 Coeff:     -0.631D+00 0.163D+01
 Gap=     0.264 Goal=   None    Shift=    0.000
 Gap=     0.264 Goal=   None    Shift=    0.000
 RMSDP=1.14D-03 MaxDP=4.87D-02 DE=-1.04D-01 OVMax= 1.35D-01

 Cycle   3  Pass 1  IDiag  1:
 RMSU=  6.38D-04    CP:  9.19D-01  2.16D+00
 E= -466.824855886219     Delta-E=       -0.133051771864 Rises=F Damp=F
 DIIS: error= 7.61D-03 at cycle   3 NSaved=   3.
 NSaved= 3 IEnMin= 3 EnMin= -466.824855886219     IErMin= 3 ErrMin= 7.61D-03
 ErrMax= 7.61D-03  0.00D+00 EMaxC= 1.00D-01 BMatC= 2.37D-02 BMatP= 9.33D-01
 IDIUse=3 WtCom= 9.24D-01 WtEn= 7.61D-02
 Coeff-Com: -0.313D+00 0.673D+00 0.640D+00
 Coeff-En:   0.000D+00 0.000D+00 0.100D+01
 Coeff:     -0.289D+00 0.622D+00 0.668D+00
 Gap=     0.283 Goal=   None    Shift=    0.000
 Gap=     0.283 Goal=   None    Shift=    0.000
 RMSDP=2.42D-04 MaxDP=1.24D-02 DE=-1.33D-01 OVMax= 6.77D-02

 Cycle   4  Pass 1  IDiag  1:
 RMSU=  2.20D-04    CP:  9.11D-01  2.26D+00  9.87D-01
 E= -466.835926054423     Delta-E=       -0.011070168204 Rises=F Damp=F
 DIIS: error= 5.18D-03 at cycle   4 NSaved=   4.
 NSaved= 4 IEnMin= 4 EnMin= -466.835926054423     IErMin= 4 ErrMin= 5.18D-03
 ErrMax= 5.18D-03  0.00D+00 EMaxC= 1.00D-01 BMatC= 2.20D-03 BMatP= 2.37D-02
 IDIUse=3 WtCom= 9.48D-01 WtEn= 5.18D-02
 Coeff-Com:  0.121D+00-0.260D+00-0.512D-01 0.119D+01
 Coeff-En:   0.000D+00 0.000D+00 0.000D+00 0.100D+01
 Coeff:      0.115D+00-0.246D+00-0.486D-01 0.118D+01
 Gap=     0.294 Goal=   None    Shift=    0.000
 Gap=     0.294 Goal=   None    Shift=    0.000
 RMSDP=2.30D-04 MaxDP=1.00D-02 DE=-1.11D-02 OVMax= 8.06D-02

 Cycle   5  Pass 1  IDiag  1:
 RMSU=  9.54D-05    CP:  9.04D-01  2.32D+00  1.21D+00  1.62D+00
 E= -466.840979216244     Delta-E=       -0.005053161821 Rises=F Damp=F
 DIIS: error= 2.69D-03 at cycle   5 NSaved=   5.
 NSaved= 5 IEnMin= 5 EnMin= -466.840979216244     IErMin= 5 ErrMin= 2.69D-03
 ErrMax= 2.69D-03  0.00D+00 EMaxC= 1.00D-01 BMatC= 1.08D-03 BMatP= 2.20D-03
 IDIUse=3 WtCom= 9.73D-01 WtEn= 2.69D-02
 Coeff-Com:  0.845D-01-0.182D+00-0.101D+00 0.472D+00 0.727D+00
 Coeff-En:   0.000D+00 0.000D+00 0.000D+00 0.000D+00 0.100D+01
 Coeff:      0.823D-01-0.177D+00-0.988D-01 0.459D+00 0.734D+00
 Gap=     0.298 Goal=   None    Shift=    0.000
 Gap=     0.298 Goal=   None    Shift=    0.000
 RMSDP=9.60D-05 MaxDP=4.44D-03 DE=-5.05D-03 OVMax= 3.45D-02

 Cycle   6  Pass 1  IDiag  1:
 RMSU=  3.58D-05    CP:  9.01D-01  2.34D+00  1.26D+00  1.95D+00  1.40D+00
 E= -466.842636497945     Delta-E=       -0.001657281701 Rises=F Damp=F
 DIIS: error= 1.89D-03 at cycle   6 NSaved=   6.
 NSaved= 6 IEnMin= 6 EnMin= -466.842636497945     IErMin= 6 ErrMin= 1.89D-03
 ErrMax= 1.89D-03  0.00D+00 EMaxC= 1.00D-01 BMatC= 5.62D-04 BMatP= 1.08D-03
 IDIUse=3 WtCom= 9.81D-01 WtEn= 1.89D-02
 Coeff-Com: -0.673D-01 0.144D+00 0.572D-01-0.489D+00-0.960D-02 0.136D+01
 Coeff-En:   0.000D+00 0.000D+00 0.000D+00 0.000D+00 0.000D+00 0.100D+01
 Coeff:     -0.660D-01 0.142D+00 0.561D-01-0.480D+00-0.942D-02 0.136D+01
 Gap=     0.294 Goal=   None    Shift=    0.000
 Gap=     0.294 Goal=   None    Shift=    0.000
 RMSDP=1.10D-04 MaxDP=4.01D-03 DE=-1.66D-03 OVMax= 4.11D-02

 Cycle   7  Pass 1  IDiag  1:
 RMSU=  3.29D-05    CP:  8.98D-01  2.34D+00  1.30D+00  2.26D+00  2.07D+00
                    CP:  2.05D+00
 E= -466.844350332454     Delta-E=       -0.001713834509 Rises=F Damp=F
 DIIS: error= 1.28D-03 at cycle   7 NSaved=   7.
 NSaved= 7 IEnMin= 7 EnMin= -466.844350332454     IErMin= 7 ErrMin= 1.28D-03
 ErrMax= 1.28D-03  0.00D+00 EMaxC= 1.00D-01 BMatC= 3.15D-04 BMatP= 5.62D-04
 IDIUse=3 WtCom= 9.87D-01 WtEn= 1.28D-02
 Coeff-Com: -0.237D-01 0.515D-01 0.484D-01 0.390D-01-0.546D+00-0.876D+00
 Coeff-Com:  0.231D+01
 Coeff-En:   0.000D+00 0.000D+00 0.000D+00 0.000D+00 0.000D+00 0.000D+00
 Coeff-En:   0.100D+01
 Coeff:     -0.234D-01 0.509D-01 0.477D-01 0.385D-01-0.539D+00-0.864D+00
 Coeff:      0.229D+01
 Gap=     0.293 Goal=   None    Shift=    0.000
 Gap=     0.293 Goal=   None    Shift=    0.000
 RMSDP=1.55D-04 MaxDP=7.22D-03 DE=-1.71D-03 OVMax= 5.93D-02

 Cycle   8  Pass 1  IDiag  1:
 RMSU=  4.55D-05    CP:  8.95D-01  2.33D+00  1.35D+00  2.61D+00  2.96D+00
                    CP:  3.00D+00  2.85D+00
 E= -466.846073734774     Delta-E=       -0.001723402319 Rises=F Damp=F
 DIIS: error= 5.72D-04 at cycle   8 NSaved=   8.
 NSaved= 8 IEnMin= 8 EnMin= -466.846073734774     IErMin= 8 ErrMin= 5.72D-04
 ErrMax= 5.72D-04  0.00D+00 EMaxC= 1.00D-01 BMatC= 1.06D-04 BMatP= 3.15D-04
 IDIUse=3 WtCom= 9.94D-01 WtEn= 5.72D-03
 Coeff-Com:  0.312D-01-0.670D-01-0.135D-01 0.329D+00-0.164D+00-0.110D+01
 Coeff-Com:  0.764D+00 0.122D+01
 Coeff-En:   0.000D+00 0.000D+00 0.000D+00 0.000D+00 0.000D+00 0.000D+00
 Coeff-En:   0.000D+00 0.100D+01
 Coeff:      0.310D-01-0.666D-01-0.134D-01 0.327D+00-0.163D+00-0.109D+01
 Coeff:      0.759D+00 0.122D+01
 Gap=     0.296 Goal=   None    Shift=    0.000
 Gap=     0.296 Goal=   None    Shift=    0.000
 RMSDP=9.86D-05 MaxDP=4.79D-03 DE=-1.72D-03 OVMax= 3.83D-02

 Cycle   9  Pass 1  IDiag  1:
 RMSU=  6.31D-05    CP:  8.93D-01  2.33D+00  1.37D+00  2.79D+00  3.00D+00
                    CP:  3.00D+00  3.00D+00  2.20D+00
 E= -466.846592284886     Delta-E=       -0.000518550112 Rises=F Damp=F
 DIIS: error= 2.13D-04 at cycle   9 NSaved=   9.
 NSaved= 9 IEnMin= 9 EnMin= -466.846592284886     IErMin= 9 ErrMin= 2.13D-04
 ErrMax= 2.13D-04  0.00D+00 EMaxC= 1.00D-01 BMatC= 2.44D-05 BMatP= 1.06D-04
 IDIUse=3 WtCom= 9.98D-01 WtEn= 2.13D-03
 Coeff-Com:  0.212D-01-0.457D-01-0.173D-01 0.154D+00 0.430D-01-0.328D+00
 Coeff-Com: -0.144D+00 0.504D+00 0.813D+00
 Coeff-En:   0.000D+00 0.000D+00 0.000D+00 0.000D+00 0.000D+00 0.000D+00
 Coeff-En:   0.000D+00 0.000D+00 0.100D+01
 Coeff:      0.212D-01-0.456D-01-0.172D-01 0.154D+00 0.429D-01-0.327D+00
 Coeff:     -0.144D+00 0.503D+00 0.813D+00
 Gap=     0.295 Goal=   None    Shift=    0.000
 Gap=     0.295 Goal=   None    Shift=    0.000
 RMSDP=3.03D-05 MaxDP=1.52D-03 DE=-5.19D-04 OVMax= 1.18D-02

 Cycle  10  Pass 1  IDiag  1:
 RMSU=  6.96D-06    CP:  8.93D-01  2.33D+00  1.38D+00  2.84D+00  3.00D+00
                    CP:  3.00D+00  3.00D+00  2.58D+00  1.32D+00
 E= -466.846652394317     Delta-E=       -0.000060109432 Rises=F Damp=F
 DIIS: error= 1.03D-04 at cycle  10 NSaved=  10.
 NSaved=10 IEnMin=10 EnMin= -466.846652394317     IErMin=10 ErrMin= 1.03D-04
 ErrMax= 1.03D-04  0.00D+00 EMaxC= 1.00D-01 BMatC= 3.57D-06 BMatP= 2.44D-05
 IDIUse=3 WtCom= 9.99D-01 WtEn= 1.03D-03
 Coeff-Com: -0.156D-02 0.340D-02-0.939D-03-0.364D-01 0.368D-01 0.155D+00
 Coeff-Com: -0.156D+00-0.220D+00 0.842D-01 0.114D+01
 Coeff-En:   0.000D+00 0.000D+00 0.000D+00 0.000D+00 0.000D+00 0.000D+00
 Coeff-En:   0.000D+00 0.000D+00 0.000D+00 0.100D+01
 Coeff:     -0.156D-02 0.340D-02-0.938D-03-0.363D-01 0.368D-01 0.155D+00
 Coeff:     -0.156D+00-0.220D+00 0.841D-01 0.114D+01
 Gap=     0.294 Goal=   None    Shift=    0.000
 Gap=     0.294 Goal=   None    Shift=    0.000
 RMSDP=1.68D-05 MaxDP=7.21D-04 DE=-6.01D-05 OVMax= 6.52D-03

 Cycle  11  Pass 1  IDiag  1:
 RMSU=  4.04D-06    CP:  8.93D-01  2.33D+00  1.39D+00  2.86D+00  3.00D+00
                    CP:  3.00D+00  3.00D+00  2.78D+00  1.49D+00  1.62D+00
 E= -466.846663563417     Delta-E=       -0.000011169100 Rises=F Damp=F
 DIIS: error= 3.05D-05 at cycle  11 NSaved=  11.
 NSaved=11 IEnMin=11 EnMin= -466.846663563417     IErMin=11 ErrMin= 3.05D-05
 ErrMax= 3.05D-05  0.00D+00 EMaxC= 1.00D-01 BMatC= 7.86D-07 BMatP= 3.57D-06
 IDIUse=1 WtCom= 1.00D+00 WtEn= 0.00D+00
 Coeff-Com: -0.262D-02 0.566D-02 0.142D-02-0.282D-01 0.747D-02 0.827D-01
 Coeff-Com: -0.297D-01-0.138D+00-0.732D-01 0.435D+00 0.740D+00
 Coeff:     -0.262D-02 0.566D-02 0.142D-02-0.282D-01 0.747D-02 0.827D-01
 Coeff:     -0.297D-01-0.138D+00-0.732D-01 0.435D+00 0.740D+00
 Gap=     0.294 Goal=   None    Shift=    0.000
 Gap=     0.294 Goal=   None    Shift=    0.000
 RMSDP=3.38D-06 MaxDP=1.47D-04 DE=-1.12D-05 OVMax= 1.22D-03

 Cycle  12  Pass 1  IDiag  1:
 RMSU=  1.13D-06    CP:  8.92D-01  2.33D+00  1.39D+00  2.87D+00  3.00D+00
                    CP:  3.00D+00  3.00D+00  2.82D+00  1.52D+00  1.79D+00
                    CP:  1.22D+00
 E= -466.846664242147     Delta-E=       -0.000000678730 Rises=F Damp=F
 DIIS: error= 1.62D-05 at cycle  12 NSaved=  12.
 NSaved=12 IEnMin=12 EnMin= -466.846664242147     IErMin=12 ErrMin= 1.62D-05
 ErrMax= 1.62D-05  0.00D+00 EMaxC= 1.00D-01 BMatC= 1.00D-07 BMatP= 7.86D-07
 IDIUse=1 WtCom= 1.00D+00 WtEn= 0.00D+00
 Coeff-Com:  0.756D-03-0.165D-02-0.279D-03 0.970D-02-0.421D-02-0.349D-01
 Coeff-Com:  0.253D-01 0.471D-01-0.591D-04-0.208D+00-0.294D-02 0.117D+01
 Coeff:      0.756D-03-0.165D-02-0.279D-03 0.970D-02-0.421D-02-0.349D-01
 Coeff:      0.253D-01 0.471D-01-0.591D-04-0.208D+00-0.294D-02 0.117D+01
 Gap=     0.294 Goal=   None    Shift=    0.000
 Gap=     0.294 Goal=   None    Shift=    0.000
 RMSDP=1.05D-06 MaxDP=4.23D-05 DE=-6.79D-07 OVMax= 2.02D-04

 Cycle  13  Pass 1  IDiag  1:
 RMSU=  6.23D-07    CP:  8.92D-01  2.33D+00  1.39D+00  2.87D+00  3.00D+00
                    CP:  3.00D+00  3.00D+00  2.82D+00  1.53D+00  1.83D+00
                    CP:  1.34D+00  1.46D+00
 E= -466.846664384319     Delta-E=       -0.000000142172 Rises=F Damp=F
 DIIS: error= 8.67D-06 at cycle  13 NSaved=  13.
 NSaved=13 IEnMin=13 EnMin= -466.846664384319     IErMin=13 ErrMin= 8.67D-06
 ErrMax= 8.67D-06  0.00D+00 EMaxC= 1.00D-01 BMatC= 2.57D-08 BMatP= 1.00D-07
 IDIUse=1 WtCom= 1.00D+00 WtEn= 0.00D+00
 Coeff-Com:  0.579D-05-0.831D-05 0.623D-04 0.778D-03-0.861D-03-0.305D-02
 Coeff-Com:  0.194D-02 0.768D-02 0.207D-02-0.345D-01-0.871D-01-0.972D-01
 Coeff-Com:  0.121D+01
 Coeff:      0.579D-05-0.831D-05 0.623D-04 0.778D-03-0.861D-03-0.305D-02
 Coeff:      0.194D-02 0.768D-02 0.207D-02-0.345D-01-0.871D-01-0.972D-01
 Coeff:      0.121D+01
 Gap=     0.294 Goal=   None    Shift=    0.000
 Gap=     0.294 Goal=   None    Shift=    0.000
 RMSDP=5.21D-07 MaxDP=3.10D-05 DE=-1.42D-07 OVMax= 1.36D-04

 Cycle  14  Pass 1  IDiag  1:
 RMSU=  2.98D-07    CP:  8.92D-01  2.33D+00  1.39D+00  2.87D+00  3.00D+00
                    CP:  3.00D+00  3.00D+00  2.82D+00  1.53D+00  1.86D+00
                    CP:  1.37D+00  1.61D+00  1.49D+00
 E= -466.846664433740     Delta-E=       -0.000000049421 Rises=F Damp=F
 DIIS: error= 5.10D-06 at cycle  14 NSaved=  14.
 NSaved=14 IEnMin=14 EnMin= -466.846664433740     IErMin=14 ErrMin= 5.10D-06
 ErrMax= 5.10D-06  0.00D+00 EMaxC= 1.00D-01 BMatC= 8.89D-09 BMatP= 2.57D-08
 IDIUse=1 WtCom= 1.00D+00 WtEn= 0.00D+00
 Coeff-Com: -0.334D-03 0.722D-03 0.204D-03-0.356D-02 0.106D-02 0.121D-01
 Coeff-Com: -0.830D-02-0.156D-01-0.229D-03 0.713D-01-0.448D-02-0.422D+00
 Coeff-Com: -0.866D-02 0.138D+01
 Coeff:     -0.334D-03 0.722D-03 0.204D-03-0.356D-02 0.106D-02 0.121D-01
 Coeff:     -0.830D-02-0.156D-01-0.229D-03 0.713D-01-0.448D-02-0.422D+00
 Coeff:     -0.866D-02 0.138D+01
 Gap=     0.294 Goal=   None    Shift=    0.000
 Gap=     0.294 Goal=   None    Shift=    0.000
 RMSDP=4.28D-07 MaxDP=2.15D-05 DE=-4.94D-08 OVMax= 1.04D-04

 Cycle  15  Pass 1  IDiag  1:
 RMSU=  1.65D-07    CP:  8.92D-01  2.33D+00  1.39D+00  2.87D+00  3.00D+00
                    CP:  3.00D+00  3.00D+00  2.82D+00  1.53D+00  1.86D+00
                    CP:  1.37D+00  1.67D+00  1.90D+00  1.93D+00
 E= -466.846664454871     Delta-E=       -0.000000021131 Rises=F Damp=F
 DIIS: error= 1.98D-06 at cycle  15 NSaved=  15.
 NSaved=15 IEnMin=15 EnMin= -466.846664454871     IErMin=15 ErrMin= 1.98D-06
 ErrMax= 1.98D-06  0.00D+00 EMaxC= 1.00D-01 BMatC= 1.53D-09 BMatP= 8.89D-09
 IDIUse=1 WtCom= 1.00D+00 WtEn= 0.00D+00
 Coeff-Com: -0.878D-05 0.180D-04-0.273D-04-0.383D-03 0.491D-03 0.181D-02
 Coeff-Com: -0.227D-02-0.258D-02 0.200D-02 0.181D-01 0.143D-01-0.466D-01
 Coeff-Com: -0.272D+00 0.191D+00 0.110D+01
 Coeff:     -0.878D-05 0.180D-04-0.273D-04-0.383D-03 0.491D-03 0.181D-02
 Coeff:     -0.227D-02-0.258D-02 0.200D-02 0.181D-01 0.143D-01-0.466D-01
 Coeff:     -0.272D+00 0.191D+00 0.110D+01
 Gap=     0.294 Goal=   None    Shift=    0.000
 Gap=     0.294 Goal=   None    Shift=    0.000
 RMSDP=2.13D-07 MaxDP=8.94D-06 DE=-2.11D-08 OVMax= 4.99D-05

 Cycle  16  Pass 1  IDiag  1:
 RMSU=  6.39D-08    CP:  8.92D-01  2.33D+00  1.39D+00  2.87D+00  3.00D+00
                    CP:  3.00D+00  3.00D+00  2.82D+00  1.53D+00  1.86D+00
                    CP:  1.36D+00  1.68D+00  2.04D+00  2.35D+00  1.51D+00
 E= -466.846664457818     Delta-E=       -0.000000002947 Rises=F Damp=F
 DIIS: error= 5.58D-07 at cycle  16 NSaved=  16.
 NSaved=16 IEnMin=16 EnMin= -466.846664457818     IErMin=16 ErrMin= 5.58D-07
 ErrMax= 5.58D-07  0.00D+00 EMaxC= 1.00D-01 BMatC= 1.81D-10 BMatP= 1.53D-09
 IDIUse=1 WtCom= 1.00D+00 WtEn= 0.00D+00
 Coeff-Com:  0.889D-05-0.195D-04-0.112D-04 0.112D-03 0.360D-04-0.328D-03
 Coeff-Com:  0.821D-04 0.551D-03 0.283D-03-0.289D-02 0.464D-02 0.366D-01
 Coeff-Com: -0.615D-01-0.137D+00 0.269D+00 0.890D+00
 Coeff:      0.889D-05-0.195D-04-0.112D-04 0.112D-03 0.360D-04-0.328D-03
 Coeff:      0.821D-04 0.551D-03 0.283D-03-0.289D-02 0.464D-02 0.366D-01
 Coeff:     -0.615D-01-0.137D+00 0.269D+00 0.890D+00
 Gap=     0.294 Goal=   None    Shift=    0.000
 Gap=     0.294 Goal=   None    Shift=    0.000
 RMSDP=5.54D-08 MaxDP=2.63D-06 DE=-2.95D-09 OVMax= 1.18D-05

 Cycle  17  Pass 1  IDiag  1:
 RMSU=  2.02D-08    CP:  8.92D-01  2.33D+00  1.39D+00  2.87D+00  3.00D+00
                    CP:  3.00D+00  3.00D+00  2.82D+00  1.53D+00  1.86D+00
                    CP:  1.36D+00  1.67D+00  2.06D+00  2.45D+00  1.68D+00
                    CP:  1.35D+00
 E= -466.846664457990     Delta-E=       -0.000000000172 Rises=F Damp=F
 DIIS: error= 1.43D-07 at cycle  17 NSaved=  17.
 NSaved=17 IEnMin=17 EnMin= -466.846664457990     IErMin=17 ErrMin= 1.43D-07
 ErrMax= 1.43D-07  0.00D+00 EMaxC= 1.00D-01 BMatC= 1.76D-11 BMatP= 1.81D-10
 IDIUse=1 WtCom= 1.00D+00 WtEn= 0.00D+00
 Coeff-Com: -0.255D-05 0.558D-05 0.194D-05-0.215D-05-0.170D-04-0.747D-05
 Coeff-Com:  0.561D-04 0.136D-03-0.166D-03-0.157D-02-0.114D-03 0.955D-02
 Coeff-Com:  0.134D-01-0.435D-01-0.529D-01 0.196D+00 0.879D+00
 Coeff:     -0.255D-05 0.558D-05 0.194D-05-0.215D-05-0.170D-04-0.747D-05
 Coeff:      0.561D-04 0.136D-03-0.166D-03-0.157D-02-0.114D-03 0.955D-02
 Coeff:      0.134D-01-0.435D-01-0.529D-01 0.196D+00 0.879D+00
 Gap=     0.294 Goal=   None    Shift=    0.000
 Gap=     0.294 Goal=   None    Shift=    0.000
 RMSDP=1.35D-08 MaxDP=5.98D-07 DE=-1.72D-10 OVMax= 2.12D-06

 Cycle  18  Pass 1  IDiag  1:
 RMSU=  6.99D-09    CP:  8.92D-01  2.33D+00  1.39D+00  2.87D+00  3.00D+00
                    CP:  3.00D+00  3.00D+00  2.82D+00  1.53D+00  1.86D+00
                    CP:  1.36D+00  1.67D+00  2.06D+00  2.46D+00  1.72D+00
                    CP:  1.47D+00  1.18D+00
 E= -466.846664457996     Delta-E=       -0.000000000005 Rises=F Damp=F
 DIIS: error= 4.93D-08 at cycle  18 NSaved=  18.
 NSaved=18 IEnMin=18 EnMin= -466.846664457996     IErMin=18 ErrMin= 4.93D-08
 ErrMax= 4.93D-08  0.00D+00 EMaxC= 1.00D-01 BMatC= 2.33D-12 BMatP= 1.76D-11
 IDIUse=1 WtCom= 1.00D+00 WtEn= 0.00D+00
 Coeff-Com: -0.338D-06 0.739D-06 0.841D-06-0.295D-05-0.122D-04 0.120D-04
 Coeff-Com:  0.136D-05 0.258D-04-0.375D-04-0.174D-03-0.592D-03-0.126D-02
 Coeff-Com:  0.104D-01 0.312D-02-0.435D-01-0.493D-01 0.216D+00 0.866D+00
 Coeff:     -0.338D-06 0.739D-06 0.841D-06-0.295D-05-0.122D-04 0.120D-04
 Coeff:      0.136D-05 0.258D-04-0.375D-04-0.174D-03-0.592D-03-0.126D-02
 Coeff:      0.104D-01 0.312D-02-0.435D-01-0.493D-01 0.216D+00 0.866D+00
 Gap=     0.294 Goal=   None    Shift=    0.000
 Gap=     0.294 Goal=   None    Shift=    0.000
 RMSDP=4.71D-09 MaxDP=1.80D-07 DE=-5.34D-12 OVMax= 6.18D-07

 Error on total polarization charges =  0.01182
 SCF Done:  E(UwB97XD) =  -466.846664458     A.U. after   18 cycles
            NFock= 18  Conv=0.47D-08     -V/T= 2.0056
 <Sx>= 0.0000 <Sy>= 0.0000 <Sz>= 0.0000 <S**2>= 0.0000 S= 0.0000
 <L.S>=  0.00000000000    
 KE= 4.642577120997D+02 PE=-2.451297646091D+03 EE= 8.354421575785D+02
 --------------------------------------------------------------------
 Variational PCM results
 =======================
 <psi(f)|   H    |psi(f)>                     (a.u.) =    -466.845121
 <psi(f)|H+V(f)/2|psi(f)>                     (a.u.) =    -466.846664
 (Polarized solute)-Solvent               (kcal/mol) =      -0.97
 --------------------------------------------------------------------
 Partition over spheres:
 Sphere  on Atom  Surface  Charge   GEl     GCav    GDR
    1      C1       7.05   0.010   -0.05    0.00    0.00
    2      C2       4.11   0.006   -0.03    0.00    0.00
    3      H3       7.52  -0.010   -0.03    0.00    0.00
    4      H4       2.40  -0.003   -0.01    0.00    0.00
    5      C5       4.77   0.009   -0.06    0.00    0.00
    6      C6       3.57   0.005   -0.03    0.00    0.00
    7      H7       4.71  -0.007   -0.03    0.00    0.00
    8      H8       2.42  -0.003   -0.01    0.00    0.00
    9      C9       3.34   0.002    0.00    0.00    0.00
   10      H10      6.66  -0.007   -0.01    0.00    0.00
   11      H11      3.68  -0.003   -0.01    0.00    0.00
   12      C12      6.68   0.011   -0.06    0.00    0.00
   13      H13      7.51  -0.010   -0.03    0.00    0.00
   14      C14      6.55   0.010   -0.05    0.00    0.00
   15      H15      7.52  -0.010   -0.03    0.00    0.00
   16      C16      3.58   0.001    0.00    0.00    0.00
   17      H17      4.59  -0.005   -0.02    0.00    0.00
   18      H18      7.04  -0.008   -0.03    0.00    0.00
   19      C19      5.44   0.010   -0.07    0.00    0.00
   20      H20      5.33  -0.007   -0.03    0.00    0.00
   21      C21      6.96   0.011   -0.06    0.00    0.00
   22      H22      7.52  -0.010   -0.03    0.00    0.00
   23      C23      3.50   0.002    0.00    0.00    0.00
   24      H24      3.99  -0.003   -0.01    0.00    0.00
   25      H25      6.70  -0.007   -0.01    0.00    0.00
   26      C26      3.32   0.001    0.00    0.00    0.00
   27      H27      6.95  -0.008   -0.03    0.00    0.00
   28      H28      4.54  -0.005   -0.02    0.00    0.00
 Added spheres:    71.55   0.014   -0.21    0.00    0.00
 --------------------------------------------------------------------
 After PCM corrections, the energy is  -466.846664458     a.u.
 --------------------------------------------------------------------
 Annihilation of the first spin contaminant:
 S**2 before annihilation     0.0000,   after     0.0000
 Leave Link  502 at Mon Aug  3 15:26:43 2020, MaxMem=  6442450944 cpu:            7645.4 elap:             321.4
 (Enter /scratch/scicomp/CentOS/7.3.1611/Haswell/software/Gaussian/g16/l601.exe)
 Copying SCF densities to generalized density rwf, IOpCl= 1 IROHF=0.

 **********************************************************************

            Population analysis using the SCF Density.

 **********************************************************************

 Alpha  occ. eigenvalues --  -10.28624 -10.28624 -10.28276 -10.28275 -10.28272
 Alpha  occ. eigenvalues --  -10.28272 -10.28230 -10.28229 -10.28019 -10.28019
 Alpha  occ. eigenvalues --  -10.27332 -10.27331  -0.94561  -0.93540  -0.84697
 Alpha  occ. eigenvalues --   -0.84389  -0.83711  -0.83610  -0.71723  -0.71096
 Alpha  occ. eigenvalues --   -0.68323  -0.67912  -0.59925  -0.59843  -0.57634
 Alpha  occ. eigenvalues --   -0.56519  -0.53760  -0.52991  -0.51082  -0.50993
 Alpha  occ. eigenvalues --   -0.49913  -0.49175  -0.47643  -0.46941  -0.45765
 Alpha  occ. eigenvalues --   -0.44944  -0.41510  -0.41023  -0.39944  -0.39255
 Alpha  occ. eigenvalues --   -0.39242  -0.38758  -0.30190  -0.26804
 Alpha virt. eigenvalues --    0.02634   0.05921   0.10509   0.12354   0.13439
 Alpha virt. eigenvalues --    0.14567   0.14886   0.15723   0.15792   0.15961
 Alpha virt. eigenvalues --    0.16598   0.17048   0.17401   0.18279   0.19965
 Alpha virt. eigenvalues --    0.21125   0.21467   0.22857   0.23485   0.24228
 Alpha virt. eigenvalues --    0.24589   0.25276   0.25928   0.26583   0.27711
 Alpha virt. eigenvalues --    0.28526   0.29230   0.29465   0.30340   0.30598
 Alpha virt. eigenvalues --    0.31040   0.31614   0.32507   0.32916   0.34020
 Alpha virt. eigenvalues --    0.34053   0.34704   0.35723   0.36302   0.37381
 Alpha virt. eigenvalues --    0.38345   0.38477   0.41311   0.41798   0.41994
 Alpha virt. eigenvalues --    0.42588   0.44064   0.44210   0.44932   0.45542
 Alpha virt. eigenvalues --    0.46684   0.47490   0.48018   0.48190   0.48632
 Alpha virt. eigenvalues --    0.48867   0.48917   0.49126   0.49871   0.49961
 Alpha virt. eigenvalues --    0.50434   0.50492   0.52089   0.52310   0.52839
 Alpha virt. eigenvalues --    0.53128   0.54180   0.54352   0.55171   0.55193
 Alpha virt. eigenvalues --    0.57036   0.57051   0.57624   0.59319   0.60341
 Alpha virt. eigenvalues --    0.60794   0.61062   0.62290   0.62920   0.64861
 Alpha virt. eigenvalues --    0.65830   0.65938   0.67797   0.68376   0.68821
 Alpha virt. eigenvalues --    0.68951   0.71988   0.73730   0.74712   0.75607
 Alpha virt. eigenvalues --    0.78010   0.78033   0.78572   0.80011   0.80707
 Alpha virt. eigenvalues --    0.81815   0.83123   0.84166   0.85134   0.87503
 Alpha virt. eigenvalues --    0.89463   0.90797   0.91286   0.93287   0.93437
 Alpha virt. eigenvalues --    0.94619   0.96867   0.96929   0.98824   0.99273
 Alpha virt. eigenvalues --    1.01255   1.03198   1.04317   1.04980   1.05202
 Alpha virt. eigenvalues --    1.07135   1.07716   1.07921   1.10287   1.11586
 Alpha virt. eigenvalues --    1.12327   1.12564   1.14364   1.15469   1.16539
 Alpha virt. eigenvalues --    1.16898   1.18274   1.18786   1.19073   1.19874
 Alpha virt. eigenvalues --    1.20024   1.20521   1.23304   1.25120   1.25426
 Alpha virt. eigenvalues --    1.26064   1.26631   1.28117   1.28925   1.29133
 Alpha virt. eigenvalues --    1.30366   1.31252   1.31673   1.31937   1.33087
 Alpha virt. eigenvalues --    1.34166   1.34552   1.37058   1.37553   1.38186
 Alpha virt. eigenvalues --    1.38704   1.39733   1.40747   1.40779   1.42127
 Alpha virt. eigenvalues --    1.42588   1.42753   1.43514   1.44317   1.44777
 Alpha virt. eigenvalues --    1.45159   1.46065   1.47546   1.48825   1.49030
 Alpha virt. eigenvalues --    1.50426   1.51718   1.53076   1.54969   1.56583
 Alpha virt. eigenvalues --    1.58229   1.58618   1.59764   1.61106   1.61666
 Alpha virt. eigenvalues --    1.63305   1.63775   1.64436   1.66012   1.66874
 Alpha virt. eigenvalues --    1.68067   1.71343   1.75038   1.75580   1.77855
 Alpha virt. eigenvalues --    1.80139   1.81954   1.82735   1.84168   1.84542
 Alpha virt. eigenvalues --    1.88372   1.89092   1.90571   1.91845   1.92993
 Alpha virt. eigenvalues --    1.94069   1.96281   1.97991   1.99907   2.01231
 Alpha virt. eigenvalues --    2.03873   2.04058   2.09211   2.11025   2.11662
 Alpha virt. eigenvalues --    2.12085   2.12890   2.15206   2.15752   2.17150
 Alpha virt. eigenvalues --    2.17643   2.19804   2.20262   2.22677   2.23291
 Alpha virt. eigenvalues --    2.24326   2.24744   2.25457   2.28739   2.31143
 Alpha virt. eigenvalues --    2.35581   2.36496   2.38572   2.40982   2.42048
 Alpha virt. eigenvalues --    2.44438   2.45617   2.46043   2.48719   2.49295
 Alpha virt. eigenvalues --    2.49908   2.50987   2.51431   2.54303   2.56104
 Alpha virt. eigenvalues --    2.58111   2.58964   2.60145   2.62693   2.63245
 Alpha virt. eigenvalues --    2.63304   2.64413   2.65333   2.65988   2.66213
 Alpha virt. eigenvalues --    2.68215   2.68777   2.69882   2.72806   2.73118
 Alpha virt. eigenvalues --    2.73770   2.74521   2.75467   2.75658   2.77067
 Alpha virt. eigenvalues --    2.78866   2.79725   2.80633   2.80861   2.81401
 Alpha virt. eigenvalues --    2.81805   2.83292   2.83489   2.84165   2.85993
 Alpha virt. eigenvalues --    2.86181   2.87698   2.87792   2.89700   2.89829
 Alpha virt. eigenvalues --    2.91839   2.92598   2.93316   2.94543   2.96018
 Alpha virt. eigenvalues --    2.96627   2.97714   2.97981   2.99147   3.00878
 Alpha virt. eigenvalues --    3.01340   3.02390   3.03809   3.05193   3.06144
 Alpha virt. eigenvalues --    3.06645   3.08965   3.09913   3.10982   3.11234
 Alpha virt. eigenvalues --    3.11539   3.13373   3.13542   3.14587   3.15243
 Alpha virt. eigenvalues --    3.16006   3.16747   3.17025   3.18392   3.19243
 Alpha virt. eigenvalues --    3.20198   3.20771   3.20911   3.21378   3.21721
 Alpha virt. eigenvalues --    3.22680   3.22822   3.23018   3.24264   3.25595
 Alpha virt. eigenvalues --    3.25616   3.26867   3.27817   3.28045   3.29064
 Alpha virt. eigenvalues --    3.29073   3.30313   3.30665   3.31118   3.32686
 Alpha virt. eigenvalues --    3.32877   3.33359   3.34434   3.35907   3.36450
 Alpha virt. eigenvalues --    3.36999   3.37093   3.38557   3.39358   3.41667
 Alpha virt. eigenvalues --    3.42789   3.43700   3.44129   3.45475   3.45584
 Alpha virt. eigenvalues --    3.46314   3.46731   3.47103   3.47653   3.47763
 Alpha virt. eigenvalues --    3.48826   3.50555   3.50732   3.51873   3.54198
 Alpha virt. eigenvalues --    3.54303   3.54309   3.55707   3.56746   3.58178
 Alpha virt. eigenvalues --    3.59686   3.60655   3.61376   3.62342   3.64254
 Alpha virt. eigenvalues --    3.65435   3.67177   3.69390   3.69414   3.69973
 Alpha virt. eigenvalues --    3.70843   3.71531   3.74106   3.76474   3.77850
 Alpha virt. eigenvalues --    3.79385   3.80286   3.80390   3.82069   3.83698
 Alpha virt. eigenvalues --    3.84556   3.85755   3.86499   3.88770   3.89787
 Alpha virt. eigenvalues --    3.91222   3.92304   3.95350   3.96073   3.99072
 Alpha virt. eigenvalues --    3.99974   4.02670   4.03494   4.04581   4.07473
 Alpha virt. eigenvalues --    4.08249   4.09087   4.09317   4.10298   4.12126
 Alpha virt. eigenvalues --    4.13706   4.13865   4.16517   4.17213   4.18607
 Alpha virt. eigenvalues --    4.20021   4.22534   4.22834   4.24843   4.27135
 Alpha virt. eigenvalues --    4.27499   4.29763   4.31854   4.32049   4.36475
 Alpha virt. eigenvalues --    4.37603   4.38053   4.39831   4.41921   4.45250
 Alpha virt. eigenvalues --    4.47228   4.49653   4.50080   4.50150   4.53959
 Alpha virt. eigenvalues --    4.55758   4.60440   4.62197   4.67391   4.67684
 Alpha virt. eigenvalues --    4.70787   4.70897   4.72728   4.75501   4.77549
 Alpha virt. eigenvalues --    4.78672   4.81391   4.83204   4.85119   4.85748
 Alpha virt. eigenvalues --    4.86598   4.89203   4.93450   4.95211   4.96501
 Alpha virt. eigenvalues --    4.98746   5.05061   5.05484   5.09519   5.09880
 Alpha virt. eigenvalues --    5.14210   5.18429   5.19007   5.22563   5.24297
 Alpha virt. eigenvalues --    5.25609   5.34863   5.35901   5.41223   5.42708
 Alpha virt. eigenvalues --    5.45580   5.46626   5.51158   5.55582   5.71593
 Alpha virt. eigenvalues --    5.71902   5.78097   5.78774   5.97087   6.02130
 Alpha virt. eigenvalues --    7.95145   7.95316   8.02289   8.03869   8.05237
 Alpha virt. eigenvalues --    8.09506   8.10932   8.13966   8.17399   8.19988
 Alpha virt. eigenvalues --    8.36220   8.36463  34.76999  34.77809  34.81411
 Alpha virt. eigenvalues --   34.81566  34.84825  34.91299  34.96038  35.00399
 Alpha virt. eigenvalues --   35.01299  35.02977  35.18050  35.18278
  Beta  occ. eigenvalues --  -10.28624 -10.28624 -10.28276 -10.28275 -10.28272
  Beta  occ. eigenvalues --  -10.28272 -10.28230 -10.28229 -10.28019 -10.28019
  Beta  occ. eigenvalues --  -10.27332 -10.27331  -0.94561  -0.93540  -0.84697
  Beta  occ. eigenvalues --   -0.84389  -0.83711  -0.83610  -0.71723  -0.71096
  Beta  occ. eigenvalues --   -0.68323  -0.67912  -0.59925  -0.59843  -0.57634
  Beta  occ. eigenvalues --   -0.56519  -0.53760  -0.52991  -0.51082  -0.50993
  Beta  occ. eigenvalues --   -0.49913  -0.49175  -0.47643  -0.46941  -0.45765
  Beta  occ. eigenvalues --   -0.44944  -0.41510  -0.41023  -0.39944  -0.39255
  Beta  occ. eigenvalues --   -0.39242  -0.38758  -0.30190  -0.26804
  Beta virt. eigenvalues --    0.02634   0.05921   0.10509   0.12354   0.13439
  Beta virt. eigenvalues --    0.14567   0.14886   0.15723   0.15792   0.15961
  Beta virt. eigenvalues --    0.16598   0.17048   0.17401   0.18279   0.19965
  Beta virt. eigenvalues --    0.21125   0.21467   0.22857   0.23485   0.24228
  Beta virt. eigenvalues --    0.24589   0.25276   0.25928   0.26583   0.27711
  Beta virt. eigenvalues --    0.28526   0.29230   0.29465   0.30340   0.30598
  Beta virt. eigenvalues --    0.31040   0.31614   0.32507   0.32916   0.34020
  Beta virt. eigenvalues --    0.34053   0.34704   0.35723   0.36302   0.37381
  Beta virt. eigenvalues --    0.38345   0.38477   0.41311   0.41798   0.41994
  Beta virt. eigenvalues --    0.42588   0.44064   0.44210   0.44932   0.45542
  Beta virt. eigenvalues --    0.46684   0.47490   0.48018   0.48190   0.48632
  Beta virt. eigenvalues --    0.48867   0.48917   0.49126   0.49871   0.49961
  Beta virt. eigenvalues --    0.50434   0.50492   0.52089   0.52310   0.52839
  Beta virt. eigenvalues --    0.53128   0.54180   0.54352   0.55171   0.55193
  Beta virt. eigenvalues --    0.57036   0.57051   0.57624   0.59319   0.60341
  Beta virt. eigenvalues --    0.60794   0.61062   0.62290   0.62920   0.64861
  Beta virt. eigenvalues --    0.65830   0.65938   0.67797   0.68376   0.68821
  Beta virt. eigenvalues --    0.68951   0.71988   0.73730   0.74712   0.75607
  Beta virt. eigenvalues --    0.78010   0.78033   0.78572   0.80011   0.80707
  Beta virt. eigenvalues --    0.81815   0.83123   0.84166   0.85134   0.87503
  Beta virt. eigenvalues --    0.89463   0.90797   0.91286   0.93287   0.93437
  Beta virt. eigenvalues --    0.94619   0.96867   0.96929   0.98824   0.99273
  Beta virt. eigenvalues --    1.01255   1.03198   1.04317   1.04980   1.05202
  Beta virt. eigenvalues --    1.07135   1.07716   1.07921   1.10287   1.11586
  Beta virt. eigenvalues --    1.12327   1.12564   1.14364   1.15469   1.16539
  Beta virt. eigenvalues --    1.16898   1.18274   1.18786   1.19073   1.19874
  Beta virt. eigenvalues --    1.20024   1.20521   1.23304   1.25120   1.25426
  Beta virt. eigenvalues --    1.26064   1.26631   1.28117   1.28925   1.29133
  Beta virt. eigenvalues --    1.30366   1.31252   1.31673   1.31937   1.33087
  Beta virt. eigenvalues --    1.34166   1.34552   1.37058   1.37553   1.38186
  Beta virt. eigenvalues --    1.38704   1.39733   1.40747   1.40779   1.42127
  Beta virt. eigenvalues --    1.42588   1.42753   1.43514   1.44317   1.44777
  Beta virt. eigenvalues --    1.45159   1.46065   1.47546   1.48825   1.49030
  Beta virt. eigenvalues --    1.50426   1.51718   1.53076   1.54969   1.56583
  Beta virt. eigenvalues --    1.58229   1.58618   1.59764   1.61106   1.61666
  Beta virt. eigenvalues --    1.63305   1.63775   1.64436   1.66012   1.66874
  Beta virt. eigenvalues --    1.68067   1.71343   1.75038   1.75580   1.77855
  Beta virt. eigenvalues --    1.80139   1.81954   1.82735   1.84168   1.84542
  Beta virt. eigenvalues --    1.88372   1.89092   1.90571   1.91845   1.92993
  Beta virt. eigenvalues --    1.94069   1.96281   1.97991   1.99907   2.01231
  Beta virt. eigenvalues --    2.03873   2.04058   2.09211   2.11025   2.11662
  Beta virt. eigenvalues --    2.12085   2.12890   2.15206   2.15752   2.17150
  Beta virt. eigenvalues --    2.17643   2.19804   2.20262   2.22677   2.23291
  Beta virt. eigenvalues --    2.24326   2.24744   2.25457   2.28739   2.31143
  Beta virt. eigenvalues --    2.35581   2.36496   2.38572   2.40982   2.42048
  Beta virt. eigenvalues --    2.44438   2.45617   2.46043   2.48719   2.49295
  Beta virt. eigenvalues --    2.49908   2.50987   2.51431   2.54303   2.56104
  Beta virt. eigenvalues --    2.58111   2.58964   2.60145   2.62693   2.63245
  Beta virt. eigenvalues --    2.63304   2.64413   2.65333   2.65988   2.66213
  Beta virt. eigenvalues --    2.68215   2.68777   2.69882   2.72806   2.73118
  Beta virt. eigenvalues --    2.73770   2.74521   2.75467   2.75658   2.77067
  Beta virt. eigenvalues --    2.78866   2.79725   2.80633   2.80861   2.81401
  Beta virt. eigenvalues --    2.81805   2.83292   2.83489   2.84165   2.85993
  Beta virt. eigenvalues --    2.86181   2.87698   2.87792   2.89700   2.89829
  Beta virt. eigenvalues --    2.91839   2.92598   2.93316   2.94543   2.96018
  Beta virt. eigenvalues --    2.96627   2.97714   2.97981   2.99147   3.00878
  Beta virt. eigenvalues --    3.01340   3.02390   3.03809   3.05193   3.06144
  Beta virt. eigenvalues --    3.06645   3.08965   3.09913   3.10982   3.11234
  Beta virt. eigenvalues --    3.11539   3.13373   3.13542   3.14587   3.15243
  Beta virt. eigenvalues --    3.16006   3.16747   3.17025   3.18392   3.19243
  Beta virt. eigenvalues --    3.20198   3.20771   3.20911   3.21378   3.21721
  Beta virt. eigenvalues --    3.22680   3.22822   3.23018   3.24264   3.25595
  Beta virt. eigenvalues --    3.25616   3.26867   3.27817   3.28045   3.29064
  Beta virt. eigenvalues --    3.29073   3.30313   3.30665   3.31118   3.32686
  Beta virt. eigenvalues --    3.32877   3.33359   3.34434   3.35907   3.36450
  Beta virt. eigenvalues --    3.36999   3.37093   3.38557   3.39358   3.41667
  Beta virt. eigenvalues --    3.42789   3.43700   3.44129   3.45475   3.45584
  Beta virt. eigenvalues --    3.46314   3.46731   3.47103   3.47653   3.47763
  Beta virt. eigenvalues --    3.48826   3.50555   3.50732   3.51873   3.54198
  Beta virt. eigenvalues --    3.54303   3.54309   3.55707   3.56746   3.58178
  Beta virt. eigenvalues --    3.59686   3.60655   3.61376   3.62342   3.64254
  Beta virt. eigenvalues --    3.65435   3.67177   3.69390   3.69414   3.69973
  Beta virt. eigenvalues --    3.70843   3.71531   3.74106   3.76474   3.77850
  Beta virt. eigenvalues --    3.79385   3.80286   3.80390   3.82069   3.83698
  Beta virt. eigenvalues --    3.84556   3.85755   3.86499   3.88770   3.89787
  Beta virt. eigenvalues --    3.91222   3.92304   3.95350   3.96073   3.99072
  Beta virt. eigenvalues --    3.99974   4.02670   4.03494   4.04581   4.07473
  Beta virt. eigenvalues --    4.08249   4.09087   4.09317   4.10298   4.12126
  Beta virt. eigenvalues --    4.13706   4.13865   4.16517   4.17213   4.18607
  Beta virt. eigenvalues --    4.20021   4.22534   4.22834   4.24843   4.27135
  Beta virt. eigenvalues --    4.27499   4.29763   4.31854   4.32049   4.36475
  Beta virt. eigenvalues --    4.37603   4.38053   4.39831   4.41921   4.45250
  Beta virt. eigenvalues --    4.47228   4.49653   4.50080   4.50150   4.53959
  Beta virt. eigenvalues --    4.55758   4.60440   4.62197   4.67391   4.67684
  Beta virt. eigenvalues --    4.70787   4.70897   4.72728   4.75501   4.77549
  Beta virt. eigenvalues --    4.78672   4.81391   4.83204   4.85119   4.85748
  Beta virt. eigenvalues --    4.86598   4.89203   4.93450   4.95211   4.96501
  Beta virt. eigenvalues --    4.98746   5.05061   5.05484   5.09519   5.09880
  Beta virt. eigenvalues --    5.14210   5.18429   5.19007   5.22563   5.24297
  Beta virt. eigenvalues --    5.25609   5.34863   5.35901   5.41223   5.42708
  Beta virt. eigenvalues --    5.45580   5.46626   5.51158   5.55582   5.71593
  Beta virt. eigenvalues --    5.71902   5.78097   5.78774   5.97087   6.02130
  Beta virt. eigenvalues --    7.95145   7.95316   8.02289   8.03869   8.05237
  Beta virt. eigenvalues --    8.09506   8.10932   8.13966   8.17399   8.19988
  Beta virt. eigenvalues --    8.36220   8.36463  34.76999  34.77809  34.81411
  Beta virt. eigenvalues --   34.81566  34.84825  34.91299  34.96038  35.00399
  Beta virt. eigenvalues --   35.01299  35.02977  35.18050  35.18278
          Condensed to atoms (all electrons):
               1          2          3          4          5          6
     1  C    5.133725  -0.000990   0.425998  -0.001851   0.001587  -0.008281
     2  C   -0.000990   5.380342  -0.002505   0.424064  -0.060138  -0.026899
     3  H    0.425998  -0.002505   0.498366   0.000034  -0.000052   0.000031
     4  H   -0.001851   0.424064   0.000034   0.467369  -0.011247   0.003067
     5  C    0.001587  -0.060138  -0.000052  -0.011247   5.199834   0.503453
     6  C   -0.008281  -0.026899   0.000031   0.003067   0.503453   5.380265
     7  H    0.000344  -0.002974   0.000001  -0.000093   0.429655  -0.028724
     8  H   -0.002099   0.003066  -0.000067   0.000257  -0.035845   0.424061
     9  C    0.002821  -0.013837  -0.000008  -0.002635  -0.061646   0.221497
    10  H   -0.000049   0.001665  -0.000001  -0.000317  -0.006775  -0.039116
    11  H    0.000197  -0.007854   0.000003   0.000403   0.009587  -0.061005
    12  C   -0.000210   0.016257   0.000002   0.004353   0.287960  -0.073994
    13  H   -0.000001   0.000106   0.000000   0.000050  -0.041162   0.006131
    14  C    0.000170  -0.008280  -0.000000  -0.002098  -0.047515  -0.000968
    15  H   -0.000000   0.000031  -0.000000  -0.000067   0.007773  -0.002508
    16  C   -0.000613   0.015413   0.000001   0.000381  -0.007200  -0.061439
    17  H   -0.000017   0.000682  -0.000000  -0.003280   0.010236  -0.001749
    18  H    0.000003   0.000309   0.000000   0.000375  -0.002675   0.011350
    19  C   -0.047547   0.503438   0.007766  -0.035835  -0.024277  -0.060113
    20  H    0.004369  -0.028758  -0.000111  -0.004832   0.000379  -0.002969
    21  C    0.588659  -0.073982  -0.034280   0.004996   0.003013   0.016248
    22  H   -0.029841   0.006118  -0.006829  -0.000064   0.000043   0.000106
    23  C   -0.089749   0.221453   0.005977  -0.012562   0.010480  -0.013845
    24  H    0.013225  -0.061000  -0.000113  -0.003920   0.000283  -0.007859
    25  H    0.005420  -0.039114  -0.000028  -0.000856   0.000827   0.001665
    26  C    0.279891  -0.061466  -0.032779   0.004352  -0.008935   0.015420
    27  H   -0.034357   0.011354  -0.004297  -0.000106   0.000301   0.000309
    28  H   -0.031442  -0.001752   0.001371  -0.000186  -0.004118   0.000686
               7          8          9         10         11         12
     1  C    0.000344  -0.002099   0.002821  -0.000049   0.000197  -0.000210
     2  C   -0.002974   0.003066  -0.013837   0.001665  -0.007854   0.016257
     3  H    0.000001  -0.000067  -0.000008  -0.000001   0.000003   0.000002
     4  H   -0.000093   0.000257  -0.002635  -0.000317   0.000403   0.004353
     5  C    0.429655  -0.035845  -0.061646  -0.006775   0.009587   0.287960
     6  C   -0.028724   0.424061   0.221497  -0.039116  -0.061005  -0.073994
     7  H    0.482334  -0.004835   0.003389  -0.000257  -0.000038  -0.033409
     8  H   -0.004835   0.467407  -0.012556  -0.000856  -0.003920   0.004999
     9  C    0.003389  -0.012556   4.979795   0.385634   0.464597   0.037214
    10  H   -0.000257  -0.000856   0.385634   0.580821  -0.022007   0.001434
    11  H   -0.000038  -0.003920   0.464597  -0.022007   0.534910  -0.004484
    12  C   -0.033409   0.004999   0.037214   0.001434  -0.004484   5.006290
    13  H   -0.003736  -0.000064  -0.000432  -0.000065   0.000034   0.428998
    14  C    0.004373  -0.001853  -0.089771   0.005413   0.013226   0.588583
    15  H   -0.000111   0.000034   0.005978  -0.000028  -0.000113  -0.034327
    16  C   -0.001181   0.004354   0.353070  -0.023294  -0.055899  -0.052471
    17  H    0.000012  -0.000186  -0.030069   0.007181  -0.008320  -0.015120
    18  H    0.000039  -0.000106  -0.041638  -0.010501  -0.000538   0.005041
    19  C    0.000379  -0.011247   0.010466   0.000827   0.000278   0.003013
    20  H    0.000010  -0.000093   0.003328   0.000362  -0.002020  -0.000193
    21  C   -0.000193   0.004356  -0.003515  -0.000083   0.000019  -0.000355
    22  H   -0.000001   0.000050  -0.000100  -0.000000  -0.000010  -0.000000
    23  C    0.003333  -0.002638   0.002358  -0.000082   0.000416  -0.003517
    24  H   -0.002024   0.000404   0.000415  -0.000023  -0.000020   0.000018
    25  H    0.000362  -0.000317  -0.000082   0.000009  -0.000023  -0.000083
    26  C   -0.002319   0.000383  -0.001404   0.000078  -0.000165   0.001164
    27  H   -0.000019   0.000375  -0.000013   0.000000  -0.000000  -0.000042
    28  H    0.001927  -0.003280   0.000487   0.000002  -0.000003   0.000353
              13         14         15         16         17         18
     1  C   -0.000001   0.000170  -0.000000  -0.000613  -0.000017   0.000003
     2  C    0.000106  -0.008280   0.000031   0.015413   0.000682   0.000309
     3  H    0.000000  -0.000000  -0.000000   0.000001  -0.000000   0.000000
     4  H    0.000050  -0.002098  -0.000067   0.000381  -0.003280   0.000375
     5  C   -0.041162  -0.047515   0.007773  -0.007200   0.010236  -0.002675
     6  C    0.006131  -0.000968  -0.002508  -0.061439  -0.001749   0.011350
     7  H   -0.003736   0.004373  -0.000111  -0.001181   0.000012   0.000039
     8  H   -0.000064  -0.001853   0.000034   0.004354  -0.000186  -0.000106
     9  C   -0.000432  -0.089771   0.005978   0.353070  -0.030069  -0.041638
    10  H   -0.000065   0.005413  -0.000028  -0.023294   0.007181  -0.010501
    11  H    0.000034   0.013226  -0.000113  -0.055899  -0.008320  -0.000538
    12  C    0.428998   0.588583  -0.034327  -0.052471  -0.015120   0.005041
    13  H    0.497211  -0.029831  -0.006831   0.005516  -0.000437  -0.000139
    14  C   -0.029831   5.133788   0.426029   0.279904  -0.031443  -0.034342
    15  H   -0.006831   0.426029   0.498358  -0.032768   0.001370  -0.004296
    16  C    0.005516   0.279904  -0.032768   4.939789   0.393954   0.427740
    17  H   -0.000437  -0.031443   0.001370   0.393954   0.587544  -0.023124
    18  H   -0.000139  -0.034342  -0.004296   0.427740  -0.023124   0.546006
    19  C    0.000043   0.001586  -0.000052  -0.008935  -0.004114   0.000301
    20  H   -0.000001   0.000344   0.000001  -0.002318   0.001926  -0.000019
    21  C   -0.000000  -0.000210   0.000002   0.001164   0.000353  -0.000042
    22  H    0.000000  -0.000001   0.000000   0.000015  -0.000001  -0.000001
    23  C   -0.000099   0.002822  -0.000008  -0.001404   0.000486  -0.000013
    24  H   -0.000010   0.000197   0.000003  -0.000165  -0.000003  -0.000000
    25  H   -0.000000  -0.000049  -0.000001   0.000078   0.000002   0.000000
    26  C    0.000015  -0.000613   0.000001   0.000746   0.000031  -0.000004
    27  H   -0.000001   0.000003   0.000000  -0.000004   0.000001  -0.000000
    28  H   -0.000001  -0.000017  -0.000000   0.000031  -0.000014   0.000001
              19         20         21         22         23         24
     1  C   -0.047547   0.004369   0.588659  -0.029841  -0.089749   0.013225
     2  C    0.503438  -0.028758  -0.073982   0.006118   0.221453  -0.061000
     3  H    0.007766  -0.000111  -0.034280  -0.006829   0.005977  -0.000113
     4  H   -0.035835  -0.004832   0.004996  -0.000064  -0.012562  -0.003920
     5  C   -0.024277   0.000379   0.003013   0.000043   0.010480   0.000283
     6  C   -0.060113  -0.002969   0.016248   0.000106  -0.013845  -0.007859
     7  H    0.000379   0.000010  -0.000193  -0.000001   0.003333  -0.002024
     8  H   -0.011247  -0.000093   0.004356   0.000050  -0.002638   0.000404
     9  C    0.010466   0.003328  -0.003515  -0.000100   0.002358   0.000415
    10  H    0.000827   0.000362  -0.000083  -0.000000  -0.000082  -0.000023
    11  H    0.000278  -0.002020   0.000019  -0.000010   0.000416  -0.000020
    12  C    0.003013  -0.000193  -0.000355  -0.000000  -0.003517   0.000018
    13  H    0.000043  -0.000001  -0.000000   0.000000  -0.000099  -0.000010
    14  C    0.001586   0.000344  -0.000210  -0.000001   0.002822   0.000197
    15  H   -0.000052   0.000001   0.000002   0.000000  -0.000008   0.000003
    16  C   -0.008935  -0.002318   0.001164   0.000015  -0.001404  -0.000165
    17  H   -0.004114   0.001926   0.000353  -0.000001   0.000486  -0.000003
    18  H    0.000301  -0.000019  -0.000042  -0.000001  -0.000013  -0.000000
    19  C    5.199842   0.429672   0.288048  -0.041126  -0.061627   0.009584
    20  H    0.429672   0.482230  -0.033383  -0.003734   0.003388  -0.000038
    21  C    0.288048  -0.033383   5.006208   0.428988   0.037201  -0.004484
    22  H   -0.041126  -0.003734   0.428988   0.497174  -0.000432   0.000034
    23  C   -0.061627   0.003388   0.037201  -0.000432   4.979824   0.464594
    24  H    0.009584  -0.000038  -0.004484   0.000034   0.464594   0.534872
    25  H   -0.006773  -0.000257   0.001431  -0.000065   0.385636  -0.022001
    26  C   -0.007172  -0.001180  -0.052488   0.005514   0.353061  -0.055891
    27  H   -0.002679   0.000039   0.005049  -0.000139  -0.041628  -0.000540
    28  H    0.010236   0.000012  -0.015123  -0.000437  -0.030073  -0.008319
              25         26         27         28
     1  C    0.005420   0.279891  -0.034357  -0.031442
     2  C   -0.039114  -0.061466   0.011354  -0.001752
     3  H   -0.000028  -0.032779  -0.004297   0.001371
     4  H   -0.000856   0.004352  -0.000106  -0.000186
     5  C    0.000827  -0.008935   0.000301  -0.004118
     6  C    0.001665   0.015420   0.000309   0.000686
     7  H    0.000362  -0.002319  -0.000019   0.001927
     8  H   -0.000317   0.000383   0.000375  -0.003280
     9  C   -0.000082  -0.001404  -0.000013   0.000487
    10  H    0.000009   0.000078   0.000000   0.000002
    11  H   -0.000023  -0.000165  -0.000000  -0.000003
    12  C   -0.000083   0.001164  -0.000042   0.000353
    13  H   -0.000000   0.000015  -0.000001  -0.000001
    14  C   -0.000049  -0.000613   0.000003  -0.000017
    15  H   -0.000001   0.000001   0.000000  -0.000000
    16  C    0.000078   0.000746  -0.000004   0.000031
    17  H    0.000002   0.000031   0.000001  -0.000014
    18  H    0.000000  -0.000004  -0.000000   0.000001
    19  C   -0.006773  -0.007172  -0.002679   0.010236
    20  H   -0.000257  -0.001180   0.000039   0.000012
    21  C    0.001431  -0.052488   0.005049  -0.015123
    22  H   -0.000065   0.005514  -0.000139  -0.000437
    23  C    0.385636   0.353061  -0.041628  -0.030073
    24  H   -0.022001  -0.055891  -0.000540  -0.008319
    25  H    0.580810  -0.023304  -0.010498   0.007182
    26  C   -0.023304   4.939849   0.427745   0.393947
    27  H   -0.010498   0.427745   0.545986  -0.023125
    28  H    0.007182   0.393947  -0.023125   0.587574
          Atomic-Atomic Spin Densities.
               1          2          3          4          5          6
     1  C   -0.000000  -0.000000   0.000000   0.000000   0.000000   0.000000
     2  C   -0.000000   0.000000  -0.000000   0.000000   0.000000   0.000000
     3  H    0.000000  -0.000000   0.000000   0.000000  -0.000000   0.000000
     4  H    0.000000   0.000000   0.000000  -0.000000  -0.000000   0.000000
     5  C    0.000000   0.000000  -0.000000  -0.000000   0.000000  -0.000000
     6  C    0.000000   0.000000   0.000000   0.000000  -0.000000  -0.000000
     7  H   -0.000000   0.000000   0.000000   0.000000  -0.000000  -0.000000
     8  H    0.000000   0.000000  -0.000000  -0.000000  -0.000000  -0.000000
     9  C   -0.000000   0.000000  -0.000000  -0.000000  -0.000000   0.000000
    10  H   -0.000000   0.000000  -0.000000   0.000000  -0.000000  -0.000000
    11  H    0.000000  -0.000000   0.000000  -0.000000   0.000000  -0.000000
    12  C   -0.000000  -0.000000   0.000000   0.000000  -0.000000   0.000000
    13  H    0.000000   0.000000   0.000000   0.000000  -0.000000  -0.000000
    14  C    0.000000  -0.000000  -0.000000  -0.000000  -0.000000   0.000000
    15  H    0.000000  -0.000000   0.000000   0.000000  -0.000000   0.000000
    16  C   -0.000000   0.000000   0.000000   0.000000   0.000000  -0.000000
    17  H   -0.000000   0.000000  -0.000000  -0.000000   0.000000  -0.000000
    18  H   -0.000000  -0.000000   0.000000   0.000000  -0.000000  -0.000000
    19  C    0.000000   0.000000   0.000000   0.000000  -0.000000   0.000000
    20  H    0.000000   0.000000  -0.000000   0.000000  -0.000000  -0.000000
    21  C    0.000000  -0.000000  -0.000000  -0.000000   0.000000   0.000000
    22  H   -0.000000   0.000000  -0.000000  -0.000000  -0.000000  -0.000000
    23  C   -0.000000  -0.000000   0.000000  -0.000000  -0.000000  -0.000000
    24  H   -0.000000   0.000000  -0.000000  -0.000000   0.000000   0.000000
    25  H   -0.000000   0.000000   0.000000   0.000000   0.000000  -0.000000
    26  C    0.000000   0.000000  -0.000000  -0.000000   0.000000  -0.000000
    27  H   -0.000000   0.000000  -0.000000   0.000000   0.000000   0.000000
    28  H   -0.000000   0.000000   0.000000   0.000000  -0.000000   0.000000
               7          8          9         10         11         12
     1  C   -0.000000   0.000000  -0.000000  -0.000000   0.000000  -0.000000
     2  C    0.000000   0.000000   0.000000   0.000000  -0.000000  -0.000000
     3  H    0.000000  -0.000000  -0.000000  -0.000000   0.000000   0.000000
     4  H    0.000000  -0.000000  -0.000000   0.000000  -0.000000   0.000000
     5  C   -0.000000  -0.000000  -0.000000  -0.000000   0.000000  -0.000000
     6  C   -0.000000  -0.000000   0.000000  -0.000000  -0.000000   0.000000
     7  H    0.000000  -0.000000   0.000000  -0.000000   0.000000   0.000000
     8  H   -0.000000   0.000000   0.000000  -0.000000  -0.000000   0.000000
     9  C    0.000000   0.000000  -0.000001  -0.000000   0.000000   0.000000
    10  H   -0.000000  -0.000000  -0.000000   0.000000  -0.000000   0.000000
    11  H    0.000000  -0.000000   0.000000  -0.000000   0.000000  -0.000000
    12  C    0.000000   0.000000   0.000000   0.000000  -0.000000  -0.000000
    13  H    0.000000   0.000000   0.000000  -0.000000   0.000000   0.000000
    14  C   -0.000000  -0.000000   0.000000   0.000000   0.000000  -0.000000
    15  H    0.000000  -0.000000  -0.000000  -0.000000   0.000000   0.000000
    16  C   -0.000000   0.000000   0.000000  -0.000000  -0.000000   0.000000
    17  H   -0.000000  -0.000000   0.000000   0.000000  -0.000000   0.000000
    18  H    0.000000  -0.000000   0.000000  -0.000000  -0.000000  -0.000000
    19  C    0.000000   0.000000   0.000000  -0.000000  -0.000000  -0.000000
    20  H   -0.000000  -0.000000   0.000000  -0.000000   0.000000   0.000000
    21  C   -0.000000  -0.000000  -0.000000   0.000000   0.000000   0.000000
    22  H   -0.000000  -0.000000  -0.000000   0.000000  -0.000000   0.000000
    23  C   -0.000000   0.000000   0.000000  -0.000000   0.000000   0.000000
    24  H   -0.000000  -0.000000  -0.000000   0.000000  -0.000000  -0.000000
    25  H   -0.000000   0.000000   0.000000  -0.000000  -0.000000  -0.000000
    26  C    0.000000  -0.000000  -0.000000   0.000000   0.000000  -0.000000
    27  H   -0.000000   0.000000  -0.000000   0.000000   0.000000  -0.000000
    28  H    0.000000   0.000000   0.000000  -0.000000  -0.000000  -0.000000
              13         14         15         16         17         18
     1  C    0.000000   0.000000   0.000000  -0.000000  -0.000000  -0.000000
     2  C    0.000000  -0.000000  -0.000000   0.000000   0.000000  -0.000000
     3  H    0.000000  -0.000000   0.000000   0.000000  -0.000000   0.000000
     4  H    0.000000  -0.000000   0.000000   0.000000  -0.000000   0.000000
     5  C   -0.000000  -0.000000  -0.000000   0.000000   0.000000  -0.000000
     6  C   -0.000000   0.000000   0.000000  -0.000000  -0.000000  -0.000000
     7  H    0.000000  -0.000000   0.000000  -0.000000  -0.000000   0.000000
     8  H    0.000000  -0.000000  -0.000000   0.000000  -0.000000  -0.000000
     9  C    0.000000   0.000000  -0.000000   0.000000   0.000000   0.000000
    10  H   -0.000000   0.000000  -0.000000  -0.000000   0.000000  -0.000000
    11  H    0.000000   0.000000   0.000000  -0.000000  -0.000000  -0.000000
    12  C    0.000000  -0.000000   0.000000   0.000000   0.000000  -0.000000
    13  H   -0.000000  -0.000000   0.000000  -0.000000  -0.000000   0.000000
    14  C   -0.000000   0.000001  -0.000000  -0.000000   0.000000  -0.000000
    15  H    0.000000  -0.000000  -0.000000   0.000000  -0.000000   0.000000
    16  C   -0.000000  -0.000000   0.000000   0.000001  -0.000000  -0.000000
    17  H   -0.000000   0.000000  -0.000000  -0.000000  -0.000000   0.000000
    18  H    0.000000  -0.000000   0.000000  -0.000000   0.000000  -0.000000
    19  C    0.000000  -0.000000   0.000000  -0.000000   0.000000  -0.000000
    20  H    0.000000   0.000000  -0.000000  -0.000000  -0.000000   0.000000
    21  C   -0.000000   0.000000  -0.000000   0.000000   0.000000   0.000000
    22  H    0.000000  -0.000000  -0.000000   0.000000  -0.000000   0.000000
    23  C    0.000000   0.000000   0.000000   0.000000  -0.000000   0.000000
    24  H    0.000000  -0.000000  -0.000000   0.000000   0.000000  -0.000000
    25  H   -0.000000   0.000000   0.000000  -0.000000   0.000000  -0.000000
    26  C   -0.000000   0.000000  -0.000000   0.000000   0.000000   0.000000
    27  H   -0.000000   0.000000  -0.000000  -0.000000   0.000000  -0.000000
    28  H    0.000000   0.000000   0.000000  -0.000000   0.000000  -0.000000
              19         20         21         22         23         24
     1  C    0.000000   0.000000   0.000000  -0.000000  -0.000000  -0.000000
     2  C    0.000000   0.000000  -0.000000   0.000000  -0.000000   0.000000
[...]
     1  C   -0.000000   0.000000  -0.000000  -0.000000
     2  C    0.000000   0.000000   0.000000   0.000000
     3  H    0.000000  -0.000000  -0.000000   0.000000
     4  H    0.000000  -0.000000   0.000000   0.000000
     5  C    0.000000   0.000000   0.000000  -0.000000
     6  C   -0.000000  -0.000000   0.000000   0.000000
     7  H   -0.000000   0.000000  -0.000000   0.000000
     8  H    0.000000  -0.000000   0.000000   0.000000
     9  C    0.000000  -0.000000  -0.000000   0.000000
    10  H   -0.000000   0.000000   0.000000  -0.000000
    11  H   -0.000000   0.000000   0.000000  -0.000000
    12  C   -0.000000  -0.000000  -0.000000  -0.000000
    13  H   -0.000000  -0.000000  -0.000000   0.000000
    14  C    0.000000   0.000000   0.000000   0.000000
    15  H    0.000000  -0.000000  -0.000000   0.000000
    16  C   -0.000000   0.000000  -0.000000  -0.000000
    17  H    0.000000   0.000000   0.000000   0.000000
    18  H   -0.000000   0.000000  -0.000000  -0.000000
    19  C    0.000000  -0.000000  -0.000000  -0.000000
    20  H    0.000000   0.000000  -0.000000   0.000000
    21  C   -0.000000  -0.000000   0.000000  -0.000000
    22  H    0.000000   0.000000  -0.000000   0.000000
    23  C    0.000000  -0.000000  -0.000000  -0.000000
    24  H    0.000000   0.000000   0.000000   0.000000
    25  H   -0.000000   0.000000   0.000000  -0.000000
    26  C    0.000000  -0.000001   0.000000   0.000000
    27  H    0.000000   0.000000   0.000000  -0.000000
    28  H   -0.000000   0.000000  -0.000000   0.000000
 Mulliken charges and spin densities:
               1          2
     1  C   -0.209363  -0.000000
     2  C   -0.194748   0.000000
     3  H    0.141521   0.000000
     4  H    0.170247  -0.000000
     5  C   -0.153825   0.000000
     6  C   -0.194819  -0.000000
     7  H    0.153755   0.000000
     8  H    0.170217   0.000000
     9  C   -0.213345  -0.000001
    10  H    0.120028   0.000000
    11  H    0.142748   0.000000
    12  C   -0.167472  -0.000000
    13  H    0.144709  -0.000000
    14  C   -0.209449   0.000001
    15  H    0.141531  -0.000000
    16  C   -0.174466   0.000000
    17  H    0.114098  -0.000000
    18  H    0.126272  -0.000000
    19  C   -0.153979   0.000000
    20  H    0.153845  -0.000000
    21  C   -0.167596   0.000000
    22  H    0.144741   0.000000
    23  C   -0.213353   0.000001
    24  H    0.142780  -0.000000
    25  H    0.120030  -0.000000
    26  C   -0.174476  -0.000001
    27  H    0.126285   0.000000
    28  H    0.114083   0.000000
 Sum of Mulliken charges =  -0.00000   0.00000
 Mulliken charges and spin densities with hydrogens summed into heavy atoms:
               1          2
     1  C   -0.067842  -0.000000
     2  C   -0.024501  -0.000000
     5  C   -0.000070   0.000000
     6  C   -0.024601  -0.000000
     9  C    0.049431  -0.000000
    12  C   -0.022763  -0.000000
    14  C   -0.067918   0.000000
    16  C    0.065904   0.000000
    19  C   -0.000133   0.000000
    21  C   -0.022855   0.000000
    23  C    0.049457   0.000000
    26  C    0.065892  -0.000000
 Electronic spatial extent (au):  <R**2>=           2235.9162
 Charge=             -0.0000 electrons
 Dipole moment (field-independent basis, Debye):
    X=              0.0004    Y=             -0.0009    Z=             -0.0002  Tot=              0.0010
 Quadrupole moment (field-independent basis, Debye-Ang):
   XX=            -72.2271   YY=            -69.8691   ZZ=            -77.2421
   XY=             -3.3422   XZ=             -3.3922   YZ=             -1.6042
 Traceless Quadrupole moment (field-independent basis, Debye-Ang):
   XX=              0.8857   YY=              3.2437   ZZ=             -4.1293
   XY=             -3.3422   XZ=             -3.3922   YZ=             -1.6042
 Octapole moment (field-independent basis, Debye-Ang**2):
  XXX=              0.0123  YYY=             -0.0070  ZZZ=             -0.0003  XYY=             -0.0029
  XXY=             -0.0033  XXZ=             -0.0015  XZZ=              0.0004  YZZ=             -0.0001
  YYZ=             -0.0016  XYZ=              0.0001
 Hexadecapole moment (field-independent basis, Debye-Ang**3):
 XXXX=          -2054.9485 YYYY=           -628.4082 ZZZZ=           -360.0317 XXXY=           -105.1778
 XXXZ=           -128.3695 YYYX=            -60.0733 YYYZ=             -3.4244 ZZZX=            -77.6597
 ZZZY=            -13.9094 XXYY=           -445.4430 XXZZ=           -426.4360 YYZZ=           -180.0498
 XXYZ=            -21.7663 YYXZ=            -28.6259 ZZXY=            -43.7260
 N-N= 6.847511119544D+02 E-N=-2.451297647602D+03  KE= 4.642577120997D+02
                          Isotropic Fermi Contact Couplings
        Atom                 a.u.       MegaHertz       Gauss      10(-4) cm-1
     1  C(13)             -0.00000      -0.00002      -0.00001      -0.00001
     2  C(13)              0.00000       0.00000       0.00000       0.00000
     3  H(1)               0.00000       0.00004       0.00001       0.00001
     4  H(1)              -0.00000      -0.00003      -0.00001      -0.00001
     5  C(13)              0.00000       0.00003       0.00001       0.00001
     6  C(13)             -0.00000      -0.00003      -0.00001      -0.00001
     7  H(1)               0.00000       0.00003       0.00001       0.00001
     8  H(1)               0.00000       0.00004       0.00001       0.00001
     9  C(13)             -0.00000      -0.00026      -0.00009      -0.00009
    10  H(1)               0.00000       0.00018       0.00006       0.00006
    11  H(1)               0.00000       0.00020       0.00007       0.00007
    12  C(13)             -0.00000      -0.00005      -0.00002      -0.00002
    13  H(1)               0.00000       0.00001       0.00000       0.00000
    14  C(13)              0.00000       0.00004       0.00002       0.00001
    15  H(1)              -0.00000      -0.00005      -0.00002      -0.00002
    16  C(13)              0.00000       0.00014       0.00005       0.00005
    17  H(1)              -0.00000      -0.00005      -0.00002      -0.00002
    18  H(1)              -0.00000      -0.00002      -0.00001      -0.00001
    19  C(13)             -0.00000      -0.00001      -0.00000      -0.00000
    20  H(1)              -0.00000      -0.00004      -0.00001      -0.00001
    21  C(13)              0.00000       0.00003       0.00001       0.00001
    22  H(1)               0.00000       0.00000       0.00000       0.00000
    23  C(13)              0.00000       0.00027       0.00010       0.00009
    24  H(1)              -0.00000      -0.00020      -0.00007      -0.00007
    25  H(1)              -0.00000      -0.00019      -0.00007      -0.00006
    26  C(13)             -0.00000      -0.00015      -0.00005      -0.00005
    27  H(1)               0.00000       0.00003       0.00001       0.00001
    28  H(1)               0.00000       0.00007       0.00003       0.00002
 --------------------------------------------------------
       Center         ----  Spin Dipole Couplings  ----
                      3XX-RR        3YY-RR        3ZZ-RR
 --------------------------------------------------------
     1   Atom       -0.000000      0.000000      0.000000
     2   Atom        0.000000     -0.000000     -0.000000
     3   Atom        0.000000      0.000000     -0.000000
     4   Atom        0.000000     -0.000000     -0.000000
     5   Atom       -0.000000     -0.000000      0.000000
     6   Atom       -0.000000      0.000000     -0.000000
     7   Atom        0.000000     -0.000000      0.000000
     8   Atom       -0.000000      0.000000      0.000000
     9   Atom       -0.000000      0.000000     -0.000000
    10   Atom        0.000000      0.000000     -0.000000
    11   Atom        0.000000     -0.000000      0.000000
    12   Atom        0.000000      0.000000     -0.000000
    13   Atom        0.000000     -0.000000      0.000000
    14   Atom        0.000000     -0.000000      0.000000
    15   Atom        0.000000     -0.000000      0.000000
    16   Atom        0.000000     -0.000000      0.000000
    17   Atom       -0.000000     -0.000000      0.000000
    18   Atom        0.000000      0.000000     -0.000000
    19   Atom        0.000000      0.000000     -0.000000
    20   Atom       -0.000000      0.000000     -0.000000
    21   Atom       -0.000000     -0.000000      0.000000
    22   Atom       -0.000000      0.000000     -0.000000
    23   Atom        0.000000     -0.000000      0.000000
    24   Atom       -0.000000      0.000000     -0.000000
    25   Atom       -0.000000     -0.000000      0.000000
    26   Atom       -0.000000      0.000000     -0.000000
    27   Atom       -0.000000     -0.000000      0.000000
    28   Atom        0.000000      0.000000     -0.000000
 --------------------------------------------------------
                        XY            XZ            YZ
 --------------------------------------------------------
     1   Atom        0.000000     -0.000000      0.000000
     2   Atom        0.000000     -0.000000     -0.000000
     3   Atom       -0.000000      0.000000      0.000000
     4   Atom       -0.000000     -0.000000      0.000000
     5   Atom       -0.000000     -0.000000     -0.000000
     6   Atom       -0.000000     -0.000000      0.000000
     7   Atom        0.000000      0.000000     -0.000000
     8   Atom       -0.000000      0.000000     -0.000000
     9   Atom       -0.000000     -0.000000     -0.000000
    10   Atom        0.000000     -0.000000      0.000000
    11   Atom       -0.000000     -0.000000     -0.000000
    12   Atom       -0.000000     -0.000000     -0.000000
    13   Atom       -0.000000      0.000000      0.000000
    14   Atom       -0.000000      0.000000     -0.000000
    15   Atom        0.000000     -0.000000     -0.000000
    16   Atom       -0.000000     -0.000000      0.000000
    17   Atom        0.000000      0.000000      0.000000
    18   Atom       -0.000000      0.000000     -0.000000
    19   Atom        0.000000      0.000000      0.000000
    20   Atom       -0.000000     -0.000000      0.000000
    21   Atom        0.000000     -0.000000      0.000000
    22   Atom        0.000000     -0.000000      0.000000
    23   Atom        0.000000      0.000000      0.000000
    24   Atom        0.000000      0.000000      0.000000
    25   Atom       -0.000000      0.000000     -0.000000
    26   Atom        0.000000      0.000000     -0.000000
    27   Atom        0.000000     -0.000000      0.000000
    28   Atom       -0.000000     -0.000000     -0.000000
 --------------------------------------------------------


 ---------------------------------------------------------------------------------
              Anisotropic Spin Dipole Couplings in Principal Axis System
 ---------------------------------------------------------------------------------

       Atom             a.u.   MegaHertz   Gauss  10(-4) cm-1        Axes

              Baa    -0.0000    -0.000    -0.000    -0.000  0.8947 -0.2483  0.3713
     1 C(13)  Bbb     0.0000     0.000     0.000     0.000  0.4036  0.8057 -0.4336
              Bcc     0.0000     0.000     0.000     0.000 -0.1915  0.5378  0.8211
 
              Baa    -0.0000    -0.000    -0.000    -0.000 -0.0407  0.7736  0.6324
     2 C(13)  Bbb     0.0000     0.000     0.000     0.000  0.5846 -0.4948  0.6430
              Bcc     0.0000     0.000     0.000     0.000  0.8103  0.3958 -0.4321
 
              Baa    -0.0000    -0.000    -0.000    -0.000 -0.5059 -0.1854  0.8424
     3 H(1)   Bbb     0.0000     0.000     0.000     0.000 -0.5309  0.8367 -0.1347
              Bcc     0.0000     0.000     0.000     0.000  0.6799  0.5154  0.5217
 
              Baa    -0.0000    -0.000    -0.000    -0.000  0.2292 -0.4425  0.8670
     4 H(1)   Bbb    -0.0000    -0.000    -0.000    -0.000  0.1288  0.8967  0.4235
              Bcc     0.0000     0.000     0.000     0.000  0.9648 -0.0146 -0.2625
 
              Baa    -0.0000    -0.000    -0.000    -0.000  0.0565  0.9928  0.1060
     5 C(13)  Bbb    -0.0000    -0.000    -0.000    -0.000  0.9901 -0.0694  0.1221
              Bcc     0.0000     0.000     0.000     0.000 -0.1286 -0.0981  0.9868
 
              Baa    -0.0000    -0.000    -0.000    -0.000  0.4940 -0.0061  0.8695
     6 C(13)  Bbb     0.0000     0.000     0.000     0.000  0.8067  0.3762 -0.4557
              Bcc     0.0000     0.000     0.000     0.000 -0.3243  0.9265  0.1907
 
              Baa    -0.0000    -0.000    -0.000    -0.000 -0.4655  0.8107  0.3551
     7 H(1)   Bbb     0.0000     0.000     0.000     0.000  0.5775  0.5822 -0.5723
              Bcc     0.0000     0.000     0.000     0.000  0.6707  0.0613  0.7392
 
              Baa    -0.0000    -0.000    -0.000    -0.000  0.9253  0.0179 -0.3789
     8 H(1)   Bbb     0.0000     0.000     0.000     0.000  0.3676  0.2044  0.9073
              Bcc     0.0000     0.000     0.000     0.000 -0.0937  0.9787 -0.1825
 
              Baa    -0.0000    -0.000    -0.000    -0.000  0.6356  0.4083  0.6552
     9 C(13)  Bbb    -0.0000    -0.000    -0.000    -0.000 -0.5559 -0.3469  0.7554
              Bcc     0.0000     0.000     0.000     0.000 -0.5358  0.8444 -0.0065
 
              Baa    -0.0000    -0.000    -0.000    -0.000  0.4143 -0.1029  0.9043
    10 H(1)   Bbb     0.0000     0.000     0.000     0.000 -0.1758  0.9658  0.1905
              Bcc     0.0000     0.000     0.000     0.000  0.8930  0.2379 -0.3820
 
              Baa    -0.0000    -0.000    -0.000    -0.000  0.5283  0.8425  0.1054
    11 H(1)   Bbb     0.0000     0.000     0.000     0.000 -0.1673 -0.0184  0.9857
              Bcc     0.0000     0.000     0.000     0.000  0.8324 -0.5384  0.1313
 
              Baa    -0.0000    -0.000    -0.000    -0.000  0.0542  0.0902  0.9944
    12 C(13)  Bbb     0.0000     0.000     0.000     0.000  0.7996  0.5926 -0.0974
              Bcc     0.0000     0.000     0.000     0.000 -0.5981  0.8004 -0.0400
 
              Baa    -0.0000    -0.000    -0.000    -0.000  0.4994  0.8619 -0.0877
    13 H(1)   Bbb     0.0000     0.000     0.000     0.000  0.0585  0.0674  0.9960
              Bcc     0.0000     0.000     0.000     0.000  0.8644 -0.5025 -0.0168
 
              Baa    -0.0000    -0.000    -0.000    -0.000 -0.2009  0.8859  0.4182
    14 C(13)  Bbb    -0.0000    -0.000    -0.000    -0.000  0.6787  0.4337 -0.5927
              Bcc     0.0000     0.000     0.000     0.000  0.7064 -0.1648  0.6884
 
              Baa    -0.0000    -0.000    -0.000    -0.000 -0.0037  0.9771  0.2129
    15 H(1)   Bbb    -0.0000    -0.000    -0.000    -0.000  0.7792 -0.1306  0.6130
              Bcc     0.0000     0.000     0.000     0.000 -0.6267 -0.1681  0.7609
 
              Baa    -0.0000    -0.000    -0.000    -0.000  0.0665  0.9977  0.0104
    16 C(13)  Bbb    -0.0000    -0.000    -0.000    -0.000  0.7071 -0.0545  0.7051
              Bcc     0.0000     0.000     0.000     0.000 -0.7040  0.0395  0.7091
 
              Baa    -0.0000    -0.000    -0.000    -0.000 -0.4898  0.8516 -0.1865
    17 H(1)   Bbb    -0.0000    -0.000    -0.000    -0.000  0.7924  0.3457 -0.5026
              Bcc     0.0000     0.000     0.000     0.000  0.3635  0.3940  0.8442
 
              Baa    -0.0000    -0.000    -0.000    -0.000  0.5152  0.7192  0.4661
    18 H(1)   Bbb    -0.0000    -0.000    -0.000    -0.000 -0.5604 -0.1288  0.8181
              Bcc     0.0000     0.000     0.000     0.000 -0.6485  0.6827 -0.3367
 
              Baa    -0.0000    -0.000    -0.000    -0.000 -0.6086 -0.2323  0.7587
    19 C(13)  Bbb     0.0000     0.000     0.000     0.000 -0.4818  0.8679 -0.1207
              Bcc     0.0000     0.000     0.000     0.000  0.6304  0.4390  0.6402
 
              Baa    -0.0000    -0.000    -0.000    -0.000  0.7625  0.6062 -0.2263
    20 H(1)   Bbb    -0.0000    -0.000    -0.000    -0.000  0.3536 -0.0975  0.9303
              Bcc     0.0000     0.000     0.000     0.000 -0.5418  0.7893  0.2887
 
              Baa    -0.0000    -0.000    -0.000    -0.000  0.8066 -0.4516  0.3813
    21 C(13)  Bbb    -0.0000    -0.000    -0.000    -0.000  0.4711  0.8808  0.0465
              Bcc     0.0000     0.000     0.000     0.000 -0.3569  0.1421  0.9233
 
              Baa    -0.0000    -0.000    -0.000    -0.000  0.7092 -0.4210  0.5656
    22 H(1)   Bbb     0.0000     0.000     0.000     0.000 -0.4915  0.2800  0.8247
              Bcc     0.0000     0.000     0.000     0.000  0.5055  0.8628  0.0084
 
              Baa    -0.0000    -0.000    -0.000    -0.000 -0.5382  0.8427 -0.0165
    23 C(13)  Bbb     0.0000     0.000     0.000     0.000 -0.5261 -0.3206  0.7876
              Bcc     0.0000     0.000     0.000     0.000  0.6584  0.4326  0.6159
 
              Baa    -0.0000    -0.000    -0.000    -0.000  0.8131 -0.5596  0.1602
    24 H(1)   Bbb    -0.0000    -0.000    -0.000    -0.000 -0.1925  0.0012  0.9813
              Bcc     0.0000     0.000     0.000     0.000  0.5493  0.8288  0.1068
 
              Baa    -0.0000    -0.000    -0.000    -0.000  0.7281 -0.5717 -0.3782
    25 H(1)   Bbb    -0.0000    -0.000    -0.000    -0.000  0.5566  0.8151 -0.1607
              Bcc     0.0000     0.000     0.000     0.000  0.4001 -0.0935  0.9117
 
              Baa    -0.0000    -0.000    -0.000    -0.000  0.7073 -0.0442 -0.7055
    26 C(13)  Bbb     0.0000     0.000     0.000     0.000  0.7031 -0.0588  0.7086
              Bcc     0.0000     0.000     0.000     0.000  0.0727  0.9973  0.0105
 
              Baa    -0.0000    -0.000    -0.000    -0.000  0.6875 -0.6487  0.3262
    27 H(1)   Bbb     0.0000     0.000     0.000     0.000 -0.4739 -0.0604  0.8785
              Bcc     0.0000     0.000     0.000     0.000  0.5502  0.7586  0.3490
 
              Baa    -0.0000    -0.000    -0.000    -0.000  0.3404  0.3639  0.8670
    28 H(1)   Bbb     0.0000     0.000     0.000     0.000  0.9347 -0.0306 -0.3541
              Bcc     0.0000     0.000     0.000     0.000 -0.1023  0.9309 -0.3506
 

 ---------------------------------------------------------------------------------

 No NMR shielding tensors so no spin-rotation constants.
 Leave Link  601 at Mon Aug  3 15:26:44 2020, MaxMem=  6442450944 cpu:               7.9 elap:               0.4
 (Enter /scratch/scicomp/CentOS/7.3.1611/Haswell/software/Gaussian/g16/l9999.exe)
 1\1\GINC-ATLAS-205\SP\UwB97XD\def2TZVP\C12H16\BOCHEN\03-Aug-2020\0\\#p
  uwb97xd guess=mix def2tzvp # scrf=(iefpcm,solvent=Cyclohexane,read) n
 osym 6d 10f\\endo-2 xp-pcm for eta=3\\0,1\C,0,-3.123533,-0.438909,0.24
 9907\C,0,-0.634623,-0.226767,-1.083823\H,0,-4.085324,-0.54607,0.738063
 \H,0,0.336814,-0.133008,-1.549979\C,0,1.109786,1.41431,0.718484\C,0,0.
 634623,0.226767,1.083823\H,0,0.519777,2.312927,0.848046\H,0,-0.336814,
 0.133008,1.549979\C,0,1.495934,-1.001134,1.028869\H,0,1.973156,-1.0818
 56,2.013692\H,0,0.887322,-1.896884,0.916876\C,0,2.431004,1.520477,0.10
 6878\H,0,2.838163,2.50784,-0.075868\C,0,3.123533,0.438909,-0.249907\H,
 0,4.085324,0.54607,-0.738063\C,0,2.588421,-0.951995,-0.044511\H,0,2.21
 6156,-1.333084,-1.003507\H,0,3.400666,-1.624754,0.238421\C,0,-1.109786
 ,-1.41431,-0.718484\H,0,-0.519777,-2.312927,-0.848046\C,0,-2.431004,-1
 .520477,-0.106878\H,0,-2.838163,-2.50784,0.075868\C,0,-1.495934,1.0011
 34,-1.028869\H,0,-0.887321,1.896884,-0.916876\H,0,-1.973156,1.081856,-
 2.013692\C,0,-2.588421,0.951995,0.044511\H,0,-3.400666,1.624754,-0.238
 421\H,0,-2.216156,1.333084,1.003507\\Version=ES64L-G16RevB.01\HF=-466.
 8466645\S2=0.\S2-1=0.\S2A=0.\RMSD=4.710e-09\Dipole=0.0001756,-0.000356
 2,-0.0000866\Quadrupole=0.658466,2.4115983,-3.0700644,-2.484859,-2.522
 0078,-1.1926629\PG=CI [X(C12H16)]\\@


 HE THAT RISETH LATE MUST TROT ALL DAY.

                  -- BENJAMIN FRANKLIN
 Job cpu time:       0 days  2 hours  8 minutes 50.1 seconds.
 Elapsed time:       0 days  0 hours  5 minutes 25.3 seconds.
 File lengths (MBytes):  RWF=    628 Int=      0 D2E=      0 Chk=     23 Scr=      1
 Normal termination of Gaussian 16 at Mon Aug  3 15:26:44 2020.
