 Entering Gaussian System, Link 0=g16
 Input=meso-TS_1_1_xp-Ger.com
 Output=meso-TS_1_1_xp-Ger.log
 Initial command:
 /scratch/scicomp/CentOS/7.3.1611/Haswell/software/Gaussian/g16/l1.exe "/scratch/bochen/cyclohexadiene-dimerization/wb97xd-def2tzvp/xp-pcm/meso/Gau-425261.inp" -scrdir="/scratch/bochen/cyclohexadiene-dimerization/wb97xd-def2tzvp/xp-pcm/meso/"
 Entering Link 1 = /scratch/scicomp/CentOS/7.3.1611/Haswell/software/Gaussian/g16/l1.exe PID=    425263.
  
 Copyright (c) 1988-2017, Gaussian, Inc.  All Rights Reserved.
  
 This is part of the Gaussian(R) 16 program.  It is based on
 the Gaussian(R) 09 system (copyright 2009, Gaussian, Inc.),
 the Gaussian(R) 03 system (copyright 2003, Gaussian, Inc.),
 the Gaussian(R) 98 system (copyright 1998, Gaussian, Inc.),
 the Gaussian(R) 94 system (copyright 1995, Gaussian, Inc.),
 the Gaussian 92(TM) system (copyright 1992, Gaussian, Inc.),
 the Gaussian 90(TM) system (copyright 1990, Gaussian, Inc.),
 the Gaussian 88(TM) system (copyright 1988, Gaussian, Inc.),
 the Gaussian 86(TM) system (copyright 1986, Carnegie Mellon
 University), and the Gaussian 82(TM) system (copyright 1983,
 Carnegie Mellon University). Gaussian is a federally registered
 trademark of Gaussian, Inc.
  
 This software contains proprietary and confidential information,
 including trade secrets, belonging to Gaussian, Inc.
  
 This software is provided under written license and may be
 used, copied, transmitted, or stored only in accord with that
 written license.
  
 The following legend is applicable only to US Government
 contracts under FAR:
  
                    RESTRICTED RIGHTS LEGEND
  
 Use, reproduction and disclosure by the US Government is
 subject to restrictions as set forth in subparagraphs (a)
 and (c) of the Commercial Computer Software - Restricted
 Rights clause in FAR 52.227-19.
  
 Gaussian, Inc.
 340 Quinnipiac St., Bldg. 40, Wallingford CT 06492
  
  
 ---------------------------------------------------------------
 Warning -- This program may not be used in any manner that
 competes with the business of Gaussian, Inc. or will provide
 assistance to any competitor of Gaussian, Inc.  The licensee
 of this program is prohibited from giving any competitor of
 Gaussian, Inc. access to this program.  By using this program,
 the user acknowledges that Gaussian, Inc. is engaged in the
 business of creating and licensing software in the field of
 computational chemistry and represents and warrants to the
 licensee that it is not a competitor of Gaussian, Inc. and that
 it will not use this program in any manner prohibited above.
 ---------------------------------------------------------------
  

 Cite this work as:
 Gaussian 16, Revision B.01,
 M. J. Frisch, G. W. Trucks, H. B. Schlegel, G. E. Scuseria, 
 M. A. Robb, J. R. Cheeseman, G. Scalmani, V. Barone, 
 G. A. Petersson, H. Nakatsuji, X. Li, M. Caricato, A. V. Marenich, 
 J. Bloino, B. G. Janesko, R. Gomperts, B. Mennucci, H. P. Hratchian, 
 J. V. Ortiz, A. F. Izmaylov, J. L. Sonnenberg, D. Williams-Young, 
 F. Ding, F. Lipparini, F. Egidi, J. Goings, B. Peng, A. Petrone, 
 T. Henderson, D. Ranasinghe, V. G. Zakrzewski, J. Gao, N. Rega, 
 G. Zheng, W. Liang, M. Hada, M. Ehara, K. Toyota, R. Fukuda, 
 J. Hasegawa, M. Ishida, T. Nakajima, Y. Honda, O. Kitao, H. Nakai, 
 T. Vreven, K. Throssell, J. A. Montgomery, Jr., J. E. Peralta, 
 F. Ogliaro, M. J. Bearpark, J. J. Heyd, E. N. Brothers, K. N. Kudin, 
 V. N. Staroverov, T. A. Keith, R. Kobayashi, J. Normand, 
 K. Raghavachari, A. P. Rendell, J. C. Burant, S. S. Iyengar, 
 J. Tomasi, M. Cossi, J. M. Millam, M. Klene, C. Adamo, R. Cammi, 
 J. W. Ochterski, R. L. Martin, K. Morokuma, O. Farkas, 
 J. B. Foresman, and D. J. Fox, Gaussian, Inc., Wallingford CT, 2016.
 
 ******************************************
 Gaussian 16:  ES64L-G16RevB.01 20-Dec-2017
                 4-Aug-2020 
 ******************************************
 %chk=meso-TS_1_1_xp-12.chk
 %nproc=24
 Will use up to   24 processors via shared memory.
 %mem=48GB
 ----------------------------------------------------------------------
 #p uwb97xd guess=mix def2tzvp # scrf=(iefpcm,solvent=Cyclohexane,read)
  nosym 6d 10f
 ----------------------------------------------------------------------
 1/38=1,40=2,172=1/1;
 2/12=2,15=1,17=6,18=5,40=1/2;
 3/5=44,7=101,8=22,11=2,25=1,30=1,70=2203,72=17,74=-58,116=2/1,2,3;
 4/13=-1/1;
 5/5=2,38=5,53=17/2;
 6/7=2,8=2,9=2,10=2,28=1/1;
 99/5=1,9=1/99;
 Leave Link    1 at Tue Aug  4 15:08:03 2020, MaxMem=  6442450944 cpu:               3.9 elap:               0.2
 (Enter /scratch/scicomp/CentOS/7.3.1611/Haswell/software/Gaussian/g16/l101.exe)
 -----------------------
 endo-2 xp-pcm for eta=3
 -----------------------
 Symbolic Z-matrix:
 Charge =  0 Multiplicity = 1
 6                    -3.11898  -0.43168   0.24743 
 6                    -0.49895  -0.16098  -0.84214 
 1                    -4.084    -0.54881   0.72591 
 1                     0.35397  -0.11571  -1.51151 
 6                     1.10474   1.4191    0.68091 
 6                     0.49895   0.16098   0.84214 
 1                     0.54438   2.32227   0.8864 
 1                    -0.35397   0.11571   1.51151 
 6                     1.46262  -0.99982   0.98748 
 1                     1.89872  -0.93738   1.99035 
 1                     0.92962  -1.94975   0.93618 
 6                     2.40637   1.52255   0.1181 
 1                     2.82445   2.50923  -0.04555 
 6                     3.11898   0.43168  -0.24743 
 1                     4.084     0.54881  -0.72591 
 6                     2.59228  -0.95858  -0.04339 
 1                     2.24858  -1.35702  -1.00651 
 1                     3.40124  -1.62253   0.271 
 6                    -1.10474  -1.4191   -0.68091 
 1                    -0.54438  -2.32227  -0.8864 
 6                    -2.40637  -1.52255  -0.1181 
 1                    -2.82445  -2.50923   0.04555 
 6                    -1.46262   0.99982  -0.98748 
 1                    -0.92962   1.94975  -0.93618 
 1                    -1.89872   0.93738  -1.99035 
 6                    -2.59228   0.95858   0.04339 
 1                    -3.40124   1.62253  -0.271 
 1                    -2.24858   1.35702   1.00651 
 
 ITRead=  0  0  0  0  0  0  0  0  0  0  0  0  0  0  0  0  0  0  0  0
 ITRead=  0  0  0  0  0  0  0  0
 MicOpt= -1 -1 -1 -1 -1 -1 -1 -1 -1 -1 -1 -1 -1 -1 -1 -1 -1 -1 -1 -1
 MicOpt= -1 -1 -1 -1 -1 -1 -1 -1
 NAtoms=     28 NQM=       28 NQMF=       0 NMMI=      0 NMMIF=      0
                NMic=       0 NMicF=      0.
                    Isotopes and Nuclear Properties:
 (Nuclear quadrupole moments (NQMom) in fm**2, nuclear magnetic moments (NMagM)
  in nuclear magnetons)

  Atom         1           2           3           4           5           6           7           8           9          10
 IAtWgt=          12          12           1           1          12          12           1           1          12           1
 AtmWgt=  12.0000000  12.0000000   1.0078250   1.0078250  12.0000000  12.0000000   1.0078250   1.0078250  12.0000000   1.0078250
 NucSpn=           0           0           1           1           0           0           1           1           0           1
 AtZEff=  -0.0000000  -0.0000000  -0.0000000  -0.0000000  -0.0000000  -0.0000000  -0.0000000  -0.0000000  -0.0000000  -0.0000000
 NQMom=    0.0000000   0.0000000   0.0000000   0.0000000   0.0000000   0.0000000   0.0000000   0.0000000   0.0000000   0.0000000
 NMagM=    0.0000000   0.0000000   2.7928460   2.7928460   0.0000000   0.0000000   2.7928460   2.7928460   0.0000000   2.7928460
 AtZNuc=   6.0000000   6.0000000   1.0000000   1.0000000   6.0000000   6.0000000   1.0000000   1.0000000   6.0000000   1.0000000

  Atom        11          12          13          14          15          16          17          18          19          20
 IAtWgt=           1          12           1          12           1          12           1           1          12           1
 AtmWgt=   1.0078250  12.0000000   1.0078250  12.0000000   1.0078250  12.0000000   1.0078250   1.0078250  12.0000000   1.0078250
 NucSpn=           1           0           1           0           1           0           1           1           0           1
 AtZEff=  -0.0000000  -0.0000000  -0.0000000  -0.0000000  -0.0000000  -0.0000000  -0.0000000  -0.0000000  -0.0000000  -0.0000000
 NQMom=    0.0000000   0.0000000   0.0000000   0.0000000   0.0000000   0.0000000   0.0000000   0.0000000   0.0000000   0.0000000
 NMagM=    2.7928460   0.0000000   2.7928460   0.0000000   2.7928460   0.0000000   2.7928460   2.7928460   0.0000000   2.7928460
 AtZNuc=   1.0000000   6.0000000   1.0000000   6.0000000   1.0000000   6.0000000   1.0000000   1.0000000   6.0000000   1.0000000

  Atom        21          22          23          24          25          26          27          28
 IAtWgt=          12           1          12           1           1          12           1           1
 AtmWgt=  12.0000000   1.0078250  12.0000000   1.0078250   1.0078250  12.0000000   1.0078250   1.0078250
 NucSpn=           0           1           0           1           1           0           1           1
 AtZEff=  -0.0000000  -0.0000000  -0.0000000  -0.0000000  -0.0000000  -0.0000000  -0.0000000  -0.0000000
 NQMom=    0.0000000   0.0000000   0.0000000   0.0000000   0.0000000   0.0000000   0.0000000   0.0000000
 NMagM=    0.0000000   2.7928460   0.0000000   2.7928460   2.7928460   0.0000000   2.7928460   2.7928460
 AtZNuc=   6.0000000   1.0000000   6.0000000   1.0000000   1.0000000   6.0000000   1.0000000   1.0000000
 Leave Link  101 at Tue Aug  4 15:08:03 2020, MaxMem=  6442450944 cpu:               3.0 elap:               0.2
 (Enter /scratch/scicomp/CentOS/7.3.1611/Haswell/software/Gaussian/g16/l202.exe)
                          Input orientation:                          
 ---------------------------------------------------------------------
 Center     Atomic      Atomic             Coordinates (Angstroms)
 Number     Number       Type             X           Y           Z
 ---------------------------------------------------------------------
      1          6           0       -3.118978   -0.431679    0.247428
      2          6           0       -0.498946   -0.160979   -0.842137
      3          1           0       -4.084002   -0.548806    0.725908
      4          1           0        0.353974   -0.115713   -1.511513
      5          6           0        1.104740    1.419096    0.680914
      6          6           0        0.498946    0.160979    0.842137
      7          1           0        0.544380    2.322265    0.886395
      8          1           0       -0.353974    0.115713    1.511513
      9          6           0        1.462618   -0.999815    0.987483
     10          1           0        1.898715   -0.937376    1.990350
     11          1           0        0.929624   -1.949747    0.936184
     12          6           0        2.406372    1.522548    0.118104
     13          1           0        2.824451    2.509227   -0.045547
     14          6           0        3.118978    0.431679   -0.247428
     15          1           0        4.084002    0.548806   -0.725908
     16          6           0        2.592276   -0.958579   -0.043389
     17          1           0        2.248579   -1.357021   -1.006512
     18          1           0        3.401237   -1.622533    0.271000
     19          6           0       -1.104740   -1.419096   -0.680914
     20          1           0       -0.544380   -2.322265   -0.886395
     21          6           0       -2.406372   -1.522548   -0.118104
     22          1           0       -2.824451   -2.509227    0.045547
     23          6           0       -1.462618    0.999815   -0.987483
     24          1           0       -0.929624    1.949747   -0.936184
     25          1           0       -1.898715    0.937376   -1.990350
     26          6           0       -2.592276    0.958579    0.043389
     27          1           0       -3.401236    1.622533   -0.271000
     28          1           0       -2.248578    1.357021    1.006512
 ---------------------------------------------------------------------
                    Distance matrix (angstroms):
                    1          2          3          4          5
     1  C    0.000000
     2  C    2.850438   0.000000
     3  H    1.083482   3.932150   0.000000
     4  H    3.905778   1.085166   4.988913   0.000000
     5  C    4.631746   2.718112   5.549568   2.779573   0.000000
     6  C    3.714067   1.983992   4.639043   2.374288   1.405645
     7  H    4.627384   3.200446   5.448920   3.424902   1.082562
     8  H    3.089142   2.374288   3.869350   3.113428   2.125217
     9  C    4.675626   2.810496   5.571070   2.873275   2.464385
    10  H    5.335799   3.791379   6.127210   3.914639   2.810334
    11  H    4.378367   2.898781   5.209923   3.112278   3.383036
    12  C    5.862186   3.492449   6.839948   3.090613   1.421866
    13  H    6.637704   4.336995   7.594303   3.891352   2.161837
    14  C    6.316832   3.714067   7.334279   3.089142   2.427749
    15  H    7.334279   4.639043   8.368322   3.869350   3.407720
    16  C    5.742876   3.290869   6.732935   2.806387   2.896673
    17  H    5.589212   3.001071   6.614837   2.320646   3.444213
    18  H    6.628114   4.311223   7.575529   3.838446   3.833202
    19  C    2.427749   1.405645   3.407720   2.125217   3.845999
    20  H    3.389458   2.162216   4.274763   2.463064   4.378794
    21  C    1.353298   2.452829   2.115413   3.397099   4.649689
    22  H    2.108010   3.422021   2.427470   4.272673   5.592312
    23  C    2.513505   1.515662   3.493650   2.195226   3.090416
    24  H    3.444619   2.156268   4.353782   2.498950   2.652401
    25  H    2.893269   2.117576   3.789759   2.532368   4.048265
    26  C    1.500621   2.533692   2.227844   3.500316   3.779741
    27  H    2.137340   3.454041   2.484896   4.319951   4.609918
    28  H    2.129144   2.963619   2.660770   3.909306   3.369660
                    6          7          8          9         10
     6  C    0.000000
     7  H    2.162216   0.000000
     8  H    1.085166   2.463064   0.000000
     9  C    1.515662   3.448129   2.195226   0.000000
    10  H    2.117576   3.698405   2.532368   1.095364   0.000000
    11  H    2.156268   4.289636   2.498950   1.090452   1.753653
    12  C    2.452829   2.167218   3.397099   2.829983   3.132770
    13  H    3.422021   2.470262   4.272673   3.903219   4.108642
    14  C    2.850438   3.389458   3.905778   2.513505   2.893269
    15  H    3.932150   4.274763   4.988913   3.493650   3.789759
    16  C    2.533692   3.977727   3.500316   1.529877   2.148853
    17  H    2.963620   4.474878   3.909307   2.172866   3.046258
    18  H    3.454042   4.909356   4.319952   2.158557   2.383941
    19  C    2.718112   4.378794   2.779573   3.090416   4.048265
    20  H    3.200446   5.089189   3.424902   3.047677   4.020235
    21  C    3.492449   4.949600   3.090613   4.057666   4.829263
    22  H    4.336995   5.949736   3.891352   4.641608   5.344275
    23  C    2.810496   3.047677   2.873275   4.056602   4.890681
    24  H    2.898781   2.373447   3.112278   4.257139   4.989948
    25  H    3.791379   4.020235   3.914639   4.890681   5.812155
    26  C    3.290869   3.522628   2.806387   4.600955   5.249219
    27  H    4.311222   4.170980   3.838446   5.667236   6.305261
    28  H    3.001070   2.957489   2.320646   4.396364   4.840685
                   11         12         13         14         15
    11  H    0.000000
    12  C    3.860942   0.000000
    13  H    4.943340   1.084024   0.000000
    14  C    3.444619   1.353298   2.108010   0.000000
    15  H    4.353782   2.115413   2.427470   1.083482   0.000000
    16  C    2.169421   2.493317   3.475570   1.500621   2.227844
    17  H    2.421783   3.095412   4.025290   2.129143   2.660769
    18  H    2.580389   3.302222   4.183817   2.137341   2.484896
    19  C    2.652401   4.649689   5.592312   4.631746   5.549568
    20  H    2.373447   4.949600   5.949736   4.627384   5.448920
    21  C    3.524612   5.700080   6.604694   5.862186   6.839948
    22  H    3.898632   6.604694   7.556671   6.637704   7.594303
    23  C    4.257139   4.057666   4.641608   4.675626   5.571070
    24  H    4.708356   3.524612   3.898632   4.378367   5.209923
    25  H    4.989948   4.829263   5.344275   5.335799   6.127210
    26  C    4.653947   5.030917   5.635011   5.742876   6.732935
    27  H    5.742371   5.821487   6.292554   6.628113   7.575528
    28  H    4.587006   4.741859   5.307545   5.589211   6.614836
                   16         17         18         19         20
    16  C    0.000000
    17  H    1.097492   0.000000
    18  H    1.092746   1.741021   0.000000
    19  C    3.779741   3.369661   4.609919   0.000000
    20  H    3.522628   2.957489   4.170981   1.082562   0.000000
    21  C    5.030917   4.741860   5.821488   1.421866   2.167218
    22  H    5.635011   5.307546   6.292555   2.161837   2.470262
    23  C    4.600955   4.396365   5.667237   2.464385   3.448129
    24  H    4.653947   4.587007   5.742372   3.383036   4.289636
    25  H    5.249219   4.840686   6.305262   2.810334   3.698405
    26  C    5.528346   5.467922   6.529636   2.896673   3.977727
    27  H    6.529635   6.429551   7.556312   3.833201   4.909355
    28  H    5.467921   5.625185   6.429551   3.444212   4.474878
                   21         22         23         24         25
    21  C    0.000000
    22  H    1.084024   0.000000
    23  C    2.829983   3.903219   0.000000
    24  H    3.860942   4.943340   1.090452   0.000000
    25  H    3.132770   4.108642   1.095364   1.753653   0.000000
    26  C    2.493317   3.475570   1.529877   2.169421   2.148853
    27  H    3.302221   4.183817   2.158556   2.580388   2.383941
    28  H    3.095412   4.025290   2.172866   2.421783   3.046258
                   26         27         28
    26  C    0.000000
    27  H    1.092745   0.000000
    28  H    1.097493   1.741021   0.000000
 Symmetry turned off by external request.
 Stoichiometry    C12H16
 Framework group  CI[X(C12H16)]
 Deg. of freedom    39
 Full point group                 CI      NOp   2
 Rotational constants (GHZ):           1.9483341           0.6370922           0.5524173
 Leave Link  202 at Tue Aug  4 15:08:03 2020, MaxMem=  6442450944 cpu:               0.3 elap:               0.0
 (Enter /scratch/scicomp/CentOS/7.3.1611/Haswell/software/Gaussian/g16/l301.exe)
 Standard basis: def2TZVP (6D, 10F)
 Ernie: Thresh=  0.10000D-02 Tol=  0.10000D-05 Strict=F.
   528 basis functions,   740 primitive gaussians,   528 cartesian basis functions
    44 alpha electrons       44 beta electrons
       nuclear repulsion energy       691.7104163567 Hartrees.
 IExCor= 4639 DFT=T Ex+Corr=wB97XD ExCW=0 ScaHFX=  1.000000
 ScaDFX=  1.000000  1.000000  1.000000  1.000000 ScalE2=  1.000000  1.000000
 IRadAn=      5 IRanWt=     -1 IRanGd=            0 ICorTp=0 IEmpDi=121
 HFx  wShort=  0.000000 wLong=  0.200000 cFull=  0.222036 cShort=  0.000000 cLong=  0.777964
 DFx  wShort=  0.000000 wLong=  0.200000 cFull=  0.000000 cShort=  0.000000 cLong=  1.000000
 NAtoms=   28 NActive=   28 NUniq=   28 SFac= 1.00D+00 NAtFMM=   60 NAOKFM=F Big=F
 Integral buffers will be    131072 words long.
 Raffenetti 2 integral format.
 Two-electron integral symmetry is turned off.
 R6Disp:  Grimme-D2 Dispersion energy=       -0.0229094515 Hartrees.
 Nuclear repulsion after empirical dispersion term =      691.6875069052 Hartrees.
 Using the following non-standard input for PCM:
 qrep pcmdoc geomview  nodis nocav g03defaults tsare=0.075
 Warning! Using old PCM defaults because the g03defaults keyword was found.
 These settings can be overridden by following keywords.
 nsfe=28
 NVESolv=36  SolvMW=84.1595   Rsolv=2.815
 eps=2.0165 RhoS=0.778099999999998
 --- end of non-standard input.
 Reading user-defined spheres from input:
 ISph  on   Nord    Re0     Alpha      Xe            Ye            Ze
 --- end of user-defined spheres data.
 ------------------------------------------------------------------------------
 Polarizable Continuum Model (PCM)
 =================================
 Model                : PCM.
 Atomic radii         : UA0 (Simple United Atom Topological Model).
 Polarization charges : Total charges.
 Charge compensation  : None.
 Solution method      : On-the-fly selection.
 Cavity type          : SES (Solvent Excluding Surface) (Alpha=1.000).
 Cavity algorithm     : GePol (RMin=0.200 OFac=0.890).
                        User-defined sphere list used, NSphG=   28.
                        Tesserae with average area of 0.075 Ang**2.
                        Smoothing algorithm: None.
                        Polarization charges: point-like.
                        Self-potential: constant (ISelfS= 1).
                        Self-field    : global E.n sum rule (ISelfD= 3).
 Solvent              : CycloHexane, Eps=   2.016500 Eps(inf)=   2.035188
                        RSolv=   2.815000 Ang.
 ------------------------------------------------------------------------------
 GePol: Number of generator spheres                  =      28
 GePol: Total number of spheres                      =     171
 GePol: Number of exposed spheres                    =     124 ( 72.51%)
 GePol: Number of tesserae                           =    4592
 GePol: Average area of tesserae                     =       0.05 Ang**2
 GePol: Minimum area of tessera                      =   0.10D-02 Ang**2
 GePol: Maximum area of tessera                      =    0.12623 Ang**2
 GePol: Number of small tesserae                     =       0
 GePol: Fraction of small tesserae (<1% of avg)      =       0.00%
 GePol: Total count of vertices                      =   16222
 GePol: Maximum number of vertices in a tessera      =       7
 GePol: Cavity surface area                          =    218.815 Ang**2
 GePol: Cavity volume                                =    245.981 Ang**3
 Leave Link  301 at Tue Aug  4 15:08:04 2020, MaxMem=  6442450944 cpu:               9.6 elap:               0.4
 (Enter /scratch/scicomp/CentOS/7.3.1611/Haswell/software/Gaussian/g16/l302.exe)
 NPDir=0 NMtPBC=     1 NCelOv=     1 NCel=       1 NClECP=     1 NCelD=      1
         NCelK=      1 NCelE2=     1 NClLst=     1 CellRange=     0.0.
 One-electron integrals computed using PRISM.
   1 Symmetry operations used in ECPInt.
 ECPInt:  NShTT=   19306 NPrTT=   56928 LenC2=   18528 LenP2D=   42284.
 LDataN:  DoStor=T MaxTD1= 6 Len=  172
 NBasis=   528 RedAO= T EigKep=  2.54D-05  NBF=   528
 NBsUse=   528 1.00D-06 EigRej= -1.00D+00 NBFU=   528
 Precomputing XC quadrature grid using
 IXCGrd= 4 IRadAn=           5 IRanWt=          -1 IRanGd=           0 AccXCQ= 0.00D+00.
 Generated NRdTot=       0 NPtTot=           0 NUsed=           0 NTot=          32
 NSgBfM=   526   526   526   526   526 MxSgAt=    28 MxSgA2=    28.
 Leave Link  302 at Tue Aug  4 15:08:05 2020, MaxMem=  6442450944 cpu:              12.8 elap:               0.6
 (Enter /scratch/scicomp/CentOS/7.3.1611/Haswell/software/Gaussian/g16/l303.exe)
 DipDrv:  MaxL=1.
 Leave Link  303 at Tue Aug  4 15:08:05 2020, MaxMem=  6442450944 cpu:               1.5 elap:               0.1
 (Enter /scratch/scicomp/CentOS/7.3.1611/Haswell/software/Gaussian/g16/l401.exe)
 ExpMin= 9.52D-02 ExpMax= 1.36D+04 ExpMxC= 4.63D+02 IAcc=3 IRadAn=         5 AccDes= 0.00D+00
 Harris functional with IExCor= 4639 and IRadAn=       5 diagonalized for initial guess.
 HarFok:  IExCor= 4639 AccDes= 0.00D+00 IRadAn=         5 IDoV= 1 UseB2=F ITyADJ=14
 ICtDFT=  3500011 ScaDFX=  1.000000  1.000000  1.000000  1.000000
 FoFCou: FMM=F IPFlag=           0 FMFlag=      100000 FMFlg1=           0
         NFxFlg=           0 DoJE=T BraDBF=F KetDBF=T FulRan=T
         wScrn=  0.000000 ICntrl=       500 IOpCl=  0 I1Cent=   200000004 NGrid=           0
         NMat0=    1 NMatS0=      1 NMatT0=    0 NMatD0=    1 NMtDS0=    0 NMtDT0=    0
 Symmetry not used in FoFCou.
 Harris En= -444.617716314247    
 JPrj=0 DoOrth=F DoCkMO=T.
 Mixing orbitals, IMix= 1 IMixAn=  0 NRI=1 NE=   44 Coef=  7.07106781D-01  7.07106781D-01
 Mixing orbitals, IMix= 1 IMixAn=  0 NRI=1 NE=   44 Coef= -7.07106781D-01  7.07106781D-01
 Initial guess <Sx>= 0.0000 <Sy>= 0.0000 <Sz>= 0.0000 <S**2>= 1.0000 S= 0.6180
 Leave Link  401 at Tue Aug  4 15:08:07 2020, MaxMem=  6442450944 cpu:              57.5 elap:               2.5
 (Enter /scratch/scicomp/CentOS/7.3.1611/Haswell/software/Gaussian/g16/l502.exe)
 Two-electron integral symmetry not used.
 UHF open shell SCF:
 Using DIIS extrapolation, IDIIS=  1040.
 NGot=  6442450944 LenX=  6441877030 LenY=  6441597718
 Requested convergence on RMS density matrix=1.00D-08 within 128 cycles.
 Requested convergence on MAX density matrix=1.00D-06.
 Requested convergence on             energy=1.00D-06.
 No special actions if energy rises.
 Fock matrices will be formed incrementally for  20 cycles.

 Cycle   1  Pass 1  IDiag  1:
 FoFJK:  IHMeth= 1 ICntrl=       0 DoSepK=T KAlg= 0 I1Cent=           0 FoldK=F
 IRaf=         1 NMat=       1 IRICut=       1 DoRegI=T DoRafI=F ISym2E= 0 IDoP0=0 IntGTp=1.
 FoFCou: FMM=F IPFlag=           0 FMFlag=      100000 FMFlg1=           0
         NFxFlg=           0 DoJE=T BraDBF=F KetDBF=F FulRan=T
         wScrn=  0.000000 ICntrl=       500 IOpCl=  0 I1Cent=           0 NGrid=           0
         NMat0=    1 NMatS0=      1 NMatT0=    0 NMatD0=    1 NMtDS0=    0 NMtDT0=    0
 Symmetry not used in FoFCou.
 Inv3:  Mode=1 IEnd=    63259392.
 Iteration    1 A*A^-1 deviation from unit magnitude is 1.78D-14 for    129.
 Iteration    1 A*A^-1 deviation from orthogonality  is 1.57D-14 for   1714    129.
 Iteration    1 A^-1*A deviation from unit magnitude is 1.24D-14 for    129.
 Iteration    1 A^-1*A deviation from orthogonality  is 1.00D-14 for   1714    129.
 E= -466.642105924314    
 DIIS: error= 5.56D-02 at cycle   1 NSaved=   1.
 NSaved= 1 IEnMin= 1 EnMin= -466.642105924314     IErMin= 1 ErrMin= 5.56D-02
 ErrMax= 5.56D-02  0.00D+00 EMaxC= 1.00D-01 BMatC= 4.10D+00 BMatP= 4.10D+00
 IDIUse=3 WtCom= 4.44D-01 WtEn= 5.56D-01
 Coeff-Com:  0.100D+01
 Coeff-En:   0.100D+01
 Coeff:      0.100D+01
 Gap=     0.214 Goal=   None    Shift=    0.000
 Gap=     0.214 Goal=   None    Shift=    0.000
 GapD=    0.214 DampG=1.000 DampE=0.500 DampFc=0.5000 IDamp=-1.
 Damping current iteration by 5.00D-01
 RMSDP=1.48D-03 MaxDP=9.23D-02              OVMax= 1.46D-01

 Cycle   2  Pass 1  IDiag  1:
 RMSU=  7.23D-04    CP:  9.75D-01
 E= -466.718633579157     Delta-E=       -0.076527654843 Rises=F Damp=T
 DIIS: error= 2.64D-02 at cycle   2 NSaved=   2.
 NSaved= 2 IEnMin= 2 EnMin= -466.718633579157     IErMin= 2 ErrMin= 2.64D-02
 ErrMax= 2.64D-02  0.00D+00 EMaxC= 1.00D-01 BMatC= 9.22D-01 BMatP= 4.10D+00
 IDIUse=3 WtCom= 7.36D-01 WtEn= 2.64D-01
 Coeff-Com: -0.865D+00 0.187D+01
 Coeff-En:   0.000D+00 0.100D+01
 Coeff:     -0.637D+00 0.164D+01
 Gap=     0.233 Goal=   None    Shift=    0.000
 Gap=     0.233 Goal=   None    Shift=    0.000
 RMSDP=9.39D-04 MaxDP=4.86D-02 DE=-7.65D-02 OVMax= 6.33D-02

 Cycle   3  Pass 1  IDiag  1:
 RMSU=  4.64D-04    CP:  9.44D-01  2.10D+00
 E= -466.798626982526     Delta-E=       -0.079993403369 Rises=F Damp=F
 DIIS: error= 3.48D-03 at cycle   3 NSaved=   3.
 NSaved= 3 IEnMin= 3 EnMin= -466.798626982526     IErMin= 3 ErrMin= 3.48D-03
 ErrMax= 3.48D-03  0.00D+00 EMaxC= 1.00D-01 BMatC= 1.78D-02 BMatP= 9.22D-01
 IDIUse=3 WtCom= 9.65D-01 WtEn= 3.48D-02
 Coeff-Com: -0.311D+00 0.670D+00 0.641D+00
 Coeff-En:   0.000D+00 0.000D+00 0.100D+01
 Coeff:     -0.300D+00 0.647D+00 0.653D+00
 Gap=     0.238 Goal=   None    Shift=    0.000
 Gap=     0.238 Goal=   None    Shift=    0.000
 RMSDP=1.38D-04 MaxDP=6.90D-03 DE=-8.00D-02 OVMax= 3.11D-02

 Cycle   4  Pass 1  IDiag  1:
 RMSU=  1.22D-04    CP:  9.40D-01  2.17D+00  9.49D-01
 E= -466.804085167017     Delta-E=       -0.005458184491 Rises=F Damp=F
 DIIS: error= 2.35D-03 at cycle   4 NSaved=   4.
 NSaved= 4 IEnMin= 4 EnMin= -466.804085167017     IErMin= 4 ErrMin= 2.35D-03
 ErrMax= 2.35D-03  0.00D+00 EMaxC= 1.00D-01 BMatC= 7.03D-04 BMatP= 1.78D-02
 IDIUse=3 WtCom= 9.77D-01 WtEn= 2.35D-02
 Coeff-Com:  0.115D+00-0.249D+00-0.122D+00 0.125D+01
 Coeff-En:   0.000D+00 0.000D+00 0.000D+00 0.100D+01
 Coeff:      0.113D+00-0.243D+00-0.119D+00 0.125D+01
 Gap=     0.241 Goal=   None    Shift=    0.000
 Gap=     0.241 Goal=   None    Shift=    0.000
 RMSDP=1.30D-04 MaxDP=6.86D-03 DE=-5.46D-03 OVMax= 4.02D-02

 Cycle   5  Pass 1  IDiag  1:
 RMSU=  5.26D-05    CP:  9.37D-01  2.22D+00  1.12D+00  1.66D+00
 E= -466.805476726374     Delta-E=       -0.001391559356 Rises=F Damp=F
 DIIS: error= 1.12D-03 at cycle   5 NSaved=   5.
 NSaved= 5 IEnMin= 5 EnMin= -466.805476726374     IErMin= 5 ErrMin= 1.12D-03
 ErrMax= 1.12D-03  0.00D+00 EMaxC= 1.00D-01 BMatC= 1.80D-04 BMatP= 7.03D-04
 IDIUse=3 WtCom= 9.89D-01 WtEn= 1.12D-02
 Coeff-Com:  0.391D-01-0.846D-01-0.722D-01 0.102D+00 0.102D+01
 Coeff-En:   0.000D+00 0.000D+00 0.000D+00 0.000D+00 0.100D+01
 Coeff:      0.387D-01-0.836D-01-0.713D-01 0.101D+00 0.102D+01
 Gap=     0.242 Goal=   None    Shift=    0.000
 Gap=     0.242 Goal=   None    Shift=    0.000
 RMSDP=6.08D-05 MaxDP=4.20D-03 DE=-1.39D-03 OVMax= 2.03D-02

 Cycle   6  Pass 1  IDiag  1:
 RMSU=  2.06D-05    CP:  9.36D-01  2.23D+00  1.16D+00  2.00D+00  1.65D+00
 E= -466.805853157377     Delta-E=       -0.000376431003 Rises=F Damp=F
 DIIS: error= 6.55D-04 at cycle   6 NSaved=   6.
 NSaved= 6 IEnMin= 6 EnMin= -466.805853157377     IErMin= 6 ErrMin= 6.55D-04
 ErrMax= 6.55D-04  0.00D+00 EMaxC= 1.00D-01 BMatC= 9.25D-05 BMatP= 1.80D-04
 IDIUse=3 WtCom= 9.93D-01 WtEn= 6.55D-03
 Coeff-Com: -0.324D-01 0.695D-01 0.259D-01-0.430D+00 0.422D+00 0.945D+00
 Coeff-En:   0.000D+00 0.000D+00 0.000D+00 0.000D+00 0.000D+00 0.100D+01
 Coeff:     -0.321D-01 0.691D-01 0.257D-01-0.428D+00 0.420D+00 0.945D+00
 Gap=     0.242 Goal=   None    Shift=    0.000
 Gap=     0.242 Goal=   None    Shift=    0.000
 RMSDP=4.57D-05 MaxDP=2.80D-03 DE=-3.76D-04 OVMax= 1.66D-02

 Cycle   7  Pass 1  IDiag  1:
 RMSU=  1.34D-05    CP:  9.35D-01  2.23D+00  1.18D+00  2.22D+00  2.24D+00
                    CP:  1.46D+00
 E= -466.806036423679     Delta-E=       -0.000183266303 Rises=F Damp=F
 DIIS: error= 3.46D-04 at cycle   7 NSaved=   7.
 NSaved= 7 IEnMin= 7 EnMin= -466.806036423679     IErMin= 7 ErrMin= 3.46D-04
 ErrMax= 3.46D-04  0.00D+00 EMaxC= 1.00D-01 BMatC= 2.15D-05 BMatP= 9.25D-05
 IDIUse=3 WtCom= 9.97D-01 WtEn= 3.46D-03
 Coeff-Com: -0.121D-01 0.264D-01 0.213D-01-0.245D-01-0.221D+00-0.194D-01
 Coeff-Com:  0.123D+01
 Coeff-En:   0.000D+00 0.000D+00 0.000D+00 0.000D+00 0.000D+00 0.000D+00
 Coeff-En:   0.100D+01
 Coeff:     -0.121D-01 0.263D-01 0.213D-01-0.244D-01-0.220D+00-0.193D-01
 Coeff:      0.123D+01
 Gap=     0.241 Goal=   None    Shift=    0.000
 Gap=     0.241 Goal=   None    Shift=    0.000
 RMSDP=2.79D-05 MaxDP=1.62D-03 DE=-1.83D-04 OVMax= 1.00D-02

 Cycle   8  Pass 1  IDiag  1:
 RMSU=  6.47D-06    CP:  9.35D-01  2.23D+00  1.18D+00  2.33D+00  2.59D+00
                    CP:  2.01D+00  1.69D+00
 E= -466.806103575115     Delta-E=       -0.000067151436 Rises=F Damp=F
 DIIS: error= 2.33D-04 at cycle   8 NSaved=   8.
 NSaved= 8 IEnMin= 8 EnMin= -466.806103575115     IErMin= 8 ErrMin= 2.33D-04
 ErrMax= 2.33D-04  0.00D+00 EMaxC= 1.00D-01 BMatC= 9.01D-06 BMatP= 2.15D-05
 IDIUse=3 WtCom= 9.98D-01 WtEn= 2.33D-03
 Coeff-Com:  0.998D-02-0.215D-01-0.497D-02 0.170D+00-0.165D+00-0.403D+00
 Coeff-Com:  0.173D+00 0.124D+01
 Coeff-En:   0.000D+00 0.000D+00 0.000D+00 0.000D+00 0.000D+00 0.000D+00
 Coeff-En:   0.000D+00 0.100D+01
 Coeff:      0.996D-02-0.215D-01-0.496D-02 0.170D+00-0.164D+00-0.402D+00
 Coeff:      0.172D+00 0.124D+01
 Gap=     0.240 Goal=   None    Shift=    0.000
 Gap=     0.240 Goal=   None    Shift=    0.000
 RMSDP=1.87D-05 MaxDP=7.89D-04 DE=-6.72D-05 OVMax= 7.38D-03

 Cycle   9  Pass 1  IDiag  1:
 RMSU=  3.75D-06    CP:  9.35D-01  2.23D+00  1.18D+00  2.39D+00  2.80D+00
                    CP:  2.32D+00  2.37D+00  1.81D+00
 E= -466.806134185057     Delta-E=       -0.000030609942 Rises=F Damp=F
 DIIS: error= 1.57D-04 at cycle   9 NSaved=   9.
 NSaved= 9 IEnMin= 9 EnMin= -466.806134185057     IErMin= 9 ErrMin= 1.57D-04
 ErrMax= 1.57D-04  0.00D+00 EMaxC= 1.00D-01 BMatC= 3.24D-06 BMatP= 9.01D-06
 IDIUse=3 WtCom= 9.98D-01 WtEn= 1.57D-03
 Coeff-Com:  0.720D-02-0.156D-01-0.919D-02 0.552D-01 0.564D-01-0.104D+00
 Coeff-Com: -0.425D+00 0.258D+00 0.118D+01
 Coeff-En:   0.000D+00 0.000D+00 0.000D+00 0.000D+00 0.000D+00 0.000D+00
 Coeff-En:   0.000D+00 0.000D+00 0.100D+01
 Coeff:      0.719D-02-0.155D-01-0.917D-02 0.551D-01 0.563D-01-0.104D+00
 Coeff:     -0.425D+00 0.258D+00 0.118D+01
 Gap=     0.240 Goal=   None    Shift=    0.000
 Gap=     0.240 Goal=   None    Shift=    0.000
 RMSDP=1.24D-05 MaxDP=4.97D-04 DE=-3.06D-05 OVMax= 5.12D-03

 Cycle  10  Pass 1  IDiag  1:
 RMSU=  2.30D-06    CP:  9.35D-01  2.23D+00  1.19D+00  2.44D+00  2.91D+00
                    CP:  2.50D+00  2.75D+00  2.57D+00  1.80D+00
 E= -466.806146461924     Delta-E=       -0.000012276868 Rises=F Damp=F
 DIIS: error= 9.61D-05 at cycle  10 NSaved=  10.
 NSaved=10 IEnMin=10 EnMin= -466.806146461924     IErMin=10 ErrMin= 9.61D-05
 ErrMax= 9.61D-05  0.00D+00 EMaxC= 1.00D-01 BMatC= 8.98D-07 BMatP= 3.24D-06
 IDIUse=1 WtCom= 1.00D+00 WtEn= 0.00D+00
 Coeff-Com: -0.449D-02 0.971D-02 0.302D-02-0.670D-01 0.658D-01 0.160D+00
 Coeff-Com: -0.579D-01-0.541D+00-0.138D+00 0.157D+01
 Coeff:     -0.449D-02 0.971D-02 0.302D-02-0.670D-01 0.658D-01 0.160D+00
 Coeff:     -0.579D-01-0.541D+00-0.138D+00 0.157D+01
 Gap=     0.239 Goal=   None    Shift=    0.000
 Gap=     0.239 Goal=   None    Shift=    0.000
 RMSDP=1.05D-05 MaxDP=4.39D-04 DE=-1.23D-05 OVMax= 4.47D-03

 Cycle  11  Pass 1  IDiag  1:
 RMSU=  1.72D-06    CP:  9.34D-01  2.23D+00  1.19D+00  2.48D+00  3.00D+00
                    CP:  2.60D+00  3.00D+00  3.00D+00  2.80D+00  2.21D+00
 E= -466.806151429540     Delta-E=       -0.000004967615 Rises=F Damp=F
 DIIS: error= 3.14D-05 at cycle  11 NSaved=  11.
 NSaved=11 IEnMin=11 EnMin= -466.806151429540     IErMin=11 ErrMin= 3.14D-05
 ErrMax= 3.14D-05  0.00D+00 EMaxC= 1.00D-01 BMatC= 1.52D-07 BMatP= 8.98D-07
 IDIUse=1 WtCom= 1.00D+00 WtEn= 0.00D+00
 Coeff-Com: -0.112D-02 0.242D-02 0.141D-02-0.883D-02-0.434D-02 0.208D-01
 Coeff-Com:  0.502D-01-0.636D-01-0.174D+00 0.555D-01 0.112D+01
 Coeff:     -0.112D-02 0.242D-02 0.141D-02-0.883D-02-0.434D-02 0.208D-01
 Coeff:      0.502D-01-0.636D-01-0.174D+00 0.555D-01 0.112D+01
 Gap=     0.239 Goal=   None    Shift=    0.000
 Gap=     0.239 Goal=   None    Shift=    0.000
 RMSDP=2.98D-06 MaxDP=1.36D-04 DE=-4.97D-06 OVMax= 1.21D-03

 Cycle  12  Pass 1  IDiag  1:
 RMSU=  1.35D-06    CP:  9.34D-01  2.23D+00  1.19D+00  2.49D+00  3.00D+00
                    CP:  2.63D+00  3.00D+00  3.00D+00  3.00D+00  2.73D+00
                    CP:  1.77D+00
 E= -466.806151922804     Delta-E=       -0.000000493265 Rises=F Damp=F
 DIIS: error= 1.15D-05 at cycle  12 NSaved=  12.
 NSaved=12 IEnMin=12 EnMin= -466.806151922804     IErMin=12 ErrMin= 1.15D-05
 ErrMax= 1.15D-05  0.00D+00 EMaxC= 1.00D-01 BMatC= 5.60D-08 BMatP= 1.52D-07
 IDIUse=1 WtCom= 1.00D+00 WtEn= 0.00D+00
 Coeff-Com:  0.130D-02-0.282D-02-0.615D-03 0.225D-01-0.254D-01-0.526D-01
 Coeff-Com:  0.343D-01 0.179D+00-0.363D-02-0.573D+00 0.440D+00 0.981D+00
 Coeff:      0.130D-02-0.282D-02-0.615D-03 0.225D-01-0.254D-01-0.526D-01
 Coeff:      0.343D-01 0.179D+00-0.363D-02-0.573D+00 0.440D+00 0.981D+00
 Gap=     0.239 Goal=   None    Shift=    0.000
 Gap=     0.239 Goal=   None    Shift=    0.000
 RMSDP=1.54D-06 MaxDP=7.71D-05 DE=-4.93D-07 OVMax= 5.90D-04

 Cycle  13  Pass 1  IDiag  1:
 RMSU=  4.41D-07    CP:  9.34D-01  2.23D+00  1.19D+00  2.50D+00  3.00D+00
                    CP:  2.65D+00  3.00D+00  3.00D+00  3.00D+00  3.00D+00
                    CP:  2.20D+00  1.54D+00
 E= -466.806152025393     Delta-E=       -0.000000102589 Rises=F Damp=F
 DIIS: error= 3.58D-06 at cycle  13 NSaved=  13.
 NSaved=13 IEnMin=13 EnMin= -466.806152025393     IErMin=13 ErrMin= 3.58D-06
 ErrMax= 3.58D-06  0.00D+00 EMaxC= 1.00D-01 BMatC= 5.79D-09 BMatP= 5.60D-08
 IDIUse=1 WtCom= 1.00D+00 WtEn= 0.00D+00
 Coeff-Com:  0.257D-03-0.551D-03-0.232D-03 0.297D-02-0.103D-02-0.738D-02
 Coeff-Com: -0.571D-02 0.236D-01 0.290D-01-0.515D-01-0.135D+00 0.897D-01
 Coeff-Com:  0.106D+01
 Coeff:      0.257D-03-0.551D-03-0.232D-03 0.297D-02-0.103D-02-0.738D-02
 Coeff:     -0.571D-02 0.236D-01 0.290D-01-0.515D-01-0.135D+00 0.897D-01
 Coeff:      0.106D+01
 Gap=     0.239 Goal=   None    Shift=    0.000
 Gap=     0.239 Goal=   None    Shift=    0.000
 RMSDP=2.68D-07 MaxDP=1.46D-05 DE=-1.03D-07 OVMax= 8.99D-05

 Cycle  14  Pass 1  IDiag  1:
 RMSU=  1.64D-07    CP:  9.34D-01  2.23D+00  1.19D+00  2.50D+00  3.00D+00
                    CP:  2.65D+00  3.00D+00  3.00D+00  3.00D+00  3.00D+00
                    CP:  2.26D+00  1.64D+00  1.19D+00
 E= -466.806152032501     Delta-E=       -0.000000007108 Rises=F Damp=F
 DIIS: error= 1.15D-06 at cycle  14 NSaved=  14.
 NSaved=14 IEnMin=14 EnMin= -466.806152032501     IErMin=14 ErrMin= 1.15D-06
 ErrMax= 1.15D-06  0.00D+00 EMaxC= 1.00D-01 BMatC= 1.62D-09 BMatP= 5.79D-09
 IDIUse=1 WtCom= 1.00D+00 WtEn= 0.00D+00
 Coeff-Com: -0.204D-03 0.442D-03 0.622D-04-0.395D-02 0.530D-02 0.889D-02
 Coeff-Com: -0.104D-01-0.309D-01 0.119D-01 0.107D+00-0.142D+00-0.177D+00
 Coeff-Com:  0.379D+00 0.853D+00
 Coeff:     -0.204D-03 0.442D-03 0.622D-04-0.395D-02 0.530D-02 0.889D-02
 Coeff:     -0.104D-01-0.309D-01 0.119D-01 0.107D+00-0.142D+00-0.177D+00
 Coeff:      0.379D+00 0.853D+00
 Gap=     0.239 Goal=   None    Shift=    0.000
 Gap=     0.239 Goal=   None    Shift=    0.000
 RMSDP=1.19D-07 MaxDP=4.55D-06 DE=-7.11D-09 OVMax= 3.57D-05

 Cycle  15  Pass 1  IDiag  1:
 RMSU=  6.90D-08    CP:  9.34D-01  2.23D+00  1.19D+00  2.50D+00  3.00D+00
                    CP:  2.65D+00  3.00D+00  3.00D+00  3.00D+00  3.00D+00
                    CP:  2.28D+00  1.68D+00  1.25D+00  1.29D+00
 E= -466.806152033685     Delta-E=       -0.000000001184 Rises=F Damp=F
 DIIS: error= 2.76D-07 at cycle  15 NSaved=  15.
 NSaved=15 IEnMin=15 EnMin= -466.806152033685     IErMin=15 ErrMin= 2.76D-07
 ErrMax= 2.76D-07  0.00D+00 EMaxC= 1.00D-01 BMatC= 1.34D-10 BMatP= 1.62D-09
 IDIUse=1 WtCom= 1.00D+00 WtEn= 0.00D+00
 Coeff-Com: -0.721D-04 0.155D-03 0.348D-04-0.119D-02 0.128D-02 0.283D-02
 Coeff-Com: -0.170D-02-0.949D-02-0.147D-02 0.297D-01-0.126D-01-0.517D-01
 Coeff-Com: -0.693D-01 0.190D+00 0.923D+00
 Coeff:     -0.721D-04 0.155D-03 0.348D-04-0.119D-02 0.128D-02 0.283D-02
 Coeff:     -0.170D-02-0.949D-02-0.147D-02 0.297D-01-0.126D-01-0.517D-01
 Coeff:     -0.693D-01 0.190D+00 0.923D+00
 Gap=     0.239 Goal=   None    Shift=    0.000
 Gap=     0.239 Goal=   None    Shift=    0.000
 RMSDP=4.05D-08 MaxDP=1.83D-06 DE=-1.18D-09 OVMax= 1.16D-05

 Cycle  16  Pass 1  IDiag  1:
 RMSU=  1.96D-08    CP:  9.34D-01  2.23D+00  1.19D+00  2.50D+00  3.00D+00
                    CP:  2.65D+00  3.00D+00  3.00D+00  3.00D+00  3.00D+00
                    CP:  2.29D+00  1.69D+00  1.25D+00  1.40D+00  1.32D+00
 E= -466.806152033788     Delta-E=       -0.000000000103 Rises=F Damp=F
 DIIS: error= 7.79D-08 at cycle  16 NSaved=  16.
 NSaved=16 IEnMin=16 EnMin= -466.806152033788     IErMin=16 ErrMin= 7.79D-08
 ErrMax= 7.79D-08  0.00D+00 EMaxC= 1.00D-01 BMatC= 9.82D-12 BMatP= 1.34D-10
 IDIUse=1 WtCom= 1.00D+00 WtEn= 0.00D+00
 Coeff-Com:  0.785D-05-0.172D-04-0.195D-05 0.183D-03-0.252D-03-0.408D-03
 Coeff-Com:  0.657D-03 0.149D-02-0.133D-02-0.529D-02 0.106D-01 0.866D-02
 Coeff-Com: -0.395D-01-0.533D-01 0.107D+00 0.972D+00
 Coeff:      0.785D-05-0.172D-04-0.195D-05 0.183D-03-0.252D-03-0.408D-03
 Coeff:      0.657D-03 0.149D-02-0.133D-02-0.529D-02 0.106D-01 0.866D-02
 Coeff:     -0.395D-01-0.533D-01 0.107D+00 0.972D+00
 Gap=     0.239 Goal=   None    Shift=    0.000
 Gap=     0.239 Goal=   None    Shift=    0.000
 RMSDP=1.06D-08 MaxDP=4.78D-07 DE=-1.03D-10 OVMax= 1.09D-06

 Cycle  17  Pass 1  IDiag  1:
 RMSU=  7.00D-09    CP:  9.34D-01  2.23D+00  1.19D+00  2.50D+00  3.00D+00
                    CP:  2.65D+00  3.00D+00  3.00D+00  3.00D+00  3.00D+00
                    CP:  2.29D+00  1.69D+00  1.25D+00  1.40D+00  1.38D+00
                    CP:  1.33D+00
 E= -466.806152033795     Delta-E=       -0.000000000008 Rises=F Damp=F
 DIIS: error= 4.08D-08 at cycle  17 NSaved=  17.
 NSaved=17 IEnMin=17 EnMin= -466.806152033795     IErMin=17 ErrMin= 4.08D-08
 ErrMax= 4.08D-08  0.00D+00 EMaxC= 1.00D-01 BMatC= 1.44D-12 BMatP= 9.82D-12
 IDIUse=1 WtCom= 1.00D+00 WtEn= 0.00D+00
 Coeff-Com:  0.759D-05-0.163D-04-0.327D-05 0.130D-03-0.143D-03-0.334D-03
 Coeff-Com:  0.248D-03 0.106D-02-0.209D-04-0.336D-02 0.233D-02 0.594D-02
 Coeff-Com:  0.429D-02-0.278D-01-0.863D-01 0.101D+00 0.100D+01
 Coeff:      0.759D-05-0.163D-04-0.327D-05 0.130D-03-0.143D-03-0.334D-03
 Coeff:      0.248D-03 0.106D-02-0.209D-04-0.336D-02 0.233D-02 0.594D-02
 Coeff:      0.429D-02-0.278D-01-0.863D-01 0.101D+00 0.100D+01
 Gap=     0.239 Goal=   None    Shift=    0.000
 Gap=     0.239 Goal=   None    Shift=    0.000
 RMSDP=4.19D-09 MaxDP=1.65D-07 DE=-7.50D-12 OVMax= 9.48D-07

 Error on total polarization charges =  0.01113
 SCF Done:  E(UwB97XD) =  -466.806152034     A.U. after   17 cycles
            NFock= 17  Conv=0.42D-08     -V/T= 2.0059
 <Sx>= 0.0000 <Sy>= 0.0000 <Sz>= 0.0000 <S**2>= 0.6966 S= 0.4729
 <L.S>=  0.00000000000    
 KE= 4.640862138121D+02 PE=-2.465105803183D+03 EE= 8.425259304316D+02
 --------------------------------------------------------------------
 Variational PCM results
 =======================
 <psi(f)|   H    |psi(f)>                     (a.u.) =    -466.814042
 <psi(f)|H+V(f)/2|psi(f)>                     (a.u.) =    -466.815373
 Total free energy in solution:
 - with all non electrostatic terms           (a.u.) =    -466.806152
 --------------------------------------------------------------------
 (Polarized solute)-Solvent               (kcal/mol) =      -0.84
 --------------------------------------------------------------------
 Quantum repulsion energy                 (kcal/mol) =       5.79
 Total non electrostatic                  (kcal/mol) =       5.79
 --------------------------------------------------------------------
 Partition over spheres:
 Sphere  on Atom  Surface  Charge   GEl     GCav    GDR
    1               7.44   0.011   -0.05    0.00    0.00
    2               1.04   0.001   -0.00    0.00    0.00
    3               7.51  -0.010   -0.03    0.00    0.00
    4               3.04  -0.004   -0.01    0.00    0.00
    5               4.82   0.009   -0.05    0.00    0.00
    6               1.11   0.001   -0.00    0.00    0.00
    7               4.90  -0.007   -0.03    0.00    0.00
    8               3.55  -0.004   -0.01    0.00    0.00
    9               3.06   0.002   -0.00    0.00    0.00
   10               6.87  -0.006   -0.01    0.00    0.00
   11               3.67  -0.003   -0.01    0.00    0.00
   12               6.69   0.011   -0.06    0.00    0.00
   13               7.50  -0.010   -0.03    0.00    0.00
   14               7.38   0.011   -0.05    0.00    0.00
   15               7.52  -0.010   -0.03    0.00    0.00
   16               3.40   0.001    0.00    0.00    0.00
   17               4.02  -0.004   -0.02    0.00    0.00
   18               7.47  -0.008   -0.03    0.00    0.00
   19               4.99   0.009   -0.05    0.00    0.00
   20               5.28  -0.007   -0.03    0.00    0.00
   21               6.68   0.011   -0.06    0.00    0.00
   22               7.50  -0.010   -0.03    0.00    0.00
   23               3.33   0.002   -0.00    0.00    0.00
   24               3.85  -0.003   -0.01    0.00    0.00
   25               6.89  -0.006   -0.01    0.00    0.00
   26               3.24   0.001    0.00    0.00    0.00
   27               7.40  -0.008   -0.03    0.00    0.00
   28               4.18  -0.004   -0.02    0.00    0.00
 Added spheres:    74.46   0.022   -0.19    0.00    0.00
 --------------------------------------------------------------------
 After PCM corrections, the energy is  -466.806152034     a.u.
 --------------------------------------------------------------------
 Annihilation of the first spin contaminant:
 S**2 before annihilation     0.6966,   after     0.2364
 Leave Link  502 at Tue Aug  4 15:13:31 2020, MaxMem=  6442450944 cpu:            7701.1 elap:             323.7
 (Enter /scratch/scicomp/CentOS/7.3.1611/Haswell/software/Gaussian/g16/l601.exe)
 Copying SCF densities to generalized density rwf, IOpCl= 1 IROHF=0.

 **********************************************************************

            Population analysis using the SCF Density.

 **********************************************************************

 Alpha  occ. eigenvalues --  -10.29667 -10.29312 -10.28393 -10.28330 -10.28295
 Alpha  occ. eigenvalues --  -10.27975 -10.27972 -10.27917 -10.27895 -10.27889
 Alpha  occ. eigenvalues --  -10.27693 -10.27378  -0.94789  -0.93002  -0.84928
 Alpha  occ. eigenvalues --   -0.84301  -0.83481  -0.82264  -0.71146  -0.70121
 Alpha  occ. eigenvalues --   -0.69257  -0.67691  -0.59876  -0.59342  -0.58065
 Alpha  occ. eigenvalues --   -0.56206  -0.53210  -0.52948  -0.50713  -0.49869
 Alpha  occ. eigenvalues --   -0.49176  -0.48056  -0.47777  -0.47234  -0.46322
 Alpha  occ. eigenvalues --   -0.44556  -0.41298  -0.40880  -0.39719  -0.39516
 Alpha  occ. eigenvalues --   -0.38901  -0.37316  -0.32055  -0.24080
 Alpha virt. eigenvalues --   -0.00172   0.09084   0.11356   0.13451   0.14190
 Alpha virt. eigenvalues --    0.14670   0.15528   0.16476   0.16962   0.17323
 Alpha virt. eigenvalues --    0.17471   0.18165   0.19156   0.20219   0.21073
 Alpha virt. eigenvalues --    0.21608   0.22273   0.23470   0.24048   0.24397
 Alpha virt. eigenvalues --    0.25441   0.25955   0.27101   0.27207   0.27954
 Alpha virt. eigenvalues --    0.29275   0.29326   0.30496   0.31051   0.31177
 Alpha virt. eigenvalues --    0.31830   0.32531   0.32595   0.33319   0.34568
 Alpha virt. eigenvalues --    0.34960   0.36087   0.36730   0.37114   0.37926
 Alpha virt. eigenvalues --    0.38229   0.39376   0.41691   0.42061   0.42813
 Alpha virt. eigenvalues --    0.44054   0.44586   0.45415   0.45947   0.46265
 Alpha virt. eigenvalues --    0.47106   0.47652   0.49211   0.49246   0.49389
 Alpha virt. eigenvalues --    0.49444   0.49788   0.49955   0.50800   0.50965
 Alpha virt. eigenvalues --    0.51114   0.51723   0.52216   0.52857   0.53597
 Alpha virt. eigenvalues --    0.53719   0.54911   0.55053   0.55674   0.56615
 Alpha virt. eigenvalues --    0.57197   0.57469   0.58630   0.59236   0.59617
 Alpha virt. eigenvalues --    0.59724   0.61235   0.61334   0.63778   0.65496
 Alpha virt. eigenvalues --    0.66864   0.67889   0.68464   0.69075   0.69197
 Alpha virt. eigenvalues --    0.71243   0.72232   0.73753   0.76283   0.76384
 Alpha virt. eigenvalues --    0.78270   0.79282   0.79432   0.81888   0.82436
 Alpha virt. eigenvalues --    0.83426   0.84644   0.86225   0.88017   0.88253
 Alpha virt. eigenvalues --    0.88541   0.89780   0.93548   0.94306   0.95231
 Alpha virt. eigenvalues --    0.96479   0.97657   0.98501   0.98974   0.99918
 Alpha virt. eigenvalues --    1.02233   1.02496   1.04401   1.04786   1.06059
 Alpha virt. eigenvalues --    1.07620   1.08317   1.08335   1.10126   1.10312
 Alpha virt. eigenvalues --    1.12675   1.14370   1.15913   1.17029   1.17705
 Alpha virt. eigenvalues --    1.18718   1.19183   1.19711   1.19974   1.20100
 Alpha virt. eigenvalues --    1.21311   1.22793   1.24513   1.26067   1.26295
 Alpha virt. eigenvalues --    1.27290   1.27898   1.28308   1.29202   1.29537
 Alpha virt. eigenvalues --    1.30506   1.30863   1.33414   1.34427   1.35089
 Alpha virt. eigenvalues --    1.35239   1.35683   1.36091   1.38450   1.39424
 Alpha virt. eigenvalues --    1.39540   1.39944   1.40348   1.41847   1.42682
 Alpha virt. eigenvalues --    1.43310   1.43883   1.44439   1.44719   1.45689
 Alpha virt. eigenvalues --    1.46380   1.47031   1.47597   1.48518   1.49455
 Alpha virt. eigenvalues --    1.50898   1.53817   1.55167   1.56829   1.57879
 Alpha virt. eigenvalues --    1.59509   1.60047   1.60139   1.62130   1.63319
 Alpha virt. eigenvalues --    1.63987   1.66059   1.66462   1.67720   1.68692
 Alpha virt. eigenvalues --    1.72576   1.73855   1.75695   1.77656   1.78874
 Alpha virt. eigenvalues --    1.79261   1.81071   1.81992   1.85517   1.85624
 Alpha virt. eigenvalues --    1.87971   1.89965   1.91146   1.93076   1.94330
 Alpha virt. eigenvalues --    1.97372   1.97838   2.01116   2.03098   2.04207
 Alpha virt. eigenvalues --    2.06486   2.06893   2.08826   2.10535   2.11135
 Alpha virt. eigenvalues --    2.12814   2.15688   2.16634   2.17049   2.18352
 Alpha virt. eigenvalues --    2.19032   2.19506   2.20303   2.21478   2.24190
 Alpha virt. eigenvalues --    2.25137   2.25630   2.28536   2.30533   2.32104
 Alpha virt. eigenvalues --    2.34922   2.36869   2.38053   2.39459   2.44455
 Alpha virt. eigenvalues --    2.45551   2.47385   2.47535   2.48527   2.49992
 Alpha virt. eigenvalues --    2.50951   2.54832   2.55091   2.57208   2.57970
 Alpha virt. eigenvalues --    2.58923   2.59577   2.61659   2.62252   2.63445
 Alpha virt. eigenvalues --    2.64237   2.64725   2.67509   2.68274   2.68789
 Alpha virt. eigenvalues --    2.69284   2.71829   2.73139   2.73296   2.74180
 Alpha virt. eigenvalues --    2.74576   2.76088   2.76462   2.77835   2.77926
 Alpha virt. eigenvalues --    2.79403   2.80836   2.80871   2.82337   2.83299
 Alpha virt. eigenvalues --    2.83581   2.84417   2.84930   2.86005   2.86954
 Alpha virt. eigenvalues --    2.87304   2.88299   2.89819   2.90294   2.91046
 Alpha virt. eigenvalues --    2.92909   2.93158   2.93776   2.94990   2.96421
 Alpha virt. eigenvalues --    2.96590   2.99073   3.00071   3.01459   3.02217
 Alpha virt. eigenvalues --    3.03425   3.03868   3.05653   3.06235   3.06959
 Alpha virt. eigenvalues --    3.08411   3.08960   3.09870   3.10747   3.11526
 Alpha virt. eigenvalues --    3.12479   3.12999   3.13347   3.14791   3.14848
 Alpha virt. eigenvalues --    3.15673   3.16183   3.18059   3.19470   3.19902
 Alpha virt. eigenvalues --    3.20509   3.21075   3.21652   3.22549   3.22770
 Alpha virt. eigenvalues --    3.23446   3.24435   3.25203   3.25563   3.26545
 Alpha virt. eigenvalues --    3.26790   3.27183   3.28189   3.29778   3.30346
 Alpha virt. eigenvalues --    3.30658   3.31303   3.32293   3.32629   3.34949
 Alpha virt. eigenvalues --    3.35694   3.36063   3.36603   3.36833   3.37317
 Alpha virt. eigenvalues --    3.38892   3.40026   3.40488   3.40777   3.42045
 Alpha virt. eigenvalues --    3.42638   3.45370   3.45940   3.46608   3.47063
 Alpha virt. eigenvalues --    3.48396   3.49021   3.49714   3.50683   3.51551
 Alpha virt. eigenvalues --    3.52764   3.53041   3.53359   3.56421   3.57727
 Alpha virt. eigenvalues --    3.57819   3.58293   3.58870   3.60015   3.60289
 Alpha virt. eigenvalues --    3.61351   3.62382   3.63036   3.64656   3.66283
 Alpha virt. eigenvalues --    3.66408   3.67169   3.69139   3.70092   3.72494
 Alpha virt. eigenvalues --    3.72850   3.76494   3.78301   3.78689   3.80640
 Alpha virt. eigenvalues --    3.81279   3.82264   3.82352   3.83129   3.84175
 Alpha virt. eigenvalues --    3.85375   3.88128   3.90981   3.92052   3.92379
 Alpha virt. eigenvalues --    3.93699   3.95550   3.96487   3.99986   4.02227
 Alpha virt. eigenvalues --    4.03056   4.03734   4.06898   4.09890   4.10190
 Alpha virt. eigenvalues --    4.11436   4.11857   4.13024   4.15425   4.15583
 Alpha virt. eigenvalues --    4.17423   4.18667   4.20258   4.20911   4.21853
 Alpha virt. eigenvalues --    4.23075   4.24962   4.25552   4.27982   4.29655
 Alpha virt. eigenvalues --    4.32466   4.33177   4.34826   4.36521   4.36720
 Alpha virt. eigenvalues --    4.38573   4.44983   4.45177   4.47292   4.47663
 Alpha virt. eigenvalues --    4.50165   4.51116   4.52155   4.54885   4.55005
 Alpha virt. eigenvalues --    4.56659   4.59155   4.62195   4.65012   4.66978
 Alpha virt. eigenvalues --    4.68788   4.71559   4.74510   4.75549   4.76785
 Alpha virt. eigenvalues --    4.77245   4.79356   4.83759   4.88068   4.89494
 Alpha virt. eigenvalues --    4.92372   4.92501   4.93178   4.95782   4.97106
 Alpha virt. eigenvalues --    4.98416   5.02699   5.06844   5.09631   5.10593
 Alpha virt. eigenvalues --    5.16986   5.20900   5.22155   5.26028   5.27099
 Alpha virt. eigenvalues --    5.29886   5.36548   5.38607   5.39035   5.39873
 Alpha virt. eigenvalues --    5.41666   5.41884   5.52239   5.53429   5.60810
 Alpha virt. eigenvalues --    5.65076   5.71329   5.73986   5.83511   5.90313
 Alpha virt. eigenvalues --    7.94462   7.95206   8.02902   8.04429   8.06313
 Alpha virt. eigenvalues --    8.10010   8.11172   8.14827   8.18960   8.19647
 Alpha virt. eigenvalues --    8.34254   8.39566  34.76233  34.76652  34.81194
 Alpha virt. eigenvalues --   34.81848  34.84255  34.89313  34.98420  35.00600
 Alpha virt. eigenvalues --   35.00952  35.02776  35.17796  35.23538
  Beta  occ. eigenvalues --  -10.29668 -10.29312 -10.28392 -10.28331 -10.28294
  Beta  occ. eigenvalues --  -10.27976 -10.27973 -10.27917 -10.27895 -10.27889
  Beta  occ. eigenvalues --  -10.27693 -10.27377  -0.94789  -0.93002  -0.84928
  Beta  occ. eigenvalues --   -0.84301  -0.83481  -0.82264  -0.71146  -0.70121
  Beta  occ. eigenvalues --   -0.69257  -0.67691  -0.59876  -0.59342  -0.58065
  Beta  occ. eigenvalues --   -0.56206  -0.53210  -0.52948  -0.50713  -0.49869
  Beta  occ. eigenvalues --   -0.49176  -0.48056  -0.47777  -0.47234  -0.46322
  Beta  occ. eigenvalues --   -0.44556  -0.41298  -0.40880  -0.39718  -0.39516
  Beta  occ. eigenvalues --   -0.38901  -0.37316  -0.32055  -0.24080
  Beta virt. eigenvalues --   -0.00172   0.09084   0.11356   0.13451   0.14190
  Beta virt. eigenvalues --    0.14670   0.15527   0.16476   0.16962   0.17323
  Beta virt. eigenvalues --    0.17472   0.18165   0.19156   0.20219   0.21073
  Beta virt. eigenvalues --    0.21607   0.22272   0.23470   0.24047   0.24399
  Beta virt. eigenvalues --    0.25442   0.25955   0.27101   0.27207   0.27954
  Beta virt. eigenvalues --    0.29277   0.29324   0.30496   0.31052   0.31177
  Beta virt. eigenvalues --    0.31830   0.32530   0.32595   0.33318   0.34568
  Beta virt. eigenvalues --    0.34960   0.36087   0.36730   0.37115   0.37926
  Beta virt. eigenvalues --    0.38229   0.39377   0.41690   0.42061   0.42813
  Beta virt. eigenvalues --    0.44053   0.44586   0.45415   0.45947   0.46265
  Beta virt. eigenvalues --    0.47106   0.47652   0.49211   0.49246   0.49387
  Beta virt. eigenvalues --    0.49444   0.49788   0.49954   0.50799   0.50966
  Beta virt. eigenvalues --    0.51114   0.51723   0.52216   0.52857   0.53597
  Beta virt. eigenvalues --    0.53718   0.54911   0.55053   0.55674   0.56615
  Beta virt. eigenvalues --    0.57197   0.57469   0.58630   0.59236   0.59619
  Beta virt. eigenvalues --    0.59722   0.61233   0.61336   0.63778   0.65496
  Beta virt. eigenvalues --    0.66864   0.67889   0.68464   0.69074   0.69198
  Beta virt. eigenvalues --    0.71243   0.72232   0.73753   0.76285   0.76382
  Beta virt. eigenvalues --    0.78270   0.79282   0.79432   0.81888   0.82436
  Beta virt. eigenvalues --    0.83426   0.84644   0.86225   0.88018   0.88253
  Beta virt. eigenvalues --    0.88541   0.89779   0.93548   0.94306   0.95231
  Beta virt. eigenvalues --    0.96479   0.97657   0.98501   0.98974   0.99918
  Beta virt. eigenvalues --    1.02233   1.02495   1.04401   1.04786   1.06059
  Beta virt. eigenvalues --    1.07620   1.08317   1.08335   1.10126   1.10312
  Beta virt. eigenvalues --    1.12675   1.14370   1.15914   1.17029   1.17705
  Beta virt. eigenvalues --    1.18718   1.19182   1.19711   1.19975   1.20100
  Beta virt. eigenvalues --    1.21311   1.22793   1.24513   1.26067   1.26295
  Beta virt. eigenvalues --    1.27290   1.27898   1.28308   1.29202   1.29537
  Beta virt. eigenvalues --    1.30506   1.30863   1.33414   1.34427   1.35089
  Beta virt. eigenvalues --    1.35239   1.35683   1.36091   1.38450   1.39424
  Beta virt. eigenvalues --    1.39540   1.39945   1.40348   1.41847   1.42682
  Beta virt. eigenvalues --    1.43310   1.43883   1.44439   1.44719   1.45689
  Beta virt. eigenvalues --    1.46380   1.47031   1.47597   1.48518   1.49455
  Beta virt. eigenvalues --    1.50898   1.53817   1.55167   1.56829   1.57879
  Beta virt. eigenvalues --    1.59509   1.60047   1.60139   1.62130   1.63319
  Beta virt. eigenvalues --    1.63987   1.66059   1.66462   1.67720   1.68692
  Beta virt. eigenvalues --    1.72576   1.73855   1.75695   1.77656   1.78874
  Beta virt. eigenvalues --    1.79260   1.81071   1.81992   1.85518   1.85623
  Beta virt. eigenvalues --    1.87971   1.89965   1.91146   1.93076   1.94330
  Beta virt. eigenvalues --    1.97372   1.97838   2.01116   2.03098   2.04207
  Beta virt. eigenvalues --    2.06486   2.06893   2.08826   2.10535   2.11135
  Beta virt. eigenvalues --    2.12814   2.15688   2.16634   2.17049   2.18352
  Beta virt. eigenvalues --    2.19032   2.19506   2.20303   2.21478   2.24190
  Beta virt. eigenvalues --    2.25137   2.25630   2.28536   2.30533   2.32104
  Beta virt. eigenvalues --    2.34922   2.36869   2.38053   2.39459   2.44455
  Beta virt. eigenvalues --    2.45551   2.47385   2.47535   2.48527   2.49992
  Beta virt. eigenvalues --    2.50951   2.54832   2.55091   2.57208   2.57970
  Beta virt. eigenvalues --    2.58923   2.59577   2.61658   2.62252   2.63445
  Beta virt. eigenvalues --    2.64237   2.64725   2.67509   2.68274   2.68789
  Beta virt. eigenvalues --    2.69284   2.71829   2.73139   2.73296   2.74180
  Beta virt. eigenvalues --    2.74576   2.76088   2.76462   2.77835   2.77926
  Beta virt. eigenvalues --    2.79403   2.80835   2.80871   2.82337   2.83299
  Beta virt. eigenvalues --    2.83581   2.84417   2.84930   2.86005   2.86954
  Beta virt. eigenvalues --    2.87304   2.88299   2.89819   2.90295   2.91046
  Beta virt. eigenvalues --    2.92909   2.93158   2.93776   2.94990   2.96421
  Beta virt. eigenvalues --    2.96590   2.99073   3.00071   3.01459   3.02216
  Beta virt. eigenvalues --    3.03425   3.03868   3.05654   3.06235   3.06959
  Beta virt. eigenvalues --    3.08411   3.08960   3.09870   3.10747   3.11526
  Beta virt. eigenvalues --    3.12479   3.12999   3.13347   3.14791   3.14848
  Beta virt. eigenvalues --    3.15673   3.16182   3.18059   3.19470   3.19902
  Beta virt. eigenvalues --    3.20509   3.21075   3.21651   3.22549   3.22770
  Beta virt. eigenvalues --    3.23446   3.24435   3.25203   3.25563   3.26545
  Beta virt. eigenvalues --    3.26790   3.27183   3.28189   3.29778   3.30347
  Beta virt. eigenvalues --    3.30658   3.31303   3.32293   3.32629   3.34949
  Beta virt. eigenvalues --    3.35694   3.36063   3.36603   3.36833   3.37317
  Beta virt. eigenvalues --    3.38892   3.40026   3.40488   3.40777   3.42045
  Beta virt. eigenvalues --    3.42638   3.45370   3.45940   3.46608   3.47063
  Beta virt. eigenvalues --    3.48396   3.49021   3.49714   3.50683   3.51551
  Beta virt. eigenvalues --    3.52764   3.53041   3.53359   3.56421   3.57727
  Beta virt. eigenvalues --    3.57819   3.58293   3.58870   3.60015   3.60289
  Beta virt. eigenvalues --    3.61351   3.62382   3.63036   3.64656   3.66284
  Beta virt. eigenvalues --    3.66408   3.67169   3.69139   3.70092   3.72494
  Beta virt. eigenvalues --    3.72850   3.76494   3.78301   3.78689   3.80640
  Beta virt. eigenvalues --    3.81279   3.82264   3.82352   3.83129   3.84175
  Beta virt. eigenvalues --    3.85375   3.88128   3.90981   3.92052   3.92379
  Beta virt. eigenvalues --    3.93699   3.95550   3.96486   3.99986   4.02227
  Beta virt. eigenvalues --    4.03056   4.03734   4.06898   4.09890   4.10190
  Beta virt. eigenvalues --    4.11436   4.11857   4.13024   4.15425   4.15583
  Beta virt. eigenvalues --    4.17423   4.18667   4.20258   4.20911   4.21853
  Beta virt. eigenvalues --    4.23075   4.24962   4.25552   4.27982   4.29655
  Beta virt. eigenvalues --    4.32466   4.33177   4.34826   4.36521   4.36720
  Beta virt. eigenvalues --    4.38573   4.44983   4.45177   4.47292   4.47663
  Beta virt. eigenvalues --    4.50165   4.51116   4.52155   4.54885   4.55005
  Beta virt. eigenvalues --    4.56659   4.59155   4.62195   4.65012   4.66978
  Beta virt. eigenvalues --    4.68788   4.71559   4.74510   4.75549   4.76785
  Beta virt. eigenvalues --    4.77245   4.79356   4.83759   4.88068   4.89494
  Beta virt. eigenvalues --    4.92373   4.92501   4.93178   4.95782   4.97106
  Beta virt. eigenvalues --    4.98416   5.02699   5.06844   5.09631   5.10593
  Beta virt. eigenvalues --    5.16986   5.20900   5.22155   5.26028   5.27099
  Beta virt. eigenvalues --    5.29886   5.36548   5.38607   5.39035   5.39873
  Beta virt. eigenvalues --    5.41666   5.41884   5.52239   5.53429   5.60810
  Beta virt. eigenvalues --    5.65076   5.71329   5.73986   5.83511   5.90313
  Beta virt. eigenvalues --    7.94463   7.95206   8.02902   8.04429   8.06313
  Beta virt. eigenvalues --    8.10010   8.11172   8.14827   8.18960   8.19647
  Beta virt. eigenvalues --    8.34254   8.39566  34.76233  34.76652  34.81194
  Beta virt. eigenvalues --   34.81848  34.84255  34.89313  34.98420  35.00600
  Beta virt. eigenvalues --   35.00952  35.02776  35.17796  35.23538
          Condensed to atoms (all electrons):
               1          2          3          4          5          6
     1  C    5.221216   0.005581   0.425701  -0.002973   0.002177  -0.008101
     2  C    0.005581   5.394377  -0.001680   0.435227  -0.110343   0.189154
     3  H    0.425701  -0.001680   0.487439   0.000037  -0.000015   0.000110
     4  H   -0.002973   0.435227   0.000037   0.491373  -0.008340  -0.014757
     5  C    0.002177  -0.110343  -0.000015  -0.008340   5.295263   0.354595
     6  C   -0.008101   0.189154   0.000110  -0.014757   0.354595   5.394826
     7  H    0.000045  -0.002202   0.000002   0.000204   0.438774  -0.034328
     8  H    0.000507  -0.014675  -0.000100   0.000350  -0.042663   0.435247
     9  C    0.002509  -0.051882  -0.000007  -0.004705  -0.047957   0.226734
    10  H   -0.000022   0.006366  -0.000001  -0.000457  -0.005455  -0.047308
    11  H   -0.000198  -0.008942   0.000004   0.001051   0.011516  -0.059052
    12  C   -0.000256   0.014504  -0.000000   0.004920   0.343672  -0.059193
    13  H   -0.000001   0.000101   0.000000   0.000029  -0.029350   0.003226
    14  C    0.000101  -0.008090  -0.000000   0.000533  -0.048104   0.005677
    15  H   -0.000000   0.000112  -0.000000  -0.000102   0.004568  -0.001695
    16  C   -0.000379   0.017113   0.000000  -0.001217   0.002370  -0.071607
    17  H    0.000034   0.002008  -0.000000  -0.004609   0.008550  -0.008717
    18  H    0.000001  -0.000008   0.000000   0.000458  -0.003238   0.013030
    19  C   -0.048197   0.354925   0.004527  -0.042665  -0.014718  -0.110436
    20  H    0.004477  -0.034045  -0.000120  -0.005552  -0.000319  -0.002239
    21  C    0.503170  -0.059154  -0.030775   0.006219   0.002427   0.014576
    22  H   -0.025082   0.003212  -0.005066  -0.000072   0.000051   0.000104
    23  C   -0.085429   0.227081   0.004761  -0.017191   0.014153  -0.051902
    24  H    0.013509  -0.059036  -0.000044  -0.003576   0.006787  -0.008931
    25  H    0.000955  -0.047208  -0.000091  -0.004019  -0.000146   0.006361
    26  C    0.266908  -0.071796  -0.027082   0.007156  -0.012062   0.017145
    27  H   -0.034590   0.013050  -0.004288  -0.000094   0.000291  -0.000009
    28  H   -0.037594  -0.008679   0.000502  -0.000152  -0.003346   0.001987
               7          8          9         10         11         12
     1  C    0.000045   0.000507   0.002509  -0.000022  -0.000198  -0.000256
     2  C   -0.002202  -0.014675  -0.051882   0.006366  -0.008942   0.014504
     3  H    0.000002  -0.000100  -0.000007  -0.000001   0.000004  -0.000000
     4  H    0.000204   0.000350  -0.004705  -0.000457   0.001051   0.004920
     5  C    0.438774  -0.042663  -0.047957  -0.005455   0.011516   0.343672
     6  C   -0.034328   0.435247   0.226734  -0.047308  -0.059052  -0.059193
     7  H    0.476130  -0.005556   0.003296   0.000038  -0.000007  -0.035360
     8  H   -0.005556   0.491307  -0.017210  -0.004021  -0.003575   0.006212
     9  C    0.003296  -0.017210   5.015214   0.409729   0.462053   0.030300
    10  H    0.000038  -0.004021   0.409729   0.558507  -0.017866   0.001512
    11  H   -0.000007  -0.003575   0.462053  -0.017866   0.523355  -0.005466
    12  C   -0.035360   0.006212   0.030300   0.001512  -0.005466   5.035399
    13  H   -0.003625  -0.000072   0.000582  -0.000120   0.000026   0.419999
    14  C    0.004464  -0.002971  -0.085512   0.000936   0.013519   0.502771
    15  H   -0.000121   0.000037   0.004765  -0.000091  -0.000044  -0.031114
    16  C   -0.001270   0.007153   0.325577  -0.024399  -0.056464  -0.050348
    17  H    0.000003  -0.000152  -0.028422   0.005262  -0.005464  -0.009694
    18  H    0.000039  -0.000095  -0.043518  -0.007418  -0.001677   0.005612
    19  C   -0.000319  -0.008381   0.014127  -0.000138   0.006757   0.002420
    20  H    0.000002   0.000201   0.002939   0.000330  -0.003208  -0.000056
    21  C   -0.000056   0.004956  -0.003233  -0.000183  -0.000134  -0.000193
    22  H   -0.000001   0.000029  -0.000074  -0.000002  -0.000027  -0.000001
    23  C    0.002903  -0.004722   0.006245  -0.000253   0.000292  -0.003240
    24  H   -0.003223   0.001049   0.000293  -0.000031  -0.000006  -0.000141
    25  H    0.000330  -0.000457  -0.000253   0.000017  -0.000030  -0.000180
    26  C   -0.001133  -0.001218  -0.001590   0.000049  -0.000055   0.001449
    27  H   -0.000025   0.000460   0.000017  -0.000000  -0.000003  -0.000023
    28  H    0.002056  -0.004622   0.000599   0.000010   0.000020   0.000194
              13         14         15         16         17         18
     1  C   -0.000001   0.000101  -0.000000  -0.000379   0.000034   0.000001
     2  C    0.000101  -0.008090   0.000112   0.017113   0.002008  -0.000008
     3  H    0.000000  -0.000000  -0.000000   0.000000  -0.000000   0.000000
     4  H    0.000029   0.000533  -0.000102  -0.001217  -0.004609   0.000458
     5  C   -0.029350  -0.048104   0.004568   0.002370   0.008550  -0.003238
     6  C    0.003226   0.005677  -0.001695  -0.071607  -0.008717   0.013030
     7  H   -0.003625   0.004464  -0.000121  -0.001270   0.000003   0.000039
     8  H   -0.000072  -0.002971   0.000037   0.007153  -0.000152  -0.000095
     9  C    0.000582  -0.085512   0.004765   0.325577  -0.028422  -0.043518
    10  H   -0.000120   0.000936  -0.000091  -0.024399   0.005262  -0.007418
    11  H    0.000026   0.013519  -0.000044  -0.056464  -0.005464  -0.001677
    12  C    0.419999   0.502771  -0.031114  -0.050348  -0.009694   0.005612
    13  H    0.489540  -0.025131  -0.005076   0.003487  -0.000375  -0.000093
    14  C   -0.025131   5.221565   0.425994   0.266771  -0.037594  -0.034506
    15  H   -0.005076   0.425994   0.487532  -0.027064   0.000499  -0.004276
    16  C    0.003487   0.266771  -0.027064   4.983828   0.405078   0.428394
    17  H   -0.000375  -0.037594   0.000499   0.405078   0.574377  -0.021936
    18  H   -0.000093  -0.034506  -0.004276   0.428394  -0.021936   0.537939
    19  C    0.000051   0.002185  -0.000015  -0.012086  -0.003365   0.000293
    20  H   -0.000001   0.000046   0.000002  -0.001138   0.002045  -0.000025
    21  C   -0.000001  -0.000256  -0.000000   0.001450   0.000192  -0.000023
    22  H    0.000000  -0.000001   0.000000   0.000006  -0.000002  -0.000001
    23  C   -0.000074   0.002506  -0.000007  -0.001583   0.000600   0.000017
    24  H   -0.000027  -0.000198   0.000004  -0.000056   0.000020  -0.000003
    25  H   -0.000002  -0.000023  -0.000001   0.000049   0.000010  -0.000000
    26  C    0.000006  -0.000379   0.000000   0.000399  -0.000043  -0.000000
    27  H   -0.000001   0.000001   0.000000  -0.000000   0.000001  -0.000000
    28  H   -0.000002   0.000034  -0.000000  -0.000042  -0.000009   0.000001
              19         20         21         22         23         24
     1  C   -0.048197   0.004477   0.503170  -0.025082  -0.085429   0.013509
     2  C    0.354925  -0.034045  -0.059154   0.003212   0.227081  -0.059036
     3  H    0.004527  -0.000120  -0.030775  -0.005066   0.004761  -0.000044
     4  H   -0.042665  -0.005552   0.006219  -0.000072  -0.017191  -0.003576
     5  C   -0.014718  -0.000319   0.002427   0.000051   0.014153   0.006787
     6  C   -0.110436  -0.002239   0.014576   0.000104  -0.051902  -0.008931
     7  H   -0.000319   0.000002  -0.000056  -0.000001   0.002903  -0.003223
     8  H   -0.008381   0.000201   0.004956   0.000029  -0.004722   0.001049
     9  C    0.014127   0.002939  -0.003233  -0.000074   0.006245   0.000293
    10  H   -0.000138   0.000330  -0.000183  -0.000002  -0.000253  -0.000031
    11  H    0.006757  -0.003208  -0.000134  -0.000027   0.000292  -0.000006
    12  C    0.002420  -0.000056  -0.000193  -0.000001  -0.003240  -0.000141
    13  H    0.000051  -0.000001  -0.000001   0.000000  -0.000074  -0.000027
    14  C    0.002185   0.000046  -0.000256  -0.000001   0.002506  -0.000198
    15  H   -0.000015   0.000002  -0.000000   0.000000  -0.000007   0.000004
    16  C   -0.012086  -0.001138   0.001450   0.000006  -0.001583  -0.000056
    17  H   -0.003365   0.002045   0.000192  -0.000002   0.000600   0.000020
    18  H    0.000293  -0.000025  -0.000023  -0.000001   0.000017  -0.000003
    19  C    5.295236   0.438776   0.343515  -0.029371  -0.048066   0.011516
    20  H    0.438776   0.475753  -0.035596  -0.003619   0.003288  -0.000007
    21  C    0.343515  -0.035596   5.035461   0.419990   0.030248  -0.005462
    22  H   -0.029371  -0.003619   0.419990   0.489533   0.000584   0.000026
    23  C   -0.048066   0.003288   0.030248   0.000584   5.014722   0.461986
    24  H    0.011516  -0.000007  -0.005462   0.000026   0.461986   0.523494
    25  H   -0.005494   0.000038   0.001522  -0.000119   0.409659  -0.017901
    26  C    0.002572  -0.001275  -0.050514   0.003487   0.325583  -0.056432
    27  H   -0.003254   0.000038   0.005690  -0.000093  -0.043525  -0.001682
    28  H    0.008536   0.000003  -0.009700  -0.000375  -0.028466  -0.005469
              25         26         27         28
     1  C    0.000955   0.266908  -0.034590  -0.037594
     2  C   -0.047208  -0.071796   0.013050  -0.008679
     3  H   -0.000091  -0.027082  -0.004288   0.000502
     4  H   -0.004019   0.007156  -0.000094  -0.000152
     5  C   -0.000146  -0.012062   0.000291  -0.003346
     6  C    0.006361   0.017145  -0.000009   0.001987
     7  H    0.000330  -0.001133  -0.000025   0.002056
     8  H   -0.000457  -0.001218   0.000460  -0.004622
     9  C   -0.000253  -0.001590   0.000017   0.000599
    10  H    0.000017   0.000049  -0.000000   0.000010
    11  H   -0.000030  -0.000055  -0.000003   0.000020
    12  C   -0.000180   0.001449  -0.000023   0.000194
    13  H   -0.000002   0.000006  -0.000001  -0.000002
    14  C   -0.000023  -0.000379   0.000001   0.000034
    15  H   -0.000001   0.000000   0.000000  -0.000000
    16  C    0.000049   0.000399  -0.000000  -0.000042
    17  H    0.000010  -0.000043   0.000001  -0.000009
    18  H   -0.000000  -0.000000  -0.000000   0.000001
    19  C   -0.005494   0.002572  -0.003254   0.008536
    20  H    0.000038  -0.001275   0.000038   0.000003
    21  C    0.001522  -0.050514   0.005690  -0.009700
    22  H   -0.000119   0.003487  -0.000093  -0.000375
    23  C    0.409659   0.325583  -0.043525  -0.028466
    24  H   -0.017901  -0.056432  -0.001682  -0.005469
    25  H    0.558545  -0.024411  -0.007403   0.005260
    26  C   -0.024411   4.983968   0.428431   0.405084
    27  H   -0.007403   0.428431   0.537795  -0.021942
    28  H    0.005260   0.405084  -0.021942   0.574403
          Atomic-Atomic Spin Densities.
               1          2          3          4          5          6
     1  C    0.456399   0.001126  -0.000354   0.000195   0.000113   0.004613
     2  C    0.001126  -0.329916   0.000053   0.005836   0.081671   0.000052
     3  H   -0.000354   0.000053  -0.016432   0.000000  -0.000002  -0.000045
     4  H    0.000195   0.005836   0.000000   0.016687  -0.005409  -0.013283
     5  C    0.000113   0.081671  -0.000002  -0.005409  -0.650361   0.036773
     6  C    0.004613   0.000052  -0.000045  -0.013283   0.036773   0.329995
     7  H   -0.000005  -0.000600  -0.000000   0.000002   0.002182  -0.000151
     8  H   -0.001718   0.013270   0.000002  -0.000000  -0.002464  -0.005847
     9  C   -0.000106   0.014860   0.000001   0.001761  -0.003657  -0.019465
    10  H    0.000060  -0.000842   0.000000  -0.000092   0.001445  -0.003770
    11  H   -0.000240  -0.000615   0.000001   0.000229  -0.000253  -0.003386
    12  C   -0.000071  -0.012194   0.000000   0.002937   0.021255  -0.021487
    13  H   -0.000000  -0.000169   0.000000   0.000041   0.001118  -0.000418
    14  C   -0.000000  -0.004617   0.000000   0.001721   0.038385  -0.001153
    15  H   -0.000000   0.000046  -0.000000  -0.000002   0.000009  -0.000054
    16  C   -0.000018   0.000272  -0.000000  -0.000868  -0.001682   0.001231
    17  H    0.000013   0.003607  -0.000000  -0.001211  -0.004749   0.004082
    18  H   -0.000000  -0.000326  -0.000000   0.000066   0.000609  -0.000952
    19  C   -0.038326  -0.036947  -0.000007   0.002486   0.000013  -0.081764
    20  H   -0.000237   0.000128   0.000004   0.000220   0.000087   0.000590
    21  C    0.005287   0.021570  -0.000077  -0.001622  -0.001514   0.012230
    22  H   -0.000436   0.000422   0.000137  -0.000025  -0.000013   0.000170
    23  C    0.003011   0.019472  -0.000189   0.003443  -0.006729  -0.014838
    24  H    0.000132   0.003392   0.000001  -0.000400  -0.004433   0.000615
    25  H   -0.000945   0.003764   0.000001   0.000120   0.001364   0.000840
    26  C   -0.021516  -0.001217   0.000590  -0.000048  -0.000311  -0.000276
    27  H   -0.005645   0.000950   0.000056  -0.000046   0.000016   0.000326
    28  H   -0.012683  -0.004082   0.000080   0.000206   0.000211  -0.003611
               7          8          9         10         11         12
     1  C   -0.000005  -0.001718  -0.000106   0.000060  -0.000240  -0.000071
     2  C   -0.000600   0.013270   0.014860  -0.000842  -0.000615  -0.012194
     3  H   -0.000000   0.000002   0.000001   0.000000   0.000001   0.000000
     4  H    0.000002  -0.000000   0.001761  -0.000092   0.000229   0.002937
     5  C    0.002182  -0.002464  -0.003657   0.001445  -0.000253   0.021255
     6  C   -0.000151  -0.005847  -0.019465  -0.003770  -0.003386  -0.021487
     7  H    0.020801  -0.000217   0.000276   0.000016  -0.000006  -0.001831
     8  H   -0.000217  -0.016679  -0.003452  -0.000118   0.000399   0.001614
     9  C    0.000276  -0.003452  -0.009596   0.003628   0.001143   0.005682
    10  H    0.000016  -0.000118   0.003628   0.010348  -0.002031  -0.000644
    11  H   -0.000006   0.000399   0.001143  -0.002031   0.003507   0.000179
    12  C   -0.001831   0.001614   0.005682  -0.000644   0.000179   0.200722
    13  H   -0.000201   0.000025   0.000134  -0.000024   0.000002  -0.001177
    14  C    0.000237  -0.000193  -0.003014   0.000947  -0.000132  -0.005357
    15  H   -0.000004  -0.000000   0.000189  -0.000001  -0.000002   0.000063
    16  C   -0.000064   0.000048  -0.003737  -0.001326   0.000225  -0.004604
    17  H    0.000015  -0.000206   0.000274   0.000146  -0.000149   0.001560
    18  H   -0.000001   0.000046  -0.001361   0.000131  -0.000026  -0.000916
    19  C   -0.000086   0.005417   0.006745  -0.001364   0.004428   0.001513
    20  H   -0.000000  -0.000001  -0.000232  -0.000004   0.000132  -0.000030
    21  C    0.000031  -0.002943  -0.000897   0.000159  -0.000482  -0.000000
    22  H    0.000000  -0.000041  -0.000012   0.000002  -0.000019   0.000000
    23  C    0.000233  -0.001762  -0.000002  -0.000010   0.000184   0.000890
    24  H   -0.000131  -0.000229  -0.000185   0.000005  -0.000000   0.000482
    25  H    0.000004   0.000092   0.000010  -0.000000  -0.000005  -0.000159
    26  C   -0.000088   0.000867   0.000031  -0.000014   0.000018   0.000140
    27  H   -0.000002  -0.000066  -0.000009   0.000000  -0.000002  -0.000011
    28  H    0.000034   0.001210   0.000201  -0.000024   0.000038   0.000121
              13         14         15         16         17         18
     1  C   -0.000000  -0.000000  -0.000000  -0.000018   0.000013  -0.000000
     2  C   -0.000169  -0.004617   0.000046   0.000272   0.003607  -0.000326
     3  H    0.000000   0.000000  -0.000000  -0.000000  -0.000000  -0.000000
     4  H    0.000041   0.001721  -0.000002  -0.000868  -0.001211   0.000066
     5  C    0.001118   0.038385   0.000009  -0.001682  -0.004749   0.000609
     6  C   -0.000418  -0.001153  -0.000054   0.001231   0.004082  -0.000952
     7  H   -0.000201   0.000237  -0.000004  -0.000064   0.000015  -0.000001
     8  H    0.000025  -0.000193  -0.000000   0.000048  -0.000206   0.000046
     9  C    0.000134  -0.003014   0.000189  -0.003737   0.000274  -0.001361
    10  H   -0.000024   0.000947  -0.000001  -0.001326   0.000146   0.000131
    11  H    0.000002  -0.000132  -0.000002   0.000225  -0.000149  -0.000026
    12  C   -0.001177  -0.005357   0.000063  -0.004604   0.001560  -0.000916
    13  H   -0.006936   0.000431  -0.000138  -0.000097   0.000032  -0.000015
    14  C    0.000431  -0.456344   0.000366   0.021493   0.012698   0.005637
    15  H   -0.000138   0.000366   0.016436  -0.000590  -0.000080  -0.000056
    16  C   -0.000097   0.021493  -0.000590   0.025714  -0.006673  -0.003596
    17  H    0.000032   0.012698  -0.000080  -0.006673  -0.035695   0.005774
    18  H   -0.000015   0.005637  -0.000056  -0.003596   0.005774  -0.014519
    19  C    0.000013  -0.000115   0.000002   0.000313  -0.000209  -0.000016
    20  H   -0.000000   0.000005   0.000000   0.000089  -0.000033   0.000002
    21  C   -0.000000   0.000071  -0.000000  -0.000140  -0.000121   0.000011
    22  H   -0.000000   0.000000  -0.000000  -0.000002  -0.000002   0.000000
    23  C    0.000011   0.000107  -0.000001  -0.000031  -0.000201   0.000009
    24  H    0.000018   0.000240  -0.000001  -0.000018  -0.000038   0.000002
    25  H   -0.000002  -0.000060  -0.000000   0.000014   0.000024  -0.000000
    26  C    0.000002   0.000018   0.000000   0.000000  -0.000009   0.000000
    27  H   -0.000000   0.000000   0.000000  -0.000000   0.000000  -0.000000
    28  H    0.000002  -0.000013   0.000000   0.000009   0.000000  -0.000000
              19         20         21         22         23         24
     1  C   -0.038326  -0.000237   0.005287  -0.000436   0.003011   0.000132
     2  C   -0.036947   0.000128   0.021570   0.000422   0.019472   0.003392
     3  H   -0.000007   0.000004  -0.000077   0.000137  -0.000189   0.000001
     4  H    0.002486   0.000220  -0.001622  -0.000025   0.003443  -0.000400
     5  C    0.000013   0.000087  -0.001514  -0.000013  -0.006729  -0.004433
     6  C   -0.081764   0.000590   0.012230   0.000170  -0.014838   0.000615
     7  H   -0.000086  -0.000000   0.000031   0.000000   0.000233  -0.000131
     8  H    0.005417  -0.000001  -0.002943  -0.000041  -0.001762  -0.000229
     9  C    0.006745  -0.000232  -0.000897  -0.000012  -0.000002  -0.000185
    10  H   -0.001364  -0.000004   0.000159   0.000002  -0.000010   0.000005
    11  H    0.004428   0.000132  -0.000482  -0.000019   0.000184  -0.000000
    12  C    0.001513  -0.000030  -0.000000   0.000000   0.000890   0.000482
    13  H    0.000013  -0.000000  -0.000000  -0.000000   0.000011   0.000018
    14  C   -0.000115   0.000005   0.000071   0.000000   0.000107   0.000240
[...]
     3  H    0.000002   0.000481   0.000043   0.000092
     4  H    0.000029  -0.000067  -0.000041   0.000185
     5  C    0.001274   0.000468   0.000016  -0.000012
     6  C    0.000596   0.000281   0.000238  -0.002692
     7  H   -0.000002  -0.000125  -0.000003   0.000055
     8  H    0.000079   0.000783  -0.000050   0.000890
     9  C    0.000018   0.000045  -0.000011   0.000222
    10  H    0.000000  -0.000008   0.000000  -0.000021
    11  H   -0.000004   0.000005  -0.000001   0.000027
    12  C   -0.000150   0.000063  -0.000008   0.000090
    13  H   -0.000002   0.000001  -0.000000   0.000001
    14  C   -0.000049   0.000007   0.000000  -0.000008
    15  H   -0.000000   0.000000   0.000000   0.000000
    16  C    0.000008   0.000001   0.000000   0.000001
    17  H    0.000021  -0.000001   0.000000  -0.000000
    18  H   -0.000000  -0.000000   0.000000  -0.000000
    19  C   -0.001309  -0.000139  -0.000735   0.005104
    20  H   -0.000004   0.000096   0.000002  -0.000020
    21  C    0.000539   0.005129   0.000942  -0.001788
    22  H    0.000019   0.000126   0.000014  -0.000034
    23  C   -0.002607   0.004699   0.000730   0.000954
    24  H    0.001675   0.000080   0.000030   0.000069
    25  H   -0.009870   0.000659  -0.000091  -0.000108
    26  C    0.000659  -0.026525   0.004035   0.005086
    27  H   -0.000091   0.004035   0.014132  -0.005494
    28  H   -0.000108   0.005086  -0.005494   0.035223
 Mulliken charges and spin densities:
               1          2
     1  C   -0.201464   0.386461
     2  C   -0.198342  -0.219473
     3  H    0.149458  -0.015879
     4  H    0.173558   0.013029
     5  C   -0.174673  -0.494193
     6  C   -0.196261   0.219502
     7  H    0.164788   0.020053
     8  H    0.172806  -0.013027
     9  C   -0.243142  -0.010354
    10  H    0.133984   0.006602
    11  H    0.150792   0.002740
    12  C   -0.171715   0.187274
    13  H    0.149622  -0.007237
    14  C   -0.201226  -0.386462
    15  H    0.149502   0.015876
    16  C   -0.196949   0.025348
    17  H    0.126813  -0.021202
    18  H    0.135566  -0.009489
    19  C   -0.171885   0.494226
    20  H    0.164269  -0.020062
    21  C   -0.172355  -0.187301
    22  H    0.149491   0.007237
    23  C   -0.239799   0.010324
    24  H    0.150691  -0.002748
    25  H    0.132827  -0.006593
    26  C   -0.198730  -0.025353
    27  H    0.135628   0.009492
    28  H    0.126747   0.021210
 Sum of Mulliken charges =  -0.00000  -0.00000
 Mulliken charges and spin densities with hydrogens summed into heavy atoms:
               1          2
     1  C   -0.052007   0.370582
     2  C   -0.024784  -0.206444
     5  C   -0.009884  -0.474140
     6  C   -0.023455   0.206475
     9  C    0.041634  -0.001012
    12  C   -0.022094   0.180038
    14  C   -0.051725  -0.370586
    16  C    0.065430  -0.005343
    19  C   -0.007616   0.474164
    21  C   -0.022864  -0.180064
    23  C    0.043719   0.000983
    26  C    0.063645   0.005349
 Electronic spatial extent (au):  <R**2>=           2188.3038
 Charge=             -0.0000 electrons
 Dipole moment (field-independent basis, Debye):
    X=             -0.0009    Y=             -0.0026    Z=             -0.0058  Tot=              0.0065
 Quadrupole moment (field-independent basis, Debye-Ang):
   XX=            -70.3792   YY=            -69.0509   ZZ=            -75.0818
   XY=             -3.0013   XZ=             -3.1441   YZ=             -0.6985
 Traceless Quadrupole moment (field-independent basis, Debye-Ang):
   XX=              1.1247   YY=              2.4531   ZZ=             -3.5778
   XY=             -3.0013   XZ=             -3.1441   YZ=             -0.6985
 Octapole moment (field-independent basis, Debye-Ang**2):
  XXX=             -0.0217  YYY=             -0.0238  ZZZ=             -0.0340  XYY=              0.0063
  XXY=             -0.0049  XXZ=             -0.0292  XZZ=             -0.0127  YZZ=             -0.0060
  YYZ=             -0.0017  XYZ=             -0.0057
 Hexadecapole moment (field-independent basis, Debye-Ang**3):
 XXXX=          -1970.3972 YYYY=           -614.0401 ZZZZ=           -303.8533 XXXY=            -93.7035
 XXXZ=           -116.8924 YYYX=            -56.7144 YYYZ=              0.3128 ZZZX=            -63.9689
 ZZZY=             -8.1336 XXYY=           -428.7537 XXZZ=           -407.3795 YYZZ=           -168.0026
 XXYZ=            -20.3717 YYXZ=            -24.6136 ZZXY=            -40.9342
 N-N= 6.916875069052D+02 E-N=-2.465788205497D+03  KE= 4.641990531425D+02
                          Isotropic Fermi Contact Couplings
        Atom                 a.u.       MegaHertz       Gauss      10(-4) cm-1
     1  C(13)              0.02974      16.71883       5.96569       5.57680
     2  C(13)             -0.07591     -42.67141     -15.22622     -14.23365
     3  H(1)              -0.00594     -13.27289      -4.73610      -4.42736
     4  H(1)               0.00710      15.86185       5.65990       5.29094
     5  C(13)             -0.03916     -22.01238      -7.85456      -7.34254
     6  C(13)              0.07593      42.68155      15.22984      14.23703
     7  H(1)               0.00759      16.95532       6.05008       5.65569
     8  H(1)              -0.00710     -15.85806      -5.65855      -5.28968
     9  C(13)             -0.00915      -5.14074      -1.83434      -1.71477
    10  H(1)               0.00365       8.15797       2.91097       2.72121
    11  H(1)               0.00086       1.91989       0.68506       0.64041
    12  C(13)              0.03338      18.76154       6.69458       6.25818
    13  H(1)              -0.00248      -5.54654      -1.97914      -1.85013
    14  C(13)             -0.02975     -16.72177      -5.96674      -5.57778
    15  H(1)               0.00594      13.27389       4.73645       4.42769
    16  C(13)              0.01387       7.79889       2.78284       2.60143
    17  H(1)              -0.01027     -22.95104      -8.18950      -7.65564
    18  H(1)              -0.00452     -10.10081      -3.60422      -3.36927
    19  C(13)              0.03917      22.01495       7.85548       7.34340
    20  H(1)              -0.00759     -16.95654      -6.05052      -5.65609
    21  C(13)             -0.03338     -18.76183      -6.69469      -6.25827
    22  H(1)               0.00248       5.54688       1.97926       1.85024
    23  C(13)              0.00914       5.13668       1.83289       1.71341
    24  H(1)              -0.00086      -1.91963      -0.68497      -0.64032
    25  H(1)              -0.00365      -8.15489      -2.90987      -2.72018
    26  C(13)             -0.01387      -7.79773      -2.78242      -2.60104
    27  H(1)               0.00452      10.10191       3.60461       3.36964
    28  H(1)               0.01027      22.94762       8.18828       7.65450
 --------------------------------------------------------
       Center         ----  Spin Dipole Couplings  ----
                      3XX-RR        3YY-RR        3ZZ-RR
 --------------------------------------------------------
     1   Atom       -0.081157     -0.230002      0.311159
     2   Atom        0.049691      0.128041     -0.177732
     3   Atom        0.022371     -0.029072      0.006701
     4   Atom       -0.006929      0.014969     -0.008040
     5   Atom        0.174159      0.298733     -0.472891
     6   Atom       -0.049705     -0.128049      0.177754
     7   Atom        0.011200     -0.010587     -0.000613
     8   Atom        0.006932     -0.014973      0.008041
     9   Atom       -0.000329     -0.004985      0.005314
    10   Atom        0.003186     -0.002273     -0.000913
    11   Atom        0.003577     -0.003483     -0.000094
    12   Atom       -0.056172     -0.088002      0.144174
    13   Atom       -0.006943      0.003710      0.003234
    14   Atom        0.081179      0.230030     -0.311209
    15   Atom       -0.022375      0.029074     -0.006699
    16   Atom        0.003313     -0.002657     -0.000656
    17   Atom        0.005001     -0.006015      0.001014
    18   Atom        0.004455     -0.006997      0.002542
    19   Atom       -0.174216     -0.298768      0.472984
    20   Atom       -0.011197      0.010591      0.000606
    21   Atom        0.056186      0.088006     -0.144192
    22   Atom        0.006945     -0.003713     -0.003233
    23   Atom        0.000332      0.004976     -0.005308
    24   Atom       -0.003579      0.003483      0.000096
    25   Atom       -0.003186      0.002273      0.000913
    26   Atom       -0.003309      0.002658      0.000651
    27   Atom       -0.004455      0.006996     -0.002541
    28   Atom       -0.005000      0.006015     -0.001015
 --------------------------------------------------------
                        XY            XZ            YZ
 --------------------------------------------------------
     1   Atom       -0.003642      0.273535     -0.010783
     2   Atom       -0.027771     -0.158960     -0.070366
     3   Atom        0.005478     -0.011548     -0.003416
     4   Atom        0.001817      0.005679     -0.006863
     5   Atom        0.006967     -0.300191     -0.016263
     6   Atom        0.027778      0.158968      0.070389
     7   Atom        0.034651     -0.006323     -0.011587
     8   Atom       -0.001816     -0.005681      0.006863
     9   Atom        0.008305      0.007570     -0.003109
    10   Atom       -0.000631      0.003401      0.003167
    11   Atom       -0.003551      0.005893      0.000560
    12   Atom        0.008389      0.109266     -0.015500
    13   Atom        0.006423      0.006154     -0.002769
    14   Atom        0.003633     -0.273563      0.010765
    15   Atom       -0.005478      0.011550      0.003415
    16   Atom       -0.001669     -0.007119      0.000663
    17   Atom       -0.002653     -0.001687     -0.002947
    18   Atom        0.001281      0.000230      0.001855
    19   Atom       -0.006962      0.300194      0.016273
    20   Atom       -0.034658      0.006323      0.011586
    21   Atom       -0.008385     -0.109273      0.015504
    22   Atom       -0.006422     -0.006155      0.002768
    23   Atom       -0.008309     -0.007561      0.003106
    24   Atom        0.003549     -0.005894     -0.000561
    25   Atom        0.000631     -0.003402     -0.003167
    26   Atom        0.001669      0.007119     -0.000662
    27   Atom       -0.001282     -0.000230     -0.001854
    28   Atom        0.002652      0.001686      0.002946
 --------------------------------------------------------


 ---------------------------------------------------------------------------------
              Anisotropic Spin Dipole Couplings in Principal Axis System
 ---------------------------------------------------------------------------------

       Atom             a.u.   MegaHertz   Gauss  10(-4) cm-1        Axes

              Baa    -0.2305   -30.932   -11.037   -10.318 -0.1579  0.9824  0.0993
     1 C(13)  Bbb    -0.2213   -29.694   -10.595    -9.905  0.8755  0.1858 -0.4460
              Bcc     0.4518    60.625    21.633    20.222  0.4566 -0.0165  0.8895
 
              Baa    -0.2736   -36.712   -13.100   -12.246  0.4464  0.1843  0.8756
     2 C(13)  Bbb     0.1277    17.135     6.114     5.716  0.8323 -0.4448 -0.3307
              Bcc     0.1459    19.577     6.985     6.530  0.3286  0.8764 -0.3520
 
              Baa    -0.0298   -15.895    -5.672    -5.302 -0.0901  0.9938  0.0645
     3 H(1)   Bbb     0.0006     0.313     0.112     0.105  0.4712 -0.0145  0.8819
              Bcc     0.0292    15.581     5.560     5.197  0.8774  0.1099 -0.4670
 
              Baa    -0.0146    -7.776    -2.775    -2.594 -0.6147  0.2141  0.7591
     4 H(1)   Bbb    -0.0023    -1.221    -0.436    -0.407  0.7887  0.1537  0.5953
              Bcc     0.0169     8.997     3.210     3.001  0.0108  0.9646 -0.2634
 
              Baa    -0.5909   -79.291   -28.293   -26.449  0.3651  0.0142  0.9309
     5 C(13)  Bbb     0.2825    37.915    13.529    12.647  0.7446 -0.6046 -0.2829
              Bcc     0.3083    41.377    14.764    13.802  0.5588  0.7964 -0.2313
 
              Baa    -0.1459   -19.579    -6.986    -6.531  0.3286  0.8764 -0.3520
     6 C(13)  Bbb    -0.1277   -17.137    -6.115    -5.716  0.8323 -0.4449 -0.3306
              Bcc     0.2736    36.716    13.101    12.247  0.4464  0.1843  0.8757
 
              Baa    -0.0369   -19.703    -7.031    -6.572 -0.5627  0.8109  0.1608
     7 H(1)   Bbb    -0.0032    -1.729    -0.617    -0.577  0.3241  0.0375  0.9453
              Bcc     0.0402    21.432     7.648     7.149  0.7605  0.5840 -0.2839
 
              Baa    -0.0169    -8.999    -3.211    -3.002  0.0107  0.9646 -0.2633
     8 H(1)   Bbb     0.0023     1.221     0.436     0.407  0.7886  0.1537  0.5954
              Bcc     0.0146     7.778     2.775     2.595 -0.6148  0.2141  0.7591
 
              Baa    -0.0140    -1.876    -0.669    -0.626 -0.6219  0.6974  0.3563
     9 C(13)  Bbb     0.0030     0.402     0.143     0.134  0.4558  0.6923 -0.5594
              Bcc     0.0110     1.474     0.526     0.492  0.6368  0.1855  0.7484
 
              Baa    -0.0057    -3.029    -1.081    -1.010  0.3048  0.6784 -0.6685
    10 H(1)   Bbb     0.0004     0.219     0.078     0.073 -0.4680  0.7180  0.5152
              Bcc     0.0053     2.810     1.003     0.937  0.8295  0.1558  0.5363
 
              Baa    -0.0067    -3.598    -1.284    -1.200  0.5292  0.6665 -0.5251
    11 H(1)   Bbb    -0.0017    -0.922    -0.329    -0.308 -0.2493  0.7137  0.6546
              Bcc     0.0085     4.520     1.613     1.508  0.8111 -0.2154  0.5439
 
              Baa    -0.1123   -15.073    -5.379    -5.028  0.7840 -0.5025 -0.3644
    12 C(13)  Bbb    -0.0803   -10.779    -3.846    -3.596  0.4741  0.8637 -0.1711
              Bcc     0.1927    25.852     9.225     8.623  0.4007 -0.0386  0.9154
 
              Baa    -0.0128    -6.830    -2.437    -2.278  0.8352 -0.3900 -0.3879
    13 H(1)   Bbb     0.0061     3.232     1.153     1.078  0.2832 -0.2996  0.9110
              Bcc     0.0067     3.598     1.284     1.200  0.4715  0.8707  0.1398
 
              Baa    -0.4518   -60.633   -21.635   -20.225  0.4566 -0.0165  0.8895
    14 C(13)  Bbb     0.2213    29.698    10.597     9.906  0.8755  0.1859 -0.4460
              Bcc     0.2305    30.935    11.039    10.319 -0.1580  0.9824  0.0993
 
              Baa    -0.0292   -15.584    -5.561    -5.198  0.8774  0.1098 -0.4669
    15 H(1)   Bbb    -0.0006    -0.312    -0.111    -0.104  0.4711 -0.0145  0.8819
              Bcc     0.0298    15.896     5.672     5.302 -0.0901  0.9938  0.0645
 
              Baa    -0.0061    -0.823    -0.294    -0.275  0.6117  0.1453  0.7776
    16 C(13)  Bbb    -0.0028    -0.382    -0.136    -0.127  0.0281  0.9784 -0.2050
              Bcc     0.0090     1.205     0.430     0.402  0.7906 -0.1473 -0.5944
 
              Baa    -0.0078    -4.175    -1.490    -1.393  0.2335  0.9082  0.3474
    17 H(1)   Bbb     0.0020     1.053     0.376     0.351  0.1643 -0.3890  0.9065
              Bcc     0.0059     3.122     1.114     1.041  0.9584 -0.1546 -0.2401
 
              Baa    -0.0075    -3.985    -1.422    -1.329 -0.1017  0.9786 -0.1790
    18 H(1)   Bbb     0.0028     1.479     0.528     0.493 -0.2449  0.1497  0.9579
              Bcc     0.0047     2.506     0.894     0.836  0.9642  0.1412  0.2244
 
              Baa    -0.3084   -41.382   -14.766   -13.803  0.5588  0.7964 -0.2313
    19 C(13)  Bbb    -0.2826   -37.920   -13.531   -12.649  0.7446 -0.6046 -0.2828
              Bcc     0.5910    79.301    28.297    26.452  0.3651  0.0142  0.9309
 
              Baa    -0.0402   -21.434    -7.648    -7.149  0.7605  0.5840 -0.2838
    20 H(1)   Bbb     0.0032     1.725     0.616     0.575  0.3240  0.0376  0.9453
              Bcc     0.0369    19.708     7.032     6.574 -0.5627  0.8109  0.1607
 
              Baa    -0.1927   -25.855    -9.226    -8.624  0.4007 -0.0386  0.9154
    21 C(13)  Bbb     0.0803    10.780     3.847     3.596  0.4740  0.8638 -0.1710
              Bcc     0.1123    15.075     5.379     5.028  0.7841 -0.5024 -0.3644
 
              Baa    -0.0067    -3.598    -1.284    -1.200  0.4713  0.8708  0.1397
    22 H(1)   Bbb    -0.0061    -3.232    -1.153    -1.078  0.2834 -0.2995  0.9111
              Bcc     0.0128     6.830     2.437     2.278  0.8352 -0.3898 -0.3879
 
              Baa    -0.0110    -1.473    -0.525    -0.491  0.6371  0.1862  0.7480
    23 C(13)  Bbb    -0.0030    -0.403    -0.144    -0.134  0.4552  0.6922 -0.5600
              Bcc     0.0140     1.875     0.669     0.626 -0.6221  0.6972  0.3562
 
              Baa    -0.0085    -4.520    -1.613    -1.508  0.8111 -0.2152  0.5438
    24 H(1)   Bbb     0.0017     0.923     0.329     0.308 -0.2493  0.7139  0.6544
              Bcc     0.0067     3.598     1.284     1.200  0.5291  0.6664 -0.5254
 
              Baa    -0.0053    -2.810    -1.003    -0.937  0.8295  0.1559  0.5364
    25 H(1)   Bbb    -0.0004    -0.219    -0.078    -0.073 -0.4681  0.7180  0.5151
              Bcc     0.0057     3.029     1.081     1.010  0.3048  0.6783 -0.6686
 
              Baa    -0.0090    -1.204    -0.430    -0.402  0.7904 -0.1472 -0.5946
    26 C(13)  Bbb     0.0028     0.382     0.136     0.127  0.0277  0.9783 -0.2055
              Bcc     0.0061     0.823     0.294     0.274  0.6120  0.1460  0.7773
 
              Baa    -0.0047    -2.506    -0.894    -0.836  0.9642  0.1413  0.2243
    27 H(1)   Bbb    -0.0028    -1.479    -0.528    -0.493 -0.2447  0.1497  0.9580
              Bcc     0.0075     3.985     1.422     1.329 -0.1017  0.9786 -0.1790
 
              Baa    -0.0059    -3.121    -1.114    -1.041  0.9584 -0.1547 -0.2399
    28 H(1)   Bbb    -0.0020    -1.053    -0.376    -0.351  0.1642 -0.3888  0.9066
              Bcc     0.0078     4.174     1.490     1.392  0.2335  0.9082  0.3473
 

 ---------------------------------------------------------------------------------

 No NMR shielding tensors so no spin-rotation constants.
 Leave Link  601 at Tue Aug  4 15:45:26 2020, MaxMem=  6442450944 cpu:               8.2 elap:               0.4
 (Enter /scratch/scicomp/CentOS/7.3.1611/Haswell/software/Gaussian/g16/l9999.exe)
 1\1\GINC-ATLAS-205\SP\UwB97XD\def2TZVP\C12H16\BOCHEN\04-Aug-2020\0\\#p
  uwb97xd guess=mix def2tzvp # scrf=(iefpcm,solvent=Cyclohexane,read) n
 osym 6d 10f\\endo-2 xp-pcm for eta=3\\0,1\C,0,-3.118978,-0.431679,0.24
 7428\C,0,-0.498946,-0.160979,-0.842137\H,0,-4.084002,-0.548806,0.72590
 8\H,0,0.353974,-0.115713,-1.511513\C,0,1.10474,1.419096,0.680914\C,0,0
 .498946,0.160979,0.842137\H,0,0.54438,2.322265,0.886395\H,0,-0.353974,
 0.115713,1.511513\C,0,1.462618,-0.999815,0.987483\H,0,1.898715,-0.9373
 76,1.99035\H,0,0.929624,-1.949747,0.936184\C,0,2.406372,1.522548,0.118
 104\H,0,2.824451,2.509227,-0.045547\C,0,3.118978,0.431679,-0.247428\H,
 0,4.084002,0.548806,-0.725908\C,0,2.592276,-0.958579,-0.043389\H,0,2.2
 48579,-1.357021,-1.006512\H,0,3.401237,-1.622533,0.271\C,0,-1.10474,-1
 .419096,-0.680914\H,0,-0.54438,-2.322265,-0.886395\C,0,-2.406372,-1.52
 2548,-0.118104\H,0,-2.824451,-2.509227,0.045547\C,0,-1.462618,0.999815
 ,-0.987483\H,0,-0.929624,1.949747,-0.936184\H,0,-1.898715,0.937376,-1.
 99035\C,0,-2.592276,0.958579,0.043389\H,0,-3.401236,1.622533,-0.271\H,
 0,-2.248578,1.357021,1.006512\\Version=ES64L-G16RevB.01\HF=-466.767744
 9\S2=0.696787\S2-1=0.\S2A=0.238173\RMSD=9.185e-09\Dipole=-0.0003351,-0
 .0010397,-0.0023002\Quadrupole=0.8362183,1.8237964,-2.6600147,-2.23141
 04,-2.3375308,-0.5193094\PG=CI [X(C12H16)]\\@


 "TIGER, TIGER BURNING BRIGHT
 IN THE FOREST OF THE NIGHT.
 WHAT IMMORTAL HAND OR EYE
 CAN FRAME THY FEARFUL SYMMETRYE?"
                     - WILLIAM BLAKE
 Job cpu time:       0 days  2 hours  4 minutes  8.1 seconds.
 Elapsed time:       0 days  0 hours  5 minutes 13.6 seconds.
 File lengths (MBytes):  RWF=    625 Int=      0 D2E=      0 Chk=     24 Scr=      1
 Normal termination of Gaussian 16 at Tue Aug  4 15:45:26 2020.
