 Entering Gaussian System, Link 0=g16
 Input=meso-TS_37_2_xp-Vc.com
 Output=meso-TS_37_2_xp-Vc.log
 Initial command:
 /scratch/scicomp/CentOS/7.3.1611/Haswell/software/Gaussian/g16/l1.exe "/scratch/bochen/cyclohexadiene-dimerization/wb97xd-def2tzvp/xp-pcm/meso/Gau-90061.inp" -scrdir="/scratch/bochen/cyclohexadiene-dimerization/wb97xd-def2tzvp/xp-pcm/meso/"
 Entering Link 1 = /scratch/scicomp/CentOS/7.3.1611/Haswell/software/Gaussian/g16/l1.exe PID=     90062.
  
 Copyright (c) 1988-2017, Gaussian, Inc.  All Rights Reserved.
  
 This is part of the Gaussian(R) 16 program.  It is based on
 the Gaussian(R) 09 system (copyright 2009, Gaussian, Inc.),
 the Gaussian(R) 03 system (copyright 2003, Gaussian, Inc.),
 the Gaussian(R) 98 system (copyright 1998, Gaussian, Inc.),
 the Gaussian(R) 94 system (copyright 1995, Gaussian, Inc.),
 the Gaussian 92(TM) system (copyright 1992, Gaussian, Inc.),
 the Gaussian 90(TM) system (copyright 1990, Gaussian, Inc.),
 the Gaussian 88(TM) system (copyright 1988, Gaussian, Inc.),
 the Gaussian 86(TM) system (copyright 1986, Carnegie Mellon
 University), and the Gaussian 82(TM) system (copyright 1983,
 Carnegie Mellon University). Gaussian is a federally registered
 trademark of Gaussian, Inc.
  
 This software contains proprietary and confidential information,
 including trade secrets, belonging to Gaussian, Inc.
  
 This software is provided under written license and may be
 used, copied, transmitted, or stored only in accord with that
 written license.
  
 The following legend is applicable only to US Government
 contracts under FAR:
  
                    RESTRICTED RIGHTS LEGEND
  
 Use, reproduction and disclosure by the US Government is
 subject to restrictions as set forth in subparagraphs (a)
 and (c) of the Commercial Computer Software - Restricted
 Rights clause in FAR 52.227-19.
  
 Gaussian, Inc.
 340 Quinnipiac St., Bldg. 40, Wallingford CT 06492
  
  
 ---------------------------------------------------------------
 Warning -- This program may not be used in any manner that
 competes with the business of Gaussian, Inc. or will provide
 assistance to any competitor of Gaussian, Inc.  The licensee
 of this program is prohibited from giving any competitor of
 Gaussian, Inc. access to this program.  By using this program,
 the user acknowledges that Gaussian, Inc. is engaged in the
 business of creating and licensing software in the field of
 computational chemistry and represents and warrants to the
 licensee that it is not a competitor of Gaussian, Inc. and that
 it will not use this program in any manner prohibited above.
 ---------------------------------------------------------------
  

 Cite this work as:
 Gaussian 16, Revision B.01,
 M. J. Frisch, G. W. Trucks, H. B. Schlegel, G. E. Scuseria, 
 M. A. Robb, J. R. Cheeseman, G. Scalmani, V. Barone, 
 G. A. Petersson, H. Nakatsuji, X. Li, M. Caricato, A. V. Marenich, 
 J. Bloino, B. G. Janesko, R. Gomperts, B. Mennucci, H. P. Hratchian, 
 J. V. Ortiz, A. F. Izmaylov, J. L. Sonnenberg, D. Williams-Young, 
 F. Ding, F. Lipparini, F. Egidi, J. Goings, B. Peng, A. Petrone, 
 T. Henderson, D. Ranasinghe, V. G. Zakrzewski, J. Gao, N. Rega, 
 G. Zheng, W. Liang, M. Hada, M. Ehara, K. Toyota, R. Fukuda, 
 J. Hasegawa, M. Ishida, T. Nakajima, Y. Honda, O. Kitao, H. Nakai, 
 T. Vreven, K. Throssell, J. A. Montgomery, Jr., J. E. Peralta, 
 F. Ogliaro, M. J. Bearpark, J. J. Heyd, E. N. Brothers, K. N. Kudin, 
 V. N. Staroverov, T. A. Keith, R. Kobayashi, J. Normand, 
 K. Raghavachari, A. P. Rendell, J. C. Burant, S. S. Iyengar, 
 J. Tomasi, M. Cossi, J. M. Millam, M. Klene, C. Adamo, R. Cammi, 
 J. W. Ochterski, R. L. Martin, K. Morokuma, O. Farkas, 
 J. B. Foresman, and D. J. Fox, Gaussian, Inc., Wallingford CT, 2016.
 
 ******************************************
 Gaussian 16:  ES64L-G16RevB.01 20-Dec-2017
                 3-Aug-2020 
 ******************************************
 %chk=meso-TS_37_2_xp-12.chk
 %nproc=24
 Will use up to   24 processors via shared memory.
 %mem=48GB
 ----------------------------------------------------------------------
 #p uwb97xd guess=mix def2tzvp # scrf=(iefpcm,solvent=Cyclohexane,read)
  nosym guess=only pop=none
 ----------------------------------------------------------------------
 1/38=1,40=2,172=1/1;
 2/12=2,15=1,17=6,18=5,40=1/2;
 3/5=44,7=101,11=2,25=1,30=1,70=2203,72=17,74=-58,89=1,116=2/1,2;
 4/13=-1/1;
 99/5=2/99;
 Leave Link    1 at Mon Aug  3 17:24:58 2020, MaxMem=  6442450944 cpu:               2.1 elap:               0.1
 (Enter /scratch/scicomp/CentOS/7.3.1611/Haswell/software/Gaussian/g16/l101.exe)
 -----------------------
 endo-2 xp-pcm for eta=3
 -----------------------
 Symbolic Z-matrix:
 Charge =  0 Multiplicity = 1
 6                    -3.12622  -0.44049   0.25349 
 6                    -0.67222  -0.23682  -1.14636 
 1                    -4.08296  -0.54175   0.75273 
 1                     0.29421  -0.14682  -1.62513 
 6                     1.12979   1.41843   0.74352 
 6                     0.67222   0.23682   1.14636 
 1                     0.53682   2.31558   0.87217 
 1                    -0.29421   0.14682   1.62513 
 6                     1.51865  -1.        1.05961 
 1                     2.01232  -1.1142    2.03299 
 1                     0.89114  -1.882     0.93796 
 6                     2.43995   1.52471   0.1049 
 1                     2.84394   2.51143  -0.0879 
 6                     3.12622   0.44049  -0.25349 
 1                     4.08296   0.54175  -0.75273 
 6                     2.58441  -0.94681  -0.04091 
 1                     2.17791  -1.31185  -0.99221 
 1                     3.39788  -1.63095   0.20883 
 6                    -1.12979  -1.41843  -0.74352 
 1                    -0.53682  -2.31558  -0.87217 
 6                    -2.43995  -1.52471  -0.1049 
 1                    -2.84394  -2.51143   0.0879 
 6                    -1.51865   1.       -1.05961 
 1                    -0.89114   1.882    -0.93796 
 1                    -2.01232   1.11421  -2.03299 
 6                    -2.58441   0.94681   0.04091 
 1                    -3.39788   1.63095  -0.20883 
 1                    -2.17791   1.31185   0.99221 
 
 ITRead=  0  0  0  0  0  0  0  0  0  0  0  0  0  0  0  0  0  0  0  0
 ITRead=  0  0  0  0  0  0  0  0
 MicOpt= -1 -1 -1 -1 -1 -1 -1 -1 -1 -1 -1 -1 -1 -1 -1 -1 -1 -1 -1 -1
 MicOpt= -1 -1 -1 -1 -1 -1 -1 -1
 NAtoms=     28 NQM=       28 NQMF=       0 NMMI=      0 NMMIF=      0
                NMic=       0 NMicF=      0.
                    Isotopes and Nuclear Properties:
 (Nuclear quadrupole moments (NQMom) in fm**2, nuclear magnetic moments (NMagM)
  in nuclear magnetons)

  Atom         1           2           3           4           5           6           7           8           9          10
 IAtWgt=          12          12           1           1          12          12           1           1          12           1
 AtmWgt=  12.0000000  12.0000000   1.0078250   1.0078250  12.0000000  12.0000000   1.0078250   1.0078250  12.0000000   1.0078250
 NucSpn=           0           0           1           1           0           0           1           1           0           1
 AtZEff=  -0.0000000  -0.0000000  -0.0000000  -0.0000000  -0.0000000  -0.0000000  -0.0000000  -0.0000000  -0.0000000  -0.0000000
 NQMom=    0.0000000   0.0000000   0.0000000   0.0000000   0.0000000   0.0000000   0.0000000   0.0000000   0.0000000   0.0000000
 NMagM=    0.0000000   0.0000000   2.7928460   2.7928460   0.0000000   0.0000000   2.7928460   2.7928460   0.0000000   2.7928460
 AtZNuc=   6.0000000   6.0000000   1.0000000   1.0000000   6.0000000   6.0000000   1.0000000   1.0000000   6.0000000   1.0000000

  Atom        11          12          13          14          15          16          17          18          19          20
 IAtWgt=           1          12           1          12           1          12           1           1          12           1
 AtmWgt=   1.0078250  12.0000000   1.0078250  12.0000000   1.0078250  12.0000000   1.0078250   1.0078250  12.0000000   1.0078250
 NucSpn=           1           0           1           0           1           0           1           1           0           1
 AtZEff=  -0.0000000  -0.0000000  -0.0000000  -0.0000000  -0.0000000  -0.0000000  -0.0000000  -0.0000000  -0.0000000  -0.0000000
 NQMom=    0.0000000   0.0000000   0.0000000   0.0000000   0.0000000   0.0000000   0.0000000   0.0000000   0.0000000   0.0000000
 NMagM=    2.7928460   0.0000000   2.7928460   0.0000000   2.7928460   0.0000000   2.7928460   2.7928460   0.0000000   2.7928460
 AtZNuc=   1.0000000   6.0000000   1.0000000   6.0000000   1.0000000   6.0000000   1.0000000   1.0000000   6.0000000   1.0000000

  Atom        21          22          23          24          25          26          27          28
 IAtWgt=          12           1          12           1           1          12           1           1
 AtmWgt=  12.0000000   1.0078250  12.0000000   1.0078250   1.0078250  12.0000000   1.0078250   1.0078250
 NucSpn=           0           1           0           1           1           0           1           1
 AtZEff=  -0.0000000  -0.0000000  -0.0000000  -0.0000000  -0.0000000  -0.0000000  -0.0000000  -0.0000000
 NQMom=    0.0000000   0.0000000   0.0000000   0.0000000   0.0000000   0.0000000   0.0000000   0.0000000
 NMagM=    0.0000000   2.7928460   0.0000000   2.7928460   2.7928460   0.0000000   2.7928460   2.7928460
 AtZNuc=   6.0000000   1.0000000   6.0000000   1.0000000   1.0000000   6.0000000   1.0000000   1.0000000
 Leave Link  101 at Mon Aug  3 17:24:58 2020, MaxMem=  6442450944 cpu:               2.4 elap:               0.1
 (Enter /scratch/scicomp/CentOS/7.3.1611/Haswell/software/Gaussian/g16/l202.exe)
                          Input orientation:                          
 ---------------------------------------------------------------------
 Center     Atomic      Atomic             Coordinates (Angstroms)
 Number     Number       Type             X           Y           Z
 ---------------------------------------------------------------------
      1          6           0       -3.126220   -0.440488    0.253489
      2          6           0       -0.672219   -0.236821   -1.146356
      3          1           0       -4.082957   -0.541745    0.752734
      4          1           0        0.294206   -0.146815   -1.625125
      5          6           0        1.129787    1.418428    0.743520
      6          6           0        0.672219    0.236821    1.146356
      7          1           0        0.536815    2.315578    0.872168
      8          1           0       -0.294206    0.146815    1.625125
      9          6           0        1.518650   -0.999998    1.059609
     10          1           0        2.012318   -1.114204    2.032991
     11          1           0        0.891136   -1.882004    0.937960
     12          6           0        2.439953    1.524706    0.104897
     13          1           0        2.843940    2.511426   -0.087900
     14          6           0        3.126220    0.440488   -0.253489
     15          1           0        4.082957    0.541745   -0.752734
     16          6           0        2.584411   -0.946808   -0.040911
     17          1           0        2.177912   -1.311853   -0.992206
     18          1           0        3.397883   -1.630946    0.208832
     19          6           0       -1.129787   -1.418428   -0.743520
     20          1           0       -0.536815   -2.315578   -0.872168
     21          6           0       -2.439953   -1.524706   -0.104897
     22          1           0       -2.843940   -2.511426    0.087900
     23          6           0       -1.518650    0.999998   -1.059609
     24          1           0       -0.891135    1.882004   -0.937960
     25          1           0       -2.012317    1.114205   -2.032991
     26          6           0       -2.584411    0.946808    0.040911
     27          1           0       -3.397883    1.630946   -0.208832
     28          1           0       -2.177912    1.311853    0.992206
 ---------------------------------------------------------------------
                    Distance matrix (angstroms):
                    1          2          3          4          5
     1  C    0.000000
     2  C    2.832520   0.000000
     3  H    1.083902   3.915693   0.000000
     4  H    3.913406   1.082265   4.996973   0.000000
     5  C    4.670042   3.091716   5.569117   2.959503   0.000000
     6  C    3.960315   2.699700   4.834543   2.823327   1.329602
     7  H    4.625634   3.471447   5.433310   3.515496   1.083072
     8  H    3.201033   2.823327   3.948394   3.316108   2.102851
     9  C    4.747389   3.201348   5.628692   3.071641   2.469800
    10  H    5.479516   4.252621   6.254530   4.155666   2.975873
    11  H    4.322686   3.081409   5.154823   3.152239   3.314757
    12  C    5.904773   3.788697   6.873010   3.223537   1.461393
    13  H    6.668819   4.586564   7.616457   3.991297   2.196412
    14  C    6.334521   3.960315   7.345032   3.201033   2.436419
    15  H    7.345032   4.834543   8.373920   3.948394   3.424699
    16  C    5.740587   3.511656   6.726644   2.897372   2.885412
    17  H    5.517685   3.050033   6.544949   2.303530   3.400845
    18  H    6.631976   4.510637   7.579258   3.898571   3.837816
    19  C    2.436419   1.329602   3.424699   2.102851   3.919785
    20  H    3.389408   2.101129   4.285080   2.441531   4.396682
    21  C    1.332266   2.422430   2.097905   3.418377   4.703711
    22  H    2.096637   3.378400   2.420085   4.286467   5.627086
    23  C    2.526560   1.501230   3.498175   2.218431   3.231188
    24  H    3.436441   2.140274   4.349797   2.448129   2.669532
    25  H    2.980913   2.099346   3.845775   2.660183   4.204091
    26  C    1.504439   2.543041   2.228928   3.501160   3.809377
    27  H    2.139715   3.434640   2.472756   4.335648   4.631623
    28  H    2.125015   3.039564   2.668777   3.884521   3.318746
                    6          7          8          9         10
     6  C    0.000000
     7  H    2.101129   0.000000
     8  H    1.082265   2.441531   0.000000
     9  C    1.501230   3.462972   2.218431   0.000000
    10  H    2.099346   3.909990   2.660184   1.097371   0.000000
    11  H    2.140274   4.213023   2.448129   1.089269   1.745182
    12  C    2.422430   2.199117   3.418377   2.852088   3.296098
    13  H    3.378400   2.506574   4.286467   3.924700   4.281935
    14  C    2.832520   3.389408   3.913406   2.526560   2.980912
    15  H    3.915693   4.285080   4.996973   3.498175   3.845774
    16  C    2.543041   3.958475   3.501160   1.532912   2.157865
    17  H    3.039564   4.396288   3.884521   2.177573   3.036166
    18  H    3.434640   4.919428   4.335648   2.157182   2.348269
    19  C    3.091716   4.396682   2.959503   3.231188   4.204092
    20  H    3.471447   5.063891   3.515496   3.112467   4.047385
    21  C    3.788697   4.956166   3.223537   4.159559   4.955986
    22  H    4.586564   5.945128   3.991297   4.718138   5.414688
    23  C    3.201348   3.112467   3.071641   4.209069   5.147986
    24  H    3.081408   2.345973   3.152239   4.254795   5.121899
    25  H    4.252621   4.047384   4.155666   5.147986   6.139683
    26  C    3.511656   3.508072   2.897372   4.654343   5.417201
    27  H    4.510637   4.137527   3.898571   5.718663   6.467758
    28  H    3.050033   2.896829   2.303530   4.360478   4.952475
                   11         12         13         14         15
    11  H    0.000000
    12  C    3.833862   0.000000
    13  H    4.916102   1.083509   0.000000
    14  C    3.436440   1.332266   2.096637   0.000000
    15  H    4.349796   2.097905   2.420085   1.083902   0.000000
    16  C    2.167939   2.480022   3.468277   1.504439   2.228928
    17  H    2.388808   3.052600   3.984824   2.125015   2.668777
    18  H    2.622678   3.299481   4.189767   2.139715   2.472756
    19  C    2.669533   4.703711   5.627086   4.670042   5.569117
    20  H    2.345974   4.956166   5.945128   4.625634   5.433310
    21  C    3.508756   5.758160   6.649073   5.904773   6.873010
    22  H    3.881954   6.649073   7.590252   6.668819   7.616457
    23  C    4.254796   4.159559   4.718138   4.747389   5.628692
    24  H    4.567639   3.508755   3.881953   4.322686   5.154822
    25  H    5.121900   4.955985   5.414687   5.479515   6.254529
    26  C    4.570153   5.057894   5.650807   5.740587   6.726644
    27  H    5.661416   5.847225   6.304778   6.631976   7.579258
    28  H    4.429754   4.707154   5.274903   5.517685   6.544949
                   16         17         18         19         20
    16  C    0.000000
    17  H    1.097024   0.000000
    18  H    1.091858   1.741448   0.000000
    19  C    3.809377   3.318746   4.631623   0.000000
    20  H    3.508072   2.896829   4.137527   1.083072   0.000000
    21  C    5.057894   4.707154   5.847225   1.461393   2.199117
    22  H    5.650807   5.274903   6.304778   2.196412   2.506574
    23  C    4.654343   4.360478   5.718663   2.469800   3.462972
    24  H    4.570153   4.429753   5.661415   3.314757   4.213023
    25  H    5.417201   4.952475   6.467758   2.975874   3.909991
    26  C    5.505379   5.371089   6.516199   2.885412   3.958475
    27  H    6.516199   6.353206   7.549624   3.837816   4.919428
    28  H    5.371089   5.458473   6.353206   3.400845   4.396288
                   21         22         23         24         25
    21  C    0.000000
    22  H    1.083509   0.000000
    23  C    2.852088   3.924700   0.000000
    24  H    3.833863   4.916102   1.089270   0.000000
    25  H    3.296099   4.281936   1.097371   1.745181   0.000000
    26  C    2.480022   3.468277   1.532912   2.167940   2.157865
    27  H    3.299481   4.189767   2.157182   2.622679   2.348270
    28  H    3.052600   3.984824   2.177573   2.388809   3.036166
                   26         27         28
    26  C    0.000000
    27  H    1.091858   0.000000
    28  H    1.097024   1.741448   0.000000
 Symmetry turned off by external request.
 Stoichiometry    C12H16
 Framework group  CI[X(C12H16)]
 Deg. of freedom    39
 Full point group                 CI      NOp   2
 Rotational constants (GHZ):           1.8182963           0.6091474           0.5421992
 Leave Link  202 at Mon Aug  3 17:24:58 2020, MaxMem=  6442450944 cpu:               0.3 elap:               0.0
 (Enter /scratch/scicomp/CentOS/7.3.1611/Haswell/software/Gaussian/g16/l301.exe)
 Standard basis: def2TZVP (5D, 7F)
 Ernie: Thresh=  0.10000D-02 Tol=  0.10000D-05 Strict=F.
   468 basis functions,   740 primitive gaussians,   528 cartesian basis functions
    44 alpha electrons       44 beta electrons
       nuclear repulsion energy       681.4184138780 Hartrees.
 IExCor= 4639 DFT=T Ex+Corr=wB97XD ExCW=0 ScaHFX=  1.000000
 ScaDFX=  1.000000  1.000000  1.000000  1.000000 ScalE2=  1.000000  1.000000
 IRadAn=      5 IRanWt=     -1 IRanGd=            0 ICorTp=0 IEmpDi=121
 HFx  wShort=  0.000000 wLong=  0.200000 cFull=  0.222036 cShort=  0.000000 cLong=  0.777964
 DFx  wShort=  0.000000 wLong=  0.200000 cFull=  0.000000 cShort=  0.000000 cLong=  1.000000
 NAtoms=   28 NActive=   28 NUniq=   28 SFac= 1.00D+00 NAtFMM=   60 NAOKFM=F Big=F
 Integral buffers will be    131072 words long.
 Raffenetti 2 integral format.
 Two-electron integral symmetry is turned off.
 R6Disp:  Grimme-D2 Dispersion energy=       -0.0227217399 Hartrees.
 Nuclear repulsion after empirical dispersion term =      681.3956921381 Hartrees.
 Using the following non-standard input for PCM:
 qrep pcmdoc geomview  nodis nocav g03defaults tsare=0.075
 Warning! Using old PCM defaults because the g03defaults keyword was found.
 These settings can be overridden by following keywords.
 nsfe=28
 NVESolv=36  SolvMW=84.1595   Rsolv=2.815
 eps=2.0165 RhoS=0.7781
 --- end of non-standard input.
 Reading user-defined spheres from input:
 ISph  on   Nord    Re0     Alpha      Xe            Ye            Ze
 --- end of user-defined spheres data.
 ------------------------------------------------------------------------------
 Polarizable Continuum Model (PCM)
 =================================
 Model                : PCM.
 Atomic radii         : UA0 (Simple United Atom Topological Model).
 Polarization charges : Total charges.
 Charge compensation  : None.
 Solution method      : On-the-fly selection.
 Cavity type          : SES (Solvent Excluding Surface) (Alpha=1.000).
 Cavity algorithm     : GePol (RMin=0.200 OFac=0.890).
                        User-defined sphere list used, NSphG=   28.
                        Tesserae with average area of 0.075 Ang**2.
                        Smoothing algorithm: None.
                        Polarization charges: point-like.
                        Self-potential: constant (ISelfS= 1).
                        Self-field    : global E.n sum rule (ISelfD= 3).
 Solvent              : CycloHexane, Eps=   2.016500 Eps(inf)=   2.035188
                        RSolv=   2.815000 Ang.
 ------------------------------------------------------------------------------
 GePol: Number of generator spheres                  =      28
 GePol: Total number of spheres                      =     192
 GePol: Number of exposed spheres                    =     139 ( 72.40%)
 GePol: Number of tesserae                           =    4693
 GePol: Average area of tesserae                     =       0.05 Ang**2
 GePol: Minimum area of tessera                      =   0.10D-02 Ang**2
 GePol: Maximum area of tessera                      =    0.12395 Ang**2
 GePol: Number of small tesserae                     =       0
 GePol: Fraction of small tesserae (<1% of avg)      =       0.00%
 GePol: Total count of vertices                      =   16655
 GePol: Maximum number of vertices in a tessera      =       7
 GePol: Cavity surface area                          =    220.451 Ang**2
 GePol: Cavity volume                                =    249.885 Ang**3
 Leave Link  301 at Mon Aug  3 17:24:59 2020, MaxMem=  6442450944 cpu:               8.3 elap:               0.4
 (Enter /scratch/scicomp/CentOS/7.3.1611/Haswell/software/Gaussian/g16/l302.exe)
 NPDir=0 NMtPBC=     1 NCelOv=     1 NCel=       1 NClECP=     1 NCelD=      1
         NCelK=      1 NCelE2=     1 NClLst=     1 CellRange=     0.0.
 One-electron integrals computed using PRISM.
   1 Symmetry operations used in ECPInt.
 ECPInt:  NShTT=   19306 NPrTT=   56928 LenC2=   18494 LenP2D=   42038.
 LDataN:  DoStor=T MaxTD1= 6 Len=  172
 NBasis=   468 RedAO= T EigKep=  2.31D-05  NBF=   468
 NBsUse=   468 1.00D-06 EigRej= -1.00D+00 NBFU=   468
 Precomputing XC quadrature grid using
 IXCGrd= 4 IRadAn=           5 IRanWt=          -1 IRanGd=           0 AccXCQ= 0.00D+00.
 Generated NRdTot=       0 NPtTot=           0 NUsed=           0 NTot=          32
 NSgBfM=   526   526   526   526   526 MxSgAt=    28 MxSgA2=    28.
 Leave Link  302 at Mon Aug  3 17:24:59 2020, MaxMem=  6442450944 cpu:              11.8 elap:               0.5
 (Enter /scratch/scicomp/CentOS/7.3.1611/Haswell/software/Gaussian/g16/l401.exe)
 ExpMin= 9.52D-02 ExpMax= 1.36D+04 ExpMxC= 4.63D+02 IAcc=3 IRadAn=         5 AccDes= 0.00D+00
 Harris functional with IExCor= 4639 and IRadAn=       5 diagonalized for initial guess.
 HarFok:  IExCor= 4639 AccDes= 0.00D+00 IRadAn=         5 IDoV= 1 UseB2=F ITyADJ=14
 ICtDFT=  3500011 ScaDFX=  1.000000  1.000000  1.000000  1.000000
 FoFCou: FMM=F IPFlag=           0 FMFlag=      100000 FMFlg1=           0
         NFxFlg=           0 DoJE=T BraDBF=F KetDBF=T FulRan=T
         wScrn=  0.000000 ICntrl=       500 IOpCl=  0 I1Cent=   200000004 NGrid=           0
         NMat0=    1 NMatS0=      1 NMatT0=    0 NMatD0=    1 NMtDS0=    0 NMtDT0=    0
 Symmetry not used in FoFCou.
 Harris En= -444.627886044925    
 JPrj=0 DoOrth=F DoCkMO=T.
 Mixing orbitals, IMix= 1 IMixAn=  0 NRI=1 NE=   44 Coef=  7.07106781D-01  7.07106781D-01
 Mixing orbitals, IMix= 1 IMixAn=  0 NRI=1 NE=   44 Coef= -7.07106781D-01  7.07106781D-01
 Initial guess <Sx>= 0.0000 <Sy>= 0.0000 <Sz>= 0.0000 <S**2>= 1.0000 S= 0.6180
 Leave Link  401 at Mon Aug  3 17:25:02 2020, MaxMem=  6442450944 cpu:              47.6 elap:               2.0
 (Enter /scratch/scicomp/CentOS/7.3.1611/Haswell/software/Gaussian/g16/l9999.exe)

 This type of calculation cannot be archived.


 ALL PAPERS THAT YOU SAVE WILL NEVER BE NEEDED UNTIL
 SUCH TIME AS THEY ARE DISPOSED OF, WHEN THEY BECOME
 ESSENTIAL.

           -- JOHN CORCORAN IN
              PAUL DICKSON'S "THE OFFICIAL RULES"
 Job cpu time:       0 days  0 hours  1 minutes 13.5 seconds.
 Elapsed time:       0 days  0 hours  0 minutes  3.3 seconds.
 File lengths (MBytes):  RWF=    401 Int=      0 D2E=      0 Chk=      1 Scr=      1
 Normal termination of Gaussian 16 at Mon Aug  3 17:25:02 2020.
 Initial command:
 /scratch/scicomp/CentOS/7.3.1611/Haswell/software/Gaussian/g16/l1.exe "/scratch/bochen/cyclohexadiene-dimerization/wb97xd-def2tzvp/xp-pcm/meso/Gau-90061.inp" -scrdir="/scratch/bochen/cyclohexadiene-dimerization/wb97xd-def2tzvp/xp-pcm/meso/"
 Entering Link 1 = /scratch/scicomp/CentOS/7.3.1611/Haswell/software/Gaussian/g16/l1.exe PID=     90224.
  
 Copyright (c) 1988-2017, Gaussian, Inc.  All Rights Reserved.
  
 This is part of the Gaussian(R) 16 program.  It is based on
 the Gaussian(R) 09 system (copyright 2009, Gaussian, Inc.),
 the Gaussian(R) 03 system (copyright 2003, Gaussian, Inc.),
 the Gaussian(R) 98 system (copyright 1998, Gaussian, Inc.),
 the Gaussian(R) 94 system (copyright 1995, Gaussian, Inc.),
 the Gaussian 92(TM) system (copyright 1992, Gaussian, Inc.),
 the Gaussian 90(TM) system (copyright 1990, Gaussian, Inc.),
 the Gaussian 88(TM) system (copyright 1988, Gaussian, Inc.),
 the Gaussian 86(TM) system (copyright 1986, Carnegie Mellon
 University), and the Gaussian 82(TM) system (copyright 1983,
 Carnegie Mellon University). Gaussian is a federally registered
 trademark of Gaussian, Inc.
  
 This software contains proprietary and confidential information,
 including trade secrets, belonging to Gaussian, Inc.
  
 This software is provided under written license and may be
 used, copied, transmitted, or stored only in accord with that
 written license.
  
 The following legend is applicable only to US Government
 contracts under FAR:
  
                    RESTRICTED RIGHTS LEGEND
  
 Use, reproduction and disclosure by the US Government is
 subject to restrictions as set forth in subparagraphs (a)
 and (c) of the Commercial Computer Software - Restricted
 Rights clause in FAR 52.227-19.
  
 Gaussian, Inc.
 340 Quinnipiac St., Bldg. 40, Wallingford CT 06492
  
  
 ---------------------------------------------------------------
 Warning -- This program may not be used in any manner that
 competes with the business of Gaussian, Inc. or will provide
 assistance to any competitor of Gaussian, Inc.  The licensee
 of this program is prohibited from giving any competitor of
 Gaussian, Inc. access to this program.  By using this program,
 the user acknowledges that Gaussian, Inc. is engaged in the
 business of creating and licensing software in the field of
 computational chemistry and represents and warrants to the
 licensee that it is not a competitor of Gaussian, Inc. and that
 it will not use this program in any manner prohibited above.
 ---------------------------------------------------------------
  

 Cite this work as:
 Gaussian 16, Revision B.01,
 M. J. Frisch, G. W. Trucks, H. B. Schlegel, G. E. Scuseria, 
 M. A. Robb, J. R. Cheeseman, G. Scalmani, V. Barone, 
 G. A. Petersson, H. Nakatsuji, X. Li, M. Caricato, A. V. Marenich, 
 J. Bloino, B. G. Janesko, R. Gomperts, B. Mennucci, H. P. Hratchian, 
 J. V. Ortiz, A. F. Izmaylov, J. L. Sonnenberg, D. Williams-Young, 
 F. Ding, F. Lipparini, F. Egidi, J. Goings, B. Peng, A. Petrone, 
 T. Henderson, D. Ranasinghe, V. G. Zakrzewski, J. Gao, N. Rega, 
 G. Zheng, W. Liang, M. Hada, M. Ehara, K. Toyota, R. Fukuda, 
 J. Hasegawa, M. Ishida, T. Nakajima, Y. Honda, O. Kitao, H. Nakai, 
 T. Vreven, K. Throssell, J. A. Montgomery, Jr., J. E. Peralta, 
 F. Ogliaro, M. J. Bearpark, J. J. Heyd, E. N. Brothers, K. N. Kudin, 
 V. N. Staroverov, T. A. Keith, R. Kobayashi, J. Normand, 
 K. Raghavachari, A. P. Rendell, J. C. Burant, S. S. Iyengar, 
 J. Tomasi, M. Cossi, J. M. Millam, M. Klene, C. Adamo, R. Cammi, 
 J. W. Ochterski, R. L. Martin, K. Morokuma, O. Farkas, 
 J. B. Foresman, and D. J. Fox, Gaussian, Inc., Wallingford CT, 2016.
 
 ******************************************
 Gaussian 16:  ES64L-G16RevB.01 20-Dec-2017
                 3-Aug-2020 
 ******************************************
 %chk=meso-TS_37_2_xp-115.chk
 %nproc=24
 Will use up to   24 processors via shared memory.
 %mem=48GB
 ----------------------------------------------------------------------
 #p uwb97xd guess=mix def2tzvp # scrf=(iefpcm,solvent=Cyclohexane,read)
  nosym guess=only pop=none
 ----------------------------------------------------------------------
 1/38=1,40=2,172=1/1;
 2/12=2,15=1,17=6,18=5,40=1/2;
 3/5=44,7=101,11=2,25=1,30=1,70=2203,72=17,74=-58,89=1,116=2/1,2;
 4/13=-1/1;
 99/5=2/99;
 Leave Link    1 at Mon Aug  3 17:25:02 2020, MaxMem=  6442450944 cpu:               2.0 elap:               0.1
 (Enter /scratch/scicomp/CentOS/7.3.1611/Haswell/software/Gaussian/g16/l101.exe)
 -----------------------
 endo-2 xp-pcm for eta=3
 -----------------------
 Symbolic Z-matrix:
 Charge =  0 Multiplicity = 1
 6                    -3.12622  -0.44049   0.25349 
 6                    -0.67222  -0.23682  -1.14636 
 1                    -4.08296  -0.54175   0.75273 
 1                     0.29421  -0.14682  -1.62513 
 6                     1.12979   1.41843   0.74352 
 6                     0.67222   0.23682   1.14636 
 1                     0.53682   2.31558   0.87217 
 1                    -0.29421   0.14682   1.62513 
 6                     1.51865  -1.        1.05961 
 1                     2.01232  -1.1142    2.03299 
 1                     0.89114  -1.882     0.93796 
 6                     2.43995   1.52471   0.1049 
 1                     2.84394   2.51143  -0.0879 
 6                     3.12622   0.44049  -0.25349 
 1                     4.08296   0.54175  -0.75273 
 6                     2.58441  -0.94681  -0.04091 
 1                     2.17791  -1.31185  -0.99221 
 1                     3.39788  -1.63095   0.20883 
 6                    -1.12979  -1.41843  -0.74352 
 1                    -0.53682  -2.31558  -0.87217 
 6                    -2.43995  -1.52471  -0.1049 
 1                    -2.84394  -2.51143   0.0879 
 6                    -1.51865   1.       -1.05961 
 1                    -0.89114   1.882    -0.93796 
 1                    -2.01232   1.11421  -2.03299 
 6                    -2.58441   0.94681   0.04091 
 1                    -3.39788   1.63095  -0.20883 
 1                    -2.17791   1.31185   0.99221 
 
 ITRead=  0  0  0  0  0  0  0  0  0  0  0  0  0  0  0  0  0  0  0  0
 ITRead=  0  0  0  0  0  0  0  0
 MicOpt= -1 -1 -1 -1 -1 -1 -1 -1 -1 -1 -1 -1 -1 -1 -1 -1 -1 -1 -1 -1
 MicOpt= -1 -1 -1 -1 -1 -1 -1 -1
 NAtoms=     28 NQM=       28 NQMF=       0 NMMI=      0 NMMIF=      0
                NMic=       0 NMicF=      0.
                    Isotopes and Nuclear Properties:
 (Nuclear quadrupole moments (NQMom) in fm**2, nuclear magnetic moments (NMagM)
  in nuclear magnetons)

  Atom         1           2           3           4           5           6           7           8           9          10
 IAtWgt=          12          12           1           1          12          12           1           1          12           1
 AtmWgt=  12.0000000  12.0000000   1.0078250   1.0078250  12.0000000  12.0000000   1.0078250   1.0078250  12.0000000   1.0078250
 NucSpn=           0           0           1           1           0           0           1           1           0           1
 AtZEff=  -0.0000000  -0.0000000  -0.0000000  -0.0000000  -0.0000000  -0.0000000  -0.0000000  -0.0000000  -0.0000000  -0.0000000
 NQMom=    0.0000000   0.0000000   0.0000000   0.0000000   0.0000000   0.0000000   0.0000000   0.0000000   0.0000000   0.0000000
 NMagM=    0.0000000   0.0000000   2.7928460   2.7928460   0.0000000   0.0000000   2.7928460   2.7928460   0.0000000   2.7928460
 AtZNuc=   6.0000000   6.0000000   1.0000000   1.0000000   6.0000000   6.0000000   1.0000000   1.0000000   6.0000000   1.0000000

  Atom        11          12          13          14          15          16          17          18          19          20
 IAtWgt=           1          12           1          12           1          12           1           1          12           1
 AtmWgt=   1.0078250  12.0000000   1.0078250  12.0000000   1.0078250  12.0000000   1.0078250   1.0078250  12.0000000   1.0078250
 NucSpn=           1           0           1           0           1           0           1           1           0           1
 AtZEff=  -0.0000000  -0.0000000  -0.0000000  -0.0000000  -0.0000000  -0.0000000  -0.0000000  -0.0000000  -0.0000000  -0.0000000
 NQMom=    0.0000000   0.0000000   0.0000000   0.0000000   0.0000000   0.0000000   0.0000000   0.0000000   0.0000000   0.0000000
 NMagM=    2.7928460   0.0000000   2.7928460   0.0000000   2.7928460   0.0000000   2.7928460   2.7928460   0.0000000   2.7928460
 AtZNuc=   1.0000000   6.0000000   1.0000000   6.0000000   1.0000000   6.0000000   1.0000000   1.0000000   6.0000000   1.0000000

  Atom        21          22          23          24          25          26          27          28
 IAtWgt=          12           1          12           1           1          12           1           1
 AtmWgt=  12.0000000   1.0078250  12.0000000   1.0078250   1.0078250  12.0000000   1.0078250   1.0078250
 NucSpn=           0           1           0           1           1           0           1           1
 AtZEff=  -0.0000000  -0.0000000  -0.0000000  -0.0000000  -0.0000000  -0.0000000  -0.0000000  -0.0000000
 NQMom=    0.0000000   0.0000000   0.0000000   0.0000000   0.0000000   0.0000000   0.0000000   0.0000000
 NMagM=    0.0000000   2.7928460   0.0000000   2.7928460   2.7928460   0.0000000   2.7928460   2.7928460
 AtZNuc=   6.0000000   1.0000000   6.0000000   1.0000000   1.0000000   6.0000000   1.0000000   1.0000000
 Leave Link  101 at Mon Aug  3 17:25:02 2020, MaxMem=  6442450944 cpu:               2.4 elap:               0.1
 (Enter /scratch/scicomp/CentOS/7.3.1611/Haswell/software/Gaussian/g16/l202.exe)
                          Input orientation:                          
 ---------------------------------------------------------------------
 Center     Atomic      Atomic             Coordinates (Angstroms)
 Number     Number       Type             X           Y           Z
 ---------------------------------------------------------------------
      1          6           0       -3.126220   -0.440488    0.253489
      2          6           0       -0.672219   -0.236821   -1.146356
      3          1           0       -4.082957   -0.541745    0.752734
      4          1           0        0.294206   -0.146815   -1.625125
      5          6           0        1.129787    1.418428    0.743520
      6          6           0        0.672219    0.236821    1.146356
      7          1           0        0.536815    2.315578    0.872168
      8          1           0       -0.294206    0.146815    1.625125
      9          6           0        1.518650   -0.999998    1.059609
     10          1           0        2.012318   -1.114204    2.032991
     11          1           0        0.891136   -1.882004    0.937960
     12          6           0        2.439953    1.524706    0.104897
     13          1           0        2.843940    2.511426   -0.087900
     14          6           0        3.126220    0.440488   -0.253489
     15          1           0        4.082957    0.541745   -0.752734
     16          6           0        2.584411   -0.946808   -0.040911
     17          1           0        2.177912   -1.311853   -0.992206
     18          1           0        3.397883   -1.630946    0.208832
     19          6           0       -1.129787   -1.418428   -0.743520
     20          1           0       -0.536815   -2.315578   -0.872168
     21          6           0       -2.439953   -1.524706   -0.104897
     22          1           0       -2.843940   -2.511426    0.087900
     23          6           0       -1.518650    0.999998   -1.059609
     24          1           0       -0.891135    1.882004   -0.937960
     25          1           0       -2.012317    1.114205   -2.032991
     26          6           0       -2.584411    0.946808    0.040911
     27          1           0       -3.397883    1.630946   -0.208832
     28          1           0       -2.177912    1.311853    0.992206
 ---------------------------------------------------------------------
                    Distance matrix (angstroms):
                    1          2          3          4          5
     1  C    0.000000
     2  C    2.832520   0.000000
     3  H    1.083902   3.915693   0.000000
     4  H    3.913406   1.082265   4.996973   0.000000
     5  C    4.670042   3.091716   5.569117   2.959503   0.000000
     6  C    3.960315   2.699700   4.834543   2.823327   1.329602
     7  H    4.625634   3.471447   5.433310   3.515496   1.083072
     8  H    3.201033   2.823327   3.948394   3.316108   2.102851
     9  C    4.747389   3.201348   5.628692   3.071641   2.469800
    10  H    5.479516   4.252621   6.254530   4.155666   2.975873
    11  H    4.322686   3.081409   5.154823   3.152239   3.314757
    12  C    5.904773   3.788697   6.873010   3.223537   1.461393
    13  H    6.668819   4.586564   7.616457   3.991297   2.196412
    14  C    6.334521   3.960315   7.345032   3.201033   2.436419
    15  H    7.345032   4.834543   8.373920   3.948394   3.424699
    16  C    5.740587   3.511656   6.726644   2.897372   2.885412
    17  H    5.517685   3.050033   6.544949   2.303530   3.400845
    18  H    6.631976   4.510637   7.579258   3.898571   3.837816
    19  C    2.436419   1.329602   3.424699   2.102851   3.919785
    20  H    3.389408   2.101129   4.285080   2.441531   4.396682
    21  C    1.332266   2.422430   2.097905   3.418377   4.703711
    22  H    2.096637   3.378400   2.420085   4.286467   5.627086
    23  C    2.526560   1.501230   3.498175   2.218431   3.231188
    24  H    3.436441   2.140274   4.349797   2.448129   2.669532
    25  H    2.980913   2.099346   3.845775   2.660183   4.204091
    26  C    1.504439   2.543041   2.228928   3.501160   3.809377
    27  H    2.139715   3.434640   2.472756   4.335648   4.631623
    28  H    2.125015   3.039564   2.668777   3.884521   3.318746
                    6          7          8          9         10
     6  C    0.000000
     7  H    2.101129   0.000000
     8  H    1.082265   2.441531   0.000000
     9  C    1.501230   3.462972   2.218431   0.000000
    10  H    2.099346   3.909990   2.660184   1.097371   0.000000
    11  H    2.140274   4.213023   2.448129   1.089269   1.745182
    12  C    2.422430   2.199117   3.418377   2.852088   3.296098
    13  H    3.378400   2.506574   4.286467   3.924700   4.281935
    14  C    2.832520   3.389408   3.913406   2.526560   2.980912
    15  H    3.915693   4.285080   4.996973   3.498175   3.845774
    16  C    2.543041   3.958475   3.501160   1.532912   2.157865
    17  H    3.039564   4.396288   3.884521   2.177573   3.036166
    18  H    3.434640   4.919428   4.335648   2.157182   2.348269
    19  C    3.091716   4.396682   2.959503   3.231188   4.204092
    20  H    3.471447   5.063891   3.515496   3.112467   4.047385
    21  C    3.788697   4.956166   3.223537   4.159559   4.955986
    22  H    4.586564   5.945128   3.991297   4.718138   5.414688
    23  C    3.201348   3.112467   3.071641   4.209069   5.147986
    24  H    3.081408   2.345973   3.152239   4.254795   5.121899
    25  H    4.252621   4.047384   4.155666   5.147986   6.139683
    26  C    3.511656   3.508072   2.897372   4.654343   5.417201
    27  H    4.510637   4.137527   3.898571   5.718663   6.467758
    28  H    3.050033   2.896829   2.303530   4.360478   4.952475
                   11         12         13         14         15
    11  H    0.000000
    12  C    3.833862   0.000000
    13  H    4.916102   1.083509   0.000000
    14  C    3.436440   1.332266   2.096637   0.000000
    15  H    4.349796   2.097905   2.420085   1.083902   0.000000
    16  C    2.167939   2.480022   3.468277   1.504439   2.228928
    17  H    2.388808   3.052600   3.984824   2.125015   2.668777
    18  H    2.622678   3.299481   4.189767   2.139715   2.472756
    19  C    2.669533   4.703711   5.627086   4.670042   5.569117
    20  H    2.345974   4.956166   5.945128   4.625634   5.433310
    21  C    3.508756   5.758160   6.649073   5.904773   6.873010
    22  H    3.881954   6.649073   7.590252   6.668819   7.616457
    23  C    4.254796   4.159559   4.718138   4.747389   5.628692
    24  H    4.567639   3.508755   3.881953   4.322686   5.154822
    25  H    5.121900   4.955985   5.414687   5.479515   6.254529
    26  C    4.570153   5.057894   5.650807   5.740587   6.726644
    27  H    5.661416   5.847225   6.304778   6.631976   7.579258
    28  H    4.429754   4.707154   5.274903   5.517685   6.544949
                   16         17         18         19         20
    16  C    0.000000
    17  H    1.097024   0.000000
    18  H    1.091858   1.741448   0.000000
    19  C    3.809377   3.318746   4.631623   0.000000
    20  H    3.508072   2.896829   4.137527   1.083072   0.000000
    21  C    5.057894   4.707154   5.847225   1.461393   2.199117
    22  H    5.650807   5.274903   6.304778   2.196412   2.506574
    23  C    4.654343   4.360478   5.718663   2.469800   3.462972
    24  H    4.570153   4.429753   5.661415   3.314757   4.213023
    25  H    5.417201   4.952475   6.467758   2.975874   3.909991
    26  C    5.505379   5.371089   6.516199   2.885412   3.958475
    27  H    6.516199   6.353206   7.549624   3.837816   4.919428
    28  H    5.371089   5.458473   6.353206   3.400845   4.396288
                   21         22         23         24         25
    21  C    0.000000
    22  H    1.083509   0.000000
    23  C    2.852088   3.924700   0.000000
    24  H    3.833863   4.916102   1.089270   0.000000
    25  H    3.296099   4.281936   1.097371   1.745181   0.000000
    26  C    2.480022   3.468277   1.532912   2.167940   2.157865
    27  H    3.299481   4.189767   2.157182   2.622679   2.348270
    28  H    3.052600   3.984824   2.177573   2.388809   3.036166
                   26         27         28
    26  C    0.000000
    27  H    1.091858   0.000000
    28  H    1.097024   1.741448   0.000000
 Symmetry turned off by external request.
 Stoichiometry    C12H16
 Framework group  CI[X(C12H16)]
 Deg. of freedom    39
 Full point group                 CI      NOp   2
 Rotational constants (GHZ):           1.8182963           0.6091474           0.5421992
 Leave Link  202 at Mon Aug  3 17:25:02 2020, MaxMem=  6442450944 cpu:               0.3 elap:               0.0
 (Enter /scratch/scicomp/CentOS/7.3.1611/Haswell/software/Gaussian/g16/l301.exe)
 Standard basis: def2TZVP (5D, 7F)
 Ernie: Thresh=  0.10000D-02 Tol=  0.10000D-05 Strict=F.
   468 basis functions,   740 primitive gaussians,   528 cartesian basis functions
    44 alpha electrons       44 beta electrons
       nuclear repulsion energy       681.4184138780 Hartrees.
 IExCor= 4639 DFT=T Ex+Corr=wB97XD ExCW=0 ScaHFX=  1.000000
 ScaDFX=  1.000000  1.000000  1.000000  1.000000 ScalE2=  1.000000  1.000000
 IRadAn=      5 IRanWt=     -1 IRanGd=            0 ICorTp=0 IEmpDi=121
 HFx  wShort=  0.000000 wLong=  0.200000 cFull=  0.222036 cShort=  0.000000 cLong=  0.777964
 DFx  wShort=  0.000000 wLong=  0.200000 cFull=  0.000000 cShort=  0.000000 cLong=  1.000000
 NAtoms=   28 NActive=   28 NUniq=   28 SFac= 1.00D+00 NAtFMM=   60 NAOKFM=F Big=F
 Integral buffers will be    131072 words long.
 Raffenetti 2 integral format.
 Two-electron integral symmetry is turned off.
 R6Disp:  Grimme-D2 Dispersion energy=       -0.0227217399 Hartrees.
 Nuclear repulsion after empirical dispersion term =      681.3956921381 Hartrees.
 Using the following non-standard input for PCM:
 qrep pcmdoc geomview  nodis nocav g03defaults tsare=0.075
 Warning! Using old PCM defaults because the g03defaults keyword was found.
 These settings can be overridden by following keywords.
 nsfe=28
 NVESolv=36  SolvMW=84.1595   Rsolv=2.815
 eps=2.0165 RhoS=0.7781
 --- end of non-standard input.
 Reading user-defined spheres from input:
 ISph  on   Nord    Re0     Alpha      Xe            Ye            Ze
 --- end of user-defined spheres data.
 ------------------------------------------------------------------------------
 Polarizable Continuum Model (PCM)
 =================================
 Model                : PCM.
 Atomic radii         : UA0 (Simple United Atom Topological Model).
 Polarization charges : Total charges.
 Charge compensation  : None.
 Solution method      : On-the-fly selection.
 Cavity type          : SES (Solvent Excluding Surface) (Alpha=1.000).
 Cavity algorithm     : GePol (RMin=0.200 OFac=0.890).
                        User-defined sphere list used, NSphG=   28.
                        Tesserae with average area of 0.075 Ang**2.
                        Smoothing algorithm: None.
                        Polarization charges: point-like.
                        Self-potential: constant (ISelfS= 1).
                        Self-field    : global E.n sum rule (ISelfD= 3).
 Solvent              : CycloHexane, Eps=   2.016500 Eps(inf)=   2.035188
                        RSolv=   2.815000 Ang.
 ------------------------------------------------------------------------------
 GePol: Number of generator spheres                  =      28
 GePol: Total number of spheres                      =     196
 GePol: Number of exposed spheres                    =     134 ( 68.37%)
 GePol: Number of tesserae                           =    4697
 GePol: Average area of tesserae                     =       0.05 Ang**2
 GePol: Minimum area of tessera                      =   0.10D-02 Ang**2
 GePol: Maximum area of tessera                      =    0.11571 Ang**2
 GePol: Number of small tesserae                     =       0
 GePol: Fraction of small tesserae (<1% of avg)      =       0.00%
 GePol: Total count of vertices                      =   16590
 GePol: Maximum number of vertices in a tessera      =       7
 GePol: Cavity surface area                          =    213.525 Ang**2
 GePol: Cavity volume                                =    233.948 Ang**3
 Leave Link  301 at Mon Aug  3 17:25:02 2020, MaxMem=  6442450944 cpu:               7.7 elap:               0.4
 (Enter /scratch/scicomp/CentOS/7.3.1611/Haswell/software/Gaussian/g16/l302.exe)
 NPDir=0 NMtPBC=     1 NCelOv=     1 NCel=       1 NClECP=     1 NCelD=      1
         NCelK=      1 NCelE2=     1 NClLst=     1 CellRange=     0.0.
 One-electron integrals computed using PRISM.
   1 Symmetry operations used in ECPInt.
 ECPInt:  NShTT=   19306 NPrTT=   56928 LenC2=   18494 LenP2D=   42038.
 LDataN:  DoStor=T MaxTD1= 6 Len=  172
 NBasis=   468 RedAO= T EigKep=  2.31D-05  NBF=   468
 NBsUse=   468 1.00D-06 EigRej= -1.00D+00 NBFU=   468
 Precomputing XC quadrature grid using
 IXCGrd= 4 IRadAn=           5 IRanWt=          -1 IRanGd=           0 AccXCQ= 0.00D+00.
 Generated NRdTot=       0 NPtTot=           0 NUsed=           0 NTot=          32
 NSgBfM=   526   526   526   526   526 MxSgAt=    28 MxSgA2=    28.
 Leave Link  302 at Mon Aug  3 17:25:03 2020, MaxMem=  6442450944 cpu:              11.8 elap:               0.5
 (Enter /scratch/scicomp/CentOS/7.3.1611/Haswell/software/Gaussian/g16/l401.exe)
 ExpMin= 9.52D-02 ExpMax= 1.36D+04 ExpMxC= 4.63D+02 IAcc=3 IRadAn=         5 AccDes= 0.00D+00
 Harris functional with IExCor= 4639 and IRadAn=       5 diagonalized for initial guess.
 HarFok:  IExCor= 4639 AccDes= 0.00D+00 IRadAn=         5 IDoV= 1 UseB2=F ITyADJ=14
 ICtDFT=  3500011 ScaDFX=  1.000000  1.000000  1.000000  1.000000
 FoFCou: FMM=F IPFlag=           0 FMFlag=      100000 FMFlg1=           0
         NFxFlg=           0 DoJE=T BraDBF=F KetDBF=T FulRan=T
         wScrn=  0.000000 ICntrl=       500 IOpCl=  0 I1Cent=   200000004 NGrid=           0
         NMat0=    1 NMatS0=      1 NMatT0=    0 NMatD0=    1 NMtDS0=    0 NMtDT0=    0
 Symmetry not used in FoFCou.
 Harris En= -444.627886044924    
 JPrj=0 DoOrth=F DoCkMO=T.
 Mixing orbitals, IMix= 1 IMixAn=  0 NRI=1 NE=   44 Coef=  7.07106781D-01  7.07106781D-01
 Mixing orbitals, IMix= 1 IMixAn=  0 NRI=1 NE=   44 Coef= -7.07106781D-01  7.07106781D-01
 Initial guess <Sx>= 0.0000 <Sy>= 0.0000 <Sz>= 0.0000 <S**2>= 1.0000 S= 0.6180
 Leave Link  401 at Mon Aug  3 17:25:05 2020, MaxMem=  6442450944 cpu:              47.2 elap:               2.0
 (Enter /scratch/scicomp/CentOS/7.3.1611/Haswell/software/Gaussian/g16/l9999.exe)

 This type of calculation cannot be archived.


 The cat could very well be man's best friend
 but would never stoop to admitting it.
                               -- Doug Larson
 Job cpu time:       0 days  0 hours  1 minutes 12.4 seconds.
 Elapsed time:       0 days  0 hours  0 minutes  3.3 seconds.
 File lengths (MBytes):  RWF=    403 Int=      0 D2E=      0 Chk=      1 Scr=      1
 Normal termination of Gaussian 16 at Mon Aug  3 17:25:05 2020.
 Initial command:
 /scratch/scicomp/CentOS/7.3.1611/Haswell/software/Gaussian/g16/l1.exe "/scratch/bochen/cyclohexadiene-dimerization/wb97xd-def2tzvp/xp-pcm/meso/Gau-90061.inp" -scrdir="/scratch/bochen/cyclohexadiene-dimerization/wb97xd-def2tzvp/xp-pcm/meso/"
 Entering Link 1 = /scratch/scicomp/CentOS/7.3.1611/Haswell/software/Gaussian/g16/l1.exe PID=     90386.
  
 Copyright (c) 1988-2017, Gaussian, Inc.  All Rights Reserved.
  
 This is part of the Gaussian(R) 16 program.  It is based on
 the Gaussian(R) 09 system (copyright 2009, Gaussian, Inc.),
 the Gaussian(R) 03 system (copyright 2003, Gaussian, Inc.),
 the Gaussian(R) 98 system (copyright 1998, Gaussian, Inc.),
 the Gaussian(R) 94 system (copyright 1995, Gaussian, Inc.),
 the Gaussian 92(TM) system (copyright 1992, Gaussian, Inc.),
 the Gaussian 90(TM) system (copyright 1990, Gaussian, Inc.),
 the Gaussian 88(TM) system (copyright 1988, Gaussian, Inc.),
 the Gaussian 86(TM) system (copyright 1986, Carnegie Mellon
 University), and the Gaussian 82(TM) system (copyright 1983,
 Carnegie Mellon University). Gaussian is a federally registered
 trademark of Gaussian, Inc.
  
 This software contains proprietary and confidential information,
 including trade secrets, belonging to Gaussian, Inc.
  
 This software is provided under written license and may be
 used, copied, transmitted, or stored only in accord with that
 written license.
  
 The following legend is applicable only to US Government
 contracts under FAR:
  
                    RESTRICTED RIGHTS LEGEND
  
 Use, reproduction and disclosure by the US Government is
 subject to restrictions as set forth in subparagraphs (a)
 and (c) of the Commercial Computer Software - Restricted
 Rights clause in FAR 52.227-19.
  
 Gaussian, Inc.
 340 Quinnipiac St., Bldg. 40, Wallingford CT 06492
  
  
 ---------------------------------------------------------------
 Warning -- This program may not be used in any manner that
 competes with the business of Gaussian, Inc. or will provide
 assistance to any competitor of Gaussian, Inc.  The licensee
 of this program is prohibited from giving any competitor of
 Gaussian, Inc. access to this program.  By using this program,
 the user acknowledges that Gaussian, Inc. is engaged in the
 business of creating and licensing software in the field of
 computational chemistry and represents and warrants to the
 licensee that it is not a competitor of Gaussian, Inc. and that
 it will not use this program in any manner prohibited above.
 ---------------------------------------------------------------
  

 Cite this work as:
 Gaussian 16, Revision B.01,
 M. J. Frisch, G. W. Trucks, H. B. Schlegel, G. E. Scuseria, 
 M. A. Robb, J. R. Cheeseman, G. Scalmani, V. Barone, 
 G. A. Petersson, H. Nakatsuji, X. Li, M. Caricato, A. V. Marenich, 
 J. Bloino, B. G. Janesko, R. Gomperts, B. Mennucci, H. P. Hratchian, 
 J. V. Ortiz, A. F. Izmaylov, J. L. Sonnenberg, D. Williams-Young, 
 F. Ding, F. Lipparini, F. Egidi, J. Goings, B. Peng, A. Petrone, 
 T. Henderson, D. Ranasinghe, V. G. Zakrzewski, J. Gao, N. Rega, 
 G. Zheng, W. Liang, M. Hada, M. Ehara, K. Toyota, R. Fukuda, 
 J. Hasegawa, M. Ishida, T. Nakajima, Y. Honda, O. Kitao, H. Nakai, 
 T. Vreven, K. Throssell, J. A. Montgomery, Jr., J. E. Peralta, 
 F. Ogliaro, M. J. Bearpark, J. J. Heyd, E. N. Brothers, K. N. Kudin, 
 V. N. Staroverov, T. A. Keith, R. Kobayashi, J. Normand, 
 K. Raghavachari, A. P. Rendell, J. C. Burant, S. S. Iyengar, 
 J. Tomasi, M. Cossi, J. M. Millam, M. Klene, C. Adamo, R. Cammi, 
 J. W. Ochterski, R. L. Martin, K. Morokuma, O. Farkas, 
 J. B. Foresman, and D. J. Fox, Gaussian, Inc., Wallingford CT, 2016.
 
 ******************************************
 Gaussian 16:  ES64L-G16RevB.01 20-Dec-2017
                 3-Aug-2020 
 ******************************************
 %chk=meso-TS_37_2_xp-110.chk
 %nproc=24
 Will use up to   24 processors via shared memory.
 %mem=48GB
 ----------------------------------------------------------------------
 #p uwb97xd guess=mix def2tzvp # scrf=(iefpcm,solvent=Cyclohexane,read)
  nosym guess=only pop=none
 ----------------------------------------------------------------------
 1/38=1,40=2,172=1/1;
 2/12=2,15=1,17=6,18=5,40=1/2;
 3/5=44,7=101,11=2,25=1,30=1,70=2203,72=17,74=-58,89=1,116=2/1,2;
 4/13=-1/1;
 99/5=2/99;
 Leave Link    1 at Mon Aug  3 17:25:05 2020, MaxMem=  6442450944 cpu:               1.5 elap:               0.1
 (Enter /scratch/scicomp/CentOS/7.3.1611/Haswell/software/Gaussian/g16/l101.exe)
 -----------------------
 endo-2 xp-pcm for eta=3
 -----------------------
 Symbolic Z-matrix:
 Charge =  0 Multiplicity = 1
 6                    -3.12622  -0.44049   0.25349 
 6                    -0.67222  -0.23682  -1.14636 
 1                    -4.08296  -0.54175   0.75273 
 1                     0.29421  -0.14682  -1.62513 
 6                     1.12979   1.41843   0.74352 
 6                     0.67222   0.23682   1.14636 
 1                     0.53682   2.31558   0.87217 
 1                    -0.29421   0.14682   1.62513 
 6                     1.51865  -1.        1.05961 
 1                     2.01232  -1.1142    2.03299 
 1                     0.89114  -1.882     0.93796 
 6                     2.43995   1.52471   0.1049 
 1                     2.84394   2.51143  -0.0879 
 6                     3.12622   0.44049  -0.25349 
 1                     4.08296   0.54175  -0.75273 
 6                     2.58441  -0.94681  -0.04091 
 1                     2.17791  -1.31185  -0.99221 
 1                     3.39788  -1.63095   0.20883 
 6                    -1.12979  -1.41843  -0.74352 
 1                    -0.53682  -2.31558  -0.87217 
 6                    -2.43995  -1.52471  -0.1049 
 1                    -2.84394  -2.51143   0.0879 
 6                    -1.51865   1.       -1.05961 
 1                    -0.89114   1.882    -0.93796 
 1                    -2.01232   1.11421  -2.03299 
 6                    -2.58441   0.94681   0.04091 
 1                    -3.39788   1.63095  -0.20883 
 1                    -2.17791   1.31185   0.99221 
 
 ITRead=  0  0  0  0  0  0  0  0  0  0  0  0  0  0  0  0  0  0  0  0
 ITRead=  0  0  0  0  0  0  0  0
 MicOpt= -1 -1 -1 -1 -1 -1 -1 -1 -1 -1 -1 -1 -1 -1 -1 -1 -1 -1 -1 -1
 MicOpt= -1 -1 -1 -1 -1 -1 -1 -1
 NAtoms=     28 NQM=       28 NQMF=       0 NMMI=      0 NMMIF=      0
                NMic=       0 NMicF=      0.
                    Isotopes and Nuclear Properties:
 (Nuclear quadrupole moments (NQMom) in fm**2, nuclear magnetic moments (NMagM)
  in nuclear magnetons)

  Atom         1           2           3           4           5           6           7           8           9          10
 IAtWgt=          12          12           1           1          12          12           1           1          12           1
 AtmWgt=  12.0000000  12.0000000   1.0078250   1.0078250  12.0000000  12.0000000   1.0078250   1.0078250  12.0000000   1.0078250
 NucSpn=           0           0           1           1           0           0           1           1           0           1
 AtZEff=  -0.0000000  -0.0000000  -0.0000000  -0.0000000  -0.0000000  -0.0000000  -0.0000000  -0.0000000  -0.0000000  -0.0000000
 NQMom=    0.0000000   0.0000000   0.0000000   0.0000000   0.0000000   0.0000000   0.0000000   0.0000000   0.0000000   0.0000000
 NMagM=    0.0000000   0.0000000   2.7928460   2.7928460   0.0000000   0.0000000   2.7928460   2.7928460   0.0000000   2.7928460
 AtZNuc=   6.0000000   6.0000000   1.0000000   1.0000000   6.0000000   6.0000000   1.0000000   1.0000000   6.0000000   1.0000000

  Atom        11          12          13          14          15          16          17          18          19          20
 IAtWgt=           1          12           1          12           1          12           1           1          12           1
 AtmWgt=   1.0078250  12.0000000   1.0078250  12.0000000   1.0078250  12.0000000   1.0078250   1.0078250  12.0000000   1.0078250
 NucSpn=           1           0           1           0           1           0           1           1           0           1
 AtZEff=  -0.0000000  -0.0000000  -0.0000000  -0.0000000  -0.0000000  -0.0000000  -0.0000000  -0.0000000  -0.0000000  -0.0000000
 NQMom=    0.0000000   0.0000000   0.0000000   0.0000000   0.0000000   0.0000000   0.0000000   0.0000000   0.0000000   0.0000000
 NMagM=    2.7928460   0.0000000   2.7928460   0.0000000   2.7928460   0.0000000   2.7928460   2.7928460   0.0000000   2.7928460
 AtZNuc=   1.0000000   6.0000000   1.0000000   6.0000000   1.0000000   6.0000000   1.0000000   1.0000000   6.0000000   1.0000000

  Atom        21          22          23          24          25          26          27          28
 IAtWgt=          12           1          12           1           1          12           1           1
 AtmWgt=  12.0000000   1.0078250  12.0000000   1.0078250   1.0078250  12.0000000   1.0078250   1.0078250
 NucSpn=           0           1           0           1           1           0           1           1
 AtZEff=  -0.0000000  -0.0000000  -0.0000000  -0.0000000  -0.0000000  -0.0000000  -0.0000000  -0.0000000
 NQMom=    0.0000000   0.0000000   0.0000000   0.0000000   0.0000000   0.0000000   0.0000000   0.0000000
 NMagM=    0.0000000   2.7928460   0.0000000   2.7928460   2.7928460   0.0000000   2.7928460   2.7928460
 AtZNuc=   6.0000000   1.0000000   6.0000000   1.0000000   1.0000000   6.0000000   1.0000000   1.0000000
 Leave Link  101 at Mon Aug  3 17:25:06 2020, MaxMem=  6442450944 cpu:               2.4 elap:               0.1
 (Enter /scratch/scicomp/CentOS/7.3.1611/Haswell/software/Gaussian/g16/l202.exe)
                          Input orientation:                          
 ---------------------------------------------------------------------
 Center     Atomic      Atomic             Coordinates (Angstroms)
 Number     Number       Type             X           Y           Z
 ---------------------------------------------------------------------
      1          6           0       -3.126220   -0.440488    0.253489
      2          6           0       -0.672219   -0.236821   -1.146356
      3          1           0       -4.082957   -0.541745    0.752734
      4          1           0        0.294206   -0.146815   -1.625125
      5          6           0        1.129787    1.418428    0.743520
      6          6           0        0.672219    0.236821    1.146356
      7          1           0        0.536815    2.315578    0.872168
      8          1           0       -0.294206    0.146815    1.625125
      9          6           0        1.518650   -0.999998    1.059609
     10          1           0        2.012318   -1.114204    2.032991
     11          1           0        0.891136   -1.882004    0.937960
     12          6           0        2.439953    1.524706    0.104897
     13          1           0        2.843940    2.511426   -0.087900
     14          6           0        3.126220    0.440488   -0.253489
     15          1           0        4.082957    0.541745   -0.752734
     16          6           0        2.584411   -0.946808   -0.040911
     17          1           0        2.177912   -1.311853   -0.992206
     18          1           0        3.397883   -1.630946    0.208832
     19          6           0       -1.129787   -1.418428   -0.743520
     20          1           0       -0.536815   -2.315578   -0.872168
     21          6           0       -2.439953   -1.524706   -0.104897
     22          1           0       -2.843940   -2.511426    0.087900
     23          6           0       -1.518650    0.999998   -1.059609
     24          1           0       -0.891135    1.882004   -0.937960
     25          1           0       -2.012317    1.114205   -2.032991
     26          6           0       -2.584411    0.946808    0.040911
     27          1           0       -3.397883    1.630946   -0.208832
     28          1           0       -2.177912    1.311853    0.992206
 ---------------------------------------------------------------------
                    Distance matrix (angstroms):
                    1          2          3          4          5
     1  C    0.000000
     2  C    2.832520   0.000000
     3  H    1.083902   3.915693   0.000000
     4  H    3.913406   1.082265   4.996973   0.000000
     5  C    4.670042   3.091716   5.569117   2.959503   0.000000
     6  C    3.960315   2.699700   4.834543   2.823327   1.329602
     7  H    4.625634   3.471447   5.433310   3.515496   1.083072
     8  H    3.201033   2.823327   3.948394   3.316108   2.102851
     9  C    4.747389   3.201348   5.628692   3.071641   2.469800
    10  H    5.479516   4.252621   6.254530   4.155666   2.975873
    11  H    4.322686   3.081409   5.154823   3.152239   3.314757
    12  C    5.904773   3.788697   6.873010   3.223537   1.461393
    13  H    6.668819   4.586564   7.616457   3.991297   2.196412
    14  C    6.334521   3.960315   7.345032   3.201033   2.436419
    15  H    7.345032   4.834543   8.373920   3.948394   3.424699
    16  C    5.740587   3.511656   6.726644   2.897372   2.885412
    17  H    5.517685   3.050033   6.544949   2.303530   3.400845
    18  H    6.631976   4.510637   7.579258   3.898571   3.837816
    19  C    2.436419   1.329602   3.424699   2.102851   3.919785
    20  H    3.389408   2.101129   4.285080   2.441531   4.396682
    21  C    1.332266   2.422430   2.097905   3.418377   4.703711
    22  H    2.096637   3.378400   2.420085   4.286467   5.627086
    23  C    2.526560   1.501230   3.498175   2.218431   3.231188
    24  H    3.436441   2.140274   4.349797   2.448129   2.669532
    25  H    2.980913   2.099346   3.845775   2.660183   4.204091
    26  C    1.504439   2.543041   2.228928   3.501160   3.809377
    27  H    2.139715   3.434640   2.472756   4.335648   4.631623
    28  H    2.125015   3.039564   2.668777   3.884521   3.318746
                    6          7          8          9         10
     6  C    0.000000
     7  H    2.101129   0.000000
     8  H    1.082265   2.441531   0.000000
     9  C    1.501230   3.462972   2.218431   0.000000
    10  H    2.099346   3.909990   2.660184   1.097371   0.000000
    11  H    2.140274   4.213023   2.448129   1.089269   1.745182
    12  C    2.422430   2.199117   3.418377   2.852088   3.296098
    13  H    3.378400   2.506574   4.286467   3.924700   4.281935
    14  C    2.832520   3.389408   3.913406   2.526560   2.980912
    15  H    3.915693   4.285080   4.996973   3.498175   3.845774
    16  C    2.543041   3.958475   3.501160   1.532912   2.157865
    17  H    3.039564   4.396288   3.884521   2.177573   3.036166
    18  H    3.434640   4.919428   4.335648   2.157182   2.348269
    19  C    3.091716   4.396682   2.959503   3.231188   4.204092
    20  H    3.471447   5.063891   3.515496   3.112467   4.047385
    21  C    3.788697   4.956166   3.223537   4.159559   4.955986
    22  H    4.586564   5.945128   3.991297   4.718138   5.414688
    23  C    3.201348   3.112467   3.071641   4.209069   5.147986
    24  H    3.081408   2.345973   3.152239   4.254795   5.121899
    25  H    4.252621   4.047384   4.155666   5.147986   6.139683
    26  C    3.511656   3.508072   2.897372   4.654343   5.417201
    27  H    4.510637   4.137527   3.898571   5.718663   6.467758
    28  H    3.050033   2.896829   2.303530   4.360478   4.952475
                   11         12         13         14         15
    11  H    0.000000
    12  C    3.833862   0.000000
    13  H    4.916102   1.083509   0.000000
    14  C    3.436440   1.332266   2.096637   0.000000
    15  H    4.349796   2.097905   2.420085   1.083902   0.000000
    16  C    2.167939   2.480022   3.468277   1.504439   2.228928
    17  H    2.388808   3.052600   3.984824   2.125015   2.668777
    18  H    2.622678   3.299481   4.189767   2.139715   2.472756
    19  C    2.669533   4.703711   5.627086   4.670042   5.569117
    20  H    2.345974   4.956166   5.945128   4.625634   5.433310
    21  C    3.508756   5.758160   6.649073   5.904773   6.873010
    22  H    3.881954   6.649073   7.590252   6.668819   7.616457
    23  C    4.254796   4.159559   4.718138   4.747389   5.628692
    24  H    4.567639   3.508755   3.881953   4.322686   5.154822
    25  H    5.121900   4.955985   5.414687   5.479515   6.254529
    26  C    4.570153   5.057894   5.650807   5.740587   6.726644
    27  H    5.661416   5.847225   6.304778   6.631976   7.579258
    28  H    4.429754   4.707154   5.274903   5.517685   6.544949
                   16         17         18         19         20
    16  C    0.000000
    17  H    1.097024   0.000000
    18  H    1.091858   1.741448   0.000000
    19  C    3.809377   3.318746   4.631623   0.000000
    20  H    3.508072   2.896829   4.137527   1.083072   0.000000
    21  C    5.057894   4.707154   5.847225   1.461393   2.199117
    22  H    5.650807   5.274903   6.304778   2.196412   2.506574
    23  C    4.654343   4.360478   5.718663   2.469800   3.462972
    24  H    4.570153   4.429753   5.661415   3.314757   4.213023
    25  H    5.417201   4.952475   6.467758   2.975874   3.909991
    26  C    5.505379   5.371089   6.516199   2.885412   3.958475
    27  H    6.516199   6.353206   7.549624   3.837816   4.919428
    28  H    5.371089   5.458473   6.353206   3.400845   4.396288
                   21         22         23         24         25
    21  C    0.000000
    22  H    1.083509   0.000000
    23  C    2.852088   3.924700   0.000000
    24  H    3.833863   4.916102   1.089270   0.000000
    25  H    3.296099   4.281936   1.097371   1.745181   0.000000
    26  C    2.480022   3.468277   1.532912   2.167940   2.157865
    27  H    3.299481   4.189767   2.157182   2.622679   2.348270
    28  H    3.052600   3.984824   2.177573   2.388809   3.036166
                   26         27         28
    26  C    0.000000
    27  H    1.091858   0.000000
    28  H    1.097024   1.741448   0.000000
 Symmetry turned off by external request.
 Stoichiometry    C12H16
 Framework group  CI[X(C12H16)]
 Deg. of freedom    39
 Full point group                 CI      NOp   2
 Rotational constants (GHZ):           1.8182963           0.6091474           0.5421992
 Leave Link  202 at Mon Aug  3 17:25:06 2020, MaxMem=  6442450944 cpu:               0.3 elap:               0.0
 (Enter /scratch/scicomp/CentOS/7.3.1611/Haswell/software/Gaussian/g16/l301.exe)
 Standard basis: def2TZVP (5D, 7F)
 Ernie: Thresh=  0.10000D-02 Tol=  0.10000D-05 Strict=F.
   468 basis functions,   740 primitive gaussians,   528 cartesian basis functions
    44 alpha electrons       44 beta electrons
       nuclear repulsion energy       681.4184138780 Hartrees.
 IExCor= 4639 DFT=T Ex+Corr=wB97XD ExCW=0 ScaHFX=  1.000000
 ScaDFX=  1.000000  1.000000  1.000000  1.000000 ScalE2=  1.000000  1.000000
 IRadAn=      5 IRanWt=     -1 IRanGd=            0 ICorTp=0 IEmpDi=121
 HFx  wShort=  0.000000 wLong=  0.200000 cFull=  0.222036 cShort=  0.000000 cLong=  0.777964
 DFx  wShort=  0.000000 wLong=  0.200000 cFull=  0.000000 cShort=  0.000000 cLong=  1.000000
 NAtoms=   28 NActive=   28 NUniq=   28 SFac= 1.00D+00 NAtFMM=   60 NAOKFM=F Big=F
 Integral buffers will be    131072 words long.
 Raffenetti 2 integral format.
 Two-electron integral symmetry is turned off.
 R6Disp:  Grimme-D2 Dispersion energy=       -0.0227217399 Hartrees.
 Nuclear repulsion after empirical dispersion term =      681.3956921381 Hartrees.
 Using the following non-standard input for PCM:
 qrep pcmdoc geomview  nodis nocav g03defaults tsare=0.075
 Warning! Using old PCM defaults because the g03defaults keyword was found.
 These settings can be overridden by following keywords.
 nsfe=28
 NVESolv=36  SolvMW=84.1595   Rsolv=2.815
 eps=2.0165 RhoS=0.7781
 --- end of non-standard input.
 Reading user-defined spheres from input:
 ISph  on   Nord    Re0     Alpha      Xe            Ye            Ze
 --- end of user-defined spheres data.
 ------------------------------------------------------------------------------
 Polarizable Continuum Model (PCM)
 =================================
 Model                : PCM.
 Atomic radii         : UA0 (Simple United Atom Topological Model).
 Polarization charges : Total charges.
 Charge compensation  : None.
 Solution method      : On-the-fly selection.
 Cavity type          : SES (Solvent Excluding Surface) (Alpha=1.000).
 Cavity algorithm     : GePol (RMin=0.200 OFac=0.890).
                        User-defined sphere list used, NSphG=   28.
                        Tesserae with average area of 0.075 Ang**2.
                        Smoothing algorithm: None.
                        Polarization charges: point-like.
                        Self-potential: constant (ISelfS= 1).
                        Self-field    : global E.n sum rule (ISelfD= 3).
 Solvent              : CycloHexane, Eps=   2.016500 Eps(inf)=   2.035188
                        RSolv=   2.815000 Ang.
 ------------------------------------------------------------------------------
 GePol: Number of generator spheres                  =      28
 GePol: Total number of spheres                      =     266
 GePol: Number of exposed spheres                    =     181 ( 68.05%)
 GePol: Number of tesserae                           =    4609
 GePol: Average area of tesserae                     =       0.04 Ang**2
 GePol: Minimum area of tessera                      =   0.10D-02 Ang**2
 GePol: Maximum area of tessera                      =    0.11641 Ang**2
 GePol: Number of small tesserae                     =       0
 GePol: Fraction of small tesserae (<1% of avg)      =       0.00%
 GePol: Total count of vertices                      =   16574
 GePol: Maximum number of vertices in a tessera      =       8
 GePol: Cavity surface area                          =    206.356 Ang**2
 GePol: Cavity volume                                =    220.891 Ang**3
 Leave Link  301 at Mon Aug  3 17:25:06 2020, MaxMem=  6442450944 cpu:               8.9 elap:               0.4
 (Enter /scratch/scicomp/CentOS/7.3.1611/Haswell/software/Gaussian/g16/l302.exe)
 NPDir=0 NMtPBC=     1 NCelOv=     1 NCel=       1 NClECP=     1 NCelD=      1
         NCelK=      1 NCelE2=     1 NClLst=     1 CellRange=     0.0.
 One-electron integrals computed using PRISM.
   1 Symmetry operations used in ECPInt.
 ECPInt:  NShTT=   19306 NPrTT=   56928 LenC2=   18494 LenP2D=   42038.
 LDataN:  DoStor=T MaxTD1= 6 Len=  172
 NBasis=   468 RedAO= T EigKep=  2.31D-05  NBF=   468
 NBsUse=   468 1.00D-06 EigRej= -1.00D+00 NBFU=   468
 Precomputing XC quadrature grid using
 IXCGrd= 4 IRadAn=           5 IRanWt=          -1 IRanGd=           0 AccXCQ= 0.00D+00.
 Generated NRdTot=       0 NPtTot=           0 NUsed=           0 NTot=          32
 NSgBfM=   526   526   526   526   526 MxSgAt=    28 MxSgA2=    28.
 Leave Link  302 at Mon Aug  3 17:25:07 2020, MaxMem=  6442450944 cpu:              11.7 elap:               0.5
 (Enter /scratch/scicomp/CentOS/7.3.1611/Haswell/software/Gaussian/g16/l401.exe)
 ExpMin= 9.52D-02 ExpMax= 1.36D+04 ExpMxC= 4.63D+02 IAcc=3 IRadAn=         5 AccDes= 0.00D+00
 Harris functional with IExCor= 4639 and IRadAn=       5 diagonalized for initial guess.
 HarFok:  IExCor= 4639 AccDes= 0.00D+00 IRadAn=         5 IDoV= 1 UseB2=F ITyADJ=14
 ICtDFT=  3500011 ScaDFX=  1.000000  1.000000  1.000000  1.000000
 FoFCou: FMM=F IPFlag=           0 FMFlag=      100000 FMFlg1=           0
         NFxFlg=           0 DoJE=T BraDBF=F KetDBF=T FulRan=T
         wScrn=  0.000000 ICntrl=       500 IOpCl=  0 I1Cent=   200000004 NGrid=           0
         NMat0=    1 NMatS0=      1 NMatT0=    0 NMatD0=    1 NMtDS0=    0 NMtDT0=    0
 Symmetry not used in FoFCou.
 Harris En= -444.627886044924    
 JPrj=0 DoOrth=F DoCkMO=T.
 Mixing orbitals, IMix= 1 IMixAn=  0 NRI=1 NE=   44 Coef=  7.07106781D-01  7.07106781D-01
 Mixing orbitals, IMix= 1 IMixAn=  0 NRI=1 NE=   44 Coef= -7.07106781D-01  7.07106781D-01
 Initial guess <Sx>= 0.0000 <Sy>= 0.0000 <Sz>= 0.0000 <S**2>= 1.0000 S= 0.6180
 Leave Link  401 at Mon Aug  3 17:25:09 2020, MaxMem=  6442450944 cpu:              47.0 elap:               2.0
 (Enter /scratch/scicomp/CentOS/7.3.1611/Haswell/software/Gaussian/g16/l9999.exe)

 This type of calculation cannot be archived.


 I FIND THAT THE THREE TRULY GREAT TIMES FOR THINKING THOUGHTS
 ARE WHEN I AM STANDING IN THE SHOWER, SITTING ON THE JOHN, OR WALKING.

                                    -- COLIN FLETCHER
 Job cpu time:       0 days  0 hours  1 minutes 12.8 seconds.
 Elapsed time:       0 days  0 hours  0 minutes  3.3 seconds.
 File lengths (MBytes):  RWF=    388 Int=      0 D2E=      0 Chk=      1 Scr=      1
 Normal termination of Gaussian 16 at Mon Aug  3 17:25:09 2020.
 Initial command:
 /scratch/scicomp/CentOS/7.3.1611/Haswell/software/Gaussian/g16/l1.exe "/scratch/bochen/cyclohexadiene-dimerization/wb97xd-def2tzvp/xp-pcm/meso/Gau-90061.inp" -scrdir="/scratch/bochen/cyclohexadiene-dimerization/wb97xd-def2tzvp/xp-pcm/meso/"
 Entering Link 1 = /scratch/scicomp/CentOS/7.3.1611/Haswell/software/Gaussian/g16/l1.exe PID=     90649.
  
 Copyright (c) 1988-2017, Gaussian, Inc.  All Rights Reserved.
  
 This is part of the Gaussian(R) 16 program.  It is based on
 the Gaussian(R) 09 system (copyright 2009, Gaussian, Inc.),
 the Gaussian(R) 03 system (copyright 2003, Gaussian, Inc.),
 the Gaussian(R) 98 system (copyright 1998, Gaussian, Inc.),
 the Gaussian(R) 94 system (copyright 1995, Gaussian, Inc.),
 the Gaussian 92(TM) system (copyright 1992, Gaussian, Inc.),
 the Gaussian 90(TM) system (copyright 1990, Gaussian, Inc.),
 the Gaussian 88(TM) system (copyright 1988, Gaussian, Inc.),
 the Gaussian 86(TM) system (copyright 1986, Carnegie Mellon
 University), and the Gaussian 82(TM) system (copyright 1983,
 Carnegie Mellon University). Gaussian is a federally registered
 trademark of Gaussian, Inc.
  
 This software contains proprietary and confidential information,
 including trade secrets, belonging to Gaussian, Inc.
  
 This software is provided under written license and may be
 used, copied, transmitted, or stored only in accord with that
 written license.
  
 The following legend is applicable only to US Government
 contracts under FAR:
  
                    RESTRICTED RIGHTS LEGEND
  
 Use, reproduction and disclosure by the US Government is
 subject to restrictions as set forth in subparagraphs (a)
 and (c) of the Commercial Computer Software - Restricted
 Rights clause in FAR 52.227-19.
  
 Gaussian, Inc.
 340 Quinnipiac St., Bldg. 40, Wallingford CT 06492
  
  
 ---------------------------------------------------------------
 Warning -- This program may not be used in any manner that
 competes with the business of Gaussian, Inc. or will provide
 assistance to any competitor of Gaussian, Inc.  The licensee
 of this program is prohibited from giving any competitor of
 Gaussian, Inc. access to this program.  By using this program,
 the user acknowledges that Gaussian, Inc. is engaged in the
 business of creating and licensing software in the field of
 computational chemistry and represents and warrants to the
 licensee that it is not a competitor of Gaussian, Inc. and that
 it will not use this program in any manner prohibited above.
 ---------------------------------------------------------------
  

 Cite this work as:
 Gaussian 16, Revision B.01,
 M. J. Frisch, G. W. Trucks, H. B. Schlegel, G. E. Scuseria, 
 M. A. Robb, J. R. Cheeseman, G. Scalmani, V. Barone, 
 G. A. Petersson, H. Nakatsuji, X. Li, M. Caricato, A. V. Marenich, 
 J. Bloino, B. G. Janesko, R. Gomperts, B. Mennucci, H. P. Hratchian, 
 J. V. Ortiz, A. F. Izmaylov, J. L. Sonnenberg, D. Williams-Young, 
 F. Ding, F. Lipparini, F. Egidi, J. Goings, B. Peng, A. Petrone, 
 T. Henderson, D. Ranasinghe, V. G. Zakrzewski, J. Gao, N. Rega, 
 G. Zheng, W. Liang, M. Hada, M. Ehara, K. Toyota, R. Fukuda, 
 J. Hasegawa, M. Ishida, T. Nakajima, Y. Honda, O. Kitao, H. Nakai, 
 T. Vreven, K. Throssell, J. A. Montgomery, Jr., J. E. Peralta, 
 F. Ogliaro, M. J. Bearpark, J. J. Heyd, E. N. Brothers, K. N. Kudin, 
 V. N. Staroverov, T. A. Keith, R. Kobayashi, J. Normand, 
 K. Raghavachari, A. P. Rendell, J. C. Burant, S. S. Iyengar, 
 J. Tomasi, M. Cossi, J. M. Millam, M. Klene, C. Adamo, R. Cammi, 
 J. W. Ochterski, R. L. Martin, K. Morokuma, O. Farkas, 
 J. B. Foresman, and D. J. Fox, Gaussian, Inc., Wallingford CT, 2016.
 
 ******************************************
 Gaussian 16:  ES64L-G16RevB.01 20-Dec-2017
                 3-Aug-2020 
 ******************************************
 %chk=meso-TS_37_2_xp-105.chk
 %nproc=24
 Will use up to   24 processors via shared memory.
 %mem=48GB
 ----------------------------------------------------------------------
 #p uwb97xd guess=mix def2tzvp # scrf=(iefpcm,solvent=Cyclohexane,read)
  nosym guess=only pop=none
 ----------------------------------------------------------------------
 1/38=1,40=2,172=1/1;
 2/12=2,15=1,17=6,18=5,40=1/2;
 3/5=44,7=101,11=2,25=1,30=1,70=2203,72=17,74=-58,89=1,116=2/1,2;
 4/13=-1/1;
 99/5=2/99;
 Leave Link    1 at Mon Aug  3 17:25:09 2020, MaxMem=  6442450944 cpu:               2.1 elap:               0.1
 (Enter /scratch/scicomp/CentOS/7.3.1611/Haswell/software/Gaussian/g16/l101.exe)
 -----------------------
 endo-2 xp-pcm for eta=3
 -----------------------
 Symbolic Z-matrix:
 Charge =  0 Multiplicity = 1
 6                    -3.12622  -0.44049   0.25349 
 6                    -0.67222  -0.23682  -1.14636 
 1                    -4.08296  -0.54175   0.75273 
 1                     0.29421  -0.14682  -1.62513 
 6                     1.12979   1.41843   0.74352 
 6                     0.67222   0.23682   1.14636 
 1                     0.53682   2.31558   0.87217 
 1                    -0.29421   0.14682   1.62513 
 6                     1.51865  -1.        1.05961 
 1                     2.01232  -1.1142    2.03299 
 1                     0.89114  -1.882     0.93796 
 6                     2.43995   1.52471   0.1049 
 1                     2.84394   2.51143  -0.0879 
 6                     3.12622   0.44049  -0.25349 
 1                     4.08296   0.54175  -0.75273 
 6                     2.58441  -0.94681  -0.04091 
 1                     2.17791  -1.31185  -0.99221 
 1                     3.39788  -1.63095   0.20883 
 6                    -1.12979  -1.41843  -0.74352 
[...]
 1                     0.29421  -0.14682  -1.62513 
 6                     1.12979   1.41843   0.74352 
 6                     0.67222   0.23682   1.14636 
 1                     0.53682   2.31558   0.87217 
 1                    -0.29421   0.14682   1.62513 
 6                     1.51865  -1.        1.05961 
 1                     2.01232  -1.1142    2.03299 
 1                     0.89114  -1.882     0.93796 
 6                     2.43995   1.52471   0.1049 
 1                     2.84394   2.51143  -0.0879 
 6                     3.12622   0.44049  -0.25349 
 1                     4.08296   0.54175  -0.75273 
 6                     2.58441  -0.94681  -0.04091 
 1                     2.17791  -1.31185  -0.99221 
 1                     3.39788  -1.63095   0.20883 
 6                    -1.12979  -1.41843  -0.74352 
 1                    -0.53682  -2.31558  -0.87217 
 6                    -2.43995  -1.52471  -0.1049 
 1                    -2.84394  -2.51143   0.0879 
 6                    -1.51865   1.       -1.05961 
 1                    -0.89114   1.882    -0.93796 
 1                    -2.01232   1.11421  -2.03299 
 6                    -2.58441   0.94681   0.04091 
 1                    -3.39788   1.63095  -0.20883 
 1                    -2.17791   1.31185   0.99221 
 
 ITRead=  0  0  0  0  0  0  0  0  0  0  0  0  0  0  0  0  0  0  0  0
 ITRead=  0  0  0  0  0  0  0  0
 MicOpt= -1 -1 -1 -1 -1 -1 -1 -1 -1 -1 -1 -1 -1 -1 -1 -1 -1 -1 -1 -1
 MicOpt= -1 -1 -1 -1 -1 -1 -1 -1
 NAtoms=     28 NQM=       28 NQMF=       0 NMMI=      0 NMMIF=      0
                NMic=       0 NMicF=      0.
                    Isotopes and Nuclear Properties:
 (Nuclear quadrupole moments (NQMom) in fm**2, nuclear magnetic moments (NMagM)
  in nuclear magnetons)

  Atom         1           2           3           4           5           6           7           8           9          10
 IAtWgt=          12          12           1           1          12          12           1           1          12           1
 AtmWgt=  12.0000000  12.0000000   1.0078250   1.0078250  12.0000000  12.0000000   1.0078250   1.0078250  12.0000000   1.0078250
 NucSpn=           0           0           1           1           0           0           1           1           0           1
 AtZEff=  -0.0000000  -0.0000000  -0.0000000  -0.0000000  -0.0000000  -0.0000000  -0.0000000  -0.0000000  -0.0000000  -0.0000000
 NQMom=    0.0000000   0.0000000   0.0000000   0.0000000   0.0000000   0.0000000   0.0000000   0.0000000   0.0000000   0.0000000
 NMagM=    0.0000000   0.0000000   2.7928460   2.7928460   0.0000000   0.0000000   2.7928460   2.7928460   0.0000000   2.7928460
 AtZNuc=   6.0000000   6.0000000   1.0000000   1.0000000   6.0000000   6.0000000   1.0000000   1.0000000   6.0000000   1.0000000

  Atom        11          12          13          14          15          16          17          18          19          20
 IAtWgt=           1          12           1          12           1          12           1           1          12           1
 AtmWgt=   1.0078250  12.0000000   1.0078250  12.0000000   1.0078250  12.0000000   1.0078250   1.0078250  12.0000000   1.0078250
 NucSpn=           1           0           1           0           1           0           1           1           0           1
 AtZEff=  -0.0000000  -0.0000000  -0.0000000  -0.0000000  -0.0000000  -0.0000000  -0.0000000  -0.0000000  -0.0000000  -0.0000000
 NQMom=    0.0000000   0.0000000   0.0000000   0.0000000   0.0000000   0.0000000   0.0000000   0.0000000   0.0000000   0.0000000
 NMagM=    2.7928460   0.0000000   2.7928460   0.0000000   2.7928460   0.0000000   2.7928460   2.7928460   0.0000000   2.7928460
 AtZNuc=   1.0000000   6.0000000   1.0000000   6.0000000   1.0000000   6.0000000   1.0000000   1.0000000   6.0000000   1.0000000

  Atom        21          22          23          24          25          26          27          28
 IAtWgt=          12           1          12           1           1          12           1           1
 AtmWgt=  12.0000000   1.0078250  12.0000000   1.0078250   1.0078250  12.0000000   1.0078250   1.0078250
 NucSpn=           0           1           0           1           1           0           1           1
 AtZEff=  -0.0000000  -0.0000000  -0.0000000  -0.0000000  -0.0000000  -0.0000000  -0.0000000  -0.0000000
 NQMom=    0.0000000   0.0000000   0.0000000   0.0000000   0.0000000   0.0000000   0.0000000   0.0000000
 NMagM=    0.0000000   2.7928460   0.0000000   2.7928460   2.7928460   0.0000000   2.7928460   2.7928460
 AtZNuc=   6.0000000   1.0000000   6.0000000   1.0000000   1.0000000   6.0000000   1.0000000   1.0000000
 Leave Link  101 at Mon Aug  3 17:25:21 2020, MaxMem=  6442450944 cpu:               2.4 elap:               0.1
 (Enter /scratch/scicomp/CentOS/7.3.1611/Haswell/software/Gaussian/g16/l202.exe)
                          Input orientation:                          
 ---------------------------------------------------------------------
 Center     Atomic      Atomic             Coordinates (Angstroms)
 Number     Number       Type             X           Y           Z
 ---------------------------------------------------------------------
      1          6           0       -3.126220   -0.440488    0.253489
      2          6           0       -0.672219   -0.236821   -1.146356
      3          1           0       -4.082957   -0.541745    0.752734
      4          1           0        0.294206   -0.146815   -1.625125
      5          6           0        1.129787    1.418428    0.743520
      6          6           0        0.672219    0.236821    1.146356
      7          1           0        0.536815    2.315578    0.872168
      8          1           0       -0.294206    0.146815    1.625125
      9          6           0        1.518650   -0.999998    1.059609
     10          1           0        2.012318   -1.114204    2.032991
     11          1           0        0.891136   -1.882004    0.937960
     12          6           0        2.439953    1.524706    0.104897
     13          1           0        2.843940    2.511426   -0.087900
     14          6           0        3.126220    0.440488   -0.253489
     15          1           0        4.082957    0.541745   -0.752734
     16          6           0        2.584411   -0.946808   -0.040911
     17          1           0        2.177912   -1.311853   -0.992206
     18          1           0        3.397883   -1.630946    0.208832
     19          6           0       -1.129787   -1.418428   -0.743520
     20          1           0       -0.536815   -2.315578   -0.872168
     21          6           0       -2.439953   -1.524706   -0.104897
     22          1           0       -2.843940   -2.511426    0.087900
     23          6           0       -1.518650    0.999998   -1.059609
     24          1           0       -0.891135    1.882004   -0.937960
     25          1           0       -2.012317    1.114205   -2.032991
     26          6           0       -2.584411    0.946808    0.040911
     27          1           0       -3.397883    1.630946   -0.208832
     28          1           0       -2.177912    1.311853    0.992206
 ---------------------------------------------------------------------
                    Distance matrix (angstroms):
                    1          2          3          4          5
     1  C    0.000000
     2  C    2.832520   0.000000
     3  H    1.083902   3.915693   0.000000
     4  H    3.913406   1.082265   4.996973   0.000000
     5  C    4.670042   3.091716   5.569117   2.959503   0.000000
     6  C    3.960315   2.699700   4.834543   2.823327   1.329602
     7  H    4.625634   3.471447   5.433310   3.515496   1.083072
     8  H    3.201033   2.823327   3.948394   3.316108   2.102851
     9  C    4.747389   3.201348   5.628692   3.071641   2.469800
    10  H    5.479516   4.252621   6.254530   4.155666   2.975873
    11  H    4.322686   3.081409   5.154823   3.152239   3.314757
    12  C    5.904773   3.788697   6.873010   3.223537   1.461393
    13  H    6.668819   4.586564   7.616457   3.991297   2.196412
    14  C    6.334521   3.960315   7.345032   3.201033   2.436419
    15  H    7.345032   4.834543   8.373920   3.948394   3.424699
    16  C    5.740587   3.511656   6.726644   2.897372   2.885412
    17  H    5.517685   3.050033   6.544949   2.303530   3.400845
    18  H    6.631976   4.510637   7.579258   3.898571   3.837816
    19  C    2.436419   1.329602   3.424699   2.102851   3.919785
    20  H    3.389408   2.101129   4.285080   2.441531   4.396682
    21  C    1.332266   2.422430   2.097905   3.418377   4.703711
    22  H    2.096637   3.378400   2.420085   4.286467   5.627086
    23  C    2.526560   1.501230   3.498175   2.218431   3.231188
    24  H    3.436441   2.140274   4.349797   2.448129   2.669532
    25  H    2.980913   2.099346   3.845775   2.660183   4.204091
    26  C    1.504439   2.543041   2.228928   3.501160   3.809377
    27  H    2.139715   3.434640   2.472756   4.335648   4.631623
    28  H    2.125015   3.039564   2.668777   3.884521   3.318746
                    6          7          8          9         10
     6  C    0.000000
     7  H    2.101129   0.000000
     8  H    1.082265   2.441531   0.000000
     9  C    1.501230   3.462972   2.218431   0.000000
    10  H    2.099346   3.909990   2.660184   1.097371   0.000000
    11  H    2.140274   4.213023   2.448129   1.089269   1.745182
    12  C    2.422430   2.199117   3.418377   2.852088   3.296098
    13  H    3.378400   2.506574   4.286467   3.924700   4.281935
    14  C    2.832520   3.389408   3.913406   2.526560   2.980912
    15  H    3.915693   4.285080   4.996973   3.498175   3.845774
    16  C    2.543041   3.958475   3.501160   1.532912   2.157865
    17  H    3.039564   4.396288   3.884521   2.177573   3.036166
    18  H    3.434640   4.919428   4.335648   2.157182   2.348269
    19  C    3.091716   4.396682   2.959503   3.231188   4.204092
    20  H    3.471447   5.063891   3.515496   3.112467   4.047385
    21  C    3.788697   4.956166   3.223537   4.159559   4.955986
    22  H    4.586564   5.945128   3.991297   4.718138   5.414688
    23  C    3.201348   3.112467   3.071641   4.209069   5.147986
    24  H    3.081408   2.345973   3.152239   4.254795   5.121899
    25  H    4.252621   4.047384   4.155666   5.147986   6.139683
    26  C    3.511656   3.508072   2.897372   4.654343   5.417201
    27  H    4.510637   4.137527   3.898571   5.718663   6.467758
    28  H    3.050033   2.896829   2.303530   4.360478   4.952475
                   11         12         13         14         15
    11  H    0.000000
    12  C    3.833862   0.000000
    13  H    4.916102   1.083509   0.000000
    14  C    3.436440   1.332266   2.096637   0.000000
    15  H    4.349796   2.097905   2.420085   1.083902   0.000000
    16  C    2.167939   2.480022   3.468277   1.504439   2.228928
    17  H    2.388808   3.052600   3.984824   2.125015   2.668777
    18  H    2.622678   3.299481   4.189767   2.139715   2.472756
    19  C    2.669533   4.703711   5.627086   4.670042   5.569117
    20  H    2.345974   4.956166   5.945128   4.625634   5.433310
    21  C    3.508756   5.758160   6.649073   5.904773   6.873010
    22  H    3.881954   6.649073   7.590252   6.668819   7.616457
    23  C    4.254796   4.159559   4.718138   4.747389   5.628692
    24  H    4.567639   3.508755   3.881953   4.322686   5.154822
    25  H    5.121900   4.955985   5.414687   5.479515   6.254529
    26  C    4.570153   5.057894   5.650807   5.740587   6.726644
    27  H    5.661416   5.847225   6.304778   6.631976   7.579258
    28  H    4.429754   4.707154   5.274903   5.517685   6.544949
                   16         17         18         19         20
    16  C    0.000000
    17  H    1.097024   0.000000
    18  H    1.091858   1.741448   0.000000
    19  C    3.809377   3.318746   4.631623   0.000000
    20  H    3.508072   2.896829   4.137527   1.083072   0.000000
    21  C    5.057894   4.707154   5.847225   1.461393   2.199117
    22  H    5.650807   5.274903   6.304778   2.196412   2.506574
    23  C    4.654343   4.360478   5.718663   2.469800   3.462972
    24  H    4.570153   4.429753   5.661415   3.314757   4.213023
    25  H    5.417201   4.952475   6.467758   2.975874   3.909991
    26  C    5.505379   5.371089   6.516199   2.885412   3.958475
    27  H    6.516199   6.353206   7.549624   3.837816   4.919428
    28  H    5.371089   5.458473   6.353206   3.400845   4.396288
                   21         22         23         24         25
    21  C    0.000000
    22  H    1.083509   0.000000
    23  C    2.852088   3.924700   0.000000
    24  H    3.833863   4.916102   1.089270   0.000000
    25  H    3.296099   4.281936   1.097371   1.745181   0.000000
    26  C    2.480022   3.468277   1.532912   2.167940   2.157865
    27  H    3.299481   4.189767   2.157182   2.622679   2.348270
    28  H    3.052600   3.984824   2.177573   2.388809   3.036166
                   26         27         28
    26  C    0.000000
    27  H    1.091858   0.000000
    28  H    1.097024   1.741448   0.000000
 Symmetry turned off by external request.
 Stoichiometry    C12H16
 Framework group  CI[X(C12H16)]
 Deg. of freedom    39
 Full point group                 CI      NOp   2
 Rotational constants (GHZ):           1.8182963           0.6091474           0.5421992
 Leave Link  202 at Mon Aug  3 17:25:21 2020, MaxMem=  6442450944 cpu:               0.3 elap:               0.0
 (Enter /scratch/scicomp/CentOS/7.3.1611/Haswell/software/Gaussian/g16/l301.exe)
 Standard basis: def2TZVP (5D, 7F)
 Ernie: Thresh=  0.10000D-02 Tol=  0.10000D-05 Strict=F.
   468 basis functions,   740 primitive gaussians,   528 cartesian basis functions
    44 alpha electrons       44 beta electrons
       nuclear repulsion energy       681.4184138780 Hartrees.
 IExCor= 4639 DFT=T Ex+Corr=wB97XD ExCW=0 ScaHFX=  1.000000
 ScaDFX=  1.000000  1.000000  1.000000  1.000000 ScalE2=  1.000000  1.000000
 IRadAn=      5 IRanWt=     -1 IRanGd=            0 ICorTp=0 IEmpDi=121
 HFx  wShort=  0.000000 wLong=  0.200000 cFull=  0.222036 cShort=  0.000000 cLong=  0.777964
 DFx  wShort=  0.000000 wLong=  0.200000 cFull=  0.000000 cShort=  0.000000 cLong=  1.000000
 NAtoms=   28 NActive=   28 NUniq=   28 SFac= 1.00D+00 NAtFMM=   60 NAOKFM=F Big=F
 Integral buffers will be    131072 words long.
 Raffenetti 2 integral format.
 Two-electron integral symmetry is turned off.
 R6Disp:  Grimme-D2 Dispersion energy=       -0.0227217399 Hartrees.
 Nuclear repulsion after empirical dispersion term =      681.3956921381 Hartrees.
 Using the following non-standard input for PCM:
 qrep pcmdoc geomview  nodis nocav g03defaults tsare=0.075
 Warning! Using old PCM defaults because the g03defaults keyword was found.
 These settings can be overridden by following keywords.
 nsfe=28
 NVESolv=36  SolvMW=84.1595   Rsolv=2.815
 eps=2.0165 RhoS=0.7781
 --- end of non-standard input.
 Reading user-defined spheres from input:
 ISph  on   Nord    Re0     Alpha      Xe            Ye            Ze
 --- end of user-defined spheres data.
 ------------------------------------------------------------------------------
 Polarizable Continuum Model (PCM)
 =================================
 Model                : PCM.
 Atomic radii         : UA0 (Simple United Atom Topological Model).
 Polarization charges : Total charges.
 Charge compensation  : None.
 Solution method      : On-the-fly selection.
 Cavity type          : SES (Solvent Excluding Surface) (Alpha=1.000).
 Cavity algorithm     : GePol (RMin=0.200 OFac=0.890).
                        User-defined sphere list used, NSphG=   28.
                        Tesserae with average area of 0.075 Ang**2.
                        Smoothing algorithm: None.
                        Polarization charges: point-like.
                        Self-potential: constant (ISelfS= 1).
                        Self-field    : global E.n sum rule (ISelfD= 3).
 Solvent              : CycloHexane, Eps=   2.016500 Eps(inf)=   2.035188
                        RSolv=   2.815000 Ang.
 ------------------------------------------------------------------------------
 GePol: Number of generator spheres                  =      28
 GePol: Total number of spheres                      =     453
 GePol: Number of exposed spheres                    =     281 ( 62.03%)
 GePol: Number of tesserae                           =    4533
 GePol: Average area of tesserae                     =       0.04 Ang**2
 GePol: Minimum area of tessera                      =   0.10D-02 Ang**2
 GePol: Maximum area of tessera                      =    0.12568 Ang**2
 GePol: Number of small tesserae                     =       0
 GePol: Fraction of small tesserae (<1% of avg)      =       0.00%
 GePol: Total count of vertices                      =   17020
 GePol: Maximum number of vertices in a tessera      =       9
 GePol: Cavity surface area                          =    185.516 Ang**2
 GePol: Cavity volume                                =    182.529 Ang**3
 Leave Link  301 at Mon Aug  3 17:25:21 2020, MaxMem=  6442450944 cpu:              11.5 elap:               0.5
 (Enter /scratch/scicomp/CentOS/7.3.1611/Haswell/software/Gaussian/g16/l302.exe)
 NPDir=0 NMtPBC=     1 NCelOv=     1 NCel=       1 NClECP=     1 NCelD=      1
         NCelK=      1 NCelE2=     1 NClLst=     1 CellRange=     0.0.
 One-electron integrals computed using PRISM.
   1 Symmetry operations used in ECPInt.
 ECPInt:  NShTT=   19306 NPrTT=   56928 LenC2=   18494 LenP2D=   42038.
 LDataN:  DoStor=T MaxTD1= 6 Len=  172
 NBasis=   468 RedAO= T EigKep=  2.31D-05  NBF=   468
 NBsUse=   468 1.00D-06 EigRej= -1.00D+00 NBFU=   468
 Precomputing XC quadrature grid using
 IXCGrd= 4 IRadAn=           5 IRanWt=          -1 IRanGd=           0 AccXCQ= 0.00D+00.
 Generated NRdTot=       0 NPtTot=           0 NUsed=           0 NTot=          32
 NSgBfM=   526   526   526   526   526 MxSgAt=    28 MxSgA2=    28.
 Leave Link  302 at Mon Aug  3 17:25:22 2020, MaxMem=  6442450944 cpu:              11.8 elap:               0.5
 (Enter /scratch/scicomp/CentOS/7.3.1611/Haswell/software/Gaussian/g16/l401.exe)
 ExpMin= 9.52D-02 ExpMax= 1.36D+04 ExpMxC= 4.63D+02 IAcc=3 IRadAn=         5 AccDes= 0.00D+00
 Harris functional with IExCor= 4639 and IRadAn=       5 diagonalized for initial guess.
 HarFok:  IExCor= 4639 AccDes= 0.00D+00 IRadAn=         5 IDoV= 1 UseB2=F ITyADJ=14
 ICtDFT=  3500011 ScaDFX=  1.000000  1.000000  1.000000  1.000000
 FoFCou: FMM=F IPFlag=           0 FMFlag=      100000 FMFlg1=           0
         NFxFlg=           0 DoJE=T BraDBF=F KetDBF=T FulRan=T
         wScrn=  0.000000 ICntrl=       500 IOpCl=  0 I1Cent=   200000004 NGrid=           0
         NMat0=    1 NMatS0=      1 NMatT0=    0 NMatD0=    1 NMtDS0=    0 NMtDT0=    0
 Symmetry not used in FoFCou.
 Harris En= -444.627886044924    
 JPrj=0 DoOrth=F DoCkMO=T.
 Mixing orbitals, IMix= 1 IMixAn=  0 NRI=1 NE=   44 Coef=  7.07106781D-01  7.07106781D-01
 Mixing orbitals, IMix= 1 IMixAn=  0 NRI=1 NE=   44 Coef= -7.07106781D-01  7.07106781D-01
 Initial guess <Sx>= 0.0000 <Sy>= 0.0000 <Sz>= 0.0000 <S**2>= 1.0000 S= 0.6180
 Leave Link  401 at Mon Aug  3 17:25:24 2020, MaxMem=  6442450944 cpu:              47.1 elap:               2.0
 (Enter /scratch/scicomp/CentOS/7.3.1611/Haswell/software/Gaussian/g16/l9999.exe)

 This type of calculation cannot be archived.


 READER, WHETHER YOU BE DILETTANTE OR PROFESSOR ... SHOW YOURSELF TO BE
 MORE HUMAN THAN CRITICAL, AND THEN YOUR PLEASURE WILL INCREASE.
                                           -- DOMENICO SCARLATTI (1738)
 Job cpu time:       0 days  0 hours  1 minutes 15.6 seconds.
 Elapsed time:       0 days  0 hours  0 minutes  3.4 seconds.
 File lengths (MBytes):  RWF=    380 Int=      0 D2E=      0 Chk=      1 Scr=      1
 Normal termination of Gaussian 16 at Mon Aug  3 17:25:24 2020.
