 Entering Gaussian System, Link 0=g16
 Input=meso-TS_30_1_xp-Gcav.com
 Output=meso-TS_30_1_xp-Gcav.log
 Initial command:
 /scratch/scicomp/CentOS/7.3.1611/Haswell/software/Gaussian/g16/l1.exe "/scratch/bochen/cyclohexadiene-dimerization/wb97xd-def2tzvp/xp-pcm/meso/Gau-105811.inp" -scrdir="/scratch/bochen/cyclohexadiene-dimerization/wb97xd-def2tzvp/xp-pcm/meso/"
 Entering Link 1 = /scratch/scicomp/CentOS/7.3.1611/Haswell/software/Gaussian/g16/l1.exe PID=    105812.
  
 Copyright (c) 1988-2017, Gaussian, Inc.  All Rights Reserved.
  
 This is part of the Gaussian(R) 16 program.  It is based on
 the Gaussian(R) 09 system (copyright 2009, Gaussian, Inc.),
 the Gaussian(R) 03 system (copyright 2003, Gaussian, Inc.),
 the Gaussian(R) 98 system (copyright 1998, Gaussian, Inc.),
 the Gaussian(R) 94 system (copyright 1995, Gaussian, Inc.),
 the Gaussian 92(TM) system (copyright 1992, Gaussian, Inc.),
 the Gaussian 90(TM) system (copyright 1990, Gaussian, Inc.),
 the Gaussian 88(TM) system (copyright 1988, Gaussian, Inc.),
 the Gaussian 86(TM) system (copyright 1986, Carnegie Mellon
 University), and the Gaussian 82(TM) system (copyright 1983,
 Carnegie Mellon University). Gaussian is a federally registered
 trademark of Gaussian, Inc.
  
 This software contains proprietary and confidential information,
 including trade secrets, belonging to Gaussian, Inc.
  
 This software is provided under written license and may be
 used, copied, transmitted, or stored only in accord with that
 written license.
  
 The following legend is applicable only to US Government
 contracts under FAR:
  
                    RESTRICTED RIGHTS LEGEND
  
 Use, reproduction and disclosure by the US Government is
 subject to restrictions as set forth in subparagraphs (a)
 and (c) of the Commercial Computer Software - Restricted
 Rights clause in FAR 52.227-19.
  
 Gaussian, Inc.
 340 Quinnipiac St., Bldg. 40, Wallingford CT 06492
  
  
 ---------------------------------------------------------------
 Warning -- This program may not be used in any manner that
 competes with the business of Gaussian, Inc. or will provide
 assistance to any competitor of Gaussian, Inc.  The licensee
 of this program is prohibited from giving any competitor of
 Gaussian, Inc. access to this program.  By using this program,
 the user acknowledges that Gaussian, Inc. is engaged in the
 business of creating and licensing software in the field of
 computational chemistry and represents and warrants to the
 licensee that it is not a competitor of Gaussian, Inc. and that
 it will not use this program in any manner prohibited above.
 ---------------------------------------------------------------
  

 Cite this work as:
 Gaussian 16, Revision B.01,
 M. J. Frisch, G. W. Trucks, H. B. Schlegel, G. E. Scuseria, 
 M. A. Robb, J. R. Cheeseman, G. Scalmani, V. Barone, 
 G. A. Petersson, H. Nakatsuji, X. Li, M. Caricato, A. V. Marenich, 
 J. Bloino, B. G. Janesko, R. Gomperts, B. Mennucci, H. P. Hratchian, 
 J. V. Ortiz, A. F. Izmaylov, J. L. Sonnenberg, D. Williams-Young, 
 F. Ding, F. Lipparini, F. Egidi, J. Goings, B. Peng, A. Petrone, 
 T. Henderson, D. Ranasinghe, V. G. Zakrzewski, J. Gao, N. Rega, 
 G. Zheng, W. Liang, M. Hada, M. Ehara, K. Toyota, R. Fukuda, 
 J. Hasegawa, M. Ishida, T. Nakajima, Y. Honda, O. Kitao, H. Nakai, 
 T. Vreven, K. Throssell, J. A. Montgomery, Jr., J. E. Peralta, 
 F. Ogliaro, M. J. Bearpark, J. J. Heyd, E. N. Brothers, K. N. Kudin, 
 V. N. Staroverov, T. A. Keith, R. Kobayashi, J. Normand, 
 K. Raghavachari, A. P. Rendell, J. C. Burant, S. S. Iyengar, 
 J. Tomasi, M. Cossi, J. M. Millam, M. Klene, C. Adamo, R. Cammi, 
 J. W. Ochterski, R. L. Martin, K. Morokuma, O. Farkas, 
 J. B. Foresman, and D. J. Fox, Gaussian, Inc., Wallingford CT, 2016.
 
 ******************************************
 Gaussian 16:  ES64L-G16RevB.01 20-Dec-2017
                 4-Aug-2020 
 ******************************************
 %chk=scr.chk
 %nproc=24
 Will use up to   24 processors via shared memory.
 %mem=48GB
 ----------------------------------------------------------------------
 #p uwb97xd guess=mix def2tzvp # scrf=(iefpcm,solvent=Cyclohexane,read)
  nosym guess=only pop=none
 ----------------------------------------------------------------------
 1/38=1,40=2,172=1/1;
 2/12=2,15=1,17=6,18=5,40=1/2;
 3/5=44,7=101,11=2,25=1,30=1,70=2203,72=17,74=-58,89=1,116=2/1,2;
 4/13=-1/1;
 99/5=2/99;
 Leave Link    1 at Tue Aug  4 21:48:42 2020, MaxMem=  6442450944 cpu:               1.4 elap:               0.1
 (Enter /scratch/scicomp/CentOS/7.3.1611/Haswell/software/Gaussian/g16/l101.exe)
 -------------------------------------------------
 endo-2 xp-pcm with Vmol=108.160262177098 cm^3/mol
 -------------------------------------------------
 Symbolic Z-matrix:
 Charge =  0 Multiplicity = 1
 6                    -3.14099  -0.42504   0.22382 
 6                    -0.4063   -0.1269   -0.65908 
 1                    -4.13565  -0.54469   0.63509 
 1                     0.31741  -0.13066  -1.47881 
 6                     1.10894   1.44553   0.60737 
 6                     0.4063    0.1269    0.65908 
 1                     0.57318   2.34463   0.8844 
 1                    -0.31741   0.13066   1.47881 
 6                     1.42998  -0.98206   0.93298 
 1                     1.83176  -0.82932   1.93798 
 1                     0.94414  -1.95883   0.9306 
 6                     2.4096    1.53504   0.14459 
 1                     2.86887   2.51402   0.06052 
 6                     3.14099   0.42504  -0.22382 
 1                     4.13565   0.54469  -0.63509 
 6                     2.58898  -0.95563  -0.06333 
 1                     2.2607   -1.33761  -1.03945 
 1                     3.37789  -1.63847   0.26323 
 6                    -1.10894  -1.44553  -0.60737 
 1                    -0.57318  -2.34463  -0.8844 
 6                    -2.4096   -1.53504  -0.14459 
 1                    -2.86887  -2.51402  -0.06052 
 6                    -1.42998   0.98206  -0.93298 
 1                    -0.94414   1.95883  -0.9306 
 1                    -1.83176   0.82932  -1.93798 
 6                    -2.58898   0.95563   0.06333 
 1                    -3.37789   1.63847  -0.26323 
 1                    -2.2607    1.33761   1.03945 
 
 ITRead=  0  0  0  0  0  0  0  0  0  0  0  0  0  0  0  0  0  0  0  0
 ITRead=  0  0  0  0  0  0  0  0
 MicOpt= -1 -1 -1 -1 -1 -1 -1 -1 -1 -1 -1 -1 -1 -1 -1 -1 -1 -1 -1 -1
 MicOpt= -1 -1 -1 -1 -1 -1 -1 -1
 NAtoms=     28 NQM=       28 NQMF=       0 NMMI=      0 NMMIF=      0
                NMic=       0 NMicF=      0.
                    Isotopes and Nuclear Properties:
 (Nuclear quadrupole moments (NQMom) in fm**2, nuclear magnetic moments (NMagM)
  in nuclear magnetons)

  Atom         1           2           3           4           5           6           7           8           9          10
 IAtWgt=          12          12           1           1          12          12           1           1          12           1
 AtmWgt=  12.0000000  12.0000000   1.0078250   1.0078250  12.0000000  12.0000000   1.0078250   1.0078250  12.0000000   1.0078250
 NucSpn=           0           0           1           1           0           0           1           1           0           1
 AtZEff=  -0.0000000  -0.0000000  -0.0000000  -0.0000000  -0.0000000  -0.0000000  -0.0000000  -0.0000000  -0.0000000  -0.0000000
 NQMom=    0.0000000   0.0000000   0.0000000   0.0000000   0.0000000   0.0000000   0.0000000   0.0000000   0.0000000   0.0000000
 NMagM=    0.0000000   0.0000000   2.7928460   2.7928460   0.0000000   0.0000000   2.7928460   2.7928460   0.0000000   2.7928460
 AtZNuc=   6.0000000   6.0000000   1.0000000   1.0000000   6.0000000   6.0000000   1.0000000   1.0000000   6.0000000   1.0000000

  Atom        11          12          13          14          15          16          17          18          19          20
 IAtWgt=           1          12           1          12           1          12           1           1          12           1
 AtmWgt=   1.0078250  12.0000000   1.0078250  12.0000000   1.0078250  12.0000000   1.0078250   1.0078250  12.0000000   1.0078250
 NucSpn=           1           0           1           0           1           0           1           1           0           1
 AtZEff=  -0.0000000  -0.0000000  -0.0000000  -0.0000000  -0.0000000  -0.0000000  -0.0000000  -0.0000000  -0.0000000  -0.0000000
 NQMom=    0.0000000   0.0000000   0.0000000   0.0000000   0.0000000   0.0000000   0.0000000   0.0000000   0.0000000   0.0000000
 NMagM=    2.7928460   0.0000000   2.7928460   0.0000000   2.7928460   0.0000000   2.7928460   2.7928460   0.0000000   2.7928460
 AtZNuc=   1.0000000   6.0000000   1.0000000   6.0000000   1.0000000   6.0000000   1.0000000   1.0000000   6.0000000   1.0000000

  Atom        21          22          23          24          25          26          27          28
 IAtWgt=          12           1          12           1           1          12           1           1
 AtmWgt=  12.0000000   1.0078250  12.0000000   1.0078250   1.0078250  12.0000000   1.0078250   1.0078250
 NucSpn=           0           1           0           1           1           0           1           1
 AtZEff=  -0.0000000  -0.0000000  -0.0000000  -0.0000000  -0.0000000  -0.0000000  -0.0000000  -0.0000000
 NQMom=    0.0000000   0.0000000   0.0000000   0.0000000   0.0000000   0.0000000   0.0000000   0.0000000
 NMagM=    0.0000000   2.7928460   0.0000000   2.7928460   2.7928460   0.0000000   2.7928460   2.7928460
 AtZNuc=   6.0000000   1.0000000   6.0000000   1.0000000   1.0000000   6.0000000   1.0000000   1.0000000
 Leave Link  101 at Tue Aug  4 21:48:42 2020, MaxMem=  6442450944 cpu:               2.4 elap:               0.1
 (Enter /scratch/scicomp/CentOS/7.3.1611/Haswell/software/Gaussian/g16/l202.exe)
                          Input orientation:                          
 ---------------------------------------------------------------------
 Center     Atomic      Atomic             Coordinates (Angstroms)
 Number     Number       Type             X           Y           Z
 ---------------------------------------------------------------------
      1          6           0       -3.140994   -0.425040    0.223816
      2          6           0       -0.406297   -0.126897   -0.659080
      3          1           0       -4.135653   -0.544691    0.635088
      4          1           0        0.317409   -0.130657   -1.478814
      5          6           0        1.108935    1.445531    0.607368
      6          6           0        0.406297    0.126897    0.659080
      7          1           0        0.573183    2.344629    0.884397
      8          1           0       -0.317409    0.130657    1.478814
      9          6           0        1.429977   -0.982064    0.932984
     10          1           0        1.831758   -0.829324    1.937981
     11          1           0        0.944143   -1.958831    0.930603
     12          6           0        2.409595    1.535044    0.144587
     13          1           0        2.868872    2.514015    0.060519
     14          6           0        3.140994    0.425040   -0.223816
     15          1           0        4.135653    0.544691   -0.635088
     16          6           0        2.588982   -0.955630   -0.063327
     17          1           0        2.260703   -1.337606   -1.039452
     18          1           0        3.377886   -1.638473    0.263228
     19          6           0       -1.108935   -1.445531   -0.607368
     20          1           0       -0.573183   -2.344629   -0.884397
     21          6           0       -2.409595   -1.535044   -0.144587
     22          1           0       -2.868872   -2.514015   -0.060519
     23          6           0       -1.429977    0.982064   -0.932984
     24          1           0       -0.944143    1.958831   -0.930603
     25          1           0       -1.831758    0.829324   -1.937981
     26          6           0       -2.588982    0.955630    0.063327
     27          1           0       -3.377886    1.638473   -0.263228
     28          1           0       -2.260703    1.337606    1.039452
 ---------------------------------------------------------------------
                    Distance matrix (angstroms):
                    1          2          3          4          5
     1  C    0.000000
     2  C    2.889111   0.000000
     3  H    1.082962   3.969574   0.000000
     4  H    3.866027   1.093494   4.946693   0.000000
     5  C    4.659189   2.524351   5.609586   2.731856   0.000000
     6  C    3.616264   1.569161   4.591396   2.155186   1.495048
     7  H    4.680015   3.074109   5.530232   3.431797   1.082660
     8  H    3.139499   2.155186   3.968243   3.036255   2.126680
     9  C    4.659074   2.576408   5.590731   2.789170   2.470286
    10  H    5.275421   3.499574   6.114617   3.802088   2.732759
    11  H    4.420453   2.776106   5.281236   3.088739   3.423641
    12  C    5.887040   3.367072   6.885213   3.128455   1.383436
    13  H    6.692025   4.268369   7.664802   3.984194   2.130277
    14  C    6.355028   3.616264   7.391054   3.139499   2.421060
    15  H    7.391054   4.591396   8.438875   3.968243   3.393557
    16  C    5.761649   3.164398   6.773284   2.800755   2.899301
    17  H    5.622006   2.953538   6.659292   2.329411   3.432847
    18  H    6.630970   4.177985   7.601836   3.830762   3.844171
    19  C    2.421060   1.495048   3.393557   2.126680   3.840934
    20  H    3.392140   2.235387   4.270808   2.459300   4.406835
    21  C    1.379411   2.502156   2.137281   3.344999   4.672185
    22  H    2.125727   3.481506   2.442712   4.224256   5.652170
    23  C    2.499141   1.533864   3.480016   2.142297   3.005588
    24  H    3.441174   2.171005   4.347959   2.501601   2.616097
    25  H    2.821506   2.140534   3.717060   2.398190   3.937790
    26  C    1.495568   2.541230   2.229364   3.464870   3.769691
    27  H    2.133405   3.479019   2.479393   4.273485   4.574574
    28  H    2.132392   2.910086   2.687376   3.891545   3.398942
                    6          7          8          9         10
     6  C    0.000000
     7  H    2.235387   0.000000
     8  H    1.093494   2.459300   0.000000
     9  C    1.533864   3.435599   2.142297   0.000000
    10  H    2.140534   3.573238   2.398190   1.093058   0.000000
    11  H    2.171005   4.319666   2.501601   1.090924   1.754553
    12  C    2.502156   2.138961   3.344999   2.813726   3.023308
    13  H    3.481506   2.444924   4.224256   3.879972   3.972201
    14  C    2.889111   3.392140   3.866027   2.499141   2.821506
    15  H    3.969574   4.270808   4.946693   3.480016   3.717060
    16  C    2.541230   3.981625   3.464870   1.528603   2.143496
    17  H    2.910086   4.484169   3.891545   2.169567   3.050812
    18  H    3.479019   4.910938   4.273485   2.161896   2.418684
    19  C    2.524351   4.406835   2.731856   3.005588   3.937790
    20  H    3.074109   5.141199   3.431797   3.028549   4.005709
    21  C    3.367072   5.000763   3.128455   4.026072   4.777469
    22  H    4.268369   6.028850   3.984194   4.670549   5.378486
    23  C    2.576408   3.028549   2.789170   3.939413   4.707705
    24  H    2.776106   2.396945   3.088739   4.214056   4.869108
    25  H    3.499574   4.005709   3.802088   4.707705   5.585297
    26  C    3.164398   3.550037   2.800755   4.545656   5.122824
    27  H    4.177985   4.174523   3.830762   5.604791   6.170554
    28  H    2.953538   3.011486   2.329411   4.360427   4.717115
                   11         12         13         14         15
    11  H    0.000000
    12  C    3.869436   0.000000
    13  H    4.946512   1.084614   0.000000
    14  C    3.441174   1.379411   2.125727   0.000000
    15  H    4.347959   2.137281   2.442712   1.082962   0.000000
    16  C    2.167903   2.505766   3.483118   1.495568   2.229364
    17  H    2.449565   3.110665   4.051517   2.132392   2.687376
    18  H    2.543840   3.320071   4.188477   2.133405   2.479393
    19  C    2.616097   4.672185   5.652170   4.659189   5.609586
    20  H    2.396945   5.000763   6.028850   4.680015   5.530232
    21  C    3.547279   5.721333   6.655761   5.887040   6.885213
    22  H    3.978647   6.655761   7.630036   6.692025   7.664802
    23  C    4.214056   4.026072   4.670549   4.659074   5.590731
    24  H    4.730517   3.547279   3.978647   4.420453   5.281236
    25  H    4.869108   4.777469   5.378486   5.275421   6.114617
    26  C    4.661461   5.032703   5.675979   5.761649   6.773284
    27  H    5.748544   5.802753   6.316120   6.630970   7.601836
    28  H    4.598846   4.759354   5.353017   5.622006   6.659292
                   16         17         18         19         20
    16  C    0.000000
    17  H    1.098405   0.000000
    18  H    1.093290   1.742296   0.000000
    19  C    3.769691   3.398942   4.574574   0.000000
    20  H    3.550037   3.011486   4.174523   1.082660   0.000000
    21  C    5.032703   4.759354   5.802753   1.383436   2.138961
    22  H    5.675979   5.353017   6.316120   2.130277   2.444924
    23  C    4.545656   4.360427   5.604791   2.470286   3.435599
    24  H    4.661461   4.598846   5.748544   3.423641   4.319666
    25  H    5.122824   4.717115   6.170554   2.732759   3.573238
    26  C    5.520894   5.476723   6.509443   2.899301   3.981625
    27  H    6.509443   6.422870   7.527017   3.844171   4.910938
    28  H    5.476723   5.649930   6.422870   3.432847   4.484169
                   21         22         23         24         25
    21  C    0.000000
    22  H    1.084614   0.000000
    23  C    2.813726   3.879972   0.000000
    24  H    3.869436   4.946512   1.090924   0.000000
    25  H    3.023308   3.972201   1.093058   1.754553   0.000000
    26  C    2.505766   3.483118   1.528603   2.167903   2.143496
    27  H    3.320071   4.188477   2.161896   2.543840   2.418684
    28  H    3.110665   4.051517   2.169567   2.449565   3.050812
                   26         27         28
    26  C    0.000000
    27  H    1.093290   0.000000
    28  H    1.098405   1.742296   0.000000
 Symmetry turned off by external request.
 Stoichiometry    C12H16
 Framework group  CI[X(C12H16)]
 Deg. of freedom    39
 Full point group                 CI      NOp   2
 Rotational constants (GHZ):           2.0335666           0.6463832           0.5521611
 Leave Link  202 at Tue Aug  4 21:48:42 2020, MaxMem=  6442450944 cpu:               0.3 elap:               0.0
 (Enter /scratch/scicomp/CentOS/7.3.1611/Haswell/software/Gaussian/g16/l301.exe)
 Standard basis: def2TZVP (5D, 7F)
 Ernie: Thresh=  0.10000D-02 Tol=  0.10000D-05 Strict=F.
   468 basis functions,   740 primitive gaussians,   528 cartesian basis functions
    44 alpha electrons       44 beta electrons
       nuclear repulsion energy       697.2046426072 Hartrees.
 IExCor= 4639 DFT=T Ex+Corr=wB97XD ExCW=0 ScaHFX=  1.000000
 ScaDFX=  1.000000  1.000000  1.000000  1.000000 ScalE2=  1.000000  1.000000
 IRadAn=      5 IRanWt=     -1 IRanGd=            0 ICorTp=0 IEmpDi=121
 HFx  wShort=  0.000000 wLong=  0.200000 cFull=  0.222036 cShort=  0.000000 cLong=  0.777964
 DFx  wShort=  0.000000 wLong=  0.200000 cFull=  0.000000 cShort=  0.000000 cLong=  1.000000
 NAtoms=   28 NActive=   28 NUniq=   28 SFac= 1.00D+00 NAtFMM=   60 NAOKFM=F Big=F
 Integral buffers will be    131072 words long.
 Raffenetti 2 integral format.
 Two-electron integral symmetry is turned off.
 R6Disp:  Grimme-D2 Dispersion energy=       -0.0228434541 Hartrees.
 Nuclear repulsion after empirical dispersion term =      697.1817991531 Hartrees.
 Using the following non-standard input for PCM:
 norep  pcmdoc geomview  nodis cav g03defaults noaddsph  tsare=0.075
 Warning! Using old PCM defaults because the g03defaults keyword was found.
 These settings can be overridden by following keywords.
 nsfe=28
 Vmol=108.160262177098 Rsolv=2.815
 --- end of non-standard input.
 Reading user-defined spheres from input:
 ISph  on   Nord    Re0     Alpha      Xe            Ye            Ze
 --- end of user-defined spheres data.
 ------------------------------------------------------------------------------
 Polarizable Continuum Model (PCM)
 =================================
 Model                : PCM.
 Atomic radii         : UA0 (Simple United Atom Topological Model).
 Polarization charges : Total charges.
 Charge compensation  : None.
 Solution method      : On-the-fly selection.
 Cavity type          : VdW (van der Waals Surface) (Alpha=1.000).
 Cavity algorithm     : GePol (No added spheres)
                        User-defined sphere list used, NSphG=   28.
                        Tesserae with average area of 0.075 Ang**2.
                        Smoothing algorithm: None.
                        Polarization charges: point-like.
                        Self-potential: constant (ISelfS= 1).
                        Self-field    : global E.n sum rule (ISelfD= 3).
 Solvent              : CycloHexane, Eps=   2.016500 Eps(inf)=   2.035188
 ------------------------------------------------------------------------------
 GePol: Number of generator spheres                  =      28
 GePol: Total number of spheres                      =      28
 GePol: Number of exposed spheres                    =      28 (100.00%)
 GePol: Number of tesserae                           =    3817
 GePol: Average area of tesserae                     =       0.06 Ang**2
 GePol: Minimum area of tessera                      =   0.10D-02 Ang**2
 GePol: Maximum area of tessera                      =    0.12395 Ang**2
 GePol: Number of small tesserae                     =       0
 GePol: Fraction of small tesserae (<1% of avg)      =       0.00%
 GePol: Total count of vertices                      =   12642
 GePol: Maximum number of vertices in a tessera      =       6
 GePol: Cavity surface area                          =    230.199 Ang**2
 GePol: Cavity volume                                =    234.368 Ang**3
 PCM non-electrostatic energy =         0.0357420531 Hartrees.
 Nuclear repulsion after PCM non-electrostatic terms =      697.2175412062 Hartrees.
 Leave Link  301 at Tue Aug  4 21:48:43 2020, MaxMem=  6442450944 cpu:               3.1 elap:               0.2
 (Enter /scratch/scicomp/CentOS/7.3.1611/Haswell/software/Gaussian/g16/l302.exe)
 NPDir=0 NMtPBC=     1 NCelOv=     1 NCel=       1 NClECP=     1 NCelD=      1
         NCelK=      1 NCelE2=     1 NClLst=     1 CellRange=     0.0.
 One-electron integrals computed using PRISM.
   1 Symmetry operations used in ECPInt.
 ECPInt:  NShTT=   19306 NPrTT=   56928 LenC2=   18534 LenP2D=   42334.
 LDataN:  DoStor=T MaxTD1= 6 Len=  172
 NBasis=   468 RedAO= T EigKep=  3.20D-05  NBF=   468
 NBsUse=   468 1.00D-06 EigRej= -1.00D+00 NBFU=   468
 Precomputing XC quadrature grid using
 IXCGrd= 4 IRadAn=           5 IRanWt=          -1 IRanGd=           0 AccXCQ= 0.00D+00.
 Generated NRdTot=       0 NPtTot=           0 NUsed=           0 NTot=          32
 NSgBfM=   526   526   526   526   526 MxSgAt=    28 MxSgA2=    28.
 Leave Link  302 at Tue Aug  4 21:48:43 2020, MaxMem=  6442450944 cpu:              11.8 elap:               0.5
 (Enter /scratch/scicomp/CentOS/7.3.1611/Haswell/software/Gaussian/g16/l401.exe)
 ExpMin= 9.52D-02 ExpMax= 1.36D+04 ExpMxC= 4.63D+02 IAcc=3 IRadAn=         5 AccDes= 0.00D+00
 Harris functional with IExCor= 4639 and IRadAn=       5 diagonalized for initial guess.
 HarFok:  IExCor= 4639 AccDes= 0.00D+00 IRadAn=         5 IDoV= 1 UseB2=F ITyADJ=14
 ICtDFT=  3500011 ScaDFX=  1.000000  1.000000  1.000000  1.000000
 FoFCou: FMM=F IPFlag=           0 FMFlag=      100000 FMFlg1=           0
         NFxFlg=           0 DoJE=T BraDBF=F KetDBF=T FulRan=T
         wScrn=  0.000000 ICntrl=       500 IOpCl=  0 I1Cent=   200000004 NGrid=           0
         NMat0=    1 NMatS0=      1 NMatT0=    0 NMatD0=    1 NMtDS0=    0 NMtDT0=    0
 Symmetry not used in FoFCou.
 Harris En= -444.540618358158    
 JPrj=0 DoOrth=F DoCkMO=T.
 Mixing orbitals, IMix= 1 IMixAn=  0 NRI=1 NE=   44 Coef=  7.07106781D-01  7.07106781D-01
 Mixing orbitals, IMix= 1 IMixAn=  0 NRI=1 NE=   44 Coef= -7.07106781D-01  7.07106781D-01
 Initial guess <Sx>= 0.0000 <Sy>= 0.0000 <Sz>= 0.0000 <S**2>= 1.0000 S= 0.6180
 Leave Link  401 at Tue Aug  4 21:48:45 2020, MaxMem=  6442450944 cpu:              48.4 elap:               2.1
 (Enter /scratch/scicomp/CentOS/7.3.1611/Haswell/software/Gaussian/g16/l9999.exe)

 This type of calculation cannot be archived.


 THOSE WITH THE GOLD MAKE THE RULES.

             -- PETER'S GOLDEN RULE
 Job cpu time:       0 days  0 hours  1 minutes  8.2 seconds.
 Elapsed time:       0 days  0 hours  0 minutes  3.1 seconds.
 File lengths (MBytes):  RWF=    276 Int=      0 D2E=      0 Chk=      1 Scr=      1
 Normal termination of Gaussian 16 at Tue Aug  4 21:48:45 2020.
 Initial command:
 /scratch/scicomp/CentOS/7.3.1611/Haswell/software/Gaussian/g16/l1.exe "/scratch/bochen/cyclohexadiene-dimerization/wb97xd-def2tzvp/xp-pcm/meso/Gau-105811.inp" -scrdir="/scratch/bochen/cyclohexadiene-dimerization/wb97xd-def2tzvp/xp-pcm/meso/"
 Entering Link 1 = /scratch/scicomp/CentOS/7.3.1611/Haswell/software/Gaussian/g16/l1.exe PID=    105974.
  
 Copyright (c) 1988-2017, Gaussian, Inc.  All Rights Reserved.
  
 This is part of the Gaussian(R) 16 program.  It is based on
 the Gaussian(R) 09 system (copyright 2009, Gaussian, Inc.),
 the Gaussian(R) 03 system (copyright 2003, Gaussian, Inc.),
 the Gaussian(R) 98 system (copyright 1998, Gaussian, Inc.),
 the Gaussian(R) 94 system (copyright 1995, Gaussian, Inc.),
 the Gaussian 92(TM) system (copyright 1992, Gaussian, Inc.),
 the Gaussian 90(TM) system (copyright 1990, Gaussian, Inc.),
 the Gaussian 88(TM) system (copyright 1988, Gaussian, Inc.),
 the Gaussian 86(TM) system (copyright 1986, Carnegie Mellon
 University), and the Gaussian 82(TM) system (copyright 1983,
 Carnegie Mellon University). Gaussian is a federally registered
 trademark of Gaussian, Inc.
  
 This software contains proprietary and confidential information,
 including trade secrets, belonging to Gaussian, Inc.
  
 This software is provided under written license and may be
 used, copied, transmitted, or stored only in accord with that
 written license.
  
 The following legend is applicable only to US Government
 contracts under FAR:
  
                    RESTRICTED RIGHTS LEGEND
  
 Use, reproduction and disclosure by the US Government is
 subject to restrictions as set forth in subparagraphs (a)
 and (c) of the Commercial Computer Software - Restricted
 Rights clause in FAR 52.227-19.
  
 Gaussian, Inc.
 340 Quinnipiac St., Bldg. 40, Wallingford CT 06492
  
  
 ---------------------------------------------------------------
 Warning -- This program may not be used in any manner that
 competes with the business of Gaussian, Inc. or will provide
 assistance to any competitor of Gaussian, Inc.  The licensee
 of this program is prohibited from giving any competitor of
 Gaussian, Inc. access to this program.  By using this program,
 the user acknowledges that Gaussian, Inc. is engaged in the
 business of creating and licensing software in the field of
 computational chemistry and represents and warrants to the
 licensee that it is not a competitor of Gaussian, Inc. and that
 it will not use this program in any manner prohibited above.
 ---------------------------------------------------------------
  

 Cite this work as:
 Gaussian 16, Revision B.01,
 M. J. Frisch, G. W. Trucks, H. B. Schlegel, G. E. Scuseria, 
 M. A. Robb, J. R. Cheeseman, G. Scalmani, V. Barone, 
 G. A. Petersson, H. Nakatsuji, X. Li, M. Caricato, A. V. Marenich, 
 J. Bloino, B. G. Janesko, R. Gomperts, B. Mennucci, H. P. Hratchian, 
 J. V. Ortiz, A. F. Izmaylov, J. L. Sonnenberg, D. Williams-Young, 
 F. Ding, F. Lipparini, F. Egidi, J. Goings, B. Peng, A. Petrone, 
 T. Henderson, D. Ranasinghe, V. G. Zakrzewski, J. Gao, N. Rega, 
 G. Zheng, W. Liang, M. Hada, M. Ehara, K. Toyota, R. Fukuda, 
 J. Hasegawa, M. Ishida, T. Nakajima, Y. Honda, O. Kitao, H. Nakai, 
 T. Vreven, K. Throssell, J. A. Montgomery, Jr., J. E. Peralta, 
 F. Ogliaro, M. J. Bearpark, J. J. Heyd, E. N. Brothers, K. N. Kudin, 
 V. N. Staroverov, T. A. Keith, R. Kobayashi, J. Normand, 
 K. Raghavachari, A. P. Rendell, J. C. Burant, S. S. Iyengar, 
 J. Tomasi, M. Cossi, J. M. Millam, M. Klene, C. Adamo, R. Cammi, 
 J. W. Ochterski, R. L. Martin, K. Morokuma, O. Farkas, 
 J. B. Foresman, and D. J. Fox, Gaussian, Inc., Wallingford CT, 2016.
 
 ******************************************
 Gaussian 16:  ES64L-G16RevB.01 20-Dec-2017
                 4-Aug-2020 
 ******************************************
 %chk=scr.chk
 %nproc=24
 Will use up to   24 processors via shared memory.
 %mem=48GB
 ----------------------------------------------------------------------
 #p uwb97xd guess=mix def2tzvp # scrf=(iefpcm,solvent=Cyclohexane,read)
  nosym guess=only pop=none
 ----------------------------------------------------------------------
 1/38=1,40=2,172=1/1;
 2/12=2,15=1,17=6,18=5,40=1/2;
 3/5=44,7=101,11=2,25=1,30=1,70=2203,72=17,74=-58,89=1,116=2/1,2;
 4/13=-1/1;
 99/5=2/99;
 Leave Link    1 at Tue Aug  4 21:48:46 2020, MaxMem=  6442450944 cpu:               1.3 elap:               0.1
 (Enter /scratch/scicomp/CentOS/7.3.1611/Haswell/software/Gaussian/g16/l101.exe)
 -------------------------------------------------
 endo-2 xp-pcm with Vmol=101.730197792279 cm^3/mol
 -------------------------------------------------
 Symbolic Z-matrix:
 Charge =  0 Multiplicity = 1
 6                    -3.14099  -0.42504   0.22382 
 6                    -0.4063   -0.1269   -0.65908 
 1                    -4.13565  -0.54469   0.63509 
 1                     0.31741  -0.13066  -1.47881 
 6                     1.10894   1.44553   0.60737 
 6                     0.4063    0.1269    0.65908 
 1                     0.57318   2.34463   0.8844 
 1                    -0.31741   0.13066   1.47881 
 6                     1.42998  -0.98206   0.93298 
 1                     1.83176  -0.82932   1.93798 
 1                     0.94414  -1.95883   0.9306 
 6                     2.4096    1.53504   0.14459 
 1                     2.86887   2.51402   0.06052 
 6                     3.14099   0.42504  -0.22382 
 1                     4.13565   0.54469  -0.63509 
 6                     2.58898  -0.95563  -0.06333 
 1                     2.2607   -1.33761  -1.03945 
 1                     3.37789  -1.63847   0.26323 
 6                    -1.10894  -1.44553  -0.60737 
 1                    -0.57318  -2.34463  -0.8844 
 6                    -2.4096   -1.53504  -0.14459 
 1                    -2.86887  -2.51402  -0.06052 
 6                    -1.42998   0.98206  -0.93298 
 1                    -0.94414   1.95883  -0.9306 
 1                    -1.83176   0.82932  -1.93798 
 6                    -2.58898   0.95563   0.06333 
 1                    -3.37789   1.63847  -0.26323 
 1                    -2.2607    1.33761   1.03945 
 
 ITRead=  0  0  0  0  0  0  0  0  0  0  0  0  0  0  0  0  0  0  0  0
 ITRead=  0  0  0  0  0  0  0  0
 MicOpt= -1 -1 -1 -1 -1 -1 -1 -1 -1 -1 -1 -1 -1 -1 -1 -1 -1 -1 -1 -1
 MicOpt= -1 -1 -1 -1 -1 -1 -1 -1
 NAtoms=     28 NQM=       28 NQMF=       0 NMMI=      0 NMMIF=      0
                NMic=       0 NMicF=      0.
                    Isotopes and Nuclear Properties:
 (Nuclear quadrupole moments (NQMom) in fm**2, nuclear magnetic moments (NMagM)
  in nuclear magnetons)

  Atom         1           2           3           4           5           6           7           8           9          10
 IAtWgt=          12          12           1           1          12          12           1           1          12           1
 AtmWgt=  12.0000000  12.0000000   1.0078250   1.0078250  12.0000000  12.0000000   1.0078250   1.0078250  12.0000000   1.0078250
 NucSpn=           0           0           1           1           0           0           1           1           0           1
 AtZEff=  -0.0000000  -0.0000000  -0.0000000  -0.0000000  -0.0000000  -0.0000000  -0.0000000  -0.0000000  -0.0000000  -0.0000000
 NQMom=    0.0000000   0.0000000   0.0000000   0.0000000   0.0000000   0.0000000   0.0000000   0.0000000   0.0000000   0.0000000
 NMagM=    0.0000000   0.0000000   2.7928460   2.7928460   0.0000000   0.0000000   2.7928460   2.7928460   0.0000000   2.7928460
 AtZNuc=   6.0000000   6.0000000   1.0000000   1.0000000   6.0000000   6.0000000   1.0000000   1.0000000   6.0000000   1.0000000

  Atom        11          12          13          14          15          16          17          18          19          20
 IAtWgt=           1          12           1          12           1          12           1           1          12           1
 AtmWgt=   1.0078250  12.0000000   1.0078250  12.0000000   1.0078250  12.0000000   1.0078250   1.0078250  12.0000000   1.0078250
 NucSpn=           1           0           1           0           1           0           1           1           0           1
 AtZEff=  -0.0000000  -0.0000000  -0.0000000  -0.0000000  -0.0000000  -0.0000000  -0.0000000  -0.0000000  -0.0000000  -0.0000000
 NQMom=    0.0000000   0.0000000   0.0000000   0.0000000   0.0000000   0.0000000   0.0000000   0.0000000   0.0000000   0.0000000
 NMagM=    2.7928460   0.0000000   2.7928460   0.0000000   2.7928460   0.0000000   2.7928460   2.7928460   0.0000000   2.7928460
 AtZNuc=   1.0000000   6.0000000   1.0000000   6.0000000   1.0000000   6.0000000   1.0000000   1.0000000   6.0000000   1.0000000

  Atom        21          22          23          24          25          26          27          28
 IAtWgt=          12           1          12           1           1          12           1           1
 AtmWgt=  12.0000000   1.0078250  12.0000000   1.0078250   1.0078250  12.0000000   1.0078250   1.0078250
 NucSpn=           0           1           0           1           1           0           1           1
 AtZEff=  -0.0000000  -0.0000000  -0.0000000  -0.0000000  -0.0000000  -0.0000000  -0.0000000  -0.0000000
 NQMom=    0.0000000   0.0000000   0.0000000   0.0000000   0.0000000   0.0000000   0.0000000   0.0000000
 NMagM=    0.0000000   2.7928460   0.0000000   2.7928460   2.7928460   0.0000000   2.7928460   2.7928460
 AtZNuc=   6.0000000   1.0000000   6.0000000   1.0000000   1.0000000   6.0000000   1.0000000   1.0000000
 Leave Link  101 at Tue Aug  4 21:48:46 2020, MaxMem=  6442450944 cpu:               2.4 elap:               0.1
 (Enter /scratch/scicomp/CentOS/7.3.1611/Haswell/software/Gaussian/g16/l202.exe)
                          Input orientation:                          
 ---------------------------------------------------------------------
 Center     Atomic      Atomic             Coordinates (Angstroms)
 Number     Number       Type             X           Y           Z
 ---------------------------------------------------------------------
      1          6           0       -3.140994   -0.425040    0.223816
      2          6           0       -0.406297   -0.126897   -0.659080
      3          1           0       -4.135653   -0.544691    0.635088
      4          1           0        0.317409   -0.130657   -1.478814
      5          6           0        1.108935    1.445531    0.607368
      6          6           0        0.406297    0.126897    0.659080
      7          1           0        0.573183    2.344629    0.884397
      8          1           0       -0.317409    0.130657    1.478814
      9          6           0        1.429977   -0.982064    0.932984
     10          1           0        1.831758   -0.829324    1.937981
     11          1           0        0.944143   -1.958831    0.930603
     12          6           0        2.409595    1.535044    0.144587
     13          1           0        2.868872    2.514015    0.060519
     14          6           0        3.140994    0.425040   -0.223816
     15          1           0        4.135653    0.544691   -0.635088
     16          6           0        2.588982   -0.955630   -0.063327
     17          1           0        2.260703   -1.337606   -1.039452
     18          1           0        3.377886   -1.638473    0.263228
     19          6           0       -1.108935   -1.445531   -0.607368
     20          1           0       -0.573183   -2.344629   -0.884397
     21          6           0       -2.409595   -1.535044   -0.144587
     22          1           0       -2.868872   -2.514015   -0.060519
     23          6           0       -1.429977    0.982064   -0.932984
     24          1           0       -0.944143    1.958831   -0.930603
     25          1           0       -1.831758    0.829324   -1.937981
     26          6           0       -2.588982    0.955630    0.063327
     27          1           0       -3.377886    1.638473   -0.263228
     28          1           0       -2.260703    1.337606    1.039452
 ---------------------------------------------------------------------
                    Distance matrix (angstroms):
                    1          2          3          4          5
     1  C    0.000000
     2  C    2.889111   0.000000
     3  H    1.082962   3.969574   0.000000
     4  H    3.866027   1.093494   4.946693   0.000000
     5  C    4.659189   2.524351   5.609586   2.731856   0.000000
     6  C    3.616264   1.569161   4.591396   2.155186   1.495048
     7  H    4.680015   3.074109   5.530232   3.431797   1.082660
     8  H    3.139499   2.155186   3.968243   3.036255   2.126680
     9  C    4.659074   2.576408   5.590731   2.789170   2.470286
    10  H    5.275421   3.499574   6.114617   3.802088   2.732759
    11  H    4.420453   2.776106   5.281236   3.088739   3.423641
    12  C    5.887040   3.367072   6.885213   3.128455   1.383436
    13  H    6.692025   4.268369   7.664802   3.984194   2.130277
    14  C    6.355028   3.616264   7.391054   3.139499   2.421060
    15  H    7.391054   4.591396   8.438875   3.968243   3.393557
    16  C    5.761649   3.164398   6.773284   2.800755   2.899301
    17  H    5.622006   2.953538   6.659292   2.329411   3.432847
    18  H    6.630970   4.177985   7.601836   3.830762   3.844171
    19  C    2.421060   1.495048   3.393557   2.126680   3.840934
    20  H    3.392140   2.235387   4.270808   2.459300   4.406835
    21  C    1.379411   2.502156   2.137281   3.344999   4.672185
    22  H    2.125727   3.481506   2.442712   4.224256   5.652170
    23  C    2.499141   1.533864   3.480016   2.142297   3.005588
    24  H    3.441174   2.171005   4.347959   2.501601   2.616097
    25  H    2.821506   2.140534   3.717060   2.398190   3.937790
    26  C    1.495568   2.541230   2.229364   3.464870   3.769691
    27  H    2.133405   3.479019   2.479393   4.273485   4.574574
    28  H    2.132392   2.910086   2.687376   3.891545   3.398942
                    6          7          8          9         10
     6  C    0.000000
     7  H    2.235387   0.000000
     8  H    1.093494   2.459300   0.000000
     9  C    1.533864   3.435599   2.142297   0.000000
    10  H    2.140534   3.573238   2.398190   1.093058   0.000000
    11  H    2.171005   4.319666   2.501601   1.090924   1.754553
    12  C    2.502156   2.138961   3.344999   2.813726   3.023308
    13  H    3.481506   2.444924   4.224256   3.879972   3.972201
    14  C    2.889111   3.392140   3.866027   2.499141   2.821506
    15  H    3.969574   4.270808   4.946693   3.480016   3.717060
    16  C    2.541230   3.981625   3.464870   1.528603   2.143496
    17  H    2.910086   4.484169   3.891545   2.169567   3.050812
    18  H    3.479019   4.910938   4.273485   2.161896   2.418684
    19  C    2.524351   4.406835   2.731856   3.005588   3.937790
    20  H    3.074109   5.141199   3.431797   3.028549   4.005709
    21  C    3.367072   5.000763   3.128455   4.026072   4.777469
    22  H    4.268369   6.028850   3.984194   4.670549   5.378486
    23  C    2.576408   3.028549   2.789170   3.939413   4.707705
    24  H    2.776106   2.396945   3.088739   4.214056   4.869108
    25  H    3.499574   4.005709   3.802088   4.707705   5.585297
    26  C    3.164398   3.550037   2.800755   4.545656   5.122824
    27  H    4.177985   4.174523   3.830762   5.604791   6.170554
    28  H    2.953538   3.011486   2.329411   4.360427   4.717115
                   11         12         13         14         15
    11  H    0.000000
    12  C    3.869436   0.000000
    13  H    4.946512   1.084614   0.000000
    14  C    3.441174   1.379411   2.125727   0.000000
    15  H    4.347959   2.137281   2.442712   1.082962   0.000000
    16  C    2.167903   2.505766   3.483118   1.495568   2.229364
    17  H    2.449565   3.110665   4.051517   2.132392   2.687376
    18  H    2.543840   3.320071   4.188477   2.133405   2.479393
    19  C    2.616097   4.672185   5.652170   4.659189   5.609586
    20  H    2.396945   5.000763   6.028850   4.680015   5.530232
    21  C    3.547279   5.721333   6.655761   5.887040   6.885213
    22  H    3.978647   6.655761   7.630036   6.692025   7.664802
    23  C    4.214056   4.026072   4.670549   4.659074   5.590731
    24  H    4.730517   3.547279   3.978647   4.420453   5.281236
    25  H    4.869108   4.777469   5.378486   5.275421   6.114617
    26  C    4.661461   5.032703   5.675979   5.761649   6.773284
    27  H    5.748544   5.802753   6.316120   6.630970   7.601836
    28  H    4.598846   4.759354   5.353017   5.622006   6.659292
                   16         17         18         19         20
    16  C    0.000000
    17  H    1.098405   0.000000
    18  H    1.093290   1.742296   0.000000
    19  C    3.769691   3.398942   4.574574   0.000000
    20  H    3.550037   3.011486   4.174523   1.082660   0.000000
    21  C    5.032703   4.759354   5.802753   1.383436   2.138961
    22  H    5.675979   5.353017   6.316120   2.130277   2.444924
    23  C    4.545656   4.360427   5.604791   2.470286   3.435599
    24  H    4.661461   4.598846   5.748544   3.423641   4.319666
    25  H    5.122824   4.717115   6.170554   2.732759   3.573238
    26  C    5.520894   5.476723   6.509443   2.899301   3.981625
    27  H    6.509443   6.422870   7.527017   3.844171   4.910938
    28  H    5.476723   5.649930   6.422870   3.432847   4.484169
                   21         22         23         24         25
    21  C    0.000000
    22  H    1.084614   0.000000
    23  C    2.813726   3.879972   0.000000
    24  H    3.869436   4.946512   1.090924   0.000000
    25  H    3.023308   3.972201   1.093058   1.754553   0.000000
    26  C    2.505766   3.483118   1.528603   2.167903   2.143496
    27  H    3.320071   4.188477   2.161896   2.543840   2.418684
    28  H    3.110665   4.051517   2.169567   2.449565   3.050812
                   26         27         28
    26  C    0.000000
    27  H    1.093290   0.000000
    28  H    1.098405   1.742296   0.000000
 Symmetry turned off by external request.
 Stoichiometry    C12H16
 Framework group  CI[X(C12H16)]
 Deg. of freedom    39
 Full point group                 CI      NOp   2
 Rotational constants (GHZ):           2.0335666           0.6463832           0.5521611
 Leave Link  202 at Tue Aug  4 21:48:46 2020, MaxMem=  6442450944 cpu:               0.3 elap:               0.0
 (Enter /scratch/scicomp/CentOS/7.3.1611/Haswell/software/Gaussian/g16/l301.exe)
 Standard basis: def2TZVP (5D, 7F)
 Ernie: Thresh=  0.10000D-02 Tol=  0.10000D-05 Strict=F.
   468 basis functions,   740 primitive gaussians,   528 cartesian basis functions
    44 alpha electrons       44 beta electrons
       nuclear repulsion energy       697.2046426072 Hartrees.
 IExCor= 4639 DFT=T Ex+Corr=wB97XD ExCW=0 ScaHFX=  1.000000
 ScaDFX=  1.000000  1.000000  1.000000  1.000000 ScalE2=  1.000000  1.000000
 IRadAn=      5 IRanWt=     -1 IRanGd=            0 ICorTp=0 IEmpDi=121
 HFx  wShort=  0.000000 wLong=  0.200000 cFull=  0.222036 cShort=  0.000000 cLong=  0.777964
 DFx  wShort=  0.000000 wLong=  0.200000 cFull=  0.000000 cShort=  0.000000 cLong=  1.000000
 NAtoms=   28 NActive=   28 NUniq=   28 SFac= 1.00D+00 NAtFMM=   60 NAOKFM=F Big=F
 Integral buffers will be    131072 words long.
 Raffenetti 2 integral format.
 Two-electron integral symmetry is turned off.
 R6Disp:  Grimme-D2 Dispersion energy=       -0.0228434541 Hartrees.
 Nuclear repulsion after empirical dispersion term =      697.1817991531 Hartrees.
 Using the following non-standard input for PCM:
 norep  pcmdoc geomview  nodis cav g03defaults noaddsph  tsare=0.075
 Warning! Using old PCM defaults because the g03defaults keyword was found.
 These settings can be overridden by following keywords.
 nsfe=28
 Vmol=101.730197792279 Rsolv=2.815
 --- end of non-standard input.
 Reading user-defined spheres from input:
 ISph  on   Nord    Re0     Alpha      Xe            Ye            Ze
 --- end of user-defined spheres data.
 ------------------------------------------------------------------------------
 Polarizable Continuum Model (PCM)
 =================================
 Model                : PCM.
 Atomic radii         : UA0 (Simple United Atom Topological Model).
 Polarization charges : Total charges.
 Charge compensation  : None.
 Solution method      : On-the-fly selection.
 Cavity type          : VdW (van der Waals Surface) (Alpha=1.000).
 Cavity algorithm     : GePol (No added spheres)
                        User-defined sphere list used, NSphG=   28.
                        Tesserae with average area of 0.075 Ang**2.
                        Smoothing algorithm: None.
                        Polarization charges: point-like.
                        Self-potential: constant (ISelfS= 1).
                        Self-field    : global E.n sum rule (ISelfD= 3).
 Solvent              : CycloHexane, Eps=   2.016500 Eps(inf)=   2.035188
 ------------------------------------------------------------------------------
 GePol: Number of generator spheres                  =      28
 GePol: Total number of spheres                      =      28
 GePol: Number of exposed spheres                    =      28 (100.00%)
 GePol: Number of tesserae                           =    3817
 GePol: Average area of tesserae                     =       0.06 Ang**2
 GePol: Minimum area of tessera                      =   0.10D-02 Ang**2
 GePol: Maximum area of tessera                      =    0.12395 Ang**2
 GePol: Number of small tesserae                     =       0
 GePol: Fraction of small tesserae (<1% of avg)      =       0.00%
 GePol: Total count of vertices                      =   12642
 GePol: Maximum number of vertices in a tessera      =       6
 GePol: Cavity surface area                          =    230.199 Ang**2
 GePol: Cavity volume                                =    234.368 Ang**3
 PCM non-electrostatic energy =         0.0424453799 Hartrees.
 Nuclear repulsion after PCM non-electrostatic terms =      697.2242445330 Hartrees.
 Leave Link  301 at Tue Aug  4 21:48:46 2020, MaxMem=  6442450944 cpu:               3.1 elap:               0.2
 (Enter /scratch/scicomp/CentOS/7.3.1611/Haswell/software/Gaussian/g16/l302.exe)
 NPDir=0 NMtPBC=     1 NCelOv=     1 NCel=       1 NClECP=     1 NCelD=      1
         NCelK=      1 NCelE2=     1 NClLst=     1 CellRange=     0.0.
 One-electron integrals computed using PRISM.
   1 Symmetry operations used in ECPInt.
 ECPInt:  NShTT=   19306 NPrTT=   56928 LenC2=   18534 LenP2D=   42334.
 LDataN:  DoStor=T MaxTD1= 6 Len=  172
 NBasis=   468 RedAO= T EigKep=  3.20D-05  NBF=   468
 NBsUse=   468 1.00D-06 EigRej= -1.00D+00 NBFU=   468
 Precomputing XC quadrature grid using
 IXCGrd= 4 IRadAn=           5 IRanWt=          -1 IRanGd=           0 AccXCQ= 0.00D+00.
 Generated NRdTot=       0 NPtTot=           0 NUsed=           0 NTot=          32
 NSgBfM=   526   526   526   526   526 MxSgAt=    28 MxSgA2=    28.
 Leave Link  302 at Tue Aug  4 21:48:47 2020, MaxMem=  6442450944 cpu:              12.0 elap:               0.5
 (Enter /scratch/scicomp/CentOS/7.3.1611/Haswell/software/Gaussian/g16/l401.exe)
 ExpMin= 9.52D-02 ExpMax= 1.36D+04 ExpMxC= 4.63D+02 IAcc=3 IRadAn=         5 AccDes= 0.00D+00
 Harris functional with IExCor= 4639 and IRadAn=       5 diagonalized for initial guess.
 HarFok:  IExCor= 4639 AccDes= 0.00D+00 IRadAn=         5 IDoV= 1 UseB2=F ITyADJ=14
 ICtDFT=  3500011 ScaDFX=  1.000000  1.000000  1.000000  1.000000
 FoFCou: FMM=F IPFlag=           0 FMFlag=      100000 FMFlg1=           0
         NFxFlg=           0 DoJE=T BraDBF=F KetDBF=T FulRan=T
         wScrn=  0.000000 ICntrl=       500 IOpCl=  0 I1Cent=   200000004 NGrid=           0
         NMat0=    1 NMatS0=      1 NMatT0=    0 NMatD0=    1 NMtDS0=    0 NMtDT0=    0
 Symmetry not used in FoFCou.
 Harris En= -444.533915031297    
 JPrj=0 DoOrth=F DoCkMO=T.
 Mixing orbitals, IMix= 1 IMixAn=  0 NRI=1 NE=   44 Coef=  7.07106781D-01  7.07106781D-01
 Mixing orbitals, IMix= 1 IMixAn=  0 NRI=1 NE=   44 Coef= -7.07106781D-01  7.07106781D-01
 Initial guess <Sx>= 0.0000 <Sy>= 0.0000 <Sz>= 0.0000 <S**2>= 1.0000 S= 0.6180
 Leave Link  401 at Tue Aug  4 21:48:49 2020, MaxMem=  6442450944 cpu:              47.8 elap:               2.1
 (Enter /scratch/scicomp/CentOS/7.3.1611/Haswell/software/Gaussian/g16/l9999.exe)

 This type of calculation cannot be archived.


 TO ERR IS HUMAN - AND TO BLAME IT ON A COMPUTER IS EVEN MORE SO.
 Job cpu time:       0 days  0 hours  1 minutes  8.0 seconds.
 Elapsed time:       0 days  0 hours  0 minutes  3.1 seconds.
 File lengths (MBytes):  RWF=    276 Int=      0 D2E=      0 Chk=      1 Scr=      1
 Normal termination of Gaussian 16 at Tue Aug  4 21:48:49 2020.
 Initial command:
 /scratch/scicomp/CentOS/7.3.1611/Haswell/software/Gaussian/g16/l1.exe "/scratch/bochen/cyclohexadiene-dimerization/wb97xd-def2tzvp/xp-pcm/meso/Gau-105811.inp" -scrdir="/scratch/bochen/cyclohexadiene-dimerization/wb97xd-def2tzvp/xp-pcm/meso/"
 Entering Link 1 = /scratch/scicomp/CentOS/7.3.1611/Haswell/software/Gaussian/g16/l1.exe PID=    106136.
  
 Copyright (c) 1988-2017, Gaussian, Inc.  All Rights Reserved.
  
 This is part of the Gaussian(R) 16 program.  It is based on
 the Gaussian(R) 09 system (copyright 2009, Gaussian, Inc.),
 the Gaussian(R) 03 system (copyright 2003, Gaussian, Inc.),
 the Gaussian(R) 98 system (copyright 1998, Gaussian, Inc.),
 the Gaussian(R) 94 system (copyright 1995, Gaussian, Inc.),
 the Gaussian 92(TM) system (copyright 1992, Gaussian, Inc.),
 the Gaussian 90(TM) system (copyright 1990, Gaussian, Inc.),
 the Gaussian 88(TM) system (copyright 1988, Gaussian, Inc.),
 the Gaussian 86(TM) system (copyright 1986, Carnegie Mellon
 University), and the Gaussian 82(TM) system (copyright 1983,
 Carnegie Mellon University). Gaussian is a federally registered
 trademark of Gaussian, Inc.
  
 This software contains proprietary and confidential information,
 including trade secrets, belonging to Gaussian, Inc.
  
 This software is provided under written license and may be
 used, copied, transmitted, or stored only in accord with that
 written license.
  
 The following legend is applicable only to US Government
 contracts under FAR:
  
                    RESTRICTED RIGHTS LEGEND
  
 Use, reproduction and disclosure by the US Government is
 subject to restrictions as set forth in subparagraphs (a)
 and (c) of the Commercial Computer Software - Restricted
 Rights clause in FAR 52.227-19.
  
 Gaussian, Inc.
 340 Quinnipiac St., Bldg. 40, Wallingford CT 06492
  
  
 ---------------------------------------------------------------
 Warning -- This program may not be used in any manner that
 competes with the business of Gaussian, Inc. or will provide
 assistance to any competitor of Gaussian, Inc.  The licensee
 of this program is prohibited from giving any competitor of
 Gaussian, Inc. access to this program.  By using this program,
 the user acknowledges that Gaussian, Inc. is engaged in the
 business of creating and licensing software in the field of
 computational chemistry and represents and warrants to the
 licensee that it is not a competitor of Gaussian, Inc. and that
 it will not use this program in any manner prohibited above.
 ---------------------------------------------------------------
  

 Cite this work as:
 Gaussian 16, Revision B.01,
 M. J. Frisch, G. W. Trucks, H. B. Schlegel, G. E. Scuseria, 
 M. A. Robb, J. R. Cheeseman, G. Scalmani, V. Barone, 
 G. A. Petersson, H. Nakatsuji, X. Li, M. Caricato, A. V. Marenich, 
 J. Bloino, B. G. Janesko, R. Gomperts, B. Mennucci, H. P. Hratchian, 
 J. V. Ortiz, A. F. Izmaylov, J. L. Sonnenberg, D. Williams-Young, 
 F. Ding, F. Lipparini, F. Egidi, J. Goings, B. Peng, A. Petrone, 
 T. Henderson, D. Ranasinghe, V. G. Zakrzewski, J. Gao, N. Rega, 
 G. Zheng, W. Liang, M. Hada, M. Ehara, K. Toyota, R. Fukuda, 
 J. Hasegawa, M. Ishida, T. Nakajima, Y. Honda, O. Kitao, H. Nakai, 
 T. Vreven, K. Throssell, J. A. Montgomery, Jr., J. E. Peralta, 
 F. Ogliaro, M. J. Bearpark, J. J. Heyd, E. N. Brothers, K. N. Kudin, 
 V. N. Staroverov, T. A. Keith, R. Kobayashi, J. Normand, 
 K. Raghavachari, A. P. Rendell, J. C. Burant, S. S. Iyengar, 
 J. Tomasi, M. Cossi, J. M. Millam, M. Klene, C. Adamo, R. Cammi, 
 J. W. Ochterski, R. L. Martin, K. Morokuma, O. Farkas, 
 J. B. Foresman, and D. J. Fox, Gaussian, Inc., Wallingford CT, 2016.
 
 ******************************************
 Gaussian 16:  ES64L-G16RevB.01 20-Dec-2017
                 4-Aug-2020 
 ******************************************
 %chk=scr.chk
 %nproc=24
 Will use up to   24 processors via shared memory.
 %mem=48GB
 ----------------------------------------------------------------------
 #p uwb97xd guess=mix def2tzvp # scrf=(iefpcm,solvent=Cyclohexane,read)
  nosym guess=only pop=none
 ----------------------------------------------------------------------
 1/38=1,40=2,172=1/1;
 2/12=2,15=1,17=6,18=5,40=1/2;
 3/5=44,7=101,11=2,25=1,30=1,70=2203,72=17,74=-58,89=1,116=2/1,2;
 4/13=-1/1;
 99/5=2/99;
 Leave Link    1 at Tue Aug  4 21:48:49 2020, MaxMem=  6442450944 cpu:               1.4 elap:               0.1
 (Enter /scratch/scicomp/CentOS/7.3.1611/Haswell/software/Gaussian/g16/l101.exe)
 -------------------------------------------------
 endo-2 xp-pcm with Vmol=95.7726100512575 cm^3/mol
 -------------------------------------------------
 Symbolic Z-matrix:
 Charge =  0 Multiplicity = 1
 6                    -3.14099  -0.42504   0.22382 
 6                    -0.4063   -0.1269   -0.65908 
 1                    -4.13565  -0.54469   0.63509 
 1                     0.31741  -0.13066  -1.47881 
 6                     1.10894   1.44553   0.60737 
 6                     0.4063    0.1269    0.65908 
 1                     0.57318   2.34463   0.8844 
 1                    -0.31741   0.13066   1.47881 
 6                     1.42998  -0.98206   0.93298 
 1                     1.83176  -0.82932   1.93798 
 1                     0.94414  -1.95883   0.9306 
 6                     2.4096    1.53504   0.14459 
 1                     2.86887   2.51402   0.06052 
 6                     3.14099   0.42504  -0.22382 
 1                     4.13565   0.54469  -0.63509 
 6                     2.58898  -0.95563  -0.06333 
 1                     2.2607   -1.33761  -1.03945 
 1                     3.37789  -1.63847   0.26323 
 6                    -1.10894  -1.44553  -0.60737 
 1                    -0.57318  -2.34463  -0.8844 
 6                    -2.4096   -1.53504  -0.14459 
 1                    -2.86887  -2.51402  -0.06052 
 6                    -1.42998   0.98206  -0.93298 
 1                    -0.94414   1.95883  -0.9306 
 1                    -1.83176   0.82932  -1.93798 
 6                    -2.58898   0.95563   0.06333 
 1                    -3.37789   1.63847  -0.26323 
 1                    -2.2607    1.33761   1.03945 
 
 ITRead=  0  0  0  0  0  0  0  0  0  0  0  0  0  0  0  0  0  0  0  0
 ITRead=  0  0  0  0  0  0  0  0
 MicOpt= -1 -1 -1 -1 -1 -1 -1 -1 -1 -1 -1 -1 -1 -1 -1 -1 -1 -1 -1 -1
 MicOpt= -1 -1 -1 -1 -1 -1 -1 -1
 NAtoms=     28 NQM=       28 NQMF=       0 NMMI=      0 NMMIF=      0
                NMic=       0 NMicF=      0.
                    Isotopes and Nuclear Properties:
 (Nuclear quadrupole moments (NQMom) in fm**2, nuclear magnetic moments (NMagM)
  in nuclear magnetons)

  Atom         1           2           3           4           5           6           7           8           9          10
 IAtWgt=          12          12           1           1          12          12           1           1          12           1
 AtmWgt=  12.0000000  12.0000000   1.0078250   1.0078250  12.0000000  12.0000000   1.0078250   1.0078250  12.0000000   1.0078250
 NucSpn=           0           0           1           1           0           0           1           1           0           1
 AtZEff=  -0.0000000  -0.0000000  -0.0000000  -0.0000000  -0.0000000  -0.0000000  -0.0000000  -0.0000000  -0.0000000  -0.0000000
 NQMom=    0.0000000   0.0000000   0.0000000   0.0000000   0.0000000   0.0000000   0.0000000   0.0000000   0.0000000   0.0000000
 NMagM=    0.0000000   0.0000000   2.7928460   2.7928460   0.0000000   0.0000000   2.7928460   2.7928460   0.0000000   2.7928460
 AtZNuc=   6.0000000   6.0000000   1.0000000   1.0000000   6.0000000   6.0000000   1.0000000   1.0000000   6.0000000   1.0000000

  Atom        11          12          13          14          15          16          17          18          19          20
 IAtWgt=           1          12           1          12           1          12           1           1          12           1
 AtmWgt=   1.0078250  12.0000000   1.0078250  12.0000000   1.0078250  12.0000000   1.0078250   1.0078250  12.0000000   1.0078250
 NucSpn=           1           0           1           0           1           0           1           1           0           1
 AtZEff=  -0.0000000  -0.0000000  -0.0000000  -0.0000000  -0.0000000  -0.0000000  -0.0000000  -0.0000000  -0.0000000  -0.0000000
 NQMom=    0.0000000   0.0000000   0.0000000   0.0000000   0.0000000   0.0000000   0.0000000   0.0000000   0.0000000   0.0000000
 NMagM=    2.7928460   0.0000000   2.7928460   0.0000000   2.7928460   0.0000000   2.7928460   2.7928460   0.0000000   2.7928460
 AtZNuc=   1.0000000   6.0000000   1.0000000   6.0000000   1.0000000   6.0000000   1.0000000   1.0000000   6.0000000   1.0000000

  Atom        21          22          23          24          25          26          27          28
 IAtWgt=          12           1          12           1           1          12           1           1
 AtmWgt=  12.0000000   1.0078250  12.0000000   1.0078250   1.0078250  12.0000000   1.0078250   1.0078250
 NucSpn=           0           1           0           1           1           0           1           1
 AtZEff=  -0.0000000  -0.0000000  -0.0000000  -0.0000000  -0.0000000  -0.0000000  -0.0000000  -0.0000000
 NQMom=    0.0000000   0.0000000   0.0000000   0.0000000   0.0000000   0.0000000   0.0000000   0.0000000
 NMagM=    0.0000000   2.7928460   0.0000000   2.7928460   2.7928460   0.0000000   2.7928460   2.7928460
 AtZNuc=   6.0000000   1.0000000   6.0000000   1.0000000   1.0000000   6.0000000   1.0000000   1.0000000
 Leave Link  101 at Tue Aug  4 21:48:49 2020, MaxMem=  6442450944 cpu:               2.4 elap:               0.1
 (Enter /scratch/scicomp/CentOS/7.3.1611/Haswell/software/Gaussian/g16/l202.exe)
                          Input orientation:                          
 ---------------------------------------------------------------------
 Center     Atomic      Atomic             Coordinates (Angstroms)
 Number     Number       Type             X           Y           Z
 ---------------------------------------------------------------------
      1          6           0       -3.140994   -0.425040    0.223816
      2          6           0       -0.406297   -0.126897   -0.659080
      3          1           0       -4.135653   -0.544691    0.635088
      4          1           0        0.317409   -0.130657   -1.478814
      5          6           0        1.108935    1.445531    0.607368
      6          6           0        0.406297    0.126897    0.659080
      7          1           0        0.573183    2.344629    0.884397
      8          1           0       -0.317409    0.130657    1.478814
      9          6           0        1.429977   -0.982064    0.932984
     10          1           0        1.831758   -0.829324    1.937981
     11          1           0        0.944143   -1.958831    0.930603
     12          6           0        2.409595    1.535044    0.144587
     13          1           0        2.868872    2.514015    0.060519
     14          6           0        3.140994    0.425040   -0.223816
     15          1           0        4.135653    0.544691   -0.635088
     16          6           0        2.588982   -0.955630   -0.063327
     17          1           0        2.260703   -1.337606   -1.039452
     18          1           0        3.377886   -1.638473    0.263228
     19          6           0       -1.108935   -1.445531   -0.607368
     20          1           0       -0.573183   -2.344629   -0.884397
     21          6           0       -2.409595   -1.535044   -0.144587
     22          1           0       -2.868872   -2.514015   -0.060519
     23          6           0       -1.429977    0.982064   -0.932984
     24          1           0       -0.944143    1.958831   -0.930603
     25          1           0       -1.831758    0.829324   -1.937981
     26          6           0       -2.588982    0.955630    0.063327
     27          1           0       -3.377886    1.638473   -0.263228
     28          1           0       -2.260703    1.337606    1.039452
 ---------------------------------------------------------------------
                    Distance matrix (angstroms):
                    1          2          3          4          5
     1  C    0.000000
     2  C    2.889111   0.000000
     3  H    1.082962   3.969574   0.000000
     4  H    3.866027   1.093494   4.946693   0.000000
     5  C    4.659189   2.524351   5.609586   2.731856   0.000000
     6  C    3.616264   1.569161   4.591396   2.155186   1.495048
     7  H    4.680015   3.074109   5.530232   3.431797   1.082660
     8  H    3.139499   2.155186   3.968243   3.036255   2.126680
     9  C    4.659074   2.576408   5.590731   2.789170   2.470286
    10  H    5.275421   3.499574   6.114617   3.802088   2.732759
    11  H    4.420453   2.776106   5.281236   3.088739   3.423641
    12  C    5.887040   3.367072   6.885213   3.128455   1.383436
    13  H    6.692025   4.268369   7.664802   3.984194   2.130277
    14  C    6.355028   3.616264   7.391054   3.139499   2.421060
    15  H    7.391054   4.591396   8.438875   3.968243   3.393557
    16  C    5.761649   3.164398   6.773284   2.800755   2.899301
    17  H    5.622006   2.953538   6.659292   2.329411   3.432847
    18  H    6.630970   4.177985   7.601836   3.830762   3.844171
    19  C    2.421060   1.495048   3.393557   2.126680   3.840934
    20  H    3.392140   2.235387   4.270808   2.459300   4.406835
    21  C    1.379411   2.502156   2.137281   3.344999   4.672185
    22  H    2.125727   3.481506   2.442712   4.224256   5.652170
    23  C    2.499141   1.533864   3.480016   2.142297   3.005588
    24  H    3.441174   2.171005   4.347959   2.501601   2.616097
    25  H    2.821506   2.140534   3.717060   2.398190   3.937790
    26  C    1.495568   2.541230   2.229364   3.464870   3.769691
    27  H    2.133405   3.479019   2.479393   4.273485   4.574574
    28  H    2.132392   2.910086   2.687376   3.891545   3.398942
                    6          7          8          9         10
     6  C    0.000000
     7  H    2.235387   0.000000
     8  H    1.093494   2.459300   0.000000
     9  C    1.533864   3.435599   2.142297   0.000000
    10  H    2.140534   3.573238   2.398190   1.093058   0.000000
    11  H    2.171005   4.319666   2.501601   1.090924   1.754553
    12  C    2.502156   2.138961   3.344999   2.813726   3.023308
    13  H    3.481506   2.444924   4.224256   3.879972   3.972201
    14  C    2.889111   3.392140   3.866027   2.499141   2.821506
    15  H    3.969574   4.270808   4.946693   3.480016   3.717060
    16  C    2.541230   3.981625   3.464870   1.528603   2.143496
    17  H    2.910086   4.484169   3.891545   2.169567   3.050812
    18  H    3.479019   4.910938   4.273485   2.161896   2.418684
    19  C    2.524351   4.406835   2.731856   3.005588   3.937790
    20  H    3.074109   5.141199   3.431797   3.028549   4.005709
    21  C    3.367072   5.000763   3.128455   4.026072   4.777469
    22  H    4.268369   6.028850   3.984194   4.670549   5.378486
    23  C    2.576408   3.028549   2.789170   3.939413   4.707705
    24  H    2.776106   2.396945   3.088739   4.214056   4.869108
    25  H    3.499574   4.005709   3.802088   4.707705   5.585297
    26  C    3.164398   3.550037   2.800755   4.545656   5.122824
    27  H    4.177985   4.174523   3.830762   5.604791   6.170554
    28  H    2.953538   3.011486   2.329411   4.360427   4.717115
                   11         12         13         14         15
    11  H    0.000000
    12  C    3.869436   0.000000
    13  H    4.946512   1.084614   0.000000
    14  C    3.441174   1.379411   2.125727   0.000000
    15  H    4.347959   2.137281   2.442712   1.082962   0.000000
    16  C    2.167903   2.505766   3.483118   1.495568   2.229364
    17  H    2.449565   3.110665   4.051517   2.132392   2.687376
    18  H    2.543840   3.320071   4.188477   2.133405   2.479393
    19  C    2.616097   4.672185   5.652170   4.659189   5.609586
    20  H    2.396945   5.000763   6.028850   4.680015   5.530232
    21  C    3.547279   5.721333   6.655761   5.887040   6.885213
    22  H    3.978647   6.655761   7.630036   6.692025   7.664802
    23  C    4.214056   4.026072   4.670549   4.659074   5.590731
    24  H    4.730517   3.547279   3.978647   4.420453   5.281236
    25  H    4.869108   4.777469   5.378486   5.275421   6.114617
    26  C    4.661461   5.032703   5.675979   5.761649   6.773284
    27  H    5.748544   5.802753   6.316120   6.630970   7.601836
    28  H    4.598846   4.759354   5.353017   5.622006   6.659292
                   16         17         18         19         20
    16  C    0.000000
    17  H    1.098405   0.000000
    18  H    1.093290   1.742296   0.000000
    19  C    3.769691   3.398942   4.574574   0.000000
    20  H    3.550037   3.011486   4.174523   1.082660   0.000000
    21  C    5.032703   4.759354   5.802753   1.383436   2.138961
    22  H    5.675979   5.353017   6.316120   2.130277   2.444924
    23  C    4.545656   4.360427   5.604791   2.470286   3.435599
    24  H    4.661461   4.598846   5.748544   3.423641   4.319666
    25  H    5.122824   4.717115   6.170554   2.732759   3.573238
    26  C    5.520894   5.476723   6.509443   2.899301   3.981625
    27  H    6.509443   6.422870   7.527017   3.844171   4.910938
    28  H    5.476723   5.649930   6.422870   3.432847   4.484169
                   21         22         23         24         25
    21  C    0.000000
    22  H    1.084614   0.000000
    23  C    2.813726   3.879972   0.000000
    24  H    3.869436   4.946512   1.090924   0.000000
    25  H    3.023308   3.972201   1.093058   1.754553   0.000000
    26  C    2.505766   3.483118   1.528603   2.167903   2.143496
    27  H    3.320071   4.188477   2.161896   2.543840   2.418684
    28  H    3.110665   4.051517   2.169567   2.449565   3.050812
                   26         27         28
    26  C    0.000000
    27  H    1.093290   0.000000
    28  H    1.098405   1.742296   0.000000
 Symmetry turned off by external request.
 Stoichiometry    C12H16
 Framework group  CI[X(C12H16)]
 Deg. of freedom    39
 Full point group                 CI      NOp   2
 Rotational constants (GHZ):           2.0335666           0.6463832           0.5521611
 Leave Link  202 at Tue Aug  4 21:48:49 2020, MaxMem=  6442450944 cpu:               0.3 elap:               0.0
 (Enter /scratch/scicomp/CentOS/7.3.1611/Haswell/software/Gaussian/g16/l301.exe)
 Standard basis: def2TZVP (5D, 7F)
 Ernie: Thresh=  0.10000D-02 Tol=  0.10000D-05 Strict=F.
   468 basis functions,   740 primitive gaussians,   528 cartesian basis functions
    44 alpha electrons       44 beta electrons
       nuclear repulsion energy       697.2046426072 Hartrees.
 IExCor= 4639 DFT=T Ex+Corr=wB97XD ExCW=0 ScaHFX=  1.000000
 ScaDFX=  1.000000  1.000000  1.000000  1.000000 ScalE2=  1.000000  1.000000
 IRadAn=      5 IRanWt=     -1 IRanGd=            0 ICorTp=0 IEmpDi=121
 HFx  wShort=  0.000000 wLong=  0.200000 cFull=  0.222036 cShort=  0.000000 cLong=  0.777964
 DFx  wShort=  0.000000 wLong=  0.200000 cFull=  0.000000 cShort=  0.000000 cLong=  1.000000
 NAtoms=   28 NActive=   28 NUniq=   28 SFac= 1.00D+00 NAtFMM=   60 NAOKFM=F Big=F
 Integral buffers will be    131072 words long.
 Raffenetti 2 integral format.
 Two-electron integral symmetry is turned off.
 R6Disp:  Grimme-D2 Dispersion energy=       -0.0228434541 Hartrees.
 Nuclear repulsion after empirical dispersion term =      697.1817991531 Hartrees.
 Using the following non-standard input for PCM:
 norep  pcmdoc geomview  nodis cav g03defaults noaddsph  tsare=0.075
 Warning! Using old PCM defaults because the g03defaults keyword was found.
 These settings can be overridden by following keywords.
 nsfe=28
 Vmol=95.7726100512575 Rsolv=2.815
 --- end of non-standard input.
 Reading user-defined spheres from input:
 ISph  on   Nord    Re0     Alpha      Xe            Ye            Ze
 --- end of user-defined spheres data.
 ------------------------------------------------------------------------------
 Polarizable Continuum Model (PCM)
 =================================
 Model                : PCM.
 Atomic radii         : UA0 (Simple United Atom Topological Model).
 Polarization charges : Total charges.
 Charge compensation  : None.
 Solution method      : On-the-fly selection.
 Cavity type          : VdW (van der Waals Surface) (Alpha=1.000).
 Cavity algorithm     : GePol (No added spheres)
                        User-defined sphere list used, NSphG=   28.
                        Tesserae with average area of 0.075 Ang**2.
                        Smoothing algorithm: None.
                        Polarization charges: point-like.
                        Self-potential: constant (ISelfS= 1).
                        Self-field    : global E.n sum rule (ISelfD= 3).
 Solvent              : CycloHexane, Eps=   2.016500 Eps(inf)=   2.035188
 ------------------------------------------------------------------------------
 GePol: Number of generator spheres                  =      28
 GePol: Total number of spheres                      =      28
 GePol: Number of exposed spheres                    =      28 (100.00%)
 GePol: Number of tesserae                           =    3817
 GePol: Average area of tesserae                     =       0.06 Ang**2
 GePol: Minimum area of tessera                      =   0.10D-02 Ang**2
 GePol: Maximum area of tessera                      =    0.12395 Ang**2
 GePol: Number of small tesserae                     =       0
 GePol: Fraction of small tesserae (<1% of avg)      =       0.00%
 GePol: Total count of vertices                      =   12642
 GePol: Maximum number of vertices in a tessera      =       6
 GePol: Cavity surface area                          =    230.199 Ang**2
 GePol: Cavity volume                                =    234.368 Ang**3
 PCM non-electrostatic energy =         0.0511861445 Hartrees.
 Nuclear repulsion after PCM non-electrostatic terms =      697.2329852976 Hartrees.
 Leave Link  301 at Tue Aug  4 21:48:50 2020, MaxMem=  6442450944 cpu:               3.1 elap:               0.2
 (Enter /scratch/scicomp/CentOS/7.3.1611/Haswell/software/Gaussian/g16/l302.exe)
 NPDir=0 NMtPBC=     1 NCelOv=     1 NCel=       1 NClECP=     1 NCelD=      1
         NCelK=      1 NCelE2=     1 NClLst=     1 CellRange=     0.0.
 One-electron integrals computed using PRISM.
   1 Symmetry operations used in ECPInt.
 ECPInt:  NShTT=   19306 NPrTT=   56928 LenC2=   18534 LenP2D=   42334.
 LDataN:  DoStor=T MaxTD1= 6 Len=  172
 NBasis=   468 RedAO= T EigKep=  3.20D-05  NBF=   468
 NBsUse=   468 1.00D-06 EigRej= -1.00D+00 NBFU=   468
 Precomputing XC quadrature grid using
 IXCGrd= 4 IRadAn=           5 IRanWt=          -1 IRanGd=           0 AccXCQ= 0.00D+00.
 Generated NRdTot=       0 NPtTot=           0 NUsed=           0 NTot=          32
 NSgBfM=   526   526   526   526   526 MxSgAt=    28 MxSgA2=    28.
 Leave Link  302 at Tue Aug  4 21:48:50 2020, MaxMem=  6442450944 cpu:              11.7 elap:               0.5
 (Enter /scratch/scicomp/CentOS/7.3.1611/Haswell/software/Gaussian/g16/l401.exe)
 ExpMin= 9.52D-02 ExpMax= 1.36D+04 ExpMxC= 4.63D+02 IAcc=3 IRadAn=         5 AccDes= 0.00D+00
 Harris functional with IExCor= 4639 and IRadAn=       5 diagonalized for initial guess.
 HarFok:  IExCor= 4639 AccDes= 0.00D+00 IRadAn=         5 IDoV= 1 UseB2=F ITyADJ=14
 ICtDFT=  3500011 ScaDFX=  1.000000  1.000000  1.000000  1.000000
 FoFCou: FMM=F IPFlag=           0 FMFlag=      100000 FMFlg1=           0
         NFxFlg=           0 DoJE=T BraDBF=F KetDBF=T FulRan=T
         wScrn=  0.000000 ICntrl=       500 IOpCl=  0 I1Cent=   200000004 NGrid=           0
         NMat0=    1 NMatS0=      1 NMatT0=    0 NMatD0=    1 NMtDS0=    0 NMtDT0=    0
 Symmetry not used in FoFCou.
 Harris En= -444.525174266690    
 JPrj=0 DoOrth=F DoCkMO=T.
 Mixing orbitals, IMix= 1 IMixAn=  0 NRI=1 NE=   44 Coef=  7.07106781D-01  7.07106781D-01
 Mixing orbitals, IMix= 1 IMixAn=  0 NRI=1 NE=   44 Coef= -7.07106781D-01  7.07106781D-01
 Initial guess <Sx>= 0.0000 <Sy>= 0.0000 <Sz>= 0.0000 <S**2>= 1.0000 S= 0.6180
 Leave Link  401 at Tue Aug  4 21:48:52 2020, MaxMem=  6442450944 cpu:              47.6 elap:               2.0
 (Enter /scratch/scicomp/CentOS/7.3.1611/Haswell/software/Gaussian/g16/l9999.exe)

 This type of calculation cannot be archived.


 HE THAT IS UNAWARE OF HIS IGNORANCE WILL BE MISLED BY HIS KNOWLEDGE.

                                        -- WHATLEY
 Job cpu time:       0 days  0 hours  1 minutes  7.5 seconds.
 Elapsed time:       0 days  0 hours  0 minutes  3.1 seconds.
 File lengths (MBytes):  RWF=    276 Int=      0 D2E=      0 Chk=      1 Scr=      1
 Normal termination of Gaussian 16 at Tue Aug  4 21:48:52 2020.
 Initial command:
 /scratch/scicomp/CentOS/7.3.1611/Haswell/software/Gaussian/g16/l1.exe "/scratch/bochen/cyclohexadiene-dimerization/wb97xd-def2tzvp/xp-pcm/meso/Gau-105811.inp" -scrdir="/scratch/bochen/cyclohexadiene-dimerization/wb97xd-def2tzvp/xp-pcm/meso/"
 Entering Link 1 = /scratch/scicomp/CentOS/7.3.1611/Haswell/software/Gaussian/g16/l1.exe PID=    106299.
  
 Copyright (c) 1988-2017, Gaussian, Inc.  All Rights Reserved.
  
 This is part of the Gaussian(R) 16 program.  It is based on
 the Gaussian(R) 09 system (copyright 2009, Gaussian, Inc.),
 the Gaussian(R) 03 system (copyright 2003, Gaussian, Inc.),
 the Gaussian(R) 98 system (copyright 1998, Gaussian, Inc.),
 the Gaussian(R) 94 system (copyright 1995, Gaussian, Inc.),
 the Gaussian 92(TM) system (copyright 1992, Gaussian, Inc.),
 the Gaussian 90(TM) system (copyright 1990, Gaussian, Inc.),
 the Gaussian 88(TM) system (copyright 1988, Gaussian, Inc.),
 the Gaussian 86(TM) system (copyright 1986, Carnegie Mellon
 University), and the Gaussian 82(TM) system (copyright 1983,
 Carnegie Mellon University). Gaussian is a federally registered
 trademark of Gaussian, Inc.
  
 This software contains proprietary and confidential information,
 including trade secrets, belonging to Gaussian, Inc.
  
 This software is provided under written license and may be
 used, copied, transmitted, or stored only in accord with that
 written license.
  
 The following legend is applicable only to US Government
 contracts under FAR:
  
                    RESTRICTED RIGHTS LEGEND
  
 Use, reproduction and disclosure by the US Government is
 subject to restrictions as set forth in subparagraphs (a)
 and (c) of the Commercial Computer Software - Restricted
 Rights clause in FAR 52.227-19.
  
 Gaussian, Inc.
 340 Quinnipiac St., Bldg. 40, Wallingford CT 06492
  
  
 ---------------------------------------------------------------
 Warning -- This program may not be used in any manner that
 competes with the business of Gaussian, Inc. or will provide
 assistance to any competitor of Gaussian, Inc.  The licensee
 of this program is prohibited from giving any competitor of
 Gaussian, Inc. access to this program.  By using this program,
 the user acknowledges that Gaussian, Inc. is engaged in the
 business of creating and licensing software in the field of
 computational chemistry and represents and warrants to the
 licensee that it is not a competitor of Gaussian, Inc. and that
 it will not use this program in any manner prohibited above.
 ---------------------------------------------------------------
  

 Cite this work as:
 Gaussian 16, Revision B.01,
 M. J. Frisch, G. W. Trucks, H. B. Schlegel, G. E. Scuseria, 
 M. A. Robb, J. R. Cheeseman, G. Scalmani, V. Barone, 
 G. A. Petersson, H. Nakatsuji, X. Li, M. Caricato, A. V. Marenich, 
 J. Bloino, B. G. Janesko, R. Gomperts, B. Mennucci, H. P. Hratchian, 
 J. V. Ortiz, A. F. Izmaylov, J. L. Sonnenberg, D. Williams-Young, 
 F. Ding, F. Lipparini, F. Egidi, J. Goings, B. Peng, A. Petrone, 
 T. Henderson, D. Ranasinghe, V. G. Zakrzewski, J. Gao, N. Rega, 
 G. Zheng, W. Liang, M. Hada, M. Ehara, K. Toyota, R. Fukuda, 
 J. Hasegawa, M. Ishida, T. Nakajima, Y. Honda, O. Kitao, H. Nakai, 
 T. Vreven, K. Throssell, J. A. Montgomery, Jr., J. E. Peralta, 
 F. Ogliaro, M. J. Bearpark, J. J. Heyd, E. N. Brothers, K. N. Kudin, 
 V. N. Staroverov, T. A. Keith, R. Kobayashi, J. Normand, 
 K. Raghavachari, A. P. Rendell, J. C. Burant, S. S. Iyengar, 
 J. Tomasi, M. Cossi, J. M. Millam, M. Klene, C. Adamo, R. Cammi, 
 J. W. Ochterski, R. L. Martin, K. Morokuma, O. Farkas, 
 J. B. Foresman, and D. J. Fox, Gaussian, Inc., Wallingford CT, 2016.
 
 ******************************************
 Gaussian 16:  ES64L-G16RevB.01 20-Dec-2017
                 4-Aug-2020 
 ******************************************
 %chk=scr.chk
 %nproc=24
 Will use up to   24 processors via shared memory.
 %mem=48GB
 ----------------------------------------------------------------------
 #p uwb97xd guess=mix def2tzvp # scrf=(iefpcm,solvent=Cyclohexane,read)
  nosym guess=only pop=none
 ----------------------------------------------------------------------
 1/38=1,40=2,172=1/1;
 2/12=2,15=1,17=6,18=5,40=1/2;
 3/5=44,7=101,11=2,25=1,30=1,70=2203,72=17,74=-58,89=1,116=2/1,2;
 4/13=-1/1;
 99/5=2/99;
 Leave Link    1 at Tue Aug  4 21:48:52 2020, MaxMem=  6442450944 cpu:               1.4 elap:               0.1
 (Enter /scratch/scicomp/CentOS/7.3.1611/Haswell/software/Gaussian/g16/l101.exe)
 -----------------------------------------------
 endo-2 xp-pcm with Vmol=89.84123994485 cm^3/mol
 -----------------------------------------------
 Symbolic Z-matrix:
 Charge =  0 Multiplicity = 1
 6                    -3.14099  -0.42504   0.22382 
 6                    -0.4063   -0.1269   -0.65908 
 1                    -4.13565  -0.54469   0.63509 
 1                     0.31741  -0.13066  -1.47881 
 6                     1.10894   1.44553   0.60737 
 6                     0.4063    0.1269    0.65908 
 1                     0.57318   2.34463   0.8844 
 1                    -0.31741   0.13066   1.47881 
 6                     1.42998  -0.98206   0.93298 
 1                     1.83176  -0.82932   1.93798 
 1                     0.94414  -1.95883   0.9306 
 6                     2.4096    1.53504   0.14459 
 1                     2.86887   2.51402   0.06052 
 6                     3.14099   0.42504  -0.22382 
 1                     4.13565   0.54469  -0.63509 
[...]
 6                    -0.4063   -0.1269   -0.65908 
 1                    -4.13565  -0.54469   0.63509 
 1                     0.31741  -0.13066  -1.47881 
 6                     1.10894   1.44553   0.60737 
 6                     0.4063    0.1269    0.65908 
 1                     0.57318   2.34463   0.8844 
 1                    -0.31741   0.13066   1.47881 
 6                     1.42998  -0.98206   0.93298 
 1                     1.83176  -0.82932   1.93798 
 1                     0.94414  -1.95883   0.9306 
 6                     2.4096    1.53504   0.14459 
 1                     2.86887   2.51402   0.06052 
 6                     3.14099   0.42504  -0.22382 
 1                     4.13565   0.54469  -0.63509 
 6                     2.58898  -0.95563  -0.06333 
 1                     2.2607   -1.33761  -1.03945 
 1                     3.37789  -1.63847   0.26323 
 6                    -1.10894  -1.44553  -0.60737 
 1                    -0.57318  -2.34463  -0.8844 
 6                    -2.4096   -1.53504  -0.14459 
 1                    -2.86887  -2.51402  -0.06052 
 6                    -1.42998   0.98206  -0.93298 
 1                    -0.94414   1.95883  -0.9306 
 1                    -1.83176   0.82932  -1.93798 
 6                    -2.58898   0.95563   0.06333 
 1                    -3.37789   1.63847  -0.26323 
 1                    -2.2607    1.33761   1.03945 
 
 ITRead=  0  0  0  0  0  0  0  0  0  0  0  0  0  0  0  0  0  0  0  0
 ITRead=  0  0  0  0  0  0  0  0
 MicOpt= -1 -1 -1 -1 -1 -1 -1 -1 -1 -1 -1 -1 -1 -1 -1 -1 -1 -1 -1 -1
 MicOpt= -1 -1 -1 -1 -1 -1 -1 -1
 NAtoms=     28 NQM=       28 NQMF=       0 NMMI=      0 NMMIF=      0
                NMic=       0 NMicF=      0.
                    Isotopes and Nuclear Properties:
 (Nuclear quadrupole moments (NQMom) in fm**2, nuclear magnetic moments (NMagM)
  in nuclear magnetons)

  Atom         1           2           3           4           5           6           7           8           9          10
 IAtWgt=          12          12           1           1          12          12           1           1          12           1
 AtmWgt=  12.0000000  12.0000000   1.0078250   1.0078250  12.0000000  12.0000000   1.0078250   1.0078250  12.0000000   1.0078250
 NucSpn=           0           0           1           1           0           0           1           1           0           1
 AtZEff=  -0.0000000  -0.0000000  -0.0000000  -0.0000000  -0.0000000  -0.0000000  -0.0000000  -0.0000000  -0.0000000  -0.0000000
 NQMom=    0.0000000   0.0000000   0.0000000   0.0000000   0.0000000   0.0000000   0.0000000   0.0000000   0.0000000   0.0000000
 NMagM=    0.0000000   0.0000000   2.7928460   2.7928460   0.0000000   0.0000000   2.7928460   2.7928460   0.0000000   2.7928460
 AtZNuc=   6.0000000   6.0000000   1.0000000   1.0000000   6.0000000   6.0000000   1.0000000   1.0000000   6.0000000   1.0000000

  Atom        11          12          13          14          15          16          17          18          19          20
 IAtWgt=           1          12           1          12           1          12           1           1          12           1
 AtmWgt=   1.0078250  12.0000000   1.0078250  12.0000000   1.0078250  12.0000000   1.0078250   1.0078250  12.0000000   1.0078250
 NucSpn=           1           0           1           0           1           0           1           1           0           1
 AtZEff=  -0.0000000  -0.0000000  -0.0000000  -0.0000000  -0.0000000  -0.0000000  -0.0000000  -0.0000000  -0.0000000  -0.0000000
 NQMom=    0.0000000   0.0000000   0.0000000   0.0000000   0.0000000   0.0000000   0.0000000   0.0000000   0.0000000   0.0000000
 NMagM=    2.7928460   0.0000000   2.7928460   0.0000000   2.7928460   0.0000000   2.7928460   2.7928460   0.0000000   2.7928460
 AtZNuc=   1.0000000   6.0000000   1.0000000   6.0000000   1.0000000   6.0000000   1.0000000   1.0000000   6.0000000   1.0000000

  Atom        21          22          23          24          25          26          27          28
 IAtWgt=          12           1          12           1           1          12           1           1
 AtmWgt=  12.0000000   1.0078250  12.0000000   1.0078250   1.0078250  12.0000000   1.0078250   1.0078250
 NucSpn=           0           1           0           1           1           0           1           1
 AtZEff=  -0.0000000  -0.0000000  -0.0000000  -0.0000000  -0.0000000  -0.0000000  -0.0000000  -0.0000000
 NQMom=    0.0000000   0.0000000   0.0000000   0.0000000   0.0000000   0.0000000   0.0000000   0.0000000
 NMagM=    0.0000000   2.7928460   0.0000000   2.7928460   2.7928460   0.0000000   2.7928460   2.7928460
 AtZNuc=   6.0000000   1.0000000   6.0000000   1.0000000   1.0000000   6.0000000   1.0000000   1.0000000
 Leave Link  101 at Tue Aug  4 21:49:03 2020, MaxMem=  6442450944 cpu:               2.4 elap:               0.1
 (Enter /scratch/scicomp/CentOS/7.3.1611/Haswell/software/Gaussian/g16/l202.exe)
                          Input orientation:                          
 ---------------------------------------------------------------------
 Center     Atomic      Atomic             Coordinates (Angstroms)
 Number     Number       Type             X           Y           Z
 ---------------------------------------------------------------------
      1          6           0       -3.140994   -0.425040    0.223816
      2          6           0       -0.406297   -0.126897   -0.659080
      3          1           0       -4.135653   -0.544691    0.635088
      4          1           0        0.317409   -0.130657   -1.478814
      5          6           0        1.108935    1.445531    0.607368
      6          6           0        0.406297    0.126897    0.659080
      7          1           0        0.573183    2.344629    0.884397
      8          1           0       -0.317409    0.130657    1.478814
      9          6           0        1.429977   -0.982064    0.932984
     10          1           0        1.831758   -0.829324    1.937981
     11          1           0        0.944143   -1.958831    0.930603
     12          6           0        2.409595    1.535044    0.144587
     13          1           0        2.868872    2.514015    0.060519
     14          6           0        3.140994    0.425040   -0.223816
     15          1           0        4.135653    0.544691   -0.635088
     16          6           0        2.588982   -0.955630   -0.063327
     17          1           0        2.260703   -1.337606   -1.039452
     18          1           0        3.377886   -1.638473    0.263228
     19          6           0       -1.108935   -1.445531   -0.607368
     20          1           0       -0.573183   -2.344629   -0.884397
     21          6           0       -2.409595   -1.535044   -0.144587
     22          1           0       -2.868872   -2.514015   -0.060519
     23          6           0       -1.429977    0.982064   -0.932984
     24          1           0       -0.944143    1.958831   -0.930603
     25          1           0       -1.831758    0.829324   -1.937981
     26          6           0       -2.588982    0.955630    0.063327
     27          1           0       -3.377886    1.638473   -0.263228
     28          1           0       -2.260703    1.337606    1.039452
 ---------------------------------------------------------------------
                    Distance matrix (angstroms):
                    1          2          3          4          5
     1  C    0.000000
     2  C    2.889111   0.000000
     3  H    1.082962   3.969574   0.000000
     4  H    3.866027   1.093494   4.946693   0.000000
     5  C    4.659189   2.524351   5.609586   2.731856   0.000000
     6  C    3.616264   1.569161   4.591396   2.155186   1.495048
     7  H    4.680015   3.074109   5.530232   3.431797   1.082660
     8  H    3.139499   2.155186   3.968243   3.036255   2.126680
     9  C    4.659074   2.576408   5.590731   2.789170   2.470286
    10  H    5.275421   3.499574   6.114617   3.802088   2.732759
    11  H    4.420453   2.776106   5.281236   3.088739   3.423641
    12  C    5.887040   3.367072   6.885213   3.128455   1.383436
    13  H    6.692025   4.268369   7.664802   3.984194   2.130277
    14  C    6.355028   3.616264   7.391054   3.139499   2.421060
    15  H    7.391054   4.591396   8.438875   3.968243   3.393557
    16  C    5.761649   3.164398   6.773284   2.800755   2.899301
    17  H    5.622006   2.953538   6.659292   2.329411   3.432847
    18  H    6.630970   4.177985   7.601836   3.830762   3.844171
    19  C    2.421060   1.495048   3.393557   2.126680   3.840934
    20  H    3.392140   2.235387   4.270808   2.459300   4.406835
    21  C    1.379411   2.502156   2.137281   3.344999   4.672185
    22  H    2.125727   3.481506   2.442712   4.224256   5.652170
    23  C    2.499141   1.533864   3.480016   2.142297   3.005588
    24  H    3.441174   2.171005   4.347959   2.501601   2.616097
    25  H    2.821506   2.140534   3.717060   2.398190   3.937790
    26  C    1.495568   2.541230   2.229364   3.464870   3.769691
    27  H    2.133405   3.479019   2.479393   4.273485   4.574574
    28  H    2.132392   2.910086   2.687376   3.891545   3.398942
                    6          7          8          9         10
     6  C    0.000000
     7  H    2.235387   0.000000
     8  H    1.093494   2.459300   0.000000
     9  C    1.533864   3.435599   2.142297   0.000000
    10  H    2.140534   3.573238   2.398190   1.093058   0.000000
    11  H    2.171005   4.319666   2.501601   1.090924   1.754553
    12  C    2.502156   2.138961   3.344999   2.813726   3.023308
    13  H    3.481506   2.444924   4.224256   3.879972   3.972201
    14  C    2.889111   3.392140   3.866027   2.499141   2.821506
    15  H    3.969574   4.270808   4.946693   3.480016   3.717060
    16  C    2.541230   3.981625   3.464870   1.528603   2.143496
    17  H    2.910086   4.484169   3.891545   2.169567   3.050812
    18  H    3.479019   4.910938   4.273485   2.161896   2.418684
    19  C    2.524351   4.406835   2.731856   3.005588   3.937790
    20  H    3.074109   5.141199   3.431797   3.028549   4.005709
    21  C    3.367072   5.000763   3.128455   4.026072   4.777469
    22  H    4.268369   6.028850   3.984194   4.670549   5.378486
    23  C    2.576408   3.028549   2.789170   3.939413   4.707705
    24  H    2.776106   2.396945   3.088739   4.214056   4.869108
    25  H    3.499574   4.005709   3.802088   4.707705   5.585297
    26  C    3.164398   3.550037   2.800755   4.545656   5.122824
    27  H    4.177985   4.174523   3.830762   5.604791   6.170554
    28  H    2.953538   3.011486   2.329411   4.360427   4.717115
                   11         12         13         14         15
    11  H    0.000000
    12  C    3.869436   0.000000
    13  H    4.946512   1.084614   0.000000
    14  C    3.441174   1.379411   2.125727   0.000000
    15  H    4.347959   2.137281   2.442712   1.082962   0.000000
    16  C    2.167903   2.505766   3.483118   1.495568   2.229364
    17  H    2.449565   3.110665   4.051517   2.132392   2.687376
    18  H    2.543840   3.320071   4.188477   2.133405   2.479393
    19  C    2.616097   4.672185   5.652170   4.659189   5.609586
    20  H    2.396945   5.000763   6.028850   4.680015   5.530232
    21  C    3.547279   5.721333   6.655761   5.887040   6.885213
    22  H    3.978647   6.655761   7.630036   6.692025   7.664802
    23  C    4.214056   4.026072   4.670549   4.659074   5.590731
    24  H    4.730517   3.547279   3.978647   4.420453   5.281236
    25  H    4.869108   4.777469   5.378486   5.275421   6.114617
    26  C    4.661461   5.032703   5.675979   5.761649   6.773284
    27  H    5.748544   5.802753   6.316120   6.630970   7.601836
    28  H    4.598846   4.759354   5.353017   5.622006   6.659292
                   16         17         18         19         20
    16  C    0.000000
    17  H    1.098405   0.000000
    18  H    1.093290   1.742296   0.000000
    19  C    3.769691   3.398942   4.574574   0.000000
    20  H    3.550037   3.011486   4.174523   1.082660   0.000000
    21  C    5.032703   4.759354   5.802753   1.383436   2.138961
    22  H    5.675979   5.353017   6.316120   2.130277   2.444924
    23  C    4.545656   4.360427   5.604791   2.470286   3.435599
    24  H    4.661461   4.598846   5.748544   3.423641   4.319666
    25  H    5.122824   4.717115   6.170554   2.732759   3.573238
    26  C    5.520894   5.476723   6.509443   2.899301   3.981625
    27  H    6.509443   6.422870   7.527017   3.844171   4.910938
    28  H    5.476723   5.649930   6.422870   3.432847   4.484169
                   21         22         23         24         25
    21  C    0.000000
    22  H    1.084614   0.000000
    23  C    2.813726   3.879972   0.000000
    24  H    3.869436   4.946512   1.090924   0.000000
    25  H    3.023308   3.972201   1.093058   1.754553   0.000000
    26  C    2.505766   3.483118   1.528603   2.167903   2.143496
    27  H    3.320071   4.188477   2.161896   2.543840   2.418684
    28  H    3.110665   4.051517   2.169567   2.449565   3.050812
                   26         27         28
    26  C    0.000000
    27  H    1.093290   0.000000
    28  H    1.098405   1.742296   0.000000
 Symmetry turned off by external request.
 Stoichiometry    C12H16
 Framework group  CI[X(C12H16)]
 Deg. of freedom    39
 Full point group                 CI      NOp   2
 Rotational constants (GHZ):           2.0335666           0.6463832           0.5521611
 Leave Link  202 at Tue Aug  4 21:49:03 2020, MaxMem=  6442450944 cpu:               0.3 elap:               0.0
 (Enter /scratch/scicomp/CentOS/7.3.1611/Haswell/software/Gaussian/g16/l301.exe)
 Standard basis: def2TZVP (5D, 7F)
 Ernie: Thresh=  0.10000D-02 Tol=  0.10000D-05 Strict=F.
   468 basis functions,   740 primitive gaussians,   528 cartesian basis functions
    44 alpha electrons       44 beta electrons
       nuclear repulsion energy       697.2046426072 Hartrees.
 IExCor= 4639 DFT=T Ex+Corr=wB97XD ExCW=0 ScaHFX=  1.000000
 ScaDFX=  1.000000  1.000000  1.000000  1.000000 ScalE2=  1.000000  1.000000
 IRadAn=      5 IRanWt=     -1 IRanGd=            0 ICorTp=0 IEmpDi=121
 HFx  wShort=  0.000000 wLong=  0.200000 cFull=  0.222036 cShort=  0.000000 cLong=  0.777964
 DFx  wShort=  0.000000 wLong=  0.200000 cFull=  0.000000 cShort=  0.000000 cLong=  1.000000
 NAtoms=   28 NActive=   28 NUniq=   28 SFac= 1.00D+00 NAtFMM=   60 NAOKFM=F Big=F
 Integral buffers will be    131072 words long.
 Raffenetti 2 integral format.
 Two-electron integral symmetry is turned off.
 R6Disp:  Grimme-D2 Dispersion energy=       -0.0228434541 Hartrees.
 Nuclear repulsion after empirical dispersion term =      697.1817991531 Hartrees.
 Using the following non-standard input for PCM:
 norep  pcmdoc geomview  nodis cav g03defaults noaddsph  tsare=0.075
 Warning! Using old PCM defaults because the g03defaults keyword was found.
 These settings can be overridden by following keywords.
 nsfe=28
 Vmol=78.9041178242053 Rsolv=2.815
 --- end of non-standard input.
 Reading user-defined spheres from input:
 ISph  on   Nord    Re0     Alpha      Xe            Ye            Ze
 --- end of user-defined spheres data.
 ------------------------------------------------------------------------------
 Polarizable Continuum Model (PCM)
 =================================
 Model                : PCM.
 Atomic radii         : UA0 (Simple United Atom Topological Model).
 Polarization charges : Total charges.
 Charge compensation  : None.
 Solution method      : On-the-fly selection.
 Cavity type          : VdW (van der Waals Surface) (Alpha=1.000).
 Cavity algorithm     : GePol (No added spheres)
                        User-defined sphere list used, NSphG=   28.
                        Tesserae with average area of 0.075 Ang**2.
                        Smoothing algorithm: None.
                        Polarization charges: point-like.
                        Self-potential: constant (ISelfS= 1).
                        Self-field    : global E.n sum rule (ISelfD= 3).
 Solvent              : CycloHexane, Eps=   2.016500 Eps(inf)=   2.035188
 ------------------------------------------------------------------------------
 GePol: Number of generator spheres                  =      28
 GePol: Total number of spheres                      =      28
 GePol: Number of exposed spheres                    =      28 (100.00%)
 GePol: Number of tesserae                           =    3817
 GePol: Average area of tesserae                     =       0.06 Ang**2
 GePol: Minimum area of tessera                      =   0.10D-02 Ang**2
 GePol: Maximum area of tessera                      =    0.12395 Ang**2
 GePol: Number of small tesserae                     =       0
 GePol: Fraction of small tesserae (<1% of avg)      =       0.00%
 GePol: Total count of vertices                      =   12642
 GePol: Maximum number of vertices in a tessera      =       6
 GePol: Cavity surface area                          =    230.199 Ang**2
 GePol: Cavity volume                                =    234.368 Ang**3
 PCM non-electrostatic energy =         0.1133124430 Hartrees.
 Nuclear repulsion after PCM non-electrostatic terms =      697.2951115962 Hartrees.
 Leave Link  301 at Tue Aug  4 21:49:03 2020, MaxMem=  6442450944 cpu:               3.1 elap:               0.2
 (Enter /scratch/scicomp/CentOS/7.3.1611/Haswell/software/Gaussian/g16/l302.exe)
 NPDir=0 NMtPBC=     1 NCelOv=     1 NCel=       1 NClECP=     1 NCelD=      1
         NCelK=      1 NCelE2=     1 NClLst=     1 CellRange=     0.0.
 One-electron integrals computed using PRISM.
   1 Symmetry operations used in ECPInt.
 ECPInt:  NShTT=   19306 NPrTT=   56928 LenC2=   18534 LenP2D=   42334.
 LDataN:  DoStor=T MaxTD1= 6 Len=  172
 NBasis=   468 RedAO= T EigKep=  3.20D-05  NBF=   468
 NBsUse=   468 1.00D-06 EigRej= -1.00D+00 NBFU=   468
 Precomputing XC quadrature grid using
 IXCGrd= 4 IRadAn=           5 IRanWt=          -1 IRanGd=           0 AccXCQ= 0.00D+00.
 Generated NRdTot=       0 NPtTot=           0 NUsed=           0 NTot=          32
 NSgBfM=   526   526   526   526   526 MxSgAt=    28 MxSgA2=    28.
 Leave Link  302 at Tue Aug  4 21:49:04 2020, MaxMem=  6442450944 cpu:              11.7 elap:               0.5
 (Enter /scratch/scicomp/CentOS/7.3.1611/Haswell/software/Gaussian/g16/l401.exe)
 ExpMin= 9.52D-02 ExpMax= 1.36D+04 ExpMxC= 4.63D+02 IAcc=3 IRadAn=         5 AccDes= 0.00D+00
 Harris functional with IExCor= 4639 and IRadAn=       5 diagonalized for initial guess.
 HarFok:  IExCor= 4639 AccDes= 0.00D+00 IRadAn=         5 IDoV= 1 UseB2=F ITyADJ=14
 ICtDFT=  3500011 ScaDFX=  1.000000  1.000000  1.000000  1.000000
 FoFCou: FMM=F IPFlag=           0 FMFlag=      100000 FMFlg1=           0
         NFxFlg=           0 DoJE=T BraDBF=F KetDBF=T FulRan=T
         wScrn=  0.000000 ICntrl=       500 IOpCl=  0 I1Cent=   200000004 NGrid=           0
         NMat0=    1 NMatS0=      1 NMatT0=    0 NMatD0=    1 NMtDS0=    0 NMtDT0=    0
 Symmetry not used in FoFCou.
 Harris En= -444.463047968178    
 JPrj=0 DoOrth=F DoCkMO=T.
 Mixing orbitals, IMix= 1 IMixAn=  0 NRI=1 NE=   44 Coef=  7.07106781D-01  7.07106781D-01
 Mixing orbitals, IMix= 1 IMixAn=  0 NRI=1 NE=   44 Coef= -7.07106781D-01  7.07106781D-01
 Initial guess <Sx>= 0.0000 <Sy>= 0.0000 <Sz>= 0.0000 <S**2>= 1.0000 S= 0.6180
 Leave Link  401 at Tue Aug  4 21:49:06 2020, MaxMem=  6442450944 cpu:              47.7 elap:               2.1
 (Enter /scratch/scicomp/CentOS/7.3.1611/Haswell/software/Gaussian/g16/l9999.exe)

 This type of calculation cannot be archived.


 FESTINA LENTE!
     - IMPERATOR AUGUSTUS 
 Job cpu time:       0 days  0 hours  1 minutes  7.8 seconds.
 Elapsed time:       0 days  0 hours  0 minutes  3.1 seconds.
 File lengths (MBytes):  RWF=    276 Int=      0 D2E=      0 Chk=      1 Scr=      1
 Normal termination of Gaussian 16 at Tue Aug  4 21:49:06 2020.
