 Entering Gaussian System, Link 0=g16
 Input=meso-TS_91_2_pcm.com
 Output=meso-TS_91_2_pcm.log
 Initial command:
 /scratch/scicomp/CentOS/7.3.1611/Haswell/software/Gaussian/g16/l1.exe "/scratch/bochen/cyclohexadiene-dimerization/wb97xd-def2tzvp/xp-pcm/meso/Gau-7565.inp" -scrdir="/scratch/bochen/cyclohexadiene-dimerization/wb97xd-def2tzvp/xp-pcm/meso/"
 Entering Link 1 = /scratch/scicomp/CentOS/7.3.1611/Haswell/software/Gaussian/g16/l1.exe PID=      7566.
  
 Copyright (c) 1988-2017, Gaussian, Inc.  All Rights Reserved.
  
 This is part of the Gaussian(R) 16 program.  It is based on
 the Gaussian(R) 09 system (copyright 2009, Gaussian, Inc.),
 the Gaussian(R) 03 system (copyright 2003, Gaussian, Inc.),
 the Gaussian(R) 98 system (copyright 1998, Gaussian, Inc.),
 the Gaussian(R) 94 system (copyright 1995, Gaussian, Inc.),
 the Gaussian 92(TM) system (copyright 1992, Gaussian, Inc.),
 the Gaussian 90(TM) system (copyright 1990, Gaussian, Inc.),
 the Gaussian 88(TM) system (copyright 1988, Gaussian, Inc.),
 the Gaussian 86(TM) system (copyright 1986, Carnegie Mellon
 University), and the Gaussian 82(TM) system (copyright 1983,
 Carnegie Mellon University). Gaussian is a federally registered
 trademark of Gaussian, Inc.
  
 This software contains proprietary and confidential information,
 including trade secrets, belonging to Gaussian, Inc.
  
 This software is provided under written license and may be
 used, copied, transmitted, or stored only in accord with that
 written license.
  
 The following legend is applicable only to US Government
 contracts under FAR:
  
                    RESTRICTED RIGHTS LEGEND
  
 Use, reproduction and disclosure by the US Government is
 subject to restrictions as set forth in subparagraphs (a)
 and (c) of the Commercial Computer Software - Restricted
 Rights clause in FAR 52.227-19.
  
 Gaussian, Inc.
 340 Quinnipiac St., Bldg. 40, Wallingford CT 06492
  
  
 ---------------------------------------------------------------
 Warning -- This program may not be used in any manner that
 competes with the business of Gaussian, Inc. or will provide
 assistance to any competitor of Gaussian, Inc.  The licensee
 of this program is prohibited from giving any competitor of
 Gaussian, Inc. access to this program.  By using this program,
 the user acknowledges that Gaussian, Inc. is engaged in the
 business of creating and licensing software in the field of
 computational chemistry and represents and warrants to the
 licensee that it is not a competitor of Gaussian, Inc. and that
 it will not use this program in any manner prohibited above.
 ---------------------------------------------------------------
  

 Cite this work as:
 Gaussian 16, Revision B.01,
 M. J. Frisch, G. W. Trucks, H. B. Schlegel, G. E. Scuseria, 
 M. A. Robb, J. R. Cheeseman, G. Scalmani, V. Barone, 
 G. A. Petersson, H. Nakatsuji, X. Li, M. Caricato, A. V. Marenich, 
 J. Bloino, B. G. Janesko, R. Gomperts, B. Mennucci, H. P. Hratchian, 
 J. V. Ortiz, A. F. Izmaylov, J. L. Sonnenberg, D. Williams-Young, 
 F. Ding, F. Lipparini, F. Egidi, J. Goings, B. Peng, A. Petrone, 
 T. Henderson, D. Ranasinghe, V. G. Zakrzewski, J. Gao, N. Rega, 
 G. Zheng, W. Liang, M. Hada, M. Ehara, K. Toyota, R. Fukuda, 
 J. Hasegawa, M. Ishida, T. Nakajima, Y. Honda, O. Kitao, H. Nakai, 
 T. Vreven, K. Throssell, J. A. Montgomery, Jr., J. E. Peralta, 
 F. Ogliaro, M. J. Bearpark, J. J. Heyd, E. N. Brothers, K. N. Kudin, 
 V. N. Staroverov, T. A. Keith, R. Kobayashi, J. Normand, 
 K. Raghavachari, A. P. Rendell, J. C. Burant, S. S. Iyengar, 
 J. Tomasi, M. Cossi, J. M. Millam, M. Klene, C. Adamo, R. Cammi, 
 J. W. Ochterski, R. L. Martin, K. Morokuma, O. Farkas, 
 J. B. Foresman, and D. J. Fox, Gaussian, Inc., Wallingford CT, 2016.
 
 ******************************************
 Gaussian 16:  ES64L-G16RevB.01 20-Dec-2017
                 3-Aug-2020 
 ******************************************
 %nproc=24
 Will use up to   24 processors via shared memory.
 %mem=48GB
 ----------------------------------------------------------------------
 #p uwb97xd guess=mix def2tzvp # scrf=(iefpcm,solvent=Cyclohexane,read)
  nosym 6d 10f
 ----------------------------------------------------------------------
 1/38=1,40=2,172=1/1;
 2/12=2,15=1,17=6,18=5,40=1/2;
 3/5=44,7=101,8=22,11=2,25=1,30=1,70=2203,72=17,74=-58,116=2/1,2,3;
 4/13=-1/1;
 5/5=2,38=5,53=17/2;
 6/7=2,8=2,9=2,10=2,28=1/1;
 99/5=1,9=1/99;
 Leave Link    1 at Mon Aug  3 13:32:11 2020, MaxMem=  6442450944 cpu:               2.2 elap:               0.1
 (Enter /scratch/scicomp/CentOS/7.3.1611/Haswell/software/Gaussian/g16/l101.exe)
 -----------------------
 endo-2 xp-pcm for eta=3
 -----------------------
 Symbolic Z-matrix:
 Charge =  0 Multiplicity = 1
 6                    -3.09327  -0.43597   0.30043 
 6                    -0.86674  -0.2891   -1.44543 
 1                    -3.98614  -0.5048    0.91094 
 1                     0.03031  -0.22494  -2.04978 
 6                     1.26235   1.45252   0.93454 
 6                     0.86674   0.2891    1.44543 
 1                     0.68836   2.35534   1.10715 
 1                    -0.03031   0.22494   2.04978 
 6                     1.68381  -0.95718   1.2565 
 1                     2.34862  -1.06206   2.12426 
 1                     1.03589  -1.8353    1.25879 
 6                     2.49032   1.53821   0.14185 
 1                     2.89306   2.51671  -0.09095 
 6                     3.09327   0.43597  -0.30043 
 1                     3.98614   0.5048   -0.91094 
 6                     2.51185  -0.92452  -0.02945 
 1                     1.87905  -1.20282  -0.881 
 1                     3.30259  -1.67529   0.01828 
 6                    -1.26235  -1.45252  -0.93454 
 1                    -0.68836  -2.35534  -1.10715 
 6                    -2.49032  -1.53821  -0.14185 
 1                    -2.89306  -2.51671   0.09095 
 6                    -1.68381   0.95718  -1.2565 
 1                    -1.03589   1.8353   -1.25879 
 1                    -2.34862   1.06206  -2.12426 
 6                    -2.51185   0.92452   0.02945 
 1                    -3.30259   1.67529  -0.01828 
 1                    -1.87905   1.20282   0.881 
 
 ITRead=  0  0  0  0  0  0  0  0  0  0  0  0  0  0  0  0  0  0  0  0
 ITRead=  0  0  0  0  0  0  0  0
 MicOpt= -1 -1 -1 -1 -1 -1 -1 -1 -1 -1 -1 -1 -1 -1 -1 -1 -1 -1 -1 -1
 MicOpt= -1 -1 -1 -1 -1 -1 -1 -1
 NAtoms=     28 NQM=       28 NQMF=       0 NMMI=      0 NMMIF=      0
                NMic=       0 NMicF=      0.
                    Isotopes and Nuclear Properties:
 (Nuclear quadrupole moments (NQMom) in fm**2, nuclear magnetic moments (NMagM)
  in nuclear magnetons)

  Atom         1           2           3           4           5           6           7           8           9          10
 IAtWgt=          12          12           1           1          12          12           1           1          12           1
 AtmWgt=  12.0000000  12.0000000   1.0078250   1.0078250  12.0000000  12.0000000   1.0078250   1.0078250  12.0000000   1.0078250
 NucSpn=           0           0           1           1           0           0           1           1           0           1
 AtZEff=  -0.0000000  -0.0000000  -0.0000000  -0.0000000  -0.0000000  -0.0000000  -0.0000000  -0.0000000  -0.0000000  -0.0000000
 NQMom=    0.0000000   0.0000000   0.0000000   0.0000000   0.0000000   0.0000000   0.0000000   0.0000000   0.0000000   0.0000000
 NMagM=    0.0000000   0.0000000   2.7928460   2.7928460   0.0000000   0.0000000   2.7928460   2.7928460   0.0000000   2.7928460
 AtZNuc=   6.0000000   6.0000000   1.0000000   1.0000000   6.0000000   6.0000000   1.0000000   1.0000000   6.0000000   1.0000000

  Atom        11          12          13          14          15          16          17          18          19          20
 IAtWgt=           1          12           1          12           1          12           1           1          12           1
 AtmWgt=   1.0078250  12.0000000   1.0078250  12.0000000   1.0078250  12.0000000   1.0078250   1.0078250  12.0000000   1.0078250
 NucSpn=           1           0           1           0           1           0           1           1           0           1
 AtZEff=  -0.0000000  -0.0000000  -0.0000000  -0.0000000  -0.0000000  -0.0000000  -0.0000000  -0.0000000  -0.0000000  -0.0000000
 NQMom=    0.0000000   0.0000000   0.0000000   0.0000000   0.0000000   0.0000000   0.0000000   0.0000000   0.0000000   0.0000000
 NMagM=    2.7928460   0.0000000   2.7928460   0.0000000   2.7928460   0.0000000   2.7928460   2.7928460   0.0000000   2.7928460
 AtZNuc=   1.0000000   6.0000000   1.0000000   6.0000000   1.0000000   6.0000000   1.0000000   1.0000000   6.0000000   1.0000000

  Atom        21          22          23          24          25          26          27          28
 IAtWgt=          12           1          12           1           1          12           1           1
 AtmWgt=  12.0000000   1.0078250  12.0000000   1.0078250   1.0078250  12.0000000   1.0078250   1.0078250
 NucSpn=           0           1           0           1           1           0           1           1
 AtZEff=  -0.0000000  -0.0000000  -0.0000000  -0.0000000  -0.0000000  -0.0000000  -0.0000000  -0.0000000
 NQMom=    0.0000000   0.0000000   0.0000000   0.0000000   0.0000000   0.0000000   0.0000000   0.0000000
 NMagM=    0.0000000   2.7928460   0.0000000   2.7928460   2.7928460   0.0000000   2.7928460   2.7928460
 AtZNuc=   6.0000000   1.0000000   6.0000000   1.0000000   1.0000000   6.0000000   1.0000000   1.0000000
 Leave Link  101 at Mon Aug  3 13:32:12 2020, MaxMem=  6442450944 cpu:               2.4 elap:               0.2
 (Enter /scratch/scicomp/CentOS/7.3.1611/Haswell/software/Gaussian/g16/l202.exe)
                          Input orientation:                          
 ---------------------------------------------------------------------
 Center     Atomic      Atomic             Coordinates (Angstroms)
 Number     Number       Type             X           Y           Z
 ---------------------------------------------------------------------
      1          6           0       -3.093267   -0.435973    0.300434
      2          6           0       -0.866740   -0.289096   -1.445431
      3          1           0       -3.986142   -0.504800    0.910939
      4          1           0        0.030308   -0.224943   -2.049778
      5          6           0        1.262349    1.452521    0.934535
      6          6           0        0.866740    0.289096    1.445431
      7          1           0        0.688360    2.355340    1.107147
      8          1           0       -0.030308    0.224943    2.049778
      9          6           0        1.683814   -0.957175    1.256502
     10          1           0        2.348618   -1.062059    2.124256
     11          1           0        1.035891   -1.835298    1.258793
     12          6           0        2.490317    1.538213    0.141849
     13          1           0        2.893062    2.516708   -0.090946
     14          6           0        3.093267    0.435973   -0.300434
     15          1           0        3.986142    0.504800   -0.910939
     16          6           0        2.511845   -0.924519   -0.029450
     17          1           0        1.879054   -1.202820   -0.880995
     18          1           0        3.302586   -1.675290    0.018282
     19          6           0       -1.262349   -1.452521   -0.934535
     20          1           0       -0.688360   -2.355340   -1.107147
     21          6           0       -2.490317   -1.538213   -0.141849
     22          1           0       -2.893062   -2.516708    0.090946
     23          6           0       -1.683814    0.957175   -1.256502
     24          1           0       -1.035891    1.835298   -1.258793
     25          1           0       -2.348618    1.062059   -2.124256
     26          6           0       -2.511845    0.924519    0.029450
     27          1           0       -3.302586    1.675290   -0.018282
     28          1           0       -1.879054    1.202820    0.880995
 ---------------------------------------------------------------------
                    Distance matrix (angstroms):
                    1          2          3          4          5
     1  C    0.000000
     2  C    2.833203   0.000000
     3  H    1.083826   3.915313   0.000000
     4  H    3.914684   1.083534   4.997603   0.000000
     5  C    4.789560   3.637374   5.601635   3.638397   0.000000
     6  C    4.185499   3.419992   4.946354   3.630474   1.330819
     7  H    4.768953   3.990869   5.483600   4.130020   1.083670
     8  H    3.588695   3.630474   4.180682   4.124613   2.102778
     9  C    4.899614   3.775195   5.698461   3.768519   2.467373
    10  H    5.773424   4.866073   6.473937   4.847462   2.986391
    11  H    4.463912   3.650147   5.206923   3.814588   3.311522
    12  C    5.924438   4.138641   6.834466   3.736789   1.464104
    13  H    6.686377   4.882958   7.580022   4.421429   2.200757
    14  C    6.276507   4.185499   7.243653   3.588695   2.431209
    15  H    7.243653   4.946354   8.239893   4.180682   3.423886
    16  C    5.636025   3.718010   6.579083   3.275539   2.853213
    17  H    5.167959   2.948366   6.172421   2.395863   3.275257
    18  H    6.520924   4.631120   7.435889   4.133785   3.845164
    19  C    2.431209   1.330819   3.423886   2.102778   4.278644
    20  H    3.383612   2.101338   4.286320   2.437956   4.740626
    21  C    1.331952   2.428090   2.100904   3.423218   4.917885
    22  H    2.100815   3.380635   2.432074   4.287304   5.808086
    23  C    2.520212   1.502164   3.483660   2.228206   3.704846
    24  H    3.438409   2.139275   4.346007   2.450924   3.199861
    25  H    2.945798   2.117165   3.788000   2.705773   4.748447
    26  C    1.504135   2.520815   2.234620   3.479511   3.916951
    27  H    2.145420   3.439319   2.466474   4.341203   4.668631
    28  H    2.120615   2.943272   2.712321   3.778042   3.151766
                    6          7          8          9         10
     6  C    0.000000
     7  H    2.101338   0.000000
     8  H    1.083534   2.437956   0.000000
     9  C    1.502164   3.462079   2.228206   0.000000
    10  H    2.117165   3.933139   2.705773   1.098163   0.000000
    11  H    2.139275   4.207757   2.450924   1.091288   1.752192
    12  C    2.428090   2.201487   3.423218   2.849537   3.272832
    13  H    3.380635   2.514394   4.287304   3.917366   4.243950
    14  C    2.833203   3.383612   3.914684   2.520212   2.945798
    15  H    3.915313   4.286320   4.997603   3.483660   3.788000
    16  C    2.520815   3.921024   3.479511   1.529828   2.164257
    17  H    2.943272   4.246288   3.778042   2.160406   3.044969
    18  H    3.439319   4.926031   4.341203   2.160856   2.391910
    19  C    3.637374   4.740626   3.638397   3.704846   4.748447
    20  H    3.990869   5.384140   4.130020   3.628899   4.619283
    21  C    4.138641   5.179163   3.736789   4.440311   5.364443
    22  H    4.882958   6.131566   4.421429   4.973777   5.807371
    23  C    3.775195   3.628899   3.768519   4.617450   5.636252
    24  H    3.650147   2.973408   3.814588   4.639117   5.594158
    25  H    4.866073   4.619283   4.847462   5.636252   6.680251
    26  C    3.718010   3.667423   3.275539   4.759200   5.653212
    27  H    4.631120   4.201989   4.133785   5.780928   6.634731
    28  H    2.948366   2.823307   2.395863   4.183373   4.954653
                   11         12         13         14         15
    11  H    0.000000
    12  C    3.839726   0.000000
    13  H    4.920451   1.083443   0.000000
    14  C    3.438409   1.331952   2.100815   0.000000
    15  H    4.346007   2.100904   2.432074   1.083826   0.000000
    16  C    2.160446   2.468776   3.462824   1.504135   2.234620
    17  H    2.385298   2.988832   3.935388   2.120615   2.712321
    18  H    2.588895   3.316874   4.213370   2.145420   2.466474
    19  C    3.199861   4.917885   5.808086   4.789560   5.601635
    20  H    2.973408   5.179163   6.131566   4.768953   5.483600
    21  C    3.805811   5.861024   6.739862   5.924438   6.834466
    22  H    4.155100   6.739862   7.671218   6.686377   7.580022
    23  C    4.639117   4.440311   4.973777   4.899614   5.698461
    24  H    4.909562   3.805811   4.155100   4.463912   5.206923
    25  H    5.594158   5.364443   5.807371   5.773424   6.473937
    26  C    4.659861   5.040920   5.635830   5.636025   6.579083
    27  H    5.725166   5.796737   6.252945   6.520924   7.435889
    28  H    4.227268   4.444123   5.044211   5.167959   6.172421
                   16         17         18         19         20
    16  C    0.000000
    17  H    1.096816   0.000000
    18  H    1.091424   1.748820   0.000000
    19  C    3.916951   3.151766   4.668631   0.000000
    20  H    3.667423   2.823307   4.201989   1.083670   0.000000
    21  C    5.040920   4.444123   5.796737   1.464104   2.201487
    22  H    5.635830   5.044211   6.252945   2.200757   2.514394
    23  C    4.759200   4.183373   5.780928   2.467373   3.462079
    24  H    4.659861   4.227268   5.725166   3.311522   4.207757
    25  H    5.653212   4.954653   6.634731   2.986391   3.933139
    26  C    5.353492   4.963313   6.369202   2.853213   3.921024
    27  H    6.369202   5.989757   7.406485   3.845164   4.926031
    28  H    4.963313   4.797404   5.989757   3.275257   4.246288
                   21         22         23         24         25
    21  C    0.000000
    22  H    1.083443   0.000000
    23  C    2.849537   3.917366   0.000000
    24  H    3.839726   4.920451   1.091288   0.000000
    25  H    3.272832   4.243950   1.098163   1.752192   0.000000
    26  C    2.468776   3.462824   1.529828   2.160446   2.164257
    27  H    3.316874   4.213370   2.160856   2.588895   2.391910
    28  H    2.988832   3.935388   2.160406   2.385298   3.044969
                   26         27         28
    26  C    0.000000
    27  H    1.091424   0.000000
    28  H    1.096816   1.748820   0.000000
 Symmetry turned off by external request.
 Stoichiometry    C12H16
 Framework group  CI[X(C12H16)]
 Deg. of freedom    39
 Full point group                 CI      NOp   2
 Rotational constants (GHZ):           1.6244635           0.5644758           0.5263311
 Leave Link  202 at Mon Aug  3 13:32:12 2020, MaxMem=  6442450944 cpu:               0.3 elap:               0.1
 (Enter /scratch/scicomp/CentOS/7.3.1611/Haswell/software/Gaussian/g16/l301.exe)
 Standard basis: def2TZVP (6D, 10F)
 Ernie: Thresh=  0.10000D-02 Tol=  0.10000D-05 Strict=F.
   528 basis functions,   740 primitive gaussians,   528 cartesian basis functions
    44 alpha electrons       44 beta electrons
       nuclear repulsion energy       666.2091593599 Hartrees.
 IExCor= 4639 DFT=T Ex+Corr=wB97XD ExCW=0 ScaHFX=  1.000000
 ScaDFX=  1.000000  1.000000  1.000000  1.000000 ScalE2=  1.000000  1.000000
 IRadAn=      5 IRanWt=     -1 IRanGd=            0 ICorTp=0 IEmpDi=121
 HFx  wShort=  0.000000 wLong=  0.200000 cFull=  0.222036 cShort=  0.000000 cLong=  0.777964
 DFx  wShort=  0.000000 wLong=  0.200000 cFull=  0.000000 cShort=  0.000000 cLong=  1.000000
 NAtoms=   28 NActive=   28 NUniq=   28 SFac= 1.00D+00 NAtFMM=   60 NAOKFM=F Big=F
 Integral buffers will be    131072 words long.
 Raffenetti 2 integral format.
 Two-electron integral symmetry is turned off.
 R6Disp:  Grimme-D2 Dispersion energy=       -0.0203121693 Hartrees.
 Nuclear repulsion after empirical dispersion term =      666.1888471906 Hartrees.
 Using the following non-standard input for PCM:
 norep pcmdoc geomview  nodis nocav g03defaults tsare=0.075
 Warning! Using old PCM defaults because the g03defaults keyword was found.
 These settings can be overridden by following keywords.
 nsfe=28
 NVESolv=36  SolvMW=84.1595   Rsolv=2.815
 eps=2.0165 RhoS=0.7781
 --- end of non-standard input.
 Reading user-defined spheres from input:
 ISph  on   Nord    Re0     Alpha      Xe            Ye            Ze
 --- end of user-defined spheres data.
 ------------------------------------------------------------------------------
 Polarizable Continuum Model (PCM)
 =================================
 Model                : PCM.
 Atomic radii         : UA0 (Simple United Atom Topological Model).
 Polarization charges : Total charges.
 Charge compensation  : None.
 Solution method      : On-the-fly selection.
 Cavity type          : SES (Solvent Excluding Surface) (Alpha=1.000).
 Cavity algorithm     : GePol (RMin=0.200 OFac=0.890).
                        User-defined sphere list used, NSphG=   28.
                        Tesserae with average area of 0.075 Ang**2.
                        Smoothing algorithm: None.
                        Polarization charges: point-like.
                        Self-potential: constant (ISelfS= 1).
                        Self-field    : global E.n sum rule (ISelfD= 3).
 Solvent              : CycloHexane, Eps=   2.016500 Eps(inf)=   2.035188
                        RSolv=   2.815000 Ang.
 ------------------------------------------------------------------------------
 GePol: Number of generator spheres                  =      28
 GePol: Total number of spheres                      =     211
 GePol: Number of exposed spheres                    =     140 ( 66.35%)
 GePol: Number of tesserae                           =    4771
 GePol: Average area of tesserae                     =       0.05 Ang**2
 GePol: Minimum area of tessera                      =   0.10D-02 Ang**2
 GePol: Maximum area of tessera                      =    0.12482 Ang**2
 GePol: Number of small tesserae                     =       0
 GePol: Fraction of small tesserae (<1% of avg)      =       0.00%
 GePol: Total count of vertices                      =   16853
 GePol: Maximum number of vertices in a tessera      =       9
 GePol: Cavity surface area                          =    226.558 Ang**2
 GePol: Cavity volume                                =    260.640 Ang**3
 Leave Link  301 at Mon Aug  3 13:32:12 2020, MaxMem=  6442450944 cpu:               9.0 elap:               0.4
 (Enter /scratch/scicomp/CentOS/7.3.1611/Haswell/software/Gaussian/g16/l302.exe)
 NPDir=0 NMtPBC=     1 NCelOv=     1 NCel=       1 NClECP=     1 NCelD=      1
         NCelK=      1 NCelE2=     1 NClLst=     1 CellRange=     0.0.
 One-electron integrals computed using PRISM.
   1 Symmetry operations used in ECPInt.
 ECPInt:  NShTT=   19306 NPrTT=   56928 LenC2=   18449 LenP2D=   41557.
 LDataN:  DoStor=T MaxTD1= 6 Len=  172
 NBasis=   528 RedAO= T EigKep=  2.14D-05  NBF=   528
 NBsUse=   528 1.00D-06 EigRej= -1.00D+00 NBFU=   528
 Precomputing XC quadrature grid using
 IXCGrd= 4 IRadAn=           5 IRanWt=          -1 IRanGd=           0 AccXCQ= 0.00D+00.
 Generated NRdTot=       0 NPtTot=           0 NUsed=           0 NTot=          32
 NSgBfM=   526   526   526   526   526 MxSgAt=    28 MxSgA2=    28.
 Leave Link  302 at Mon Aug  3 13:32:13 2020, MaxMem=  6442450944 cpu:              13.2 elap:               0.6
 (Enter /scratch/scicomp/CentOS/7.3.1611/Haswell/software/Gaussian/g16/l303.exe)
 DipDrv:  MaxL=1.
 Leave Link  303 at Mon Aug  3 13:32:13 2020, MaxMem=  6442450944 cpu:               1.5 elap:               0.1
 (Enter /scratch/scicomp/CentOS/7.3.1611/Haswell/software/Gaussian/g16/l401.exe)
 ExpMin= 9.52D-02 ExpMax= 1.36D+04 ExpMxC= 4.63D+02 IAcc=3 IRadAn=         5 AccDes= 0.00D+00
 Harris functional with IExCor= 4639 and IRadAn=       5 diagonalized for initial guess.
 HarFok:  IExCor= 4639 AccDes= 0.00D+00 IRadAn=         5 IDoV= 1 UseB2=F ITyADJ=14
 ICtDFT=  3500011 ScaDFX=  1.000000  1.000000  1.000000  1.000000
 FoFCou: FMM=F IPFlag=           0 FMFlag=      100000 FMFlg1=           0
         NFxFlg=           0 DoJE=T BraDBF=F KetDBF=T FulRan=T
         wScrn=  0.000000 ICntrl=       500 IOpCl=  0 I1Cent=   200000004 NGrid=           0
         NMat0=    1 NMatS0=      1 NMatT0=    0 NMatD0=    1 NMtDS0=    0 NMtDT0=    0
 Symmetry not used in FoFCou.
 Harris En= -444.661717998556    
 JPrj=0 DoOrth=F DoCkMO=T.
 Mixing orbitals, IMix= 1 IMixAn=  0 NRI=1 NE=   44 Coef=  7.07106781D-01  7.07106781D-01
 Mixing orbitals, IMix= 1 IMixAn=  0 NRI=1 NE=   44 Coef= -7.07106781D-01  7.07106781D-01
 Initial guess <Sx>= 0.0000 <Sy>= 0.0000 <Sz>= 0.0000 <S**2>= 1.0000 S= 0.6180
 Leave Link  401 at Mon Aug  3 13:32:15 2020, MaxMem=  6442450944 cpu:              49.4 elap:               2.1
 (Enter /scratch/scicomp/CentOS/7.3.1611/Haswell/software/Gaussian/g16/l502.exe)
 Two-electron integral symmetry not used.
 UHF open shell SCF:
 Using DIIS extrapolation, IDIIS=  1040.
 NGot=  6442450944 LenX=  6441877030 LenY=  6441597718
 Requested convergence on RMS density matrix=1.00D-08 within 128 cycles.
 Requested convergence on MAX density matrix=1.00D-06.
 Requested convergence on             energy=1.00D-06.
 No special actions if energy rises.
 Fock matrices will be formed incrementally for  20 cycles.

 Cycle   1  Pass 1  IDiag  1:
 FoFJK:  IHMeth= 1 ICntrl=       0 DoSepK=T KAlg= 0 I1Cent=           0 FoldK=F
 IRaf=         1 NMat=       1 IRICut=       1 DoRegI=T DoRafI=F ISym2E= 0 IDoP0=0 IntGTp=1.
 FoFCou: FMM=F IPFlag=           0 FMFlag=      100000 FMFlg1=           0
         NFxFlg=           0 DoJE=T BraDBF=F KetDBF=F FulRan=T
         wScrn=  0.000000 ICntrl=       500 IOpCl=  0 I1Cent=           0 NGrid=           0
         NMat0=    1 NMatS0=      1 NMatT0=    0 NMatD0=    1 NMtDS0=    0 NMtDT0=    0
 Symmetry not used in FoFCou.
 Inv3:  Mode=1 IEnd=    68287323.
 Iteration    1 A*A^-1 deviation from unit magnitude is 1.58D-13 for   2385.
 Iteration    1 A*A^-1 deviation from orthogonality  is 1.89D-13 for   3459   2385.
 Iteration    1 A^-1*A deviation from unit magnitude is 8.72D-14 for   3459.
 Iteration    1 A^-1*A deviation from orthogonality  is 1.04D-13 for   3459   2385.
 E= -466.570068763189    
 DIIS: error= 5.41D-02 at cycle   1 NSaved=   1.
 NSaved= 1 IEnMin= 1 EnMin= -466.570068763189     IErMin= 1 ErrMin= 5.41D-02
 ErrMax= 5.41D-02  0.00D+00 EMaxC= 1.00D-01 BMatC= 4.12D+00 BMatP= 4.12D+00
 IDIUse=3 WtCom= 4.59D-01 WtEn= 5.41D-01
 Coeff-Com:  0.100D+01
 Coeff-En:   0.100D+01
 Coeff:      0.100D+01
 Gap=     0.178 Goal=   None    Shift=    0.000
 Gap=     0.178 Goal=   None    Shift=    0.000
 GapD=    0.178 DampG=1.000 DampE=0.500 DampFc=0.5000 IDamp=-1.
 Damping current iteration by 5.00D-01
 RMSDP=1.68D-03 MaxDP=9.35D-02              OVMax= 3.71D-01

 Cycle   2  Pass 1  IDiag  1:
 RMSU=  7.97D-04    CP:  9.59D-01
 E= -466.687285790152     Delta-E=       -0.117217026963 Rises=F Damp=T
 DIIS: error= 2.56D-02 at cycle   2 NSaved=   2.
 NSaved= 2 IEnMin= 2 EnMin= -466.687285790152     IErMin= 2 ErrMin= 2.56D-02
 ErrMax= 2.56D-02  0.00D+00 EMaxC= 1.00D-01 BMatC= 9.38D-01 BMatP= 4.12D+00
 IDIUse=3 WtCom= 7.44D-01 WtEn= 2.56D-01
 Coeff-Com: -0.868D+00 0.187D+01
 Coeff-En:   0.000D+00 0.100D+01
 Coeff:     -0.646D+00 0.165D+01
 Gap=     0.287 Goal=   None    Shift=    0.000
 Gap=     0.287 Goal=   None    Shift=    0.000
 RMSDP=1.21D-03 MaxDP=4.89D-02 DE=-1.17D-01 OVMax= 1.39D-01

 Cycle   3  Pass 1  IDiag  1:
 RMSU=  6.13D-04    CP:  8.98D-01  2.21D+00
 E= -466.841220833092     Delta-E=       -0.153935042940 Rises=F Damp=F
 DIIS: error= 7.83D-03 at cycle   3 NSaved=   3.
 NSaved= 3 IEnMin= 3 EnMin= -466.841220833092     IErMin= 3 ErrMin= 7.83D-03
 ErrMax= 7.83D-03  0.00D+00 EMaxC= 1.00D-01 BMatC= 2.38D-02 BMatP= 9.38D-01
 IDIUse=3 WtCom= 9.22D-01 WtEn= 7.83D-02
 Coeff-Com: -0.310D+00 0.665D+00 0.645D+00
 Coeff-En:   0.000D+00 0.000D+00 0.100D+01
 Coeff:     -0.286D+00 0.613D+00 0.673D+00
 Gap=     0.310 Goal=   None    Shift=    0.000
 Gap=     0.310 Goal=   None    Shift=    0.000
 RMSDP=2.03D-04 MaxDP=9.09D-03 DE=-1.54D-01 OVMax= 6.33D-02

 Cycle   4  Pass 1  IDiag  1:
 RMSU=  1.82D-04    CP:  8.91D-01  2.30D+00  1.01D+00
 E= -466.851777995749     Delta-E=       -0.010557162657 Rises=F Damp=F
 DIIS: error= 5.04D-03 at cycle   4 NSaved=   4.
 NSaved= 4 IEnMin= 4 EnMin= -466.851777995749     IErMin= 4 ErrMin= 5.04D-03
 ErrMax= 5.04D-03  0.00D+00 EMaxC= 1.00D-01 BMatC= 1.99D-03 BMatP= 2.38D-02
 IDIUse=3 WtCom= 9.50D-01 WtEn= 5.04D-02
 Coeff-Com:  0.151D+00-0.324D+00-0.825D-01 0.126D+01
 Coeff-En:   0.000D+00 0.000D+00 0.000D+00 0.100D+01
 Coeff:      0.144D+00-0.308D+00-0.783D-01 0.124D+01
 Gap=     0.321 Goal=   None    Shift=    0.000
 Gap=     0.321 Goal=   None    Shift=    0.000
 RMSDP=2.05D-04 MaxDP=9.95D-03 DE=-1.06D-02 OVMax= 7.47D-02

 Cycle   5  Pass 1  IDiag  1:
 RMSU=  7.92D-05    CP:  8.84D-01  2.36D+00  1.23D+00  1.63D+00
 E= -466.856216708273     Delta-E=       -0.004438712524 Rises=F Damp=F
 DIIS: error= 2.12D-03 at cycle   5 NSaved=   5.
 NSaved= 5 IEnMin= 5 EnMin= -466.856216708273     IErMin= 5 ErrMin= 2.12D-03
 ErrMax= 2.12D-03  0.00D+00 EMaxC= 1.00D-01 BMatC= 7.26D-04 BMatP= 1.99D-03
 IDIUse=3 WtCom= 9.79D-01 WtEn= 2.12D-02
 Coeff-Com:  0.434D-01-0.933D-01-0.517D-01 0.226D+00 0.875D+00
 Coeff-En:   0.000D+00 0.000D+00 0.000D+00 0.000D+00 0.100D+01
 Coeff:      0.425D-01-0.913D-01-0.506D-01 0.222D+00 0.878D+00
 Gap=     0.322 Goal=   None    Shift=    0.000
 Gap=     0.322 Goal=   None    Shift=    0.000
 RMSDP=6.88D-05 MaxDP=2.64D-03 DE=-4.44D-03 OVMax= 2.64D-02

 Cycle   6  Pass 1  IDiag  1:
 RMSU=  3.01D-05    CP:  8.83D-01  2.37D+00  1.26D+00  1.88D+00  1.43D+00
 E= -466.857520043638     Delta-E=       -0.001303335365 Rises=F Damp=F
 DIIS: error= 1.46D-03 at cycle   6 NSaved=   6.
 NSaved= 6 IEnMin= 6 EnMin= -466.857520043638     IErMin= 6 ErrMin= 1.46D-03
 ErrMax= 1.46D-03  0.00D+00 EMaxC= 1.00D-01 BMatC= 4.92D-04 BMatP= 7.26D-04
 IDIUse=3 WtCom= 9.85D-01 WtEn= 1.46D-02
 Coeff-Com: -0.855D-01 0.183D+00 0.561D-01-0.652D+00 0.137D+00 0.136D+01
 Coeff-En:   0.000D+00 0.000D+00 0.000D+00 0.000D+00 0.000D+00 0.100D+01
 Coeff:     -0.843D-01 0.181D+00 0.553D-01-0.642D+00 0.135D+00 0.136D+01
 Gap=     0.319 Goal=   None    Shift=    0.000
 Gap=     0.319 Goal=   None    Shift=    0.000
 RMSDP=9.34D-05 MaxDP=3.80D-03 DE=-1.30D-03 OVMax= 3.57D-02

 Cycle   7  Pass 1  IDiag  1:
 RMSU=  2.82D-05    CP:  8.81D-01  2.37D+00  1.30D+00  2.15D+00  2.15D+00
                    CP:  2.35D+00
 E= -466.859059837656     Delta-E=       -0.001539794018 Rises=F Damp=F
 DIIS: error= 1.07D-03 at cycle   7 NSaved=   7.
 NSaved= 7 IEnMin= 7 EnMin= -466.859059837656     IErMin= 7 ErrMin= 1.07D-03
 ErrMax= 1.07D-03  0.00D+00 EMaxC= 1.00D-01 BMatC= 2.42D-04 BMatP= 4.92D-04
 IDIUse=3 WtCom= 9.89D-01 WtEn= 1.07D-02
 Coeff-Com: -0.252D-01 0.546D-01 0.410D-01-0.170D-01-0.838D+00-0.207D+00
 Coeff-Com:  0.199D+01
 Coeff-En:   0.000D+00 0.000D+00 0.000D+00 0.000D+00 0.000D+00 0.000D+00
 Coeff-En:   0.100D+01
 Coeff:     -0.249D-01 0.540D-01 0.406D-01-0.168D-01-0.829D+00-0.204D+00
 Coeff:      0.198D+01
 Gap=     0.319 Goal=   None    Shift=    0.000
 Gap=     0.319 Goal=   None    Shift=    0.000
 RMSDP=1.26D-04 MaxDP=5.76D-03 DE=-1.54D-03 OVMax= 4.74D-02

 Cycle   8  Pass 1  IDiag  1:
 RMSU=  5.66D-05    CP:  8.79D-01  2.37D+00  1.33D+00  2.45D+00  3.00D+00
                    CP:  3.00D+00  2.50D+00
 E= -466.860302016729     Delta-E=       -0.001242179073 Rises=F Damp=F
 DIIS: error= 3.61D-04 at cycle   8 NSaved=   8.
 NSaved= 8 IEnMin= 8 EnMin= -466.860302016729     IErMin= 8 ErrMin= 3.61D-04
 ErrMax= 3.61D-04  0.00D+00 EMaxC= 1.00D-01 BMatC= 5.10D-05 BMatP= 2.42D-04
 IDIUse=3 WtCom= 9.96D-01 WtEn= 3.61D-03
 Coeff-Com:  0.229D-01-0.491D-01-0.555D-02 0.246D+00-0.279D+00-0.562D+00
 Coeff-Com:  0.544D+00 0.108D+01
 Coeff-En:   0.000D+00 0.000D+00 0.000D+00 0.000D+00 0.000D+00 0.000D+00
 Coeff-En:   0.000D+00 0.100D+01
 Coeff:      0.228D-01-0.490D-01-0.553D-02 0.245D+00-0.278D+00-0.560D+00
 Coeff:      0.542D+00 0.108D+01
 Gap=     0.321 Goal=   None    Shift=    0.000
 Gap=     0.321 Goal=   None    Shift=    0.000
 RMSDP=5.19D-05 MaxDP=2.50D-03 DE=-1.24D-03 OVMax= 1.91D-02

 Cycle   9  Pass 1  IDiag  1:
 RMSU=  2.68D-05    CP:  8.78D-01  2.37D+00  1.34D+00  2.53D+00  3.00D+00
                    CP:  3.00D+00  3.00D+00  1.62D+00
 E= -466.860479825187     Delta-E=       -0.000177808458 Rises=F Damp=F
 DIIS: error= 1.03D-04 at cycle   9 NSaved=   9.
 NSaved= 9 IEnMin= 9 EnMin= -466.860479825187     IErMin= 9 ErrMin= 1.03D-04
 ErrMax= 1.03D-04  0.00D+00 EMaxC= 1.00D-01 BMatC= 6.97D-06 BMatP= 5.10D-05
 IDIUse=3 WtCom= 9.99D-01 WtEn= 1.03D-03
 Coeff-Com:  0.107D-01-0.231D-01-0.744D-02 0.740D-01 0.437D-01-0.127D+00
 Coeff-Com: -0.140D+00 0.252D+00 0.917D+00
 Coeff-En:   0.000D+00 0.000D+00 0.000D+00 0.000D+00 0.000D+00 0.000D+00
 Coeff-En:   0.000D+00 0.000D+00 0.100D+01
 Coeff:      0.107D-01-0.231D-01-0.744D-02 0.739D-01 0.436D-01-0.127D+00
 Coeff:     -0.140D+00 0.252D+00 0.917D+00
 Gap=     0.320 Goal=   None    Shift=    0.000
 Gap=     0.320 Goal=   None    Shift=    0.000
 RMSDP=1.27D-05 MaxDP=5.70D-04 DE=-1.78D-04 OVMax= 4.47D-03

 Cycle  10  Pass 1  IDiag  1:
 RMSU=  5.87D-06    CP:  8.78D-01  2.37D+00  1.35D+00  2.54D+00  3.00D+00
                    CP:  3.00D+00  3.00D+00  1.76D+00  1.27D+00
 E= -466.860491567892     Delta-E=       -0.000011742704 Rises=F Damp=F
 DIIS: error= 4.20D-05 at cycle  10 NSaved=  10.
 NSaved=10 IEnMin=10 EnMin= -466.860491567892     IErMin=10 ErrMin= 4.20D-05
 ErrMax= 4.20D-05  0.00D+00 EMaxC= 1.00D-01 BMatC= 9.73D-07 BMatP= 6.97D-06
 IDIUse=1 WtCom= 1.00D+00 WtEn= 0.00D+00
 Coeff-Com: -0.212D-02 0.458D-02-0.193D-03-0.316D-01 0.474D-01 0.779D-01
 Coeff-Com: -0.984D-01-0.185D+00 0.142D+00 0.104D+01
 Coeff:     -0.212D-02 0.458D-02-0.193D-03-0.316D-01 0.474D-01 0.779D-01
 Coeff:     -0.984D-01-0.185D+00 0.142D+00 0.104D+01
 Gap=     0.320 Goal=   None    Shift=    0.000
 Gap=     0.320 Goal=   None    Shift=    0.000
 RMSDP=4.97D-06 MaxDP=2.16D-04 DE=-1.17D-05 OVMax= 1.80D-03

 Cycle  11  Pass 1  IDiag  1:
 RMSU=  1.86D-06    CP:  8.78D-01  2.37D+00  1.35D+00  2.55D+00  3.00D+00
                    CP:  3.00D+00  3.00D+00  1.80D+00  1.38D+00  1.32D+00
 E= -466.860492924118     Delta-E=       -0.000001356226 Rises=F Damp=F
 DIIS: error= 1.48D-05 at cycle  11 NSaved=  11.
 NSaved=11 IEnMin=11 EnMin= -466.860492924118     IErMin=11 ErrMin= 1.48D-05
 ErrMax= 1.48D-05  0.00D+00 EMaxC= 1.00D-01 BMatC= 1.21D-07 BMatP= 9.73D-07
 IDIUse=1 WtCom= 1.00D+00 WtEn= 0.00D+00
 Coeff-Com: -0.638D-03 0.137D-02 0.933D-04-0.734D-02 0.682D-02 0.166D-01
 Coeff-Com: -0.965D-02-0.410D-01-0.170D-01 0.173D+00 0.877D+00
 Coeff:     -0.638D-03 0.137D-02 0.933D-04-0.734D-02 0.682D-02 0.166D-01
 Coeff:     -0.965D-02-0.410D-01-0.170D-01 0.173D+00 0.877D+00
 Gap=     0.320 Goal=   None    Shift=    0.000
 Gap=     0.320 Goal=   None    Shift=    0.000
 RMSDP=8.51D-07 MaxDP=3.46D-05 DE=-1.36D-06 OVMax= 1.42D-04

 Cycle  12  Pass 1  IDiag  1:
 RMSU=  6.13D-07    CP:  8.78D-01  2.37D+00  1.35D+00  2.55D+00  3.00D+00
                    CP:  3.00D+00  3.00D+00  1.80D+00  1.38D+00  1.30D+00
                    CP:  1.26D+00
 E= -466.860493018148     Delta-E=       -0.000000094031 Rises=F Damp=F
 DIIS: error= 1.01D-05 at cycle  12 NSaved=  12.
 NSaved=12 IEnMin=12 EnMin= -466.860493018148     IErMin=12 ErrMin= 1.01D-05
 ErrMax= 1.01D-05  0.00D+00 EMaxC= 1.00D-01 BMatC= 6.10D-08 BMatP= 1.21D-07
 IDIUse=1 WtCom= 1.00D+00 WtEn= 0.00D+00
 Coeff-Com:  0.407D-03-0.883D-03 0.237D-04 0.649D-02-0.995D-02-0.164D-01
 Coeff-Com:  0.236D-01 0.379D-01-0.475D-01-0.247D+00 0.393D+00 0.861D+00
 Coeff:      0.407D-03-0.883D-03 0.237D-04 0.649D-02-0.995D-02-0.164D-01
 Coeff:      0.236D-01 0.379D-01-0.475D-01-0.247D+00 0.393D+00 0.861D+00
 Gap=     0.320 Goal=   None    Shift=    0.000
 Gap=     0.320 Goal=   None    Shift=    0.000
 RMSDP=5.94D-07 MaxDP=2.58D-05 DE=-9.40D-08 OVMax= 1.12D-04

 Cycle  13  Pass 1  IDiag  1:
 RMSU=  2.90D-07    CP:  8.78D-01  2.37D+00  1.35D+00  2.55D+00  3.00D+00
                    CP:  3.00D+00  3.00D+00  1.79D+00  1.38D+00  1.28D+00
                    CP:  1.46D+00  1.51D+00
 E= -466.860493073691     Delta-E=       -0.000000055543 Rises=F Damp=F
 DIIS: error= 5.88D-06 at cycle  13 NSaved=  13.
 NSaved=13 IEnMin=13 EnMin= -466.860493073691     IErMin=13 ErrMin= 5.88D-06
 ErrMax= 5.88D-06  0.00D+00 EMaxC= 1.00D-01 BMatC= 1.18D-08 BMatP= 6.10D-08
 IDIUse=1 WtCom= 1.00D+00 WtEn= 0.00D+00
 Coeff-Com: -0.577D-04 0.126D-03 0.642D-04-0.513D-03 0.575D-03 0.728D-03
 Coeff-Com: -0.194D-02-0.124D-03 0.541D-02 0.299D-02-0.231D+00-0.793D-01
 Coeff-Com:  0.130D+01
 Coeff:     -0.577D-04 0.126D-03 0.642D-04-0.513D-03 0.575D-03 0.728D-03
 Coeff:     -0.194D-02-0.124D-03 0.541D-02 0.299D-02-0.231D+00-0.793D-01
 Coeff:      0.130D+01
 Gap=     0.320 Goal=   None    Shift=    0.000
 Gap=     0.320 Goal=   None    Shift=    0.000
 RMSDP=3.22D-07 MaxDP=1.82D-05 DE=-5.55D-08 OVMax= 8.42D-05

 Cycle  14  Pass 1  IDiag  1:
 RMSU=  2.21D-07    CP:  8.78D-01  2.37D+00  1.35D+00  2.55D+00  3.00D+00
                    CP:  3.00D+00  3.00D+00  1.79D+00  1.38D+00  1.29D+00
                    CP:  1.50D+00  1.75D+00  1.54D+00
 E= -466.860493097018     Delta-E=       -0.000000023327 Rises=F Damp=F
 DIIS: error= 3.21D-06 at cycle  14 NSaved=  14.
 NSaved=14 IEnMin=14 EnMin= -466.860493097018     IErMin=14 ErrMin= 3.21D-06
 ErrMax= 3.21D-06  0.00D+00 EMaxC= 1.00D-01 BMatC= 3.59D-09 BMatP= 1.18D-08
 IDIUse=1 WtCom= 1.00D+00 WtEn= 0.00D+00
 Coeff-Com: -0.157D-03 0.339D-03 0.404D-04-0.210D-02 0.276D-02 0.499D-02
 Coeff-Com: -0.709D-02-0.112D-01 0.160D-01 0.776D-01-0.172D+00-0.302D+00
 Coeff-Com:  0.168D+00 0.122D+01
 Coeff:     -0.157D-03 0.339D-03 0.404D-04-0.210D-02 0.276D-02 0.499D-02
 Coeff:     -0.709D-02-0.112D-01 0.160D-01 0.776D-01-0.172D+00-0.302D+00
 Coeff:      0.168D+00 0.122D+01
 Gap=     0.320 Goal=   None    Shift=    0.000
 Gap=     0.320 Goal=   None    Shift=    0.000
 RMSDP=2.42D-07 MaxDP=1.18D-05 DE=-2.33D-08 OVMax= 6.33D-05

 Cycle  15  Pass 1  IDiag  1:
 RMSU=  8.54D-08    CP:  8.78D-01  2.37D+00  1.35D+00  2.55D+00  3.00D+00
                    CP:  3.00D+00  3.00D+00  1.79D+00  1.38D+00  1.29D+00
                    CP:  1.51D+00  1.88D+00  1.95D+00  1.78D+00
 E= -466.860493104947     Delta-E=       -0.000000007930 Rises=F Damp=F
 DIIS: error= 1.08D-06 at cycle  15 NSaved=  15.
 NSaved=15 IEnMin=15 EnMin= -466.860493104947     IErMin=15 ErrMin= 1.08D-06
 ErrMax= 1.08D-06  0.00D+00 EMaxC= 1.00D-01 BMatC= 5.21D-10 BMatP= 3.59D-09
 IDIUse=1 WtCom= 1.00D+00 WtEn= 0.00D+00
 Coeff-Com:  0.171D-04-0.371D-04-0.261D-04 0.685D-04 0.108D-03 0.602D-04
 Coeff-Com: -0.446D-03-0.430D-03 0.207D-02 0.753D-02 0.226D-01-0.302D-01
 Coeff-Com: -0.264D+00 0.183D+00 0.108D+01
 Coeff:      0.171D-04-0.371D-04-0.261D-04 0.685D-04 0.108D-03 0.602D-04
 Coeff:     -0.446D-03-0.430D-03 0.207D-02 0.753D-02 0.226D-01-0.302D-01
 Coeff:     -0.264D+00 0.183D+00 0.108D+01
 Gap=     0.320 Goal=   None    Shift=    0.000
 Gap=     0.320 Goal=   None    Shift=    0.000
 RMSDP=1.03D-07 MaxDP=4.65D-06 DE=-7.93D-09 OVMax= 2.50D-05

 Cycle  16  Pass 1  IDiag  1:
 RMSU=  3.90D-08    CP:  8.78D-01  2.37D+00  1.35D+00  2.55D+00  3.00D+00
                    CP:  3.00D+00  3.00D+00  1.79D+00  1.38D+00  1.29D+00
                    CP:  1.51D+00  1.91D+00  2.09D+00  2.09D+00  1.49D+00
 E= -466.860493105845     Delta-E=       -0.000000000898 Rises=F Damp=F
 DIIS: error= 2.15D-07 at cycle  16 NSaved=  16.
 NSaved=16 IEnMin=16 EnMin= -466.860493105845     IErMin=16 ErrMin= 2.15D-07
 ErrMax= 2.15D-07  0.00D+00 EMaxC= 1.00D-01 BMatC= 5.20D-11 BMatP= 5.21D-10
 IDIUse=1 WtCom= 1.00D+00 WtEn= 0.00D+00
 Coeff-Com:  0.111D-04-0.239D-04-0.754D-05 0.136D-03-0.153D-03-0.274D-03
 Coeff-Com:  0.354D-03 0.667D-03-0.941D-03-0.439D-02 0.200D-01 0.184D-01
 Coeff-Com: -0.700D-01-0.730D-01 0.232D+00 0.878D+00
 Coeff:      0.111D-04-0.239D-04-0.754D-05 0.136D-03-0.153D-03-0.274D-03
 Coeff:      0.354D-03 0.667D-03-0.941D-03-0.439D-02 0.200D-01 0.184D-01
 Coeff:     -0.700D-01-0.730D-01 0.232D+00 0.878D+00
 Gap=     0.320 Goal=   None    Shift=    0.000
 Gap=     0.320 Goal=   None    Shift=    0.000
 RMSDP=2.44D-08 MaxDP=8.54D-07 DE=-8.98D-10 OVMax= 3.82D-06

 Cycle  17  Pass 1  IDiag  1:
 RMSU=  1.04D-08    CP:  8.78D-01  2.37D+00  1.35D+00  2.55D+00  3.00D+00
                    CP:  3.00D+00  3.00D+00  1.79D+00  1.38D+00  1.30D+00
                    CP:  1.51D+00  1.91D+00  2.10D+00  2.13D+00  1.61D+00
                    CP:  1.32D+00
 E= -466.860493105884     Delta-E=       -0.000000000039 Rises=F Damp=F
 DIIS: error= 9.41D-08 at cycle  17 NSaved=  17.
 NSaved=17 IEnMin=17 EnMin= -466.860493105884     IErMin=17 ErrMin= 9.41D-08
 ErrMax= 9.41D-08  0.00D+00 EMaxC= 1.00D-01 BMatC= 7.36D-12 BMatP= 5.20D-11
 IDIUse=1 WtCom= 1.00D+00 WtEn= 0.00D+00
 Coeff-Com: -0.348D-06 0.780D-06 0.140D-05 0.635D-05-0.297D-04-0.188D-04
 Coeff-Com:  0.737D-04 0.131D-03-0.479D-03-0.156D-02 0.362D-03 0.707D-02
 Coeff-Com:  0.265D-01-0.391D-01-0.122D+00 0.167D+00 0.962D+00
 Coeff:     -0.348D-06 0.780D-06 0.140D-05 0.635D-05-0.297D-04-0.188D-04
 Coeff:      0.737D-04 0.131D-03-0.479D-03-0.156D-02 0.362D-03 0.707D-02
 Coeff:      0.265D-01-0.391D-01-0.122D+00 0.167D+00 0.962D+00
 Gap=     0.320 Goal=   None    Shift=    0.000
 Gap=     0.320 Goal=   None    Shift=    0.000
 RMSDP=8.79D-09 MaxDP=2.80D-07 DE=-3.85D-11 OVMax= 1.31D-06

 Error on total polarization charges =  0.01172
 SCF Done:  E(UwB97XD) =  -466.860493106     A.U. after   17 cycles
            NFock= 17  Conv=0.88D-08     -V/T= 2.0059
 <Sx>= 0.0000 <Sy>= 0.0000 <Sz>= 0.0000 <S**2>= 0.0000 S= 0.0000
 <L.S>=  0.00000000000    
 KE= 4.641329128883D+02 PE=-2.414115289625D+03 EE= 8.169330364400D+02
 --------------------------------------------------------------------
 Variational PCM results
 =======================
 <psi(f)|   H    |psi(f)>                     (a.u.) =    -466.859012
 <psi(f)|H+V(f)/2|psi(f)>                     (a.u.) =    -466.860493
 (Polarized solute)-Solvent               (kcal/mol) =      -0.93
 --------------------------------------------------------------------
 Partition over spheres:
 Sphere  on Atom  Surface  Charge   GEl     GCav    GDR
    1      C1       7.50   0.012   -0.06    0.00    0.00
    2      C2       4.58   0.007   -0.04    0.00    0.00
    3      H3       7.52  -0.010   -0.04    0.00    0.00
    4      H4       3.69  -0.005   -0.02    0.00    0.00
    5      C5       4.68   0.007   -0.05    0.00    0.00
    6      C6       4.28   0.005   -0.03    0.00    0.00
    7      H7       5.91  -0.008   -0.04    0.00    0.00
    8      H8       4.56  -0.006   -0.02    0.00    0.00
    9      C9       3.86   0.002    0.00    0.00    0.00
   10      H10      7.15  -0.007   -0.01    0.00    0.00
   11      H11      4.16  -0.004   -0.01    0.00    0.00
   12      C12      6.61   0.010   -0.06    0.00    0.00
   13      H13      7.52  -0.010   -0.03    0.00    0.00
   14      C14      6.77   0.010   -0.05    0.00    0.00
   15      H15      7.51  -0.010   -0.04    0.00    0.00
   16      C16      3.60   0.002    0.00    0.00    0.00
   17      H17      2.36  -0.001   -0.00    0.00    0.00
   18      H18      7.34  -0.008   -0.03    0.00    0.00
   19      C19      5.10   0.009   -0.06    0.00    0.00
   20      H20      5.41  -0.008   -0.03    0.00    0.00
   21      C21      6.66   0.011   -0.07    0.00    0.00
   22      H22      7.51  -0.010   -0.03    0.00    0.00
   23      C23      3.59   0.002    0.00    0.00    0.00
   24      H24      3.42  -0.003   -0.01    0.00    0.00
   25      H25      7.15  -0.007   -0.01    0.00    0.00
   26      C26      3.68   0.002    0.00    0.00    0.00
   27      H27      7.45  -0.008   -0.03    0.00    0.00
   28      H28      2.32  -0.001   -0.00    0.00    0.00
 Added spheres:    74.66   0.018   -0.19    0.00    0.00
 --------------------------------------------------------------------
 After PCM corrections, the energy is  -466.860493106     a.u.
 --------------------------------------------------------------------
 Annihilation of the first spin contaminant:
 S**2 before annihilation     0.0000,   after     0.0000
 Leave Link  502 at Mon Aug  3 13:37:10 2020, MaxMem=  6442450944 cpu:            7003.8 elap:             294.7
 (Enter /scratch/scicomp/CentOS/7.3.1611/Haswell/software/Gaussian/g16/l601.exe)
 Copying SCF densities to generalized density rwf, IOpCl= 1 IROHF=0.

 **********************************************************************

            Population analysis using the SCF Density.

 **********************************************************************

 Alpha  occ. eigenvalues --  -10.28388 -10.28387 -10.28332 -10.28331 -10.28313
 Alpha  occ. eigenvalues --  -10.28312 -10.28255 -10.28253 -10.28018 -10.28016
 Alpha  occ. eigenvalues --  -10.27801 -10.27799  -0.94140  -0.93836  -0.84102
 Alpha  occ. eigenvalues --   -0.84092  -0.83968  -0.83762  -0.71286  -0.71221
 Alpha  occ. eigenvalues --   -0.67971  -0.67935  -0.59783  -0.59651  -0.57505
 Alpha  occ. eigenvalues --   -0.57050  -0.53336  -0.52688  -0.50923  -0.50865
 Alpha  occ. eigenvalues --   -0.50035  -0.49647  -0.47307  -0.47098  -0.45215
 Alpha  occ. eigenvalues --   -0.44923  -0.41220  -0.41123  -0.39622  -0.39317
 Alpha  occ. eigenvalues --   -0.39211  -0.39187  -0.29782  -0.28045
 Alpha virt. eigenvalues --    0.03966   0.04401   0.10534   0.12248   0.13257
 Alpha virt. eigenvalues --    0.14224   0.14447   0.15472   0.15544   0.15995
 Alpha virt. eigenvalues --    0.16893   0.16935   0.17115   0.18245   0.19858
 Alpha virt. eigenvalues --    0.20528   0.21494   0.22395   0.22566   0.23747
 Alpha virt. eigenvalues --    0.24988   0.25695   0.25942   0.26869   0.27538
 Alpha virt. eigenvalues --    0.28039   0.29038   0.29057   0.29615   0.30266
 Alpha virt. eigenvalues --    0.30943   0.31373   0.31531   0.31980   0.32707
 Alpha virt. eigenvalues --    0.32865   0.34312   0.34735   0.35020   0.37071
 Alpha virt. eigenvalues --    0.37497   0.37841   0.39766   0.40744   0.41102
 Alpha virt. eigenvalues --    0.41338   0.42804   0.43723   0.45041   0.45433
 Alpha virt. eigenvalues --    0.45667   0.46251   0.47283   0.47821   0.47936
 Alpha virt. eigenvalues --    0.48460   0.48763   0.49009   0.49640   0.49736
 Alpha virt. eigenvalues --    0.50406   0.50593   0.50909   0.51584   0.52141
 Alpha virt. eigenvalues --    0.52256   0.52872   0.54028   0.54206   0.54896
 Alpha virt. eigenvalues --    0.56723   0.56867   0.57185   0.59013   0.59092
 Alpha virt. eigenvalues --    0.59844   0.61267   0.62234   0.62940   0.63738
 Alpha virt. eigenvalues --    0.64348   0.66115   0.67630   0.68326   0.69353
 Alpha virt. eigenvalues --    0.70070   0.72604   0.72942   0.73570   0.75202
 Alpha virt. eigenvalues --    0.76224   0.78263   0.78331   0.79499   0.81292
 Alpha virt. eigenvalues --    0.81545   0.82392   0.83867   0.85233   0.85417
 Alpha virt. eigenvalues --    0.86230   0.88968   0.90675   0.90844   0.92494
 Alpha virt. eigenvalues --    0.92901   0.94970   0.95735   0.98132   0.98822
 Alpha virt. eigenvalues --    1.00931   1.02314   1.03685   1.03696   1.04044
 Alpha virt. eigenvalues --    1.06412   1.07386   1.08423   1.09741   1.10916
 Alpha virt. eigenvalues --    1.12377   1.12654   1.14062   1.14738   1.15552
 Alpha virt. eigenvalues --    1.15871   1.15958   1.17011   1.19077   1.20072
 Alpha virt. eigenvalues --    1.21195   1.22381   1.22637   1.23674   1.24288
 Alpha virt. eigenvalues --    1.24635   1.25642   1.26375   1.27480   1.28862
 Alpha virt. eigenvalues --    1.29227   1.29981   1.32015   1.32017   1.33040
 Alpha virt. eigenvalues --    1.34442   1.34644   1.35079   1.37002   1.38013
 Alpha virt. eigenvalues --    1.38865   1.39071   1.40203   1.40696   1.41444
 Alpha virt. eigenvalues --    1.42092   1.42252   1.43442   1.44655   1.45312
 Alpha virt. eigenvalues --    1.45598   1.45997   1.46296   1.47116   1.47574
 Alpha virt. eigenvalues --    1.49621   1.50644   1.52329   1.52556   1.55323
 Alpha virt. eigenvalues --    1.56378   1.56812   1.57198   1.58291   1.60113
 Alpha virt. eigenvalues --    1.60720   1.62081   1.62442   1.64378   1.64887
 Alpha virt. eigenvalues --    1.68498   1.69032   1.69214   1.70840   1.74654
 Alpha virt. eigenvalues --    1.75723   1.79382   1.80734   1.81998   1.82414
 Alpha virt. eigenvalues --    1.87226   1.88100   1.88267   1.89143   1.90963
 Alpha virt. eigenvalues --    1.91749   1.95924   1.99956   2.00883   2.01851
 Alpha virt. eigenvalues --    2.03752   2.04411   2.06030   2.07246   2.08892
 Alpha virt. eigenvalues --    2.09023   2.11761   2.12214   2.13154   2.15102
 Alpha virt. eigenvalues --    2.18934   2.18966   2.20059   2.20235   2.21945
 Alpha virt. eigenvalues --    2.22803   2.22918   2.23463   2.24512   2.25853
 Alpha virt. eigenvalues --    2.28706   2.30762   2.37103   2.37912   2.39760
 Alpha virt. eigenvalues --    2.41710   2.45749   2.47374   2.48426   2.49000
 Alpha virt. eigenvalues --    2.49933   2.50015   2.51114   2.54097   2.54733
 Alpha virt. eigenvalues --    2.55876   2.57054   2.57468   2.59730   2.59863
 Alpha virt. eigenvalues --    2.61703   2.63499   2.64230   2.65150   2.66652
 Alpha virt. eigenvalues --    2.67627   2.68960   2.69574   2.71966   2.72151
 Alpha virt. eigenvalues --    2.73170   2.73188   2.75212   2.75683   2.76054
 Alpha virt. eigenvalues --    2.77053   2.78265   2.78783   2.79648   2.80627
 Alpha virt. eigenvalues --    2.80644   2.81474   2.82729   2.83529   2.83631
 Alpha virt. eigenvalues --    2.85071   2.85260   2.86333   2.88576   2.88723
 Alpha virt. eigenvalues --    2.89427   2.89722   2.91811   2.92364   2.92641
 Alpha virt. eigenvalues --    2.93632   2.94499   2.94561   2.95688   2.99046
 Alpha virt. eigenvalues --    3.00764   3.01658   3.02991   3.03232   3.06575
 Alpha virt. eigenvalues --    3.06642   3.07622   3.08116   3.09424   3.10420
 Alpha virt. eigenvalues --    3.11424   3.11755   3.12324   3.13671   3.14606
 Alpha virt. eigenvalues --    3.14828   3.16524   3.16939   3.18293   3.18397
 Alpha virt. eigenvalues --    3.19141   3.19284   3.19759   3.20552   3.20920
 Alpha virt. eigenvalues --    3.21702   3.22403   3.23231   3.23572   3.24034
 Alpha virt. eigenvalues --    3.24910   3.25364   3.27252   3.28079   3.28183
 Alpha virt. eigenvalues --    3.28696   3.28743   3.29656   3.30915   3.31270
 Alpha virt. eigenvalues --    3.32561   3.33015   3.33377   3.33815   3.34215
 Alpha virt. eigenvalues --    3.34474   3.34904   3.36002   3.37922   3.38152
 Alpha virt. eigenvalues --    3.38977   3.39147   3.41369   3.42359   3.43536
 Alpha virt. eigenvalues --    3.44778   3.45925   3.46082   3.46967   3.47154
 Alpha virt. eigenvalues --    3.47563   3.48145   3.48923   3.49406   3.50388
 Alpha virt. eigenvalues --    3.51359   3.51429   3.51728   3.52297   3.53658
 Alpha virt. eigenvalues --    3.55086   3.55594   3.59765   3.60307   3.60575
 Alpha virt. eigenvalues --    3.62718   3.63435   3.63919   3.64277   3.64552
 Alpha virt. eigenvalues --    3.67266   3.68149   3.69030   3.70880   3.71166
 Alpha virt. eigenvalues --    3.73243   3.75166   3.76146   3.76626   3.76843
 Alpha virt. eigenvalues --    3.83233   3.83955   3.84900   3.85947   3.85967
 Alpha virt. eigenvalues --    3.86877   3.88060   3.89068   3.92165   3.92961
 Alpha virt. eigenvalues --    3.93466   3.95019   3.98538   3.98790   4.00995
 Alpha virt. eigenvalues --    4.03275   4.07815   4.09197   4.09772   4.10424
 Alpha virt. eigenvalues --    4.11847   4.12086   4.13186   4.14526   4.18786
 Alpha virt. eigenvalues --    4.19609   4.20440   4.21513   4.22258   4.22751
 Alpha virt. eigenvalues --    4.24136   4.26421   4.30581   4.31133   4.33252
 Alpha virt. eigenvalues --    4.35613   4.35921   4.36948   4.39016   4.39077
 Alpha virt. eigenvalues --    4.44018   4.44690   4.45736   4.45842   4.46838
 Alpha virt. eigenvalues --    4.47727   4.59463   4.60071   4.60959   4.63186
 Alpha virt. eigenvalues --    4.69059   4.69756   4.71775   4.71814   4.73426
 Alpha virt. eigenvalues --    4.73826   4.75718   4.76781   4.78437   4.80656
 Alpha virt. eigenvalues --    4.82977   4.84215   4.88289   4.88943   4.93797
 Alpha virt. eigenvalues --    4.94514   4.94582   4.95279   5.04420   5.06836
 Alpha virt. eigenvalues --    5.08557   5.09565   5.17934   5.18567   5.23126
 Alpha virt. eigenvalues --    5.23888   5.27994   5.30776   5.39473   5.39626
 Alpha virt. eigenvalues --    5.43607   5.44614   5.47263   5.48119   5.65743
 Alpha virt. eigenvalues --    5.69091   5.74222   5.75286   5.90783   5.94526
 Alpha virt. eigenvalues --    7.94157   7.95790   7.99796   8.02491   8.05847
 Alpha virt. eigenvalues --    8.07289   8.10956   8.11414   8.17006   8.17652
 Alpha virt. eigenvalues --    8.33117   8.35139  34.76224  34.77868  34.81198
 Alpha virt. eigenvalues --   34.81801  34.83286  34.86637  34.97316  34.97709
 Alpha virt. eigenvalues --   35.00100  35.00776  35.15129  35.17682
  Beta  occ. eigenvalues --  -10.28388 -10.28387 -10.28332 -10.28331 -10.28313
  Beta  occ. eigenvalues --  -10.28312 -10.28255 -10.28253 -10.28018 -10.28016
  Beta  occ. eigenvalues --  -10.27801 -10.27799  -0.94140  -0.93836  -0.84102
  Beta  occ. eigenvalues --   -0.84092  -0.83968  -0.83762  -0.71286  -0.71221
  Beta  occ. eigenvalues --   -0.67971  -0.67935  -0.59783  -0.59651  -0.57505
  Beta  occ. eigenvalues --   -0.57050  -0.53336  -0.52688  -0.50923  -0.50865
  Beta  occ. eigenvalues --   -0.50035  -0.49647  -0.47307  -0.47098  -0.45215
  Beta  occ. eigenvalues --   -0.44923  -0.41220  -0.41123  -0.39622  -0.39317
  Beta  occ. eigenvalues --   -0.39211  -0.39187  -0.29782  -0.28045
  Beta virt. eigenvalues --    0.03966   0.04401   0.10534   0.12248   0.13257
  Beta virt. eigenvalues --    0.14224   0.14447   0.15472   0.15544   0.15995
  Beta virt. eigenvalues --    0.16893   0.16935   0.17115   0.18245   0.19858
  Beta virt. eigenvalues --    0.20528   0.21494   0.22395   0.22566   0.23747
  Beta virt. eigenvalues --    0.24988   0.25695   0.25942   0.26869   0.27538
  Beta virt. eigenvalues --    0.28039   0.29038   0.29057   0.29615   0.30266
  Beta virt. eigenvalues --    0.30943   0.31373   0.31531   0.31980   0.32707
  Beta virt. eigenvalues --    0.32865   0.34312   0.34735   0.35020   0.37071
  Beta virt. eigenvalues --    0.37497   0.37841   0.39766   0.40744   0.41102
  Beta virt. eigenvalues --    0.41338   0.42804   0.43723   0.45041   0.45433
  Beta virt. eigenvalues --    0.45667   0.46251   0.47283   0.47821   0.47936
  Beta virt. eigenvalues --    0.48460   0.48763   0.49009   0.49640   0.49736
  Beta virt. eigenvalues --    0.50406   0.50593   0.50909   0.51584   0.52141
  Beta virt. eigenvalues --    0.52256   0.52872   0.54028   0.54206   0.54896
  Beta virt. eigenvalues --    0.56723   0.56867   0.57185   0.59013   0.59092
  Beta virt. eigenvalues --    0.59844   0.61267   0.62234   0.62940   0.63738
  Beta virt. eigenvalues --    0.64348   0.66115   0.67630   0.68326   0.69353
  Beta virt. eigenvalues --    0.70070   0.72604   0.72942   0.73570   0.75202
  Beta virt. eigenvalues --    0.76224   0.78263   0.78331   0.79499   0.81292
  Beta virt. eigenvalues --    0.81545   0.82392   0.83867   0.85233   0.85417
  Beta virt. eigenvalues --    0.86230   0.88968   0.90675   0.90844   0.92494
  Beta virt. eigenvalues --    0.92901   0.94970   0.95735   0.98132   0.98822
  Beta virt. eigenvalues --    1.00931   1.02314   1.03685   1.03696   1.04044
  Beta virt. eigenvalues --    1.06412   1.07386   1.08423   1.09741   1.10916
  Beta virt. eigenvalues --    1.12377   1.12654   1.14062   1.14738   1.15552
  Beta virt. eigenvalues --    1.15871   1.15958   1.17011   1.19077   1.20072
  Beta virt. eigenvalues --    1.21195   1.22381   1.22637   1.23674   1.24288
  Beta virt. eigenvalues --    1.24635   1.25642   1.26375   1.27480   1.28862
  Beta virt. eigenvalues --    1.29227   1.29981   1.32015   1.32017   1.33040
  Beta virt. eigenvalues --    1.34442   1.34644   1.35079   1.37002   1.38013
  Beta virt. eigenvalues --    1.38865   1.39071   1.40203   1.40696   1.41444
  Beta virt. eigenvalues --    1.42092   1.42252   1.43442   1.44655   1.45312
  Beta virt. eigenvalues --    1.45598   1.45997   1.46296   1.47116   1.47574
  Beta virt. eigenvalues --    1.49621   1.50644   1.52329   1.52556   1.55323
  Beta virt. eigenvalues --    1.56378   1.56812   1.57198   1.58291   1.60113
  Beta virt. eigenvalues --    1.60720   1.62081   1.62442   1.64378   1.64887
  Beta virt. eigenvalues --    1.68498   1.69032   1.69214   1.70840   1.74654
  Beta virt. eigenvalues --    1.75723   1.79382   1.80734   1.81998   1.82414
  Beta virt. eigenvalues --    1.87226   1.88100   1.88267   1.89143   1.90963
  Beta virt. eigenvalues --    1.91749   1.95924   1.99956   2.00883   2.01851
  Beta virt. eigenvalues --    2.03752   2.04411   2.06030   2.07246   2.08892
  Beta virt. eigenvalues --    2.09023   2.11761   2.12214   2.13154   2.15102
  Beta virt. eigenvalues --    2.18934   2.18966   2.20059   2.20235   2.21945
  Beta virt. eigenvalues --    2.22803   2.22918   2.23463   2.24512   2.25853
  Beta virt. eigenvalues --    2.28706   2.30762   2.37103   2.37912   2.39760
  Beta virt. eigenvalues --    2.41710   2.45749   2.47374   2.48426   2.49000
  Beta virt. eigenvalues --    2.49933   2.50015   2.51114   2.54097   2.54733
  Beta virt. eigenvalues --    2.55876   2.57054   2.57468   2.59730   2.59863
  Beta virt. eigenvalues --    2.61703   2.63499   2.64230   2.65150   2.66652
  Beta virt. eigenvalues --    2.67627   2.68960   2.69574   2.71966   2.72151
  Beta virt. eigenvalues --    2.73170   2.73188   2.75212   2.75683   2.76054
  Beta virt. eigenvalues --    2.77053   2.78265   2.78783   2.79648   2.80627
  Beta virt. eigenvalues --    2.80644   2.81474   2.82729   2.83529   2.83631
  Beta virt. eigenvalues --    2.85071   2.85260   2.86333   2.88576   2.88723
  Beta virt. eigenvalues --    2.89427   2.89722   2.91811   2.92364   2.92641
  Beta virt. eigenvalues --    2.93632   2.94499   2.94561   2.95688   2.99046
  Beta virt. eigenvalues --    3.00764   3.01658   3.02991   3.03232   3.06575
  Beta virt. eigenvalues --    3.06642   3.07622   3.08116   3.09424   3.10420
  Beta virt. eigenvalues --    3.11424   3.11755   3.12324   3.13671   3.14606
  Beta virt. eigenvalues --    3.14828   3.16524   3.16939   3.18293   3.18397
  Beta virt. eigenvalues --    3.19141   3.19284   3.19759   3.20552   3.20920
  Beta virt. eigenvalues --    3.21702   3.22403   3.23231   3.23572   3.24034
  Beta virt. eigenvalues --    3.24910   3.25364   3.27252   3.28079   3.28183
  Beta virt. eigenvalues --    3.28696   3.28743   3.29656   3.30915   3.31270
  Beta virt. eigenvalues --    3.32561   3.33015   3.33377   3.33815   3.34215
  Beta virt. eigenvalues --    3.34474   3.34904   3.36002   3.37922   3.38152
  Beta virt. eigenvalues --    3.38977   3.39147   3.41369   3.42359   3.43536
  Beta virt. eigenvalues --    3.44778   3.45925   3.46082   3.46967   3.47154
  Beta virt. eigenvalues --    3.47563   3.48145   3.48923   3.49406   3.50388
  Beta virt. eigenvalues --    3.51359   3.51429   3.51728   3.52297   3.53658
  Beta virt. eigenvalues --    3.55086   3.55594   3.59765   3.60307   3.60575
  Beta virt. eigenvalues --    3.62718   3.63435   3.63919   3.64277   3.64552
  Beta virt. eigenvalues --    3.67266   3.68149   3.69030   3.70880   3.71166
  Beta virt. eigenvalues --    3.73243   3.75166   3.76146   3.76626   3.76843
  Beta virt. eigenvalues --    3.83233   3.83955   3.84900   3.85947   3.85967
  Beta virt. eigenvalues --    3.86877   3.88060   3.89068   3.92165   3.92961
  Beta virt. eigenvalues --    3.93466   3.95019   3.98538   3.98790   4.00995
  Beta virt. eigenvalues --    4.03275   4.07815   4.09197   4.09772   4.10424
  Beta virt. eigenvalues --    4.11847   4.12086   4.13186   4.14526   4.18786
  Beta virt. eigenvalues --    4.19609   4.20440   4.21513   4.22258   4.22751
  Beta virt. eigenvalues --    4.24136   4.26421   4.30581   4.31133   4.33252
  Beta virt. eigenvalues --    4.35613   4.35921   4.36948   4.39016   4.39077
  Beta virt. eigenvalues --    4.44018   4.44690   4.45736   4.45842   4.46838
  Beta virt. eigenvalues --    4.47727   4.59463   4.60071   4.60959   4.63186
  Beta virt. eigenvalues --    4.69059   4.69756   4.71775   4.71814   4.73426
  Beta virt. eigenvalues --    4.73826   4.75718   4.76781   4.78437   4.80656
  Beta virt. eigenvalues --    4.82977   4.84215   4.88289   4.88943   4.93797
  Beta virt. eigenvalues --    4.94514   4.94582   4.95279   5.04420   5.06836
  Beta virt. eigenvalues --    5.08557   5.09565   5.17934   5.18567   5.23126
  Beta virt. eigenvalues --    5.23888   5.27994   5.30776   5.39473   5.39626
  Beta virt. eigenvalues --    5.43607   5.44614   5.47263   5.48119   5.65743
  Beta virt. eigenvalues --    5.69091   5.74222   5.75286   5.90783   5.94526
  Beta virt. eigenvalues --    7.94157   7.95790   7.99796   8.02491   8.05847
  Beta virt. eigenvalues --    8.07289   8.10956   8.11414   8.17006   8.17652
  Beta virt. eigenvalues --    8.33117   8.35139  34.76224  34.77868  34.81198
  Beta virt. eigenvalues --   34.81801  34.83286  34.86637  34.97316  34.97709
  Beta virt. eigenvalues --   35.00100  35.00776  35.15129  35.17682
          Condensed to atoms (all electrons):
               1          2          3          4          5          6
     1  C    5.121338   0.014865   0.421939  -0.001826   0.000018  -0.002511
     2  C    0.014865   5.187340  -0.001778   0.422353  -0.012505  -0.032417
     3  H    0.421939  -0.001778   0.497121   0.000036  -0.000045  -0.000059
     4  H   -0.001826   0.422353   0.000036   0.482981  -0.001107   0.000465
     5  C    0.000018  -0.012505  -0.000045  -0.001107   5.065142   0.567277
     6  C   -0.002511  -0.032417  -0.000059   0.000465   0.567277   5.187491
     7  H    0.000147  -0.000426  -0.000001  -0.000050   0.423234  -0.029141
     8  H    0.000114   0.000464   0.000018   0.000025  -0.041452   0.422359
     9  C    0.000798   0.000308   0.000001  -0.000296  -0.077254   0.289542
    10  H   -0.000002  -0.000306  -0.000001  -0.000032  -0.003512  -0.033290
    11  H    0.000121  -0.000620   0.000000  -0.000025   0.006435  -0.046462
    12  C   -0.000099   0.004567   0.000002   0.000902   0.320185  -0.077411
    13  H   -0.000000   0.000012   0.000000  -0.000011  -0.036668   0.004620
    14  C    0.000093  -0.002512  -0.000000   0.000113  -0.071428   0.014819
    15  H   -0.000000  -0.000059  -0.000000   0.000018   0.007035  -0.001775
    16  C   -0.000424   0.003216  -0.000001   0.000378   0.008104  -0.079031
    17  H   -0.000068  -0.001119  -0.000001  -0.000800   0.011446  -0.000689
    18  H   -0.000000   0.000647   0.000000   0.000044  -0.002065   0.010720
    19  C   -0.071453   0.567349   0.007042  -0.041440   0.002130  -0.012501
    20  H    0.003825  -0.029136  -0.000127  -0.005855   0.000054  -0.000426
    21  C    0.598677  -0.077432  -0.032893   0.005966   0.000201   0.004565
    22  H   -0.027184   0.004617  -0.006255  -0.000093   0.000006   0.000012
    23  C   -0.090214   0.289555   0.005233  -0.016781  -0.001284   0.000310
    24  H    0.011983  -0.046464  -0.000148  -0.004151   0.003308  -0.000619
    25  H    0.006810  -0.033287   0.000050   0.000185   0.000130  -0.000306
    26  C    0.292541  -0.079034  -0.029537   0.004297  -0.001199   0.003215
    27  H   -0.036323   0.010716  -0.004691  -0.000152   0.000385   0.000646
    28  H   -0.034075  -0.000684   0.001548  -0.000164  -0.001304  -0.001111
               7          8          9         10         11         12
     1  C    0.000147   0.000114   0.000798  -0.000002   0.000121  -0.000099
     2  C   -0.000426   0.000464   0.000308  -0.000306  -0.000620   0.004567
     3  H   -0.000001   0.000018   0.000001  -0.000001   0.000000   0.000002
     4  H   -0.000050   0.000025  -0.000296  -0.000032  -0.000025   0.000902
     5  C    0.423234  -0.041452  -0.077254  -0.003512   0.006435   0.320185
     6  C   -0.029141   0.422359   0.289542  -0.033290  -0.046462  -0.077411
     7  H    0.489106  -0.005854   0.003875  -0.000304  -0.000081  -0.031313
     8  H   -0.005854   0.482930  -0.016764   0.000183  -0.004150   0.005964
     9  C    0.003875  -0.016764   4.900417   0.381496   0.437229   0.032547
    10  H   -0.000304   0.000183   0.381496   0.581927  -0.021823   0.001848
    11  H   -0.000081  -0.004150   0.437229  -0.021823   0.546616  -0.003011
    12  C   -0.031313   0.005964   0.032547   0.001848  -0.003011   4.992638
    13  H   -0.003454  -0.000093  -0.000460  -0.000054   0.000039   0.424479
    14  C    0.003825  -0.001827  -0.090182   0.006814   0.011982   0.598733
    15  H   -0.000127   0.000036   0.005232   0.000050  -0.000148  -0.032824
    16  C   -0.000743   0.004297   0.384186  -0.029714  -0.045388  -0.067567
    17  H    0.000030  -0.000164  -0.037198   0.008047  -0.008511  -0.015890
    18  H    0.000040  -0.000152  -0.042137  -0.007983  -0.001725   0.005763
    19  C    0.000054  -0.001106  -0.001283   0.000130   0.003308   0.000199
    20  H    0.000005  -0.000050   0.000765   0.000044   0.000015  -0.000067
    21  C   -0.000067   0.000902  -0.000094   0.000023  -0.000607  -0.000110
    22  H   -0.000000  -0.000011  -0.000025  -0.000000  -0.000013   0.000000
    23  C    0.000766  -0.000296   0.000172  -0.000008   0.000030  -0.000094
    24  H    0.000015  -0.000025   0.000030   0.000005  -0.000013  -0.000607
    25  H    0.000044  -0.000032  -0.000008   0.000000   0.000005   0.000023
    26  C   -0.000743   0.000375  -0.000394   0.000012  -0.000033   0.000512
    27  H   -0.000014   0.000043  -0.000027   0.000001  -0.000001  -0.000052
    28  H    0.001352  -0.000799   0.000134  -0.000004   0.000028   0.000422
              13         14         15         16         17         18
     1  C   -0.000000   0.000093  -0.000000  -0.000424  -0.000068  -0.000000
     2  C    0.000012  -0.002512  -0.000059   0.003216  -0.001119   0.000647
     3  H    0.000000  -0.000000  -0.000000  -0.000001  -0.000001   0.000000
     4  H   -0.000011   0.000113   0.000018   0.000378  -0.000800   0.000044
     5  C   -0.036668  -0.071428   0.007035   0.008104   0.011446  -0.002065
     6  C    0.004620   0.014819  -0.001775  -0.079031  -0.000689   0.010720
     7  H   -0.003454   0.003825  -0.000127  -0.000743   0.000030   0.000040
     8  H   -0.000093  -0.001827   0.000036   0.004297  -0.000164  -0.000152
     9  C   -0.000460  -0.090182   0.005232   0.384186  -0.037198  -0.042137
    10  H   -0.000054   0.006814   0.000050  -0.029714   0.008047  -0.007983
    11  H    0.000039   0.011982  -0.000148  -0.045388  -0.008511  -0.001725
    12  C    0.424479   0.598733  -0.032824  -0.067567  -0.015890   0.005763
    13  H    0.495240  -0.027157  -0.006255   0.004702  -0.000392  -0.000136
    14  C   -0.027157   5.121318   0.421900   0.292513  -0.034074  -0.036347
    15  H   -0.006255   0.421900   0.497113  -0.029567   0.001548  -0.004691
    16  C    0.004702   0.292513  -0.029567   4.905956   0.395439   0.427421
    17  H   -0.000392  -0.034074   0.001548   0.395439   0.598139  -0.021840
    18  H   -0.000136  -0.036347  -0.004691   0.427421  -0.021840   0.547921
    19  C    0.000006   0.000018  -0.000045  -0.001196  -0.001299   0.000385
    20  H   -0.000000   0.000147  -0.000001  -0.000743   0.001351  -0.000014
    21  C    0.000000  -0.000099   0.000002   0.000512   0.000421  -0.000052
    22  H    0.000000  -0.000000   0.000000   0.000004  -0.000008  -0.000001
    23  C   -0.000026   0.000799   0.000001  -0.000394   0.000134  -0.000027
    24  H   -0.000013   0.000121   0.000000  -0.000033   0.000028  -0.000001
    25  H   -0.000000  -0.000002  -0.000001   0.000012  -0.000004   0.000001
    26  C    0.000004  -0.000425  -0.000001   0.000855   0.000130  -0.000001
    27  H   -0.000001  -0.000000   0.000000  -0.000001   0.000004  -0.000000
    28  H   -0.000008  -0.000069  -0.000001   0.000130  -0.000016   0.000004
              19         20         21         22         23         24
     1  C   -0.071453   0.003825   0.598677  -0.027184  -0.090214   0.011983
     2  C    0.567349  -0.029136  -0.077432   0.004617   0.289555  -0.046464
     3  H    0.007042  -0.000127  -0.032893  -0.006255   0.005233  -0.000148
     4  H   -0.041440  -0.005855   0.005966  -0.000093  -0.016781  -0.004151
     5  C    0.002130   0.000054   0.000201   0.000006  -0.001284   0.003308
     6  C   -0.012501  -0.000426   0.004565   0.000012   0.000310  -0.000619
     7  H    0.000054   0.000005  -0.000067  -0.000000   0.000766   0.000015
     8  H   -0.001106  -0.000050   0.000902  -0.000011  -0.000296  -0.000025
     9  C   -0.001283   0.000765  -0.000094  -0.000025   0.000172   0.000030
    10  H    0.000130   0.000044   0.000023  -0.000000  -0.000008   0.000005
    11  H    0.003308   0.000015  -0.000607  -0.000013   0.000030  -0.000013
    12  C    0.000199  -0.000067  -0.000110   0.000000  -0.000094  -0.000607
    13  H    0.000006  -0.000000   0.000000   0.000000  -0.000026  -0.000013
    14  C    0.000018   0.000147  -0.000099  -0.000000   0.000799   0.000121
    15  H   -0.000045  -0.000001   0.000002   0.000000   0.000001   0.000000
    16  C   -0.001196  -0.000743   0.000512   0.000004  -0.000394  -0.000033
    17  H   -0.001299   0.001351   0.000421  -0.000008   0.000134   0.000028
    18  H    0.000385  -0.000014  -0.000052  -0.000001  -0.000027  -0.000001
    19  C    5.065046   0.423242   0.320197  -0.036635  -0.077245   0.006431
    20  H    0.423242   0.489156  -0.031327  -0.003454   0.003876  -0.000081
    21  C    0.320197  -0.031327   4.992702   0.424476   0.032530  -0.003010
    22  H   -0.036635  -0.003454   0.424476   0.495238  -0.000459   0.000040
    23  C   -0.077245   0.003876   0.032530  -0.000459   4.900349   0.437207
    24  H    0.006431  -0.000081  -0.003010   0.000040   0.437207   0.546748
    25  H   -0.003518  -0.000304   0.001853  -0.000054   0.381507  -0.021831
    26  C    0.008116  -0.000745  -0.067549   0.004703   0.384219  -0.045389
    27  H   -0.002061   0.000040   0.005749  -0.000136  -0.042141  -0.001723
    28  H    0.011440   0.000030  -0.015882  -0.000392  -0.037196  -0.008514
              25         26         27         28
     1  C    0.006810   0.292541  -0.036323  -0.034075
     2  C   -0.033287  -0.079034   0.010716  -0.000684
     3  H    0.000050  -0.029537  -0.004691   0.001548
     4  H    0.000185   0.004297  -0.000152  -0.000164
     5  C    0.000130  -0.001199   0.000385  -0.001304
     6  C   -0.000306   0.003215   0.000646  -0.001111
     7  H    0.000044  -0.000743  -0.000014   0.001352
     8  H   -0.000032   0.000375   0.000043  -0.000799
     9  C   -0.000008  -0.000394  -0.000027   0.000134
    10  H    0.000000   0.000012   0.000001  -0.000004
    11  H    0.000005  -0.000033  -0.000001   0.000028
    12  C    0.000023   0.000512  -0.000052   0.000422
    13  H   -0.000000   0.000004  -0.000001  -0.000008
    14  C   -0.000002  -0.000425  -0.000000  -0.000069
    15  H   -0.000001  -0.000001   0.000000  -0.000001
    16  C    0.000012   0.000855  -0.000001   0.000130
    17  H   -0.000004   0.000130   0.000004  -0.000016
    18  H    0.000001  -0.000001  -0.000000   0.000004
    19  C   -0.003518   0.008116  -0.002061   0.011440
    20  H   -0.000304  -0.000745   0.000040   0.000030
    21  C    0.001853  -0.067549   0.005749  -0.015882
    22  H   -0.000054   0.004703  -0.000136  -0.000392
    23  C    0.381507   0.384219  -0.042141  -0.037196
    24  H   -0.021831  -0.045389  -0.001723  -0.008514
    25  H    0.581916  -0.029714  -0.007984   0.008047
    26  C   -0.029714   4.905857   0.427413   0.395430
    27  H   -0.007984   0.427413   0.547912  -0.021837
    28  H    0.008047   0.395430  -0.021837   0.598151
          Atomic-Atomic Spin Densities.
               1          2          3          4          5          6
     1  C   -0.000000  -0.000000   0.000000   0.000000   0.000000  -0.000000
     2  C   -0.000000  -0.000000   0.000000   0.000000  -0.000000   0.000000
     3  H    0.000000   0.000000   0.000000  -0.000000  -0.000000   0.000000
     4  H    0.000000   0.000000  -0.000000   0.000000   0.000000  -0.000000
     5  C    0.000000  -0.000000  -0.000000   0.000000  -0.000001   0.000000
     6  C   -0.000000   0.000000   0.000000  -0.000000   0.000000  -0.000000
     7  H   -0.000000   0.000000   0.000000  -0.000000  -0.000000  -0.000000
     8  H    0.000000   0.000000  -0.000000   0.000000  -0.000000  -0.000000
     9  C   -0.000000   0.000000  -0.000000  -0.000000  -0.000000   0.000000
    10  H    0.000000  -0.000000  -0.000000   0.000000  -0.000000   0.000000
    11  H    0.000000  -0.000000   0.000000   0.000000   0.000000  -0.000000
    12  C   -0.000000   0.000000  -0.000000  -0.000000   0.000000  -0.000000
    13  H    0.000000   0.000000   0.000000   0.000000   0.000000  -0.000000
    14  C   -0.000000   0.000000  -0.000000  -0.000000   0.000000   0.000000
    15  H    0.000000  -0.000000  -0.000000   0.000000  -0.000000  -0.000000
    16  C    0.000000   0.000000   0.000000   0.000000  -0.000000  -0.000000
    17  H    0.000000  -0.000000   0.000000   0.000000   0.000000   0.000000
    18  H   -0.000000  -0.000000   0.000000   0.000000   0.000000  -0.000000
    19  C   -0.000000  -0.000000   0.000000   0.000000   0.000000   0.000000
    20  H   -0.000000   0.000000   0.000000   0.000000   0.000000  -0.000000
    21  C    0.000000   0.000000  -0.000000  -0.000000   0.000000  -0.000000
    22  H   -0.000000   0.000000  -0.000000  -0.000000   0.000000  -0.000000
    23  C   -0.000000  -0.000000   0.000000  -0.000000   0.000000  -0.000000
    24  H   -0.000000   0.000000   0.000000   0.000000   0.000000   0.000000
    25  H   -0.000000  -0.000000   0.000000   0.000000  -0.000000   0.000000
    26  C    0.000000   0.000000   0.000000  -0.000000  -0.000000  -0.000000
    27  H    0.000000   0.000000  -0.000000   0.000000   0.000000   0.000000
    28  H    0.000000  -0.000000  -0.000000   0.000000  -0.000000   0.000000
               7          8          9         10         11         12
     1  C   -0.000000   0.000000  -0.000000   0.000000   0.000000  -0.000000
     2  C    0.000000   0.000000   0.000000  -0.000000  -0.000000   0.000000
     3  H    0.000000  -0.000000  -0.000000  -0.000000   0.000000  -0.000000
     4  H   -0.000000   0.000000  -0.000000   0.000000   0.000000  -0.000000
     5  C   -0.000000  -0.000000  -0.000000  -0.000000   0.000000   0.000000
     6  C   -0.000000  -0.000000   0.000000   0.000000  -0.000000  -0.000000
     7  H    0.000000  -0.000000   0.000000  -0.000000  -0.000000  -0.000000
     8  H   -0.000000  -0.000000   0.000000  -0.000000  -0.000000   0.000000
     9  C    0.000000   0.000000  -0.000001  -0.000000   0.000000  -0.000000
    10  H   -0.000000  -0.000000  -0.000000   0.000000  -0.000000   0.000000
    11  H   -0.000000  -0.000000   0.000000  -0.000000   0.000000  -0.000000
    12  C   -0.000000   0.000000  -0.000000   0.000000  -0.000000   0.000000
    13  H    0.000000   0.000000   0.000000  -0.000000  -0.000000  -0.000000
    14  C    0.000000  -0.000000   0.000000   0.000000   0.000000  -0.000000
    15  H   -0.000000   0.000000  -0.000000  -0.000000  -0.000000   0.000000
    16  C   -0.000000   0.000000   0.000000  -0.000000  -0.000000   0.000000
    17  H   -0.000000  -0.000000   0.000000   0.000000  -0.000000   0.000000
    18  H    0.000000  -0.000000   0.000000   0.000000  -0.000000  -0.000000
    19  C    0.000000  -0.000000  -0.000000   0.000000  -0.000000  -0.000000
    20  H   -0.000000   0.000000  -0.000000  -0.000000   0.000000   0.000000
    21  C   -0.000000   0.000000  -0.000000  -0.000000   0.000000   0.000000
    22  H    0.000000  -0.000000  -0.000000  -0.000000   0.000000   0.000000
    23  C    0.000000   0.000000   0.000000   0.000000   0.000000   0.000000
    24  H   -0.000000  -0.000000  -0.000000   0.000000   0.000000  -0.000000
    25  H    0.000000  -0.000000  -0.000000   0.000000  -0.000000   0.000000
    26  C   -0.000000  -0.000000   0.000000   0.000000  -0.000000  -0.000000
    27  H   -0.000000  -0.000000  -0.000000   0.000000  -0.000000  -0.000000
    28  H    0.000000  -0.000000   0.000000   0.000000  -0.000000  -0.000000
              13         14         15         16         17         18
     1  C    0.000000  -0.000000   0.000000   0.000000   0.000000  -0.000000
     2  C    0.000000   0.000000  -0.000000   0.000000  -0.000000  -0.000000
     3  H    0.000000  -0.000000  -0.000000   0.000000   0.000000   0.000000
     4  H    0.000000  -0.000000   0.000000   0.000000   0.000000   0.000000
     5  C    0.000000   0.000000  -0.000000  -0.000000   0.000000   0.000000
     6  C   -0.000000   0.000000  -0.000000  -0.000000   0.000000  -0.000000
     7  H    0.000000   0.000000  -0.000000  -0.000000  -0.000000   0.000000
     8  H    0.000000  -0.000000   0.000000   0.000000  -0.000000  -0.000000
     9  C    0.000000   0.000000  -0.000000   0.000000   0.000000   0.000000
    10  H   -0.000000   0.000000  -0.000000  -0.000000   0.000000   0.000000
    11  H   -0.000000   0.000000  -0.000000  -0.000000  -0.000000  -0.000000
    12  C   -0.000000  -0.000000   0.000000   0.000000   0.000000  -0.000000
    13  H   -0.000000   0.000000   0.000000  -0.000000  -0.000000   0.000000
    14  C    0.000000   0.000001  -0.000000  -0.000000  -0.000000  -0.000000
    15  H    0.000000  -0.000000  -0.000000  -0.000000   0.000000   0.000000
    16  C   -0.000000  -0.000000  -0.000000   0.000001  -0.000000  -0.000000
    17  H   -0.000000  -0.000000   0.000000  -0.000000   0.000000   0.000000
    18  H    0.000000  -0.000000   0.000000  -0.000000   0.000000  -0.000000
    19  C   -0.000000  -0.000000   0.000000   0.000000   0.000000  -0.000000
    20  H   -0.000000   0.000000  -0.000000   0.000000  -0.000000   0.000000
    21  C   -0.000000   0.000000   0.000000   0.000000   0.000000   0.000000
    22  H   -0.000000  -0.000000  -0.000000   0.000000  -0.000000   0.000000
    23  C    0.000000   0.000000   0.000000  -0.000000  -0.000000   0.000000
    24  H   -0.000000  -0.000000  -0.000000   0.000000   0.000000   0.000000
    25  H    0.000000  -0.000000   0.000000  -0.000000  -0.000000  -0.000000
    26  C   -0.000000  -0.000000  -0.000000   0.000000   0.000000   0.000000
    27  H   -0.000000   0.000000  -0.000000  -0.000000   0.000000  -0.000000
    28  H    0.000000  -0.000000  -0.000000  -0.000000  -0.000000  -0.000000
              19         20         21         22         23         24
     1  C   -0.000000  -0.000000   0.000000  -0.000000  -0.000000  -0.000000
     2  C   -0.000000   0.000000   0.000000   0.000000  -0.000000   0.000000
     3  H    0.000000   0.000000  -0.000000  -0.000000   0.000000   0.000000
     4  H    0.000000   0.000000  -0.000000  -0.000000  -0.000000   0.000000
     5  C    0.000000   0.000000   0.000000   0.000000   0.000000   0.000000
     6  C    0.000000  -0.000000  -0.000000  -0.000000  -0.000000   0.000000
     7  H    0.000000  -0.000000  -0.000000   0.000000   0.000000  -0.000000
     8  H   -0.000000   0.000000   0.000000  -0.000000   0.000000  -0.000000
     9  C   -0.000000  -0.000000  -0.000000  -0.000000   0.000000  -0.000000
    10  H    0.000000  -0.000000  -0.000000  -0.000000   0.000000   0.000000
    11  H   -0.000000   0.000000   0.000000   0.000000   0.000000   0.000000
    12  C   -0.000000   0.000000   0.000000   0.000000   0.000000  -0.000000
    13  H   -0.000000  -0.000000  -0.000000  -0.000000   0.000000  -0.000000
    14  C   -0.000000   0.000000   0.000000  -0.000000   0.000000  -0.000000
    15  H    0.000000  -0.000000   0.000000  -0.000000   0.000000  -0.000000
    16  C    0.000000   0.000000   0.000000   0.000000  -0.000000   0.000000
    17  H    0.000000  -0.000000   0.000000  -0.000000  -0.000000   0.000000
    18  H   -0.000000   0.000000   0.000000   0.000000   0.000000   0.000000
    19  C    0.000001   0.000000  -0.000000  -0.000000  -0.000000  -0.000000
[...]
     1  C   -0.000000   0.000000   0.000000   0.000000
     2  C   -0.000000   0.000000   0.000000  -0.000000
     3  H    0.000000   0.000000  -0.000000  -0.000000
     4  H    0.000000  -0.000000   0.000000   0.000000
     5  C   -0.000000  -0.000000   0.000000  -0.000000
     6  C    0.000000  -0.000000   0.000000   0.000000
     7  H    0.000000  -0.000000  -0.000000   0.000000
     8  H   -0.000000  -0.000000  -0.000000  -0.000000
     9  C   -0.000000   0.000000  -0.000000   0.000000
    10  H    0.000000   0.000000   0.000000   0.000000
    11  H   -0.000000  -0.000000  -0.000000  -0.000000
    12  C    0.000000  -0.000000  -0.000000  -0.000000
    13  H    0.000000  -0.000000  -0.000000   0.000000
    14  C   -0.000000  -0.000000   0.000000  -0.000000
    15  H    0.000000  -0.000000  -0.000000  -0.000000
    16  C   -0.000000   0.000000  -0.000000  -0.000000
    17  H   -0.000000   0.000000   0.000000  -0.000000
    18  H   -0.000000   0.000000  -0.000000  -0.000000
    19  C    0.000000   0.000000  -0.000000  -0.000000
    20  H    0.000000   0.000000  -0.000000   0.000000
    21  C   -0.000000  -0.000000   0.000000  -0.000000
    22  H    0.000000   0.000000  -0.000000   0.000000
    23  C    0.000000  -0.000000  -0.000000  -0.000000
    24  H    0.000000   0.000000   0.000000   0.000000
    25  H   -0.000000   0.000000  -0.000000  -0.000000
    26  C    0.000000  -0.000001   0.000000   0.000000
    27  H   -0.000000   0.000000   0.000000  -0.000000
    28  H   -0.000000   0.000000  -0.000000  -0.000000
 Mulliken charges and spin densities:
               1          2
     1  C   -0.209088  -0.000000
     2  C   -0.188227  -0.000000
     3  H    0.142546   0.000000
     4  H    0.155021   0.000000
     5  C   -0.165268  -0.000001
     6  C   -0.188292   0.000000
     7  H    0.149825   0.000000
     8  H    0.155063  -0.000000
     9  C   -0.170611  -0.000001
    10  H    0.116452   0.000000
    11  H    0.126802   0.000000
    12  C   -0.159740  -0.000000
    13  H    0.145624  -0.000000
    14  C   -0.209074   0.000001
    15  H    0.142558  -0.000000
    16  C   -0.172922   0.000000
    17  H    0.105359  -0.000000
    18  H    0.124226  -0.000000
    19  C   -0.165311   0.000001
    20  H    0.149779  -0.000000
    21  C   -0.159656  -0.000000
    22  H    0.145625   0.000000
    23  C   -0.170523   0.000001
    24  H    0.126707  -0.000000
    25  H    0.116461  -0.000000
    26  C   -0.172915  -0.000000
    27  H    0.124236   0.000000
    28  H    0.105342   0.000000
 Sum of Mulliken charges =  -0.00000   0.00000
 Mulliken charges and spin densities with hydrogens summed into heavy atoms:
               1          2
     1  C   -0.066542  -0.000000
     2  C   -0.033206  -0.000000
     5  C   -0.015443  -0.000000
     6  C   -0.033228   0.000000
     9  C    0.072643  -0.000000
    12  C   -0.014116  -0.000000
    14  C   -0.066515   0.000001
    16  C    0.056662   0.000000
    19  C   -0.015532   0.000000
    21  C   -0.014031   0.000000
    23  C    0.072644   0.000000
    26  C    0.056663  -0.000000
 Electronic spatial extent (au):  <R**2>=           2379.9248
 Charge=             -0.0000 electrons
 Dipole moment (field-independent basis, Debye):
    X=             -0.0003    Y=              0.0005    Z=              0.0002  Tot=              0.0006
 Quadrupole moment (field-independent basis, Debye-Ang):
   XX=            -73.1826   YY=            -69.6886   ZZ=            -76.0786
   XY=             -3.1244   XZ=             -4.2217   YZ=             -1.6255
 Traceless Quadrupole moment (field-independent basis, Debye-Ang):
   XX=             -0.1993   YY=              3.2947   ZZ=             -3.0953
   XY=             -3.1244   XZ=             -4.2217   YZ=             -1.6255
 Octapole moment (field-independent basis, Debye-Ang**2):
  XXX=             -0.0072  YYY=              0.0009  ZZZ=              0.0004  XYY=              0.0014
  XXY=              0.0065  XXZ=              0.0012  XZZ=             -0.0006  YZZ=             -0.0000
  YYZ=              0.0006  XYZ=             -0.0011
 Hexadecapole moment (field-independent basis, Debye-Ang**3):
 XXXX=          -2149.1734 YYYY=           -627.4496 ZZZZ=           -506.6253 XXXY=           -128.3407
 XXXZ=           -195.7896 YYYX=            -76.4828 YYYZ=            -14.6809 ZZZX=           -138.1900
 ZZZY=            -29.1888 XXYY=           -454.7930 XXZZ=           -456.3844 YYZZ=           -203.9345
 XXYZ=            -28.7403 YYXZ=            -48.3528 ZZXY=            -49.9239
 N-N= 6.661888471906D+02 E-N=-2.414115284576D+03  KE= 4.641329128883D+02
                          Isotropic Fermi Contact Couplings
        Atom                 a.u.       MegaHertz       Gauss      10(-4) cm-1
     1  C(13)             -0.00000      -0.00002      -0.00001      -0.00001
     2  C(13)             -0.00000      -0.00007      -0.00002      -0.00002
     3  H(1)              -0.00000      -0.00001      -0.00000      -0.00000
     4  H(1)               0.00000       0.00007       0.00003       0.00002
     5  C(13)             -0.00000      -0.00017      -0.00006      -0.00006
     6  C(13)              0.00000       0.00005       0.00002       0.00002
     7  H(1)               0.00000       0.00026       0.00009       0.00009
     8  H(1)              -0.00000      -0.00006      -0.00002      -0.00002
     9  C(13)             -0.00000      -0.00021      -0.00007      -0.00007
    10  H(1)               0.00000       0.00009       0.00003       0.00003
    11  H(1)               0.00000       0.00010       0.00004       0.00003
    12  C(13)              0.00000       0.00012       0.00004       0.00004
    13  H(1)              -0.00000      -0.00022      -0.00008      -0.00007
    14  C(13)              0.00000       0.00003       0.00001       0.00001
    15  H(1)              -0.00000      -0.00000      -0.00000      -0.00000
    16  C(13)              0.00000       0.00013       0.00005       0.00004
    17  H(1)              -0.00000      -0.00004      -0.00002      -0.00001
    18  H(1)              -0.00000      -0.00006      -0.00002      -0.00002
    19  C(13)              0.00000       0.00019       0.00007       0.00006
    20  H(1)              -0.00000      -0.00027      -0.00010      -0.00009
    21  C(13)             -0.00000      -0.00013      -0.00005      -0.00004
    22  H(1)               0.00000       0.00023       0.00008       0.00008
    23  C(13)              0.00000       0.00022       0.00008       0.00007
    24  H(1)              -0.00000      -0.00011      -0.00004      -0.00004
    25  H(1)              -0.00000      -0.00011      -0.00004      -0.00004
    26  C(13)             -0.00000      -0.00014      -0.00005      -0.00005
    27  H(1)               0.00000       0.00006       0.00002       0.00002
    28  H(1)               0.00000       0.00006       0.00002       0.00002
 --------------------------------------------------------
       Center         ----  Spin Dipole Couplings  ----
                      3XX-RR        3YY-RR        3ZZ-RR
 --------------------------------------------------------
     1   Atom       -0.000000      0.000000      0.000000
     2   Atom        0.000000      0.000000     -0.000000
     3   Atom        0.000000      0.000000     -0.000000
     4   Atom       -0.000000      0.000000      0.000000
     5   Atom       -0.000000     -0.000000      0.000001
     6   Atom       -0.000000      0.000000      0.000000
     7   Atom        0.000000     -0.000000      0.000000
     8   Atom        0.000000      0.000000     -0.000000
     9   Atom       -0.000000      0.000000     -0.000000
    10   Atom        0.000000      0.000000     -0.000000
    11   Atom        0.000000     -0.000000      0.000000
    12   Atom        0.000000      0.000001     -0.000001
    13   Atom       -0.000000      0.000000     -0.000000
    14   Atom        0.000000     -0.000000     -0.000000
    15   Atom       -0.000000     -0.000000      0.000000
    16   Atom        0.000000     -0.000000      0.000000
    17   Atom        0.000000     -0.000000      0.000000
    18   Atom        0.000000      0.000000     -0.000000
    19   Atom        0.000000      0.000000     -0.000001
    20   Atom       -0.000000      0.000000     -0.000000
    21   Atom       -0.000000     -0.000000      0.000001
    22   Atom        0.000000     -0.000000      0.000000
    23   Atom        0.000000     -0.000000      0.000000
    24   Atom       -0.000000      0.000000     -0.000000
    25   Atom       -0.000000     -0.000000      0.000000
    26   Atom       -0.000000      0.000000     -0.000000
    27   Atom       -0.000000     -0.000000      0.000000
    28   Atom       -0.000000      0.000000     -0.000000
 --------------------------------------------------------
                        XY            XZ            YZ
 --------------------------------------------------------
     1   Atom        0.000000     -0.000000      0.000000
     2   Atom        0.000000      0.000000     -0.000000
     3   Atom       -0.000000      0.000000      0.000000
     4   Atom       -0.000000     -0.000000      0.000000
     5   Atom        0.000000     -0.000000     -0.000000
     6   Atom       -0.000000     -0.000000     -0.000000
     7   Atom        0.000000      0.000000     -0.000000
     8   Atom        0.000000      0.000000     -0.000000
     9   Atom       -0.000000      0.000000     -0.000000
    10   Atom        0.000000     -0.000000      0.000000
    11   Atom       -0.000000      0.000000     -0.000000
    12   Atom        0.000000     -0.000000     -0.000000
    13   Atom        0.000000     -0.000000     -0.000000
    14   Atom       -0.000000      0.000001     -0.000000
    15   Atom        0.000000     -0.000000     -0.000000
    16   Atom       -0.000000     -0.000000     -0.000000
    17   Atom        0.000000      0.000000      0.000000
    18   Atom       -0.000000      0.000000     -0.000000
    19   Atom       -0.000000      0.000000      0.000000
    20   Atom       -0.000000     -0.000000      0.000000
    21   Atom       -0.000000      0.000000      0.000000
    22   Atom       -0.000000      0.000000      0.000000
    23   Atom        0.000000     -0.000000      0.000000
    24   Atom        0.000000     -0.000000      0.000000
    25   Atom       -0.000000      0.000000     -0.000000
    26   Atom        0.000000      0.000000      0.000000
    27   Atom        0.000000     -0.000000      0.000000
    28   Atom       -0.000000     -0.000000     -0.000000
 --------------------------------------------------------


 ---------------------------------------------------------------------------------
              Anisotropic Spin Dipole Couplings in Principal Axis System
 ---------------------------------------------------------------------------------

       Atom             a.u.   MegaHertz   Gauss  10(-4) cm-1        Axes

              Baa    -0.0000    -0.000    -0.000    -0.000  0.8786 -0.1634  0.4487
     1 C(13)  Bbb     0.0000     0.000     0.000     0.000  0.1346  0.9863  0.0955
              Bcc     0.0000     0.000     0.000     0.000 -0.4581 -0.0235  0.8886
 
              Baa    -0.0000    -0.000    -0.000    -0.000 -0.1581  0.1476  0.9763
     2 C(13)  Bbb     0.0000     0.000     0.000     0.000 -0.4241  0.8828 -0.2021
              Bcc     0.0000     0.000     0.000     0.000  0.8917  0.4460  0.0770
 
              Baa    -0.0000    -0.000    -0.000    -0.000 -0.2082 -0.2017  0.9571
     3 H(1)   Bbb     0.0000     0.000     0.000     0.000  0.0586  0.9742  0.2181
              Bcc     0.0000     0.000     0.000     0.000  0.9763 -0.1015  0.1910
 
              Baa    -0.0000    -0.000    -0.000    -0.000  0.9894  0.1443  0.0139
     4 H(1)   Bbb     0.0000     0.000     0.000     0.000 -0.1289  0.9195 -0.3714
              Bcc     0.0000     0.000     0.000     0.000 -0.0664  0.3656  0.9284
 
              Baa    -0.0000    -0.000    -0.000    -0.000  0.7339 -0.6780 -0.0406
     5 C(13)  Bbb    -0.0000    -0.000    -0.000    -0.000  0.6744  0.7202  0.1627
              Bcc     0.0000     0.000     0.000     0.000 -0.0811 -0.1468  0.9858
 
              Baa    -0.0000    -0.000    -0.000    -0.000  0.8780  0.3635  0.3115
     6 C(13)  Bbb     0.0000     0.000     0.000     0.000 -0.2705  0.9136 -0.3036
              Bcc     0.0000     0.000     0.000     0.000 -0.3949  0.1823  0.9004
 
              Baa    -0.0000    -0.000    -0.000    -0.000 -0.4833  0.8361  0.2595
     7 H(1)   Bbb     0.0000     0.000     0.000     0.000  0.8584  0.5108 -0.0468
              Bcc     0.0000     0.000     0.000     0.000  0.1717 -0.2001  0.9646
 
              Baa    -0.0000    -0.000    -0.000    -0.000 -0.1256  0.2762  0.9529
     8 H(1)   Bbb     0.0000     0.000     0.000     0.000 -0.1208  0.9491 -0.2910
              Bcc     0.0000     0.000     0.000     0.000  0.9847  0.1516  0.0859
 
              Baa    -0.0000    -0.000    -0.000    -0.000  0.7055  0.0751 -0.7047
     9 C(13)  Bbb     0.0000     0.000     0.000     0.000  0.5227  0.6164  0.5889
              Bcc     0.0000     0.000     0.000     0.000 -0.4786  0.7838 -0.3956
 
              Baa    -0.0000    -0.000    -0.000    -0.000  0.5690 -0.2041  0.7966
    10 H(1)   Bbb     0.0000     0.000     0.000     0.000 -0.5589  0.6146  0.5566
              Bcc     0.0000     0.000     0.000     0.000  0.6032  0.7620 -0.2356
 
              Baa    -0.0000    -0.000    -0.000    -0.000  0.5579  0.8288  0.0420
    11 H(1)   Bbb     0.0000     0.000     0.000     0.000 -0.4214  0.2393  0.8747
              Bcc     0.0000     0.000     0.000     0.000  0.7149 -0.5057  0.4828
 
              Baa    -0.0000    -0.000    -0.000    -0.000  0.2110  0.0325  0.9769
    12 C(13)  Bbb     0.0000     0.000     0.000     0.000  0.8616 -0.4782 -0.1702
              Bcc     0.0000     0.000     0.000     0.000  0.4616  0.8777 -0.1289
 
              Baa    -0.0000    -0.000    -0.000    -0.000  0.4165  0.1983  0.8872
    13 H(1)   Bbb    -0.0000    -0.000    -0.000    -0.000  0.8888 -0.2941 -0.3515
              Bcc     0.0000     0.000     0.000     0.000  0.1912  0.9350 -0.2987
 
              Baa    -0.0000    -0.000    -0.000    -0.000 -0.5609 -0.0694  0.8250
    14 C(13)  Bbb    -0.0000    -0.000    -0.000    -0.000  0.0746  0.9882  0.1339
              Bcc     0.0000     0.000     0.000     0.000  0.8245 -0.1366  0.5491
 
              Baa    -0.0000    -0.000    -0.000    -0.000 -0.3915  0.9175  0.0698
    15 H(1)   Bbb    -0.0000    -0.000    -0.000    -0.000  0.8788  0.3504  0.3240
              Bcc     0.0000     0.000     0.000     0.000 -0.2728 -0.1882  0.9435
 
              Baa    -0.0000    -0.000    -0.000    -0.000  0.3831  0.8668  0.3192
    16 C(13)  Bbb    -0.0000    -0.000    -0.000    -0.000  0.6703 -0.4986  0.5497
              Bcc     0.0000     0.000     0.000     0.000 -0.6356 -0.0034  0.7720
 
              Baa    -0.0000    -0.000    -0.000    -0.000 -0.5145  0.8216 -0.2457
    17 H(1)   Bbb    -0.0000    -0.000    -0.000    -0.000 -0.5504 -0.0967  0.8293
              Bcc     0.0000     0.000     0.000     0.000  0.6576  0.5619  0.5019
 
              Baa    -0.0000    -0.000    -0.000    -0.000  0.6403  0.5869  0.4955
    18 H(1)   Bbb    -0.0000    -0.000    -0.000    -0.000 -0.4892 -0.1858  0.8522
              Bcc     0.0000     0.000     0.000     0.000 -0.5922  0.7880 -0.1681
 
              Baa    -0.0000    -0.000    -0.000    -0.000 -0.2130 -0.2256  0.9506
    19 C(13)  Bbb     0.0000     0.000     0.000     0.000 -0.2118  0.9605  0.1805
              Bcc     0.0000     0.000     0.000     0.000  0.9538  0.1629  0.2524
 
              Baa    -0.0000    -0.000    -0.000    -0.000 -0.2232 -0.4073  0.8856
    20 H(1)   Bbb    -0.0000    -0.000    -0.000    -0.000  0.8409  0.3790  0.3862
              Bcc     0.0000     0.000     0.000     0.000 -0.4930  0.8309  0.2579
 
              Baa    -0.0000    -0.000    -0.000    -0.000  0.5298  0.8401 -0.1163
    21 C(13)  Bbb    -0.0000    -0.000    -0.000    -0.000  0.8386 -0.5394 -0.0761
              Bcc     0.0000     0.000     0.000     0.000  0.1267  0.0573  0.9903
 
              Baa    -0.0000    -0.000    -0.000    -0.000  0.2283  0.9237 -0.3076
    22 H(1)   Bbb     0.0000     0.000     0.000     0.000  0.9202 -0.3079 -0.2419
              Bcc     0.0000     0.000     0.000     0.000  0.3181  0.2278  0.9203
 
              Baa    -0.0000    -0.000    -0.000    -0.000 -0.4868  0.7757 -0.4015
    23 C(13)  Bbb    -0.0000    -0.000    -0.000    -0.000  0.5149  0.6262  0.5855
              Bcc     0.0000     0.000     0.000     0.000  0.7056  0.0782 -0.7043
 
              Baa    -0.0000    -0.000    -0.000    -0.000  0.7292 -0.5328  0.4293
    24 H(1)   Bbb    -0.0000    -0.000    -0.000    -0.000 -0.3716  0.2184  0.9023
              Bcc     0.0000     0.000     0.000     0.000  0.5745  0.8176  0.0387
 
              Baa    -0.0000    -0.000    -0.000    -0.000  0.4576  0.8829 -0.1051
    25 H(1)   Bbb    -0.0000    -0.000    -0.000    -0.000  0.6984 -0.4301 -0.5720
              Bcc     0.0000     0.000     0.000     0.000  0.5503 -0.1883  0.8135
 
              Baa    -0.0000    -0.000    -0.000    -0.000 -0.6353 -0.0010  0.7722
    26 C(13)  Bbb     0.0000     0.000     0.000     0.000  0.6652 -0.5086  0.5466
              Bcc     0.0000     0.000     0.000     0.000  0.3922  0.8610  0.3238
 
              Baa    -0.0000    -0.000    -0.000    -0.000 -0.6185  0.7696 -0.1589
    27 H(1)   Bbb     0.0000     0.000     0.000     0.000 -0.4226 -0.1553  0.8929
              Bcc     0.0000     0.000     0.000     0.000  0.6625  0.6194  0.4213
 
              Baa    -0.0000    -0.000    -0.000    -0.000  0.6457  0.5195  0.5596
    28 H(1)   Bbb     0.0000     0.000     0.000     0.000 -0.6556  0.0016  0.7551
              Bcc     0.0000     0.000     0.000     0.000 -0.3914  0.8544 -0.3417
 

 ---------------------------------------------------------------------------------

 No NMR shielding tensors so no spin-rotation constants.
 Leave Link  601 at Mon Aug  3 13:37:11 2020, MaxMem=  6442450944 cpu:               8.1 elap:               0.4
 (Enter /scratch/scicomp/CentOS/7.3.1611/Haswell/software/Gaussian/g16/l9999.exe)
 1\1\GINC-ATLAS-205\SP\UwB97XD\def2TZVP\C12H16\BOCHEN\03-Aug-2020\0\\#p
  uwb97xd guess=mix def2tzvp # scrf=(iefpcm,solvent=Cyclohexane,read) n
 osym 6d 10f\\endo-2 xp-pcm for eta=3\\0,1\C,0,-3.093267,-0.435973,0.30
 0434\C,0,-0.86674,-0.289096,-1.445431\H,0,-3.986142,-0.5048,0.910939\H
 ,0,0.030308,-0.224943,-2.049778\C,0,1.262349,1.452521,0.934535\C,0,0.8
 6674,0.289096,1.445431\H,0,0.68836,2.35534,1.107147\H,0,-0.030308,0.22
 4943,2.049778\C,0,1.683814,-0.957175,1.256502\H,0,2.348618,-1.062059,2
 .124256\H,0,1.035891,-1.835298,1.258793\C,0,2.490317,1.538213,0.141849
 \H,0,2.893062,2.516708,-0.090946\C,0,3.093267,0.435973,-0.300434\H,0,3
 .986142,0.5048,-0.910939\C,0,2.511845,-0.924519,-0.02945\H,0,1.879054,
 -1.20282,-0.880995\H,0,3.302586,-1.67529,0.018282\C,0,-1.262349,-1.452
 521,-0.934535\H,0,-0.68836,-2.35534,-1.107147\C,0,-2.490317,-1.538213,
 -0.141849\H,0,-2.893062,-2.516708,0.090946\C,0,-1.683814,0.957175,-1.2
 56502\H,0,-1.035891,1.835298,-1.258793\H,0,-2.348618,1.062059,-2.12425
 6\C,0,-2.511845,0.924519,0.02945\H,0,-3.302586,1.67529,-0.018282\H,0,-
 1.879054,1.20282,0.880995\\Version=ES64L-G16RevB.01\HF=-466.8604931\S2
 =0.\S2-1=0.\S2A=0.\RMSD=8.787e-09\Dipole=-0.0001007,0.0001803,0.00009\
 Quadrupole=-0.1481868,2.4494967,-2.3013098,-2.322922,-3.1387387,-1.208
 4893\PG=CI [X(C12H16)]\\@


 SACRED COWS MAKE GREAT HAMBURGERS -- ROBERT REISNER
 Job cpu time:       0 days  1 hours 58 minutes 12.4 seconds.
 Elapsed time:       0 days  0 hours  4 minutes 58.9 seconds.
 File lengths (MBytes):  RWF=    650 Int=      0 D2E=      0 Chk=     24 Scr=      1
 Normal termination of Gaussian 16 at Mon Aug  3 13:37:11 2020.
