 Entering Gaussian System, Link 0=g16
 Input=meso-TS_70_2_pcm.com
 Output=meso-TS_70_2_pcm.log
 Initial command:
 /scratch/scicomp/CentOS/7.3.1611/Haswell/software/Gaussian/g16/l1.exe "/scratch/bochen/cyclohexadiene-dimerization/wb97xd-def2tzvp/xp-pcm/meso/Gau-17047.inp" -scrdir="/scratch/bochen/cyclohexadiene-dimerization/wb97xd-def2tzvp/xp-pcm/meso/"
 Entering Link 1 = /scratch/scicomp/CentOS/7.3.1611/Haswell/software/Gaussian/g16/l1.exe PID=     17048.
  
 Copyright (c) 1988-2017, Gaussian, Inc.  All Rights Reserved.
  
 This is part of the Gaussian(R) 16 program.  It is based on
 the Gaussian(R) 09 system (copyright 2009, Gaussian, Inc.),
 the Gaussian(R) 03 system (copyright 2003, Gaussian, Inc.),
 the Gaussian(R) 98 system (copyright 1998, Gaussian, Inc.),
 the Gaussian(R) 94 system (copyright 1995, Gaussian, Inc.),
 the Gaussian 92(TM) system (copyright 1992, Gaussian, Inc.),
 the Gaussian 90(TM) system (copyright 1990, Gaussian, Inc.),
 the Gaussian 88(TM) system (copyright 1988, Gaussian, Inc.),
 the Gaussian 86(TM) system (copyright 1986, Carnegie Mellon
 University), and the Gaussian 82(TM) system (copyright 1983,
 Carnegie Mellon University). Gaussian is a federally registered
 trademark of Gaussian, Inc.
  
 This software contains proprietary and confidential information,
 including trade secrets, belonging to Gaussian, Inc.
  
 This software is provided under written license and may be
 used, copied, transmitted, or stored only in accord with that
 written license.
  
 The following legend is applicable only to US Government
 contracts under FAR:
  
                    RESTRICTED RIGHTS LEGEND
  
 Use, reproduction and disclosure by the US Government is
 subject to restrictions as set forth in subparagraphs (a)
 and (c) of the Commercial Computer Software - Restricted
 Rights clause in FAR 52.227-19.
  
 Gaussian, Inc.
 340 Quinnipiac St., Bldg. 40, Wallingford CT 06492
  
  
 ---------------------------------------------------------------
 Warning -- This program may not be used in any manner that
 competes with the business of Gaussian, Inc. or will provide
 assistance to any competitor of Gaussian, Inc.  The licensee
 of this program is prohibited from giving any competitor of
 Gaussian, Inc. access to this program.  By using this program,
 the user acknowledges that Gaussian, Inc. is engaged in the
 business of creating and licensing software in the field of
 computational chemistry and represents and warrants to the
 licensee that it is not a competitor of Gaussian, Inc. and that
 it will not use this program in any manner prohibited above.
 ---------------------------------------------------------------
  

 Cite this work as:
 Gaussian 16, Revision B.01,
 M. J. Frisch, G. W. Trucks, H. B. Schlegel, G. E. Scuseria, 
 M. A. Robb, J. R. Cheeseman, G. Scalmani, V. Barone, 
 G. A. Petersson, H. Nakatsuji, X. Li, M. Caricato, A. V. Marenich, 
 J. Bloino, B. G. Janesko, R. Gomperts, B. Mennucci, H. P. Hratchian, 
 J. V. Ortiz, A. F. Izmaylov, J. L. Sonnenberg, D. Williams-Young, 
 F. Ding, F. Lipparini, F. Egidi, J. Goings, B. Peng, A. Petrone, 
 T. Henderson, D. Ranasinghe, V. G. Zakrzewski, J. Gao, N. Rega, 
 G. Zheng, W. Liang, M. Hada, M. Ehara, K. Toyota, R. Fukuda, 
 J. Hasegawa, M. Ishida, T. Nakajima, Y. Honda, O. Kitao, H. Nakai, 
 T. Vreven, K. Throssell, J. A. Montgomery, Jr., J. E. Peralta, 
 F. Ogliaro, M. J. Bearpark, J. J. Heyd, E. N. Brothers, K. N. Kudin, 
 V. N. Staroverov, T. A. Keith, R. Kobayashi, J. Normand, 
 K. Raghavachari, A. P. Rendell, J. C. Burant, S. S. Iyengar, 
 J. Tomasi, M. Cossi, J. M. Millam, M. Klene, C. Adamo, R. Cammi, 
 J. W. Ochterski, R. L. Martin, K. Morokuma, O. Farkas, 
 J. B. Foresman, and D. J. Fox, Gaussian, Inc., Wallingford CT, 2016.
 
 ******************************************
 Gaussian 16:  ES64L-G16RevB.01 20-Dec-2017
                 3-Aug-2020 
 ******************************************
 %nproc=24
 Will use up to   24 processors via shared memory.
 %mem=48GB
 ----------------------------------------------------------------------
 #p uwb97xd guess=mix def2tzvp # scrf=(iefpcm,solvent=Cyclohexane,read)
  nosym 6d 10f
 ----------------------------------------------------------------------
 1/38=1,40=2,172=1/1;
 2/12=2,15=1,17=6,18=5,40=1/2;
 3/5=44,7=101,8=22,11=2,25=1,30=1,70=2203,72=17,74=-58,116=2/1,2,3;
 4/13=-1/1;
 5/5=2,38=5,53=17/2;
 6/7=2,8=2,9=2,10=2,28=1/1;
 99/5=1,9=1/99;
 Leave Link    1 at Mon Aug  3 14:07:34 2020, MaxMem=  6442450944 cpu:               2.9 elap:               0.1
 (Enter /scratch/scicomp/CentOS/7.3.1611/Haswell/software/Gaussian/g16/l101.exe)
 -----------------------
 endo-2 xp-pcm for eta=3
 -----------------------
 Symbolic Z-matrix:
 Charge =  0 Multiplicity = 1
 6                    -3.12194  -0.43992   0.27777 
 6                    -0.79716  -0.26748  -1.3333 
 1                    -4.04452  -0.52162   0.84073 
 1                     0.13262  -0.19248  -1.88412 
 6                     1.21368   1.43672   0.85501 
 6                     0.79716   0.26748   1.3333 
 1                     0.62547   2.33469   1.00297 
 1                    -0.13262   0.19248   1.88412 
 6                     1.62597  -0.97588   1.18436 
 1                     2.21925  -1.09518   2.10035 
 1                     0.97777  -1.85161   1.12561 
 6                     2.47885   1.53438   0.12517 
 1                     2.87917   2.5172   -0.09322 
 6                     3.12194   0.43992  -0.27777 
 1                     4.04452   0.52162  -0.84073 
 6                     2.55568  -0.9319   -0.03155 
 1                     2.00912  -1.24349  -0.93009 
 1                     3.36134  -1.65779   0.09305 
 6                    -1.21368  -1.43672  -0.85501 
 1                    -0.62547  -2.33469  -1.00297 
 6                    -2.47885  -1.53438  -0.12517 
 1                    -2.87917  -2.5172    0.09322 
 6                    -1.62597   0.97588  -1.18436 
 1                    -0.97777   1.85161  -1.12561 
 1                    -2.21925   1.09518  -2.10035 
 6                    -2.55568   0.9319    0.03155 
 1                    -3.36134   1.65779  -0.09305 
 1                    -2.00912   1.24349   0.93009 
 
 ITRead=  0  0  0  0  0  0  0  0  0  0  0  0  0  0  0  0  0  0  0  0
 ITRead=  0  0  0  0  0  0  0  0
 MicOpt= -1 -1 -1 -1 -1 -1 -1 -1 -1 -1 -1 -1 -1 -1 -1 -1 -1 -1 -1 -1
 MicOpt= -1 -1 -1 -1 -1 -1 -1 -1
 NAtoms=     28 NQM=       28 NQMF=       0 NMMI=      0 NMMIF=      0
                NMic=       0 NMicF=      0.
                    Isotopes and Nuclear Properties:
 (Nuclear quadrupole moments (NQMom) in fm**2, nuclear magnetic moments (NMagM)
  in nuclear magnetons)

  Atom         1           2           3           4           5           6           7           8           9          10
 IAtWgt=          12          12           1           1          12          12           1           1          12           1
 AtmWgt=  12.0000000  12.0000000   1.0078250   1.0078250  12.0000000  12.0000000   1.0078250   1.0078250  12.0000000   1.0078250
 NucSpn=           0           0           1           1           0           0           1           1           0           1
 AtZEff=  -0.0000000  -0.0000000  -0.0000000  -0.0000000  -0.0000000  -0.0000000  -0.0000000  -0.0000000  -0.0000000  -0.0000000
 NQMom=    0.0000000   0.0000000   0.0000000   0.0000000   0.0000000   0.0000000   0.0000000   0.0000000   0.0000000   0.0000000
 NMagM=    0.0000000   0.0000000   2.7928460   2.7928460   0.0000000   0.0000000   2.7928460   2.7928460   0.0000000   2.7928460
 AtZNuc=   6.0000000   6.0000000   1.0000000   1.0000000   6.0000000   6.0000000   1.0000000   1.0000000   6.0000000   1.0000000

  Atom        11          12          13          14          15          16          17          18          19          20
 IAtWgt=           1          12           1          12           1          12           1           1          12           1
 AtmWgt=   1.0078250  12.0000000   1.0078250  12.0000000   1.0078250  12.0000000   1.0078250   1.0078250  12.0000000   1.0078250
 NucSpn=           1           0           1           0           1           0           1           1           0           1
 AtZEff=  -0.0000000  -0.0000000  -0.0000000  -0.0000000  -0.0000000  -0.0000000  -0.0000000  -0.0000000  -0.0000000  -0.0000000
 NQMom=    0.0000000   0.0000000   0.0000000   0.0000000   0.0000000   0.0000000   0.0000000   0.0000000   0.0000000   0.0000000
 NMagM=    2.7928460   0.0000000   2.7928460   0.0000000   2.7928460   0.0000000   2.7928460   2.7928460   0.0000000   2.7928460
 AtZNuc=   1.0000000   6.0000000   1.0000000   6.0000000   1.0000000   6.0000000   1.0000000   1.0000000   6.0000000   1.0000000

  Atom        21          22          23          24          25          26          27          28
 IAtWgt=          12           1          12           1           1          12           1           1
 AtmWgt=  12.0000000   1.0078250  12.0000000   1.0078250   1.0078250  12.0000000   1.0078250   1.0078250
 NucSpn=           0           1           0           1           1           0           1           1
 AtZEff=  -0.0000000  -0.0000000  -0.0000000  -0.0000000  -0.0000000  -0.0000000  -0.0000000  -0.0000000
 NQMom=    0.0000000   0.0000000   0.0000000   0.0000000   0.0000000   0.0000000   0.0000000   0.0000000
 NMagM=    0.0000000   2.7928460   0.0000000   2.7928460   2.7928460   0.0000000   2.7928460   2.7928460
 AtZNuc=   6.0000000   1.0000000   6.0000000   1.0000000   1.0000000   6.0000000   1.0000000   1.0000000
 Leave Link  101 at Mon Aug  3 14:07:35 2020, MaxMem=  6442450944 cpu:               2.4 elap:               0.1
 (Enter /scratch/scicomp/CentOS/7.3.1611/Haswell/software/Gaussian/g16/l202.exe)
                          Input orientation:                          
 ---------------------------------------------------------------------
 Center     Atomic      Atomic             Coordinates (Angstroms)
 Number     Number       Type             X           Y           Z
 ---------------------------------------------------------------------
      1          6           0       -3.121942   -0.439924    0.277771
      2          6           0       -0.797162   -0.267484   -1.333299
      3          1           0       -4.044520   -0.521623    0.840727
      4          1           0        0.132617   -0.192479   -1.884118
      5          6           0        1.213684    1.436717    0.855014
      6          6           0        0.797162    0.267484    1.333299
      7          1           0        0.625474    2.334691    1.002965
      8          1           0       -0.132617    0.192479    1.884118
      9          6           0        1.625967   -0.975882    1.184356
     10          1           0        2.219247   -1.095182    2.100353
     11          1           0        0.977773   -1.851608    1.125614
     12          6           0        2.478853    1.534377    0.125170
     13          1           0        2.879166    2.517204   -0.093218
     14          6           0        3.121942    0.439924   -0.277771
     15          1           0        4.044520    0.521623   -0.840727
     16          6           0        2.555680   -0.931899   -0.031548
     17          1           0        2.009120   -1.243493   -0.930088
     18          1           0        3.361336   -1.657785    0.093053
     19          6           0       -1.213684   -1.436717   -0.855014
     20          1           0       -0.625474   -2.334691   -1.002965
     21          6           0       -2.478853   -1.534377   -0.125170
     22          1           0       -2.879166   -2.517204    0.093218
     23          6           0       -1.625967    0.975882   -1.184356
     24          1           0       -0.977773    1.851608   -1.125614
     25          1           0       -2.219247    1.095182   -2.100353
     26          6           0       -2.555680    0.931899    0.031548
     27          1           0       -3.361336    1.657785   -0.093053
     28          1           0       -2.009120    1.243493    0.930088
 ---------------------------------------------------------------------
                    Distance matrix (angstroms):
                    1          2          3          4          5
     1  C    0.000000
     2  C    2.833705   0.000000
     3  H    1.083856   3.916160   0.000000
     4  H    3.914990   1.083290   4.998159   0.000000
     5  C    4.759479   3.425860   5.611061   3.365387   0.000000
     6  C    4.119944   3.152587   4.930233   3.317372   1.330170
     7  H    4.718847   3.775359   5.476650   3.868429   1.083623
     8  H    3.452006   3.317372   4.111155   3.797123   2.102311
     9  C    4.863310   3.565385   5.699022   3.501335   2.469631
    10  H    5.681502   4.644758   6.414858   4.587473   2.995420
    11  H    4.418071   3.421417   5.203215   3.539136   3.307863
    12  C    5.940543   4.013242   6.877031   3.538940   1.463852
    13  H    6.700413   4.775738   7.618671   4.253614   2.200097
    14  C    6.329996   4.119944   7.316679   3.452006   2.432745
    15  H    7.316679   4.930233   8.327558   4.111155   3.424408
    16  C    5.707286   3.657534   6.670220   3.138470   2.863090
    17  H    5.332208   2.998398   6.348499   2.352885   3.317052
    18  H    6.599258   4.610913   7.529713   4.059674   3.843037
    19  C    2.432745   1.330170   3.424408   2.102311   4.131941
    20  H    3.385673   2.100462   4.286758   2.437254   4.588911
    21  C    1.331823   2.427484   2.099986   3.422625   4.839730
    22  H    2.099546   3.380966   2.428819   4.287778   5.741537
    23  C    2.525918   1.501686   3.491831   2.224264   3.526332
    24  H    3.437742   2.136891   4.347834   2.446750   2.982869
    25  H    2.971007   2.113659   3.820423   2.689999   4.542671
    26  C    1.504386   2.528579   2.232519   3.487254   3.891149
    27  H    2.143642   3.438002   2.467490   4.340403   4.677447
    28  H    2.120798   2.979063   2.695640   3.816911   3.229464
                    6          7          8          9         10
     6  C    0.000000
     7  H    2.100462   0.000000
     8  H    1.083290   2.437254   0.000000
     9  C    1.501686   3.463204   2.224264   0.000000
    10  H    2.113659   3.938071   2.689999   1.097845   0.000000
    11  H    2.136891   4.202887   2.446750   1.091101   1.750301
    12  C    2.427484   2.201372   3.422625   2.854941   3.298988
    13  H    3.380966   2.512779   4.287778   3.924838   4.277450
    14  C    2.833705   3.385673   3.914990   2.525918   2.971007
    15  H    3.916160   4.286758   4.998159   3.491831   3.820423
    16  C    2.528579   3.932750   3.487254   1.531249   2.164452
    17  H    2.979063   4.295878   3.816911   2.165478   3.041336
    18  H    3.438002   4.924708   4.340403   2.160426   2.377003
    19  C    3.425860   4.588911   3.365387   3.526332   4.542671
    20  H    3.775359   5.233713   3.868429   3.420486   4.388554
    21  C    4.013242   5.087162   3.538940   4.344689   5.217086
    22  H    4.775738   6.054009   4.253614   4.884924   5.660791
    23  C    3.565385   3.420486   3.501335   4.471605   5.464823
    24  H    3.421417   2.708250   3.539136   4.484431   5.413998
    25  H    4.644758   4.388554   4.587473   5.464823   6.491830
    26  C    3.657534   3.609878   3.138470   4.738646   5.584706
    27  H    4.610913   4.189763   4.059674   5.782834   6.597936
    28  H    2.998398   2.852562   2.352885   4.266630   4.971721
                   11         12         13         14         15
    11  H    0.000000
    12  C    3.836538   0.000000
    13  H    4.918065   1.083463   0.000000
    14  C    3.437742   1.331823   2.099546   0.000000
    15  H    4.347834   2.099986   2.428819   1.083856   0.000000
    16  C    2.162101   2.472444   3.464788   1.504386   2.232519
    17  H    2.378947   3.008451   3.949705   2.120798   2.695640
    18  H    2.604827   3.312055   4.206866   2.143642   2.467490
    19  C    2.982869   4.839730   5.741537   4.759479   5.611061
    20  H    2.708250   5.087162   6.054009   4.718847   5.476650
    21  C    3.689629   5.835989   6.717492   5.940543   6.877031
    22  H    4.047819   6.717492   7.651040   6.700413   7.618671
    23  C    4.484431   4.344689   4.884924   4.863310   5.699022
    24  H    4.754576   3.689629   4.047819   4.418071   5.203215
    25  H    5.413998   5.217086   5.660791   5.681502   6.414858
    26  C    4.629274   5.071318   5.662712   5.707286   6.670220
    27  H    5.712167   5.845567   6.299402   6.599258   7.529713
    28  H    4.305742   4.568852   5.154109   5.332208   6.348499
                   16         17         18         19         20
    16  C    0.000000
    17  H    1.096901   0.000000
    18  H    1.091567   1.745550   0.000000
    19  C    3.891149   3.229464   4.677447   0.000000
    20  H    3.609878   2.852562   4.189763   1.083623   0.000000
    21  C    5.071318   4.568852   5.845567   1.463852   2.201372
    22  H    5.662712   5.154109   6.299402   2.200097   2.512779
    23  C    4.738646   4.266630   5.782834   2.469631   3.463204
    24  H    4.629274   4.305742   5.712167   3.307863   4.202887
    25  H    5.584706   4.971721   6.597936   2.995420   3.938071
    26  C    5.440931   5.147278   6.459205   2.863090   3.932750
    27  H    6.459205   6.161156   7.498130   3.843037   4.924708
    28  H    5.147278   5.078544   6.161156   3.317052   4.295878
                   21         22         23         24         25
    21  C    0.000000
    22  H    1.083463   0.000000
    23  C    2.854941   3.924838   0.000000
    24  H    3.836538   4.918065   1.091101   0.000000
    25  H    3.298988   4.277450   1.097845   1.750301   0.000000
    26  C    2.472444   3.464788   1.531249   2.162101   2.164452
    27  H    3.312055   4.206866   2.160426   2.604827   2.377003
    28  H    3.008451   3.949705   2.165478   2.378947   3.041336
                   26         27         28
    26  C    0.000000
    27  H    1.091567   0.000000
    28  H    1.096901   1.745550   0.000000
 Symmetry turned off by external request.
 Stoichiometry    C12H16
 Framework group  CI[X(C12H16)]
 Deg. of freedom    39
 Full point group                 CI      NOp   2
 Rotational constants (GHZ):           1.6958170           0.5775969           0.5292964
 Leave Link  202 at Mon Aug  3 14:07:35 2020, MaxMem=  6442450944 cpu:               0.3 elap:               0.1
 (Enter /scratch/scicomp/CentOS/7.3.1611/Haswell/software/Gaussian/g16/l301.exe)
 Standard basis: def2TZVP (6D, 10F)
 Ernie: Thresh=  0.10000D-02 Tol=  0.10000D-05 Strict=F.
   528 basis functions,   740 primitive gaussians,   528 cartesian basis functions
    44 alpha electrons       44 beta electrons
       nuclear repulsion energy       670.8483891011 Hartrees.
 IExCor= 4639 DFT=T Ex+Corr=wB97XD ExCW=0 ScaHFX=  1.000000
 ScaDFX=  1.000000  1.000000  1.000000  1.000000 ScalE2=  1.000000  1.000000
 IRadAn=      5 IRanWt=     -1 IRanGd=            0 ICorTp=0 IEmpDi=121
 HFx  wShort=  0.000000 wLong=  0.200000 cFull=  0.222036 cShort=  0.000000 cLong=  0.777964
 DFx  wShort=  0.000000 wLong=  0.200000 cFull=  0.000000 cShort=  0.000000 cLong=  1.000000
 NAtoms=   28 NActive=   28 NUniq=   28 SFac= 1.00D+00 NAtFMM=   60 NAOKFM=F Big=F
 Integral buffers will be    131072 words long.
 Raffenetti 2 integral format.
 Two-electron integral symmetry is turned off.
 R6Disp:  Grimme-D2 Dispersion energy=       -0.0213014488 Hartrees.
 Nuclear repulsion after empirical dispersion term =      670.8270876523 Hartrees.
 Using the following non-standard input for PCM:
 norep pcmdoc geomview  nodis nocav g03defaults tsare=0.075
 Warning! Using old PCM defaults because the g03defaults keyword was found.
 These settings can be overridden by following keywords.
 nsfe=28
 NVESolv=36  SolvMW=84.1595   Rsolv=2.815
 eps=2.0165 RhoS=0.7781
 --- end of non-standard input.
 Reading user-defined spheres from input:
 ISph  on   Nord    Re0     Alpha      Xe            Ye            Ze
 --- end of user-defined spheres data.
 ------------------------------------------------------------------------------
 Polarizable Continuum Model (PCM)
 =================================
 Model                : PCM.
 Atomic radii         : UA0 (Simple United Atom Topological Model).
 Polarization charges : Total charges.
 Charge compensation  : None.
 Solution method      : On-the-fly selection.
 Cavity type          : SES (Solvent Excluding Surface) (Alpha=1.000).
 Cavity algorithm     : GePol (RMin=0.200 OFac=0.890).
                        User-defined sphere list used, NSphG=   28.
                        Tesserae with average area of 0.075 Ang**2.
                        Smoothing algorithm: None.
                        Polarization charges: point-like.
                        Self-potential: constant (ISelfS= 1).
                        Self-field    : global E.n sum rule (ISelfD= 3).
 Solvent              : CycloHexane, Eps=   2.016500 Eps(inf)=   2.035188
                        RSolv=   2.815000 Ang.
 ------------------------------------------------------------------------------
 GePol: Number of generator spheres                  =      28
 GePol: Total number of spheres                      =     187
 GePol: Number of exposed spheres                    =     124 ( 66.31%)
 GePol: Number of tesserae                           =    4673
 GePol: Average area of tesserae                     =       0.05 Ang**2
 GePol: Minimum area of tessera                      =   0.10D-02 Ang**2
 GePol: Maximum area of tessera                      =    0.12643 Ang**2
 GePol: Number of small tesserae                     =       0
 GePol: Fraction of small tesserae (<1% of avg)      =       0.00%
 GePol: Total count of vertices                      =   16531
 GePol: Maximum number of vertices in a tessera      =       7
 GePol: Cavity surface area                          =    224.294 Ang**2
 GePol: Cavity volume                                =    256.576 Ang**3
 Leave Link  301 at Mon Aug  3 14:07:35 2020, MaxMem=  6442450944 cpu:               8.1 elap:               0.4
 (Enter /scratch/scicomp/CentOS/7.3.1611/Haswell/software/Gaussian/g16/l302.exe)
 NPDir=0 NMtPBC=     1 NCelOv=     1 NCel=       1 NClECP=     1 NCelD=      1
         NCelK=      1 NCelE2=     1 NClLst=     1 CellRange=     0.0.
 One-electron integrals computed using PRISM.
   1 Symmetry operations used in ECPInt.
 ECPInt:  NShTT=   19306 NPrTT=   56928 LenC2=   18456 LenP2D=   41748.
 LDataN:  DoStor=T MaxTD1= 6 Len=  172
 NBasis=   528 RedAO= T EigKep=  1.98D-05  NBF=   528
 NBsUse=   528 1.00D-06 EigRej= -1.00D+00 NBFU=   528
 Precomputing XC quadrature grid using
 IXCGrd= 4 IRadAn=           5 IRanWt=          -1 IRanGd=           0 AccXCQ= 0.00D+00.
 Generated NRdTot=       0 NPtTot=           0 NUsed=           0 NTot=          32
 NSgBfM=   526   526   526   526   526 MxSgAt=    28 MxSgA2=    28.
 Leave Link  302 at Mon Aug  3 14:07:36 2020, MaxMem=  6442450944 cpu:              12.8 elap:               0.6
 (Enter /scratch/scicomp/CentOS/7.3.1611/Haswell/software/Gaussian/g16/l303.exe)
 DipDrv:  MaxL=1.
 Leave Link  303 at Mon Aug  3 14:07:36 2020, MaxMem=  6442450944 cpu:               1.5 elap:               0.1
 (Enter /scratch/scicomp/CentOS/7.3.1611/Haswell/software/Gaussian/g16/l401.exe)
 ExpMin= 9.52D-02 ExpMax= 1.36D+04 ExpMxC= 4.63D+02 IAcc=3 IRadAn=         5 AccDes= 0.00D+00
 Harris functional with IExCor= 4639 and IRadAn=       5 diagonalized for initial guess.
 HarFok:  IExCor= 4639 AccDes= 0.00D+00 IRadAn=         5 IDoV= 1 UseB2=F ITyADJ=14
 ICtDFT=  3500011 ScaDFX=  1.000000  1.000000  1.000000  1.000000
 FoFCou: FMM=F IPFlag=           0 FMFlag=      100000 FMFlg1=           0
         NFxFlg=           0 DoJE=T BraDBF=F KetDBF=T FulRan=T
         wScrn=  0.000000 ICntrl=       500 IOpCl=  0 I1Cent=   200000004 NGrid=           0
         NMat0=    1 NMatS0=      1 NMatT0=    0 NMatD0=    1 NMtDS0=    0 NMtDT0=    0
 Symmetry not used in FoFCou.
 Harris En= -444.660334808779    
 JPrj=0 DoOrth=F DoCkMO=T.
 Mixing orbitals, IMix= 1 IMixAn=  0 NRI=1 NE=   44 Coef=  7.07106781D-01  7.07106781D-01
 Mixing orbitals, IMix= 1 IMixAn=  0 NRI=1 NE=   44 Coef= -7.07106781D-01  7.07106781D-01
 Initial guess <Sx>= 0.0000 <Sy>= 0.0000 <Sz>= 0.0000 <S**2>= 1.0000 S= 0.6180
 Leave Link  401 at Mon Aug  3 14:07:38 2020, MaxMem=  6442450944 cpu:              48.9 elap:               2.1
 (Enter /scratch/scicomp/CentOS/7.3.1611/Haswell/software/Gaussian/g16/l502.exe)
 Two-electron integral symmetry not used.
 UHF open shell SCF:
 Using DIIS extrapolation, IDIIS=  1040.
 NGot=  6442450944 LenX=  6441877030 LenY=  6441597718
 Requested convergence on RMS density matrix=1.00D-08 within 128 cycles.
 Requested convergence on MAX density matrix=1.00D-06.
 Requested convergence on             energy=1.00D-06.
 No special actions if energy rises.
 Fock matrices will be formed incrementally for  20 cycles.

 Cycle   1  Pass 1  IDiag  1:
 FoFJK:  IHMeth= 1 ICntrl=       0 DoSepK=T KAlg= 0 I1Cent=           0 FoldK=F
 IRaf=         1 NMat=       1 IRICut=       1 DoRegI=T DoRafI=F ISym2E= 0 IDoP0=0 IntGTp=1.
 FoFCou: FMM=F IPFlag=           0 FMFlag=      100000 FMFlg1=           0
         NFxFlg=           0 DoJE=T BraDBF=F KetDBF=F FulRan=T
         wScrn=  0.000000 ICntrl=       500 IOpCl=  0 I1Cent=           0 NGrid=           0
         NMat0=    1 NMatS0=      1 NMatT0=    0 NMatD0=    1 NMtDS0=    0 NMtDT0=    0
 Symmetry not used in FoFCou.
 Inv3:  Mode=1 IEnd=    65510787.
 Iteration    1 A*A^-1 deviation from unit magnitude is 3.66D-15 for   2038.
 Iteration    1 A*A^-1 deviation from orthogonality  is 1.55D-15 for   3904   2778.
 Iteration    1 A^-1*A deviation from unit magnitude is 3.77D-15 for    766.
 Iteration    1 A^-1*A deviation from orthogonality  is 2.02D-15 for   3476   2913.
 E= -466.574557261775    
 DIIS: error= 4.70D-02 at cycle   1 NSaved=   1.
 NSaved= 1 IEnMin= 1 EnMin= -466.574557261775     IErMin= 1 ErrMin= 4.70D-02
 ErrMax= 4.70D-02  0.00D+00 EMaxC= 1.00D-01 BMatC= 4.12D+00 BMatP= 4.12D+00
 IDIUse=3 WtCom= 5.30D-01 WtEn= 4.70D-01
 Coeff-Com:  0.100D+01
 Coeff-En:   0.100D+01
 Coeff:      0.100D+01
 Gap=     0.179 Goal=   None    Shift=    0.000
 Gap=     0.179 Goal=   None    Shift=    0.000
 GapD=    0.179 DampG=1.000 DampE=0.500 DampFc=0.5000 IDamp=-1.
 Damping current iteration by 5.00D-01
 RMSDP=1.65D-03 MaxDP=9.30D-02              OVMax= 3.62D-01

 Cycle   2  Pass 1  IDiag  1:
 RMSU=  7.87D-04    CP:  9.62D-01
 E= -466.689347483793     Delta-E=       -0.114790222018 Rises=F Damp=T
 DIIS: error= 2.24D-02 at cycle   2 NSaved=   2.
 NSaved= 2 IEnMin= 2 EnMin= -466.689347483793     IErMin= 2 ErrMin= 2.24D-02
 ErrMax= 2.24D-02  0.00D+00 EMaxC= 1.00D-01 BMatC= 9.37D-01 BMatP= 4.12D+00
 IDIUse=3 WtCom= 7.76D-01 WtEn= 2.24D-01
 Coeff-Com: -0.868D+00 0.187D+01
 Coeff-En:   0.000D+00 0.100D+01
 Coeff:     -0.674D+00 0.167D+01
 Gap=     0.283 Goal=   None    Shift=    0.000
 Gap=     0.283 Goal=   None    Shift=    0.000
 RMSDP=1.18D-03 MaxDP=4.95D-02 DE=-1.15D-01 OVMax= 1.41D-01

 Cycle   3  Pass 1  IDiag  1:
 RMSU=  6.16D-04    CP:  9.04D-01  2.20D+00
 E= -466.839620196943     Delta-E=       -0.150272713150 Rises=F Damp=F
 DIIS: error= 7.77D-03 at cycle   3 NSaved=   3.
 NSaved= 3 IEnMin= 3 EnMin= -466.839620196943     IErMin= 3 ErrMin= 7.77D-03
 ErrMax= 7.77D-03  0.00D+00 EMaxC= 1.00D-01 BMatC= 2.54D-02 BMatP= 9.37D-01
 IDIUse=3 WtCom= 9.22D-01 WtEn= 7.77D-02
 Coeff-Com: -0.321D+00 0.688D+00 0.634D+00
 Coeff-En:   0.000D+00 0.000D+00 0.100D+01
 Coeff:     -0.296D+00 0.634D+00 0.662D+00
 Gap=     0.305 Goal=   None    Shift=    0.000
 Gap=     0.305 Goal=   None    Shift=    0.000
 RMSDP=2.08D-04 MaxDP=1.05D-02 DE=-1.50D-01 OVMax= 6.25D-02

 Cycle   4  Pass 1  IDiag  1:
 RMSU=  1.90D-04    CP:  8.97D-01  2.29D+00  9.88D-01
 E= -466.850527526573     Delta-E=       -0.010907329630 Rises=F Damp=F
 DIIS: error= 5.10D-03 at cycle   4 NSaved=   4.
 NSaved= 4 IEnMin= 4 EnMin= -466.850527526573     IErMin= 4 ErrMin= 5.10D-03
 ErrMax= 5.10D-03  0.00D+00 EMaxC= 1.00D-01 BMatC= 2.05D-03 BMatP= 2.54D-02
 IDIUse=3 WtCom= 9.49D-01 WtEn= 5.10D-02
 Coeff-Com:  0.150D+00-0.322D+00-0.769D-01 0.125D+01
 Coeff-En:   0.000D+00 0.000D+00 0.000D+00 0.100D+01
 Coeff:      0.143D+00-0.306D+00-0.729D-01 0.124D+01
 Gap=     0.316 Goal=   None    Shift=    0.000
 Gap=     0.316 Goal=   None    Shift=    0.000
 RMSDP=2.09D-04 MaxDP=1.23D-02 DE=-1.09D-02 OVMax= 7.65D-02

 Cycle   5  Pass 1  IDiag  1:
 RMSU=  8.33D-05    CP:  8.91D-01  2.35D+00  1.21D+00  1.63D+00
 E= -466.855118349626     Delta-E=       -0.004590823053 Rises=F Damp=F
 DIIS: error= 2.22D-03 at cycle   5 NSaved=   5.
 NSaved= 5 IEnMin= 5 EnMin= -466.855118349626     IErMin= 5 ErrMin= 2.22D-03
 ErrMax= 2.22D-03  0.00D+00 EMaxC= 1.00D-01 BMatC= 7.86D-04 BMatP= 2.05D-03
 IDIUse=3 WtCom= 9.78D-01 WtEn= 2.22D-02
 Coeff-Com:  0.566D-01-0.122D+00-0.608D-01 0.309D+00 0.816D+00
 Coeff-En:   0.000D+00 0.000D+00 0.000D+00 0.000D+00 0.100D+01
 Coeff:      0.554D-01-0.119D+00-0.594D-01 0.303D+00 0.820D+00
 Gap=     0.318 Goal=   None    Shift=    0.000
 Gap=     0.318 Goal=   None    Shift=    0.000
 RMSDP=7.11D-05 MaxDP=2.81D-03 DE=-4.59D-03 OVMax= 2.68D-02

 Cycle   6  Pass 1  IDiag  1:
 RMSU=  3.10D-05    CP:  8.89D-01  2.36D+00  1.24D+00  1.89D+00  1.40D+00
 E= -466.856430790695     Delta-E=       -0.001312441069 Rises=F Damp=F
 DIIS: error= 1.59D-03 at cycle   6 NSaved=   6.
 NSaved= 6 IEnMin= 6 EnMin= -466.856430790695     IErMin= 6 ErrMin= 1.59D-03
 ErrMax= 1.59D-03  0.00D+00 EMaxC= 1.00D-01 BMatC= 5.12D-04 BMatP= 7.86D-04
 IDIUse=3 WtCom= 9.84D-01 WtEn= 1.59D-02
 Coeff-Com: -0.837D-01 0.179D+00 0.550D-01-0.623D+00 0.990D-01 0.137D+01
 Coeff-En:   0.000D+00 0.000D+00 0.000D+00 0.000D+00 0.000D+00 0.100D+01
 Coeff:     -0.824D-01 0.177D+00 0.541D-01-0.613D+00 0.974D-01 0.137D+01
 Gap=     0.315 Goal=   None    Shift=    0.000
 Gap=     0.315 Goal=   None    Shift=    0.000
 RMSDP=9.70D-05 MaxDP=3.97D-03 DE=-1.31D-03 OVMax= 3.68D-02

 Cycle   7  Pass 1  IDiag  1:
 RMSU=  3.02D-05    CP:  8.87D-01  2.36D+00  1.28D+00  2.17D+00  2.11D+00
                    CP:  2.28D+00
 E= -466.858015954598     Delta-E=       -0.001585163903 Rises=F Damp=F
 DIIS: error= 1.01D-03 at cycle   7 NSaved=   7.
 NSaved= 7 IEnMin= 7 EnMin= -466.858015954598     IErMin= 7 ErrMin= 1.01D-03
 ErrMax= 1.01D-03  0.00D+00 EMaxC= 1.00D-01 BMatC= 2.56D-04 BMatP= 5.12D-04
 IDIUse=3 WtCom= 9.90D-01 WtEn= 1.01D-02
 Coeff-Com: -0.262D-01 0.566D-01 0.416D-01-0.115D-01-0.771D+00-0.379D+00
 Coeff-Com:  0.209D+01
 Coeff-En:   0.000D+00 0.000D+00 0.000D+00 0.000D+00 0.000D+00 0.000D+00
 Coeff-En:   0.100D+01
 Coeff:     -0.259D-01 0.560D-01 0.412D-01-0.114D-01-0.763D+00-0.375D+00
 Coeff:      0.208D+01
 Gap=     0.315 Goal=   None    Shift=    0.000
 Gap=     0.315 Goal=   None    Shift=    0.000
 RMSDP=1.34D-04 MaxDP=6.33D-03 DE=-1.59D-03 OVMax= 5.01D-02

 Cycle   8  Pass 1  IDiag  1:
 RMSU=  5.49D-05    CP:  8.85D-01  2.36D+00  1.31D+00  2.48D+00  3.00D+00
                    CP:  3.00D+00  2.62D+00
 E= -466.859360039429     Delta-E=       -0.001344084832 Rises=F Damp=F
 DIIS: error= 3.48D-04 at cycle   8 NSaved=   8.
 NSaved= 8 IEnMin= 8 EnMin= -466.859360039429     IErMin= 8 ErrMin= 3.48D-04
 ErrMax= 3.48D-04  0.00D+00 EMaxC= 1.00D-01 BMatC= 5.74D-05 BMatP= 2.56D-04
 IDIUse=3 WtCom= 9.97D-01 WtEn= 3.48D-03
 Coeff-Com:  0.238D-01-0.512D-01-0.590D-02 0.254D+00-0.254D+00-0.650D+00
 Coeff-Com:  0.584D+00 0.110D+01
 Coeff-En:   0.000D+00 0.000D+00 0.000D+00 0.000D+00 0.000D+00 0.000D+00
 Coeff-En:   0.000D+00 0.100D+01
 Coeff:      0.238D-01-0.510D-01-0.588D-02 0.253D+00-0.253D+00-0.648D+00
 Coeff:      0.582D+00 0.110D+01
 Gap=     0.317 Goal=   None    Shift=    0.000
 Gap=     0.317 Goal=   None    Shift=    0.000
 RMSDP=5.84D-05 MaxDP=2.86D-03 DE=-1.34D-03 OVMax= 2.16D-02

 Cycle   9  Pass 1  IDiag  1:
 RMSU=  3.38D-05    CP:  8.84D-01  2.36D+00  1.33D+00  2.58D+00  3.00D+00
                    CP:  3.00D+00  3.00D+00  1.67D+00
 E= -466.859573536280     Delta-E=       -0.000213496851 Rises=F Damp=F
 DIIS: error= 1.12D-04 at cycle   9 NSaved=   9.
 NSaved= 9 IEnMin= 9 EnMin= -466.859573536280     IErMin= 9 ErrMin= 1.12D-04
 ErrMax= 1.12D-04  0.00D+00 EMaxC= 1.00D-01 BMatC= 8.53D-06 BMatP= 5.74D-05
 IDIUse=3 WtCom= 9.99D-01 WtEn= 1.12D-03
 Coeff-Com:  0.123D-01-0.265D-01-0.812D-02 0.867D-01 0.345D-01-0.153D+00
 Coeff-Com: -0.127D+00 0.299D+00 0.883D+00
 Coeff-En:   0.000D+00 0.000D+00 0.000D+00 0.000D+00 0.000D+00 0.000D+00
 Coeff-En:   0.000D+00 0.000D+00 0.100D+01
 Coeff:      0.123D-01-0.265D-01-0.811D-02 0.866D-01 0.345D-01-0.153D+00
 Coeff:     -0.127D+00 0.299D+00 0.883D+00
 Gap=     0.316 Goal=   None    Shift=    0.000
 Gap=     0.316 Goal=   None    Shift=    0.000
 RMSDP=1.38D-05 MaxDP=6.82D-04 DE=-2.13D-04 OVMax= 5.13D-03

 Cycle  10  Pass 1  IDiag  1:
 RMSU=  5.36D-06    CP:  8.84D-01  2.36D+00  1.33D+00  2.60D+00  3.00D+00
                    CP:  3.00D+00  3.00D+00  1.82D+00  1.25D+00
 E= -466.859588540811     Delta-E=       -0.000015004531 Rises=F Damp=F
 DIIS: error= 4.83D-05 at cycle  10 NSaved=  10.
 NSaved=10 IEnMin=10 EnMin= -466.859588540811     IErMin=10 ErrMin= 4.83D-05
 ErrMax= 4.83D-05  0.00D+00 EMaxC= 1.00D-01 BMatC= 1.32D-06 BMatP= 8.53D-06
 IDIUse=1 WtCom= 1.00D+00 WtEn= 0.00D+00
 Coeff-Com: -0.164D-02 0.354D-02-0.522D-03-0.288D-01 0.456D-01 0.837D-01
 Coeff-Com: -0.110D+00-0.178D+00 0.162D+00 0.102D+01
 Coeff:     -0.164D-02 0.354D-02-0.522D-03-0.288D-01 0.456D-01 0.837D-01
 Coeff:     -0.110D+00-0.178D+00 0.162D+00 0.102D+01
 Gap=     0.316 Goal=   None    Shift=    0.000
 Gap=     0.316 Goal=   None    Shift=    0.000
 RMSDP=6.04D-06 MaxDP=2.84D-04 DE=-1.50D-05 OVMax= 2.23D-03

 Cycle  11  Pass 1  IDiag  1:
 RMSU=  2.27D-06    CP:  8.84D-01  2.36D+00  1.34D+00  2.61D+00  3.00D+00
                    CP:  3.00D+00  3.00D+00  1.87D+00  1.35D+00  1.44D+00
 E= -466.859590480138     Delta-E=       -0.000001939327 Rises=F Damp=F
 DIIS: error= 1.85D-05 at cycle  11 NSaved=  11.
 NSaved=11 IEnMin=11 EnMin= -466.859590480138     IErMin=11 ErrMin= 1.85D-05
 ErrMax= 1.85D-05  0.00D+00 EMaxC= 1.00D-01 BMatC= 2.82D-07 BMatP= 1.32D-06
 IDIUse=1 WtCom= 1.00D+00 WtEn= 0.00D+00
 Coeff-Com: -0.133D-02 0.286D-02 0.244D-03-0.159D-01 0.142D-01 0.393D-01
 Coeff-Com: -0.286D-01-0.872D-01-0.624D-02 0.389D+00 0.694D+00
 Coeff:     -0.133D-02 0.286D-02 0.244D-03-0.159D-01 0.142D-01 0.393D-01
 Coeff:     -0.286D-01-0.872D-01-0.624D-02 0.389D+00 0.694D+00
 Gap=     0.316 Goal=   None    Shift=    0.000
 Gap=     0.316 Goal=   None    Shift=    0.000
 RMSDP=9.08D-07 MaxDP=4.92D-05 DE=-1.94D-06 OVMax= 2.14D-04

 Cycle  12  Pass 1  IDiag  1:
 RMSU=  6.27D-07    CP:  8.84D-01  2.36D+00  1.34D+00  2.61D+00  3.00D+00
                    CP:  3.00D+00  3.00D+00  1.87D+00  1.36D+00  1.48D+00
                    CP:  1.18D+00
 E= -466.859590628533     Delta-E=       -0.000000148395 Rises=F Damp=F
 DIIS: error= 1.18D-05 at cycle  12 NSaved=  12.
 NSaved=12 IEnMin=12 EnMin= -466.859590628533     IErMin=12 ErrMin= 1.18D-05
 ErrMax= 1.18D-05  0.00D+00 EMaxC= 1.00D-01 BMatC= 6.07D-08 BMatP= 2.82D-07
 IDIUse=1 WtCom= 1.00D+00 WtEn= 0.00D+00
 Coeff-Com:  0.391D-03-0.849D-03 0.128D-04 0.631D-02-0.842D-02-0.181D-01
 Coeff-Com:  0.234D-01 0.371D-01-0.387D-01-0.232D+00 0.128D+00 0.110D+01
 Coeff:      0.391D-03-0.849D-03 0.128D-04 0.631D-02-0.842D-02-0.181D-01
 Coeff:      0.234D-01 0.371D-01-0.387D-01-0.232D+00 0.128D+00 0.110D+01
 Gap=     0.316 Goal=   None    Shift=    0.000
 Gap=     0.316 Goal=   None    Shift=    0.000
 RMSDP=6.98D-07 MaxDP=2.91D-05 DE=-1.48D-07 OVMax= 1.35D-04

 Cycle  13  Pass 1  IDiag  1:
 RMSU=  4.13D-07    CP:  8.84D-01  2.36D+00  1.34D+00  2.61D+00  3.00D+00
                    CP:  3.00D+00  3.00D+00  1.87D+00  1.36D+00  1.49D+00
                    CP:  1.34D+00  1.58D+00
 E= -466.859590704816     Delta-E=       -0.000000076283 Rises=F Damp=F
 DIIS: error= 6.43D-06 at cycle  13 NSaved=  13.
 NSaved=13 IEnMin=13 EnMin= -466.859590704816     IErMin=13 ErrMin= 6.43D-06
 ErrMax= 6.43D-06  0.00D+00 EMaxC= 1.00D-01 BMatC= 1.30D-08 BMatP= 6.07D-08
 IDIUse=1 WtCom= 1.00D+00 WtEn= 0.00D+00
 Coeff-Com: -0.706D-04 0.155D-03 0.680D-04-0.606D-03 0.514D-03 0.134D-02
 Coeff-Com: -0.225D-02-0.449D-03 0.515D-02 0.454D-02-0.139D+00-0.261D+00
 Coeff-Com:  0.139D+01
 Coeff:     -0.706D-04 0.155D-03 0.680D-04-0.606D-03 0.514D-03 0.134D-02
 Coeff:     -0.225D-02-0.449D-03 0.515D-02 0.454D-02-0.139D+00-0.261D+00
 Coeff:      0.139D+01
 Gap=     0.316 Goal=   None    Shift=    0.000
 Gap=     0.316 Goal=   None    Shift=    0.000
 RMSDP=3.71D-07 MaxDP=2.03D-05 DE=-7.63D-08 OVMax= 9.00D-05

 Cycle  14  Pass 1  IDiag  1:
 RMSU=  2.50D-07    CP:  8.84D-01  2.36D+00  1.34D+00  2.61D+00  3.00D+00
                    CP:  3.00D+00  3.00D+00  1.87D+00  1.36D+00  1.49D+00
                    CP:  1.38D+00  1.81D+00  1.52D+00
 E= -466.859590732794     Delta-E=       -0.000000027978 Rises=F Damp=F
 DIIS: error= 3.45D-06 at cycle  14 NSaved=  14.
 NSaved=14 IEnMin=14 EnMin= -466.859590732794     IErMin=14 ErrMin= 3.45D-06
 ErrMax= 3.45D-06  0.00D+00 EMaxC= 1.00D-01 BMatC= 3.99D-09 BMatP= 1.30D-08
 IDIUse=1 WtCom= 1.00D+00 WtEn= 0.00D+00
 Coeff-Com: -0.149D-03 0.321D-03 0.502D-04-0.191D-02 0.209D-02 0.514D-02
 Coeff-Com: -0.650D-02-0.993D-02 0.122D-01 0.673D-01-0.637D-01-0.372D+00
 Coeff-Com:  0.155D+00 0.121D+01
 Coeff:     -0.149D-03 0.321D-03 0.502D-04-0.191D-02 0.209D-02 0.514D-02
 Coeff:     -0.650D-02-0.993D-02 0.122D-01 0.673D-01-0.637D-01-0.372D+00
 Coeff:      0.155D+00 0.121D+01
 Gap=     0.316 Goal=   None    Shift=    0.000
 Gap=     0.316 Goal=   None    Shift=    0.000
 RMSDP=2.60D-07 MaxDP=1.18D-05 DE=-2.80D-08 OVMax= 6.32D-05

 Cycle  15  Pass 1  IDiag  1:
 RMSU=  9.27D-08    CP:  8.84D-01  2.36D+00  1.34D+00  2.61D+00  3.00D+00
                    CP:  3.00D+00  3.00D+00  1.87D+00  1.36D+00  1.50D+00
                    CP:  1.38D+00  1.90D+00  1.83D+00  1.77D+00
 E= -466.859590741532     Delta-E=       -0.000000008738 Rises=F Damp=F
 DIIS: error= 1.24D-06 at cycle  15 NSaved=  15.
 NSaved=15 IEnMin=15 EnMin= -466.859590741532     IErMin=15 ErrMin= 1.24D-06
 ErrMax= 1.24D-06  0.00D+00 EMaxC= 1.00D-01 BMatC= 6.47D-10 BMatP= 3.99D-09
 IDIUse=1 WtCom= 1.00D+00 WtEn= 0.00D+00
 Coeff-Com:  0.231D-04-0.501D-04-0.285D-04 0.115D-03 0.912D-04-0.715D-04
 Coeff-Com: -0.403D-03-0.209D-03 0.177D-02 0.629D-02 0.211D-01 0.511D-02
 Coeff-Com: -0.316D+00 0.182D+00 0.110D+01
 Coeff:      0.231D-04-0.501D-04-0.285D-04 0.115D-03 0.912D-04-0.715D-04
 Coeff:     -0.403D-03-0.209D-03 0.177D-02 0.629D-02 0.211D-01 0.511D-02
 Coeff:     -0.316D+00 0.182D+00 0.110D+01
 Gap=     0.316 Goal=   None    Shift=    0.000
 Gap=     0.316 Goal=   None    Shift=    0.000
 RMSDP=1.23D-07 MaxDP=5.11D-06 DE=-8.74D-09 OVMax= 2.75D-05

 Cycle  16  Pass 1  IDiag  1:
 RMSU=  4.08D-08    CP:  8.84D-01  2.36D+00  1.34D+00  2.61D+00  3.00D+00
                    CP:  3.00D+00  3.00D+00  1.87D+00  1.36D+00  1.50D+00
                    CP:  1.37D+00  1.90D+00  1.93D+00  2.13D+00  1.51D+00
 E= -466.859590742674     Delta-E=       -0.000000001142 Rises=F Damp=F
 DIIS: error= 2.27D-07 at cycle  16 NSaved=  16.
 NSaved=16 IEnMin=16 EnMin= -466.859590742674     IErMin=16 ErrMin= 2.27D-07
 ErrMax= 2.27D-07  0.00D+00 EMaxC= 1.00D-01 BMatC= 6.13D-11 BMatP= 6.47D-10
 IDIUse=1 WtCom= 1.00D+00 WtEn= 0.00D+00
 Coeff-Com:  0.102D-04-0.219D-04-0.773D-05 0.124D-03-0.115D-03-0.295D-03
 Coeff-Com:  0.329D-03 0.604D-03-0.774D-03-0.408D-02 0.114D-01 0.340D-01
 Coeff-Com: -0.863D-01-0.745D-01 0.255D+00 0.865D+00
 Coeff:      0.102D-04-0.219D-04-0.773D-05 0.124D-03-0.115D-03-0.295D-03
 Coeff:      0.329D-03 0.604D-03-0.774D-03-0.408D-02 0.114D-01 0.340D-01
 Coeff:     -0.863D-01-0.745D-01 0.255D+00 0.865D+00
 Gap=     0.316 Goal=   None    Shift=    0.000
 Gap=     0.316 Goal=   None    Shift=    0.000
 RMSDP=2.83D-08 MaxDP=1.31D-06 DE=-1.14D-09 OVMax= 4.46D-06

 Cycle  17  Pass 1  IDiag  1:
 RMSU=  1.21D-08    CP:  8.84D-01  2.36D+00  1.34D+00  2.61D+00  3.00D+00
                    CP:  3.00D+00  3.00D+00  1.87D+00  1.36D+00  1.50D+00
                    CP:  1.37D+00  1.90D+00  1.93D+00  2.18D+00  1.63D+00
                    CP:  1.32D+00
 E= -466.859590742718     Delta-E=       -0.000000000044 Rises=F Damp=F
 DIIS: error= 8.19D-08 at cycle  17 NSaved=  17.
 NSaved=17 IEnMin=17 EnMin= -466.859590742718     IErMin=17 ErrMin= 8.19D-08
 ErrMax= 8.19D-08  0.00D+00 EMaxC= 1.00D-01 BMatC= 7.11D-12 BMatP= 6.13D-11
 IDIUse=1 WtCom= 1.00D+00 WtEn= 0.00D+00
 Coeff-Com: -0.716D-06 0.158D-05 0.111D-05 0.154D-05-0.237D-04-0.444D-05
 Coeff-Com:  0.593D-04 0.868D-04-0.370D-03-0.125D-02-0.460D-03 0.443D-02
 Coeff-Com:  0.248D-01-0.337D-01-0.986D-01 0.143D+00 0.962D+00
 Coeff:     -0.716D-06 0.158D-05 0.111D-05 0.154D-05-0.237D-04-0.444D-05
 Coeff:      0.593D-04 0.868D-04-0.370D-03-0.125D-02-0.460D-03 0.443D-02
 Coeff:      0.248D-01-0.337D-01-0.986D-01 0.143D+00 0.962D+00
 Gap=     0.316 Goal=   None    Shift=    0.000
 Gap=     0.316 Goal=   None    Shift=    0.000
 RMSDP=9.74D-09 MaxDP=3.08D-07 DE=-4.37D-11 OVMax= 1.46D-06

 Error on total polarization charges =  0.01181
 SCF Done:  E(UwB97XD) =  -466.859590743     A.U. after   17 cycles
            NFock= 17  Conv=0.97D-08     -V/T= 2.0058
 <Sx>= 0.0000 <Sy>= 0.0000 <Sz>= 0.0000 <S**2>= 0.0000 S= 0.0000
 <L.S>=  0.00000000000    
 KE= 4.641477996726D+02 PE=-2.423394958096D+03 EE= 8.215604800288D+02
 --------------------------------------------------------------------
 Variational PCM results
 =======================
 <psi(f)|   H    |psi(f)>                     (a.u.) =    -466.858086
 <psi(f)|H+V(f)/2|psi(f)>                     (a.u.) =    -466.859591
 (Polarized solute)-Solvent               (kcal/mol) =      -0.94
 --------------------------------------------------------------------
 Partition over spheres:
 Sphere  on Atom  Surface  Charge   GEl     GCav    GDR
    1      C1       7.00   0.010   -0.05    0.00    0.00
    2      C2       5.04   0.007   -0.04    0.00    0.00
    3      H3       7.52  -0.010   -0.04    0.00    0.00
    4      H4       3.69  -0.004   -0.01    0.00    0.00
    5      C5       4.05   0.007   -0.04    0.00    0.00
    6      C6       4.27   0.005   -0.03    0.00    0.00
    7      H7       4.83  -0.007   -0.03    0.00    0.00
    8      H8       4.07  -0.005   -0.01    0.00    0.00
    9      C9       3.60   0.002    0.00    0.00    0.00
   10      H10      7.18  -0.007   -0.01    0.00    0.00
   11      H11      3.20  -0.003   -0.01    0.00    0.00
   12      C12      6.29   0.010   -0.06    0.00    0.00
   13      H13      7.52  -0.010   -0.03    0.00    0.00
   14      C14      7.00   0.010   -0.05    0.00    0.00
   15      H15      7.52  -0.010   -0.04    0.00    0.00
   16      C16      3.54   0.002    0.00    0.00    0.00
   17      H17      2.73  -0.002   -0.01    0.00    0.00
   18      H18      7.42  -0.008   -0.03    0.00    0.00
   19      C19      5.09   0.009   -0.06    0.00    0.00
   20      H20      5.00  -0.007   -0.03    0.00    0.00
   21      C21      6.52   0.010   -0.06    0.00    0.00
   22      H22      7.51  -0.010   -0.03    0.00    0.00
   23      C23      3.60   0.002    0.00    0.00    0.00
   24      H24      2.99  -0.003   -0.01    0.00    0.00
   25      H25      7.17  -0.007   -0.01    0.00    0.00
   26      C26      3.47   0.002    0.00    0.00    0.00
   27      H27      7.42  -0.008   -0.03    0.00    0.00
   28      H28      2.70  -0.002   -0.01    0.00    0.00
 Added spheres:    76.37   0.016   -0.23    0.00    0.00
 --------------------------------------------------------------------
 After PCM corrections, the energy is  -466.859590743     a.u.
 --------------------------------------------------------------------
 Annihilation of the first spin contaminant:
 S**2 before annihilation     0.0000,   after    -0.0000
 Leave Link  502 at Mon Aug  3 14:12:33 2020, MaxMem=  6442450944 cpu:            7010.0 elap:             294.8
 (Enter /scratch/scicomp/CentOS/7.3.1611/Haswell/software/Gaussian/g16/l601.exe)
 Copying SCF densities to generalized density rwf, IOpCl= 1 IROHF=0.

 **********************************************************************

            Population analysis using the SCF Density.

 **********************************************************************

 Alpha  occ. eigenvalues --  -10.28479 -10.28477 -10.28332 -10.28331 -10.28313
 Alpha  occ. eigenvalues --  -10.28311 -10.28230 -10.28228 -10.28023 -10.28021
 Alpha  occ. eigenvalues --  -10.27704 -10.27702  -0.94170  -0.93744  -0.84197
 Alpha  occ. eigenvalues --   -0.84144  -0.83941  -0.83761  -0.71355  -0.71276
 Alpha  occ. eigenvalues --   -0.67981  -0.67975  -0.59789  -0.59649  -0.57459
 Alpha  occ. eigenvalues --   -0.56888  -0.53510  -0.52766  -0.50980  -0.50922
 Alpha  occ. eigenvalues --   -0.49994  -0.49555  -0.47354  -0.47023  -0.45162
 Alpha  occ. eigenvalues --   -0.45097  -0.41280  -0.41091  -0.39711  -0.39313
 Alpha  occ. eigenvalues --   -0.39291  -0.39106  -0.29821  -0.27847
 Alpha virt. eigenvalues --    0.03737   0.04644   0.10516   0.12222   0.13307
 Alpha virt. eigenvalues --    0.14336   0.14691   0.15527   0.15636   0.15870
 Alpha virt. eigenvalues --    0.16848   0.16887   0.17126   0.18208   0.19911
 Alpha virt. eigenvalues --    0.20876   0.21399   0.22719   0.23222   0.23616
 Alpha virt. eigenvalues --    0.24786   0.25596   0.25806   0.26886   0.27867
 Alpha virt. eigenvalues --    0.28173   0.28838   0.29180   0.29796   0.30452
 Alpha virt. eigenvalues --    0.31212   0.31745   0.31981   0.32157   0.32899
 Alpha virt. eigenvalues --    0.33357   0.34092   0.35191   0.35478   0.37246
 Alpha virt. eigenvalues --    0.37434   0.38463   0.39433   0.41038   0.41219
 Alpha virt. eigenvalues --    0.41358   0.43192   0.43845   0.45082   0.45721
 Alpha virt. eigenvalues --    0.46067   0.46250   0.47503   0.47833   0.48199
 Alpha virt. eigenvalues --    0.48361   0.48866   0.49147   0.49550   0.49744
 Alpha virt. eigenvalues --    0.50370   0.50423   0.51331   0.51775   0.52435
 Alpha virt. eigenvalues --    0.52731   0.53413   0.54225   0.54360   0.54949
 Alpha virt. eigenvalues --    0.56874   0.57405   0.57518   0.58933   0.59239
 Alpha virt. eigenvalues --    0.59637   0.60778   0.62539   0.62978   0.64049
 Alpha virt. eigenvalues --    0.64902   0.66544   0.67736   0.68269   0.68936
 Alpha virt. eigenvalues --    0.71062   0.71985   0.72631   0.73199   0.74797
 Alpha virt. eigenvalues --    0.76552   0.78013   0.78196   0.80473   0.81362
 Alpha virt. eigenvalues --    0.81724   0.82008   0.82550   0.87039   0.87233
 Alpha virt. eigenvalues --    0.88188   0.88195   0.90588   0.91397   0.92006
 Alpha virt. eigenvalues --    0.92367   0.95017   0.96025   0.98477   0.98786
 Alpha virt. eigenvalues --    1.00519   1.03452   1.03800   1.04115   1.04386
 Alpha virt. eigenvalues --    1.06692   1.06731   1.07936   1.09315   1.11387
 Alpha virt. eigenvalues --    1.13145   1.13282   1.14183   1.14645   1.15421
 Alpha virt. eigenvalues --    1.15843   1.16405   1.16558   1.18710   1.20467
 Alpha virt. eigenvalues --    1.21096   1.22162   1.23654   1.23686   1.24665
 Alpha virt. eigenvalues --    1.25274   1.25615   1.26501   1.26967   1.28386
 Alpha virt. eigenvalues --    1.28506   1.30299   1.31850   1.32415   1.32527
 Alpha virt. eigenvalues --    1.34033   1.34607   1.35892   1.36888   1.38023
 Alpha virt. eigenvalues --    1.38685   1.39775   1.40422   1.40880   1.41456
 Alpha virt. eigenvalues --    1.42423   1.42526   1.43748   1.44576   1.45206
 Alpha virt. eigenvalues --    1.45768   1.46497   1.46681   1.46962   1.48613
 Alpha virt. eigenvalues --    1.49950   1.50144   1.50371   1.53407   1.55486
 Alpha virt. eigenvalues --    1.56066   1.57596   1.58147   1.58252   1.60866
 Alpha virt. eigenvalues --    1.61010   1.62550   1.63358   1.65124   1.67621
 Alpha virt. eigenvalues --    1.68438   1.69919   1.70399   1.73192   1.75657
 Alpha virt. eigenvalues --    1.76002   1.79897   1.80125   1.82762   1.83748
 Alpha virt. eigenvalues --    1.86231   1.87787   1.89584   1.89954   1.91350
 Alpha virt. eigenvalues --    1.92547   1.95840   1.99682   2.00809   2.01332
 Alpha virt. eigenvalues --    2.03931   2.05327   2.06610   2.07655   2.08522
 Alpha virt. eigenvalues --    2.08912   2.11612   2.12369   2.13125   2.15371
 Alpha virt. eigenvalues --    2.18361   2.19562   2.19965   2.20645   2.22283
 Alpha virt. eigenvalues --    2.23046   2.23392   2.24176   2.25960   2.26217
 Alpha virt. eigenvalues --    2.28804   2.33016   2.37080   2.37836   2.40434
 Alpha virt. eigenvalues --    2.42806   2.45863   2.46127   2.48615   2.49793
 Alpha virt. eigenvalues --    2.49901   2.50222   2.53261   2.54091   2.54524
 Alpha virt. eigenvalues --    2.55117   2.57186   2.57475   2.60463   2.61087
 Alpha virt. eigenvalues --    2.62070   2.64322   2.64340   2.65067   2.66248
 Alpha virt. eigenvalues --    2.67743   2.67815   2.70363   2.72211   2.72324
 Alpha virt. eigenvalues --    2.73075   2.73185   2.74698   2.75861   2.76989
 Alpha virt. eigenvalues --    2.77462   2.77561   2.78897   2.80599   2.81091
 Alpha virt. eigenvalues --    2.81444   2.82004   2.82346   2.83659   2.84578
 Alpha virt. eigenvalues --    2.84724   2.86144   2.87201   2.88444   2.88910
 Alpha virt. eigenvalues --    2.89921   2.90081   2.92373   2.92715   2.93137
 Alpha virt. eigenvalues --    2.94633   2.94704   2.95044   2.95958   2.99016
 Alpha virt. eigenvalues --    3.01684   3.01908   3.02804   3.04161   3.06258
 Alpha virt. eigenvalues --    3.06357   3.08398   3.09142   3.09409   3.10808
 Alpha virt. eigenvalues --    3.12037   3.12633   3.12859   3.14079   3.14800
 Alpha virt. eigenvalues --    3.14876   3.16994   3.17021   3.18575   3.18709
 Alpha virt. eigenvalues --    3.19494   3.19693   3.20123   3.20860   3.21123
 Alpha virt. eigenvalues --    3.22147   3.22825   3.23187   3.23392   3.23972
 Alpha virt. eigenvalues --    3.25491   3.26077   3.26806   3.27275   3.28071
 Alpha virt. eigenvalues --    3.28858   3.28929   3.30452   3.31156   3.31190
 Alpha virt. eigenvalues --    3.32200   3.32897   3.32934   3.33502   3.34243
 Alpha virt. eigenvalues --    3.34851   3.35592   3.35952   3.37489   3.38175
 Alpha virt. eigenvalues --    3.38855   3.39840   3.42085   3.43569   3.43685
 Alpha virt. eigenvalues --    3.44773   3.45468   3.46365   3.46430   3.46825
 Alpha virt. eigenvalues --    3.48579   3.48789   3.49039   3.49641   3.50946
 Alpha virt. eigenvalues --    3.51224   3.52436   3.53335   3.54621   3.54966
 Alpha virt. eigenvalues --    3.55131   3.55799   3.58513   3.58992   3.62456
 Alpha virt. eigenvalues --    3.63803   3.64710   3.64943   3.65095   3.65606
 Alpha virt. eigenvalues --    3.68069   3.68421   3.70520   3.71668   3.72120
 Alpha virt. eigenvalues --    3.74351   3.76115   3.76849   3.78797   3.79545
 Alpha virt. eigenvalues --    3.84674   3.84710   3.85443   3.86033   3.86234
 Alpha virt. eigenvalues --    3.87964   3.90361   3.90588   3.92898   3.93604
 Alpha virt. eigenvalues --    3.94956   3.95407   3.99708   3.99913   4.02189
 Alpha virt. eigenvalues --    4.04397   4.08220   4.08657   4.08889   4.10501
 Alpha virt. eigenvalues --    4.11721   4.12763   4.13326   4.15898   4.17831
 Alpha virt. eigenvalues --    4.18731   4.19755   4.21268   4.22661   4.23450
 Alpha virt. eigenvalues --    4.25047   4.27254   4.30776   4.30919   4.33416
 Alpha virt. eigenvalues --    4.35055   4.37508   4.37584   4.39122   4.40572
 Alpha virt. eigenvalues --    4.43377   4.44066   4.46023   4.47670   4.49222
 Alpha virt. eigenvalues --    4.50108   4.58805   4.60680   4.61968   4.65464
 Alpha virt. eigenvalues --    4.68672   4.69077   4.71687   4.73919   4.74754
 Alpha virt. eigenvalues --    4.75492   4.77873   4.78392   4.80473   4.83323
 Alpha virt. eigenvalues --    4.84303   4.84452   4.89174   4.89723   4.93909
 Alpha virt. eigenvalues --    4.93920   4.95924   4.98039   5.05752   5.08121
 Alpha virt. eigenvalues --    5.11634   5.11859   5.17890   5.19065   5.22834
 Alpha virt. eigenvalues --    5.23423   5.29927   5.31967   5.40008   5.40510
 Alpha virt. eigenvalues --    5.43162   5.44526   5.48742   5.49000   5.66771
 Alpha virt. eigenvalues --    5.70321   5.75042   5.77224   5.92310   5.98845
 Alpha virt. eigenvalues --    7.93900   7.95514   8.01727   8.03592   8.05904
 Alpha virt. eigenvalues --    8.06678   8.10566   8.11116   8.17441   8.18165
 Alpha virt. eigenvalues --    8.33853   8.35915  34.76087  34.77662  34.80796
 Alpha virt. eigenvalues --   34.81860  34.85959  34.86774  34.97066  34.97749
 Alpha virt. eigenvalues --   35.00359  35.01541  35.15305  35.18656
  Beta  occ. eigenvalues --  -10.28479 -10.28477 -10.28332 -10.28331 -10.28313
  Beta  occ. eigenvalues --  -10.28311 -10.28230 -10.28228 -10.28023 -10.28021
  Beta  occ. eigenvalues --  -10.27704 -10.27702  -0.94170  -0.93744  -0.84197
  Beta  occ. eigenvalues --   -0.84144  -0.83941  -0.83761  -0.71355  -0.71276
  Beta  occ. eigenvalues --   -0.67981  -0.67975  -0.59789  -0.59649  -0.57459
  Beta  occ. eigenvalues --   -0.56888  -0.53510  -0.52766  -0.50980  -0.50922
  Beta  occ. eigenvalues --   -0.49994  -0.49555  -0.47354  -0.47023  -0.45162
  Beta  occ. eigenvalues --   -0.45097  -0.41280  -0.41091  -0.39711  -0.39313
  Beta  occ. eigenvalues --   -0.39291  -0.39106  -0.29821  -0.27847
  Beta virt. eigenvalues --    0.03737   0.04644   0.10516   0.12222   0.13307
  Beta virt. eigenvalues --    0.14336   0.14691   0.15527   0.15636   0.15870
  Beta virt. eigenvalues --    0.16848   0.16887   0.17126   0.18208   0.19911
  Beta virt. eigenvalues --    0.20876   0.21399   0.22719   0.23222   0.23616
  Beta virt. eigenvalues --    0.24786   0.25596   0.25806   0.26886   0.27867
  Beta virt. eigenvalues --    0.28173   0.28838   0.29180   0.29796   0.30452
  Beta virt. eigenvalues --    0.31212   0.31745   0.31981   0.32157   0.32899
  Beta virt. eigenvalues --    0.33357   0.34092   0.35191   0.35478   0.37246
  Beta virt. eigenvalues --    0.37434   0.38463   0.39433   0.41038   0.41219
  Beta virt. eigenvalues --    0.41358   0.43192   0.43845   0.45082   0.45721
  Beta virt. eigenvalues --    0.46067   0.46250   0.47503   0.47833   0.48199
  Beta virt. eigenvalues --    0.48361   0.48866   0.49147   0.49550   0.49744
  Beta virt. eigenvalues --    0.50370   0.50423   0.51331   0.51775   0.52435
  Beta virt. eigenvalues --    0.52731   0.53413   0.54225   0.54360   0.54949
  Beta virt. eigenvalues --    0.56874   0.57405   0.57518   0.58933   0.59239
  Beta virt. eigenvalues --    0.59637   0.60778   0.62539   0.62978   0.64049
  Beta virt. eigenvalues --    0.64902   0.66544   0.67736   0.68269   0.68936
  Beta virt. eigenvalues --    0.71062   0.71985   0.72631   0.73199   0.74797
  Beta virt. eigenvalues --    0.76552   0.78013   0.78196   0.80473   0.81362
  Beta virt. eigenvalues --    0.81724   0.82008   0.82550   0.87039   0.87233
  Beta virt. eigenvalues --    0.88188   0.88195   0.90588   0.91397   0.92006
  Beta virt. eigenvalues --    0.92367   0.95017   0.96025   0.98477   0.98786
  Beta virt. eigenvalues --    1.00519   1.03452   1.03800   1.04115   1.04386
  Beta virt. eigenvalues --    1.06692   1.06731   1.07936   1.09315   1.11387
  Beta virt. eigenvalues --    1.13145   1.13282   1.14183   1.14645   1.15421
  Beta virt. eigenvalues --    1.15843   1.16405   1.16558   1.18710   1.20467
  Beta virt. eigenvalues --    1.21096   1.22162   1.23654   1.23686   1.24665
  Beta virt. eigenvalues --    1.25274   1.25615   1.26501   1.26967   1.28386
  Beta virt. eigenvalues --    1.28506   1.30299   1.31850   1.32415   1.32527
  Beta virt. eigenvalues --    1.34033   1.34607   1.35892   1.36888   1.38023
  Beta virt. eigenvalues --    1.38685   1.39775   1.40422   1.40880   1.41456
  Beta virt. eigenvalues --    1.42423   1.42526   1.43748   1.44576   1.45206
  Beta virt. eigenvalues --    1.45768   1.46497   1.46681   1.46962   1.48613
  Beta virt. eigenvalues --    1.49950   1.50144   1.50371   1.53407   1.55486
  Beta virt. eigenvalues --    1.56066   1.57596   1.58147   1.58252   1.60866
  Beta virt. eigenvalues --    1.61010   1.62550   1.63358   1.65124   1.67621
  Beta virt. eigenvalues --    1.68438   1.69919   1.70399   1.73192   1.75657
  Beta virt. eigenvalues --    1.76002   1.79897   1.80125   1.82762   1.83748
  Beta virt. eigenvalues --    1.86231   1.87787   1.89584   1.89954   1.91350
  Beta virt. eigenvalues --    1.92547   1.95840   1.99682   2.00809   2.01332
  Beta virt. eigenvalues --    2.03931   2.05327   2.06610   2.07655   2.08522
  Beta virt. eigenvalues --    2.08912   2.11612   2.12369   2.13125   2.15371
  Beta virt. eigenvalues --    2.18361   2.19562   2.19965   2.20645   2.22283
  Beta virt. eigenvalues --    2.23046   2.23392   2.24176   2.25960   2.26217
  Beta virt. eigenvalues --    2.28804   2.33016   2.37080   2.37836   2.40434
  Beta virt. eigenvalues --    2.42806   2.45863   2.46127   2.48615   2.49793
  Beta virt. eigenvalues --    2.49901   2.50222   2.53261   2.54091   2.54524
  Beta virt. eigenvalues --    2.55117   2.57186   2.57475   2.60463   2.61087
  Beta virt. eigenvalues --    2.62070   2.64322   2.64340   2.65067   2.66248
  Beta virt. eigenvalues --    2.67743   2.67815   2.70363   2.72211   2.72324
  Beta virt. eigenvalues --    2.73075   2.73185   2.74698   2.75861   2.76989
  Beta virt. eigenvalues --    2.77462   2.77561   2.78897   2.80599   2.81091
  Beta virt. eigenvalues --    2.81444   2.82004   2.82346   2.83659   2.84578
  Beta virt. eigenvalues --    2.84724   2.86144   2.87201   2.88444   2.88910
  Beta virt. eigenvalues --    2.89921   2.90081   2.92373   2.92715   2.93137
  Beta virt. eigenvalues --    2.94633   2.94704   2.95044   2.95958   2.99016
  Beta virt. eigenvalues --    3.01684   3.01908   3.02804   3.04161   3.06258
  Beta virt. eigenvalues --    3.06357   3.08398   3.09142   3.09409   3.10808
  Beta virt. eigenvalues --    3.12037   3.12633   3.12859   3.14079   3.14800
  Beta virt. eigenvalues --    3.14876   3.16994   3.17021   3.18575   3.18709
  Beta virt. eigenvalues --    3.19494   3.19693   3.20123   3.20860   3.21123
  Beta virt. eigenvalues --    3.22147   3.22825   3.23187   3.23392   3.23972
  Beta virt. eigenvalues --    3.25491   3.26077   3.26806   3.27275   3.28071
  Beta virt. eigenvalues --    3.28858   3.28929   3.30452   3.31156   3.31190
  Beta virt. eigenvalues --    3.32200   3.32897   3.32934   3.33502   3.34243
  Beta virt. eigenvalues --    3.34851   3.35592   3.35952   3.37489   3.38175
  Beta virt. eigenvalues --    3.38855   3.39840   3.42085   3.43569   3.43685
  Beta virt. eigenvalues --    3.44773   3.45468   3.46365   3.46430   3.46825
  Beta virt. eigenvalues --    3.48579   3.48789   3.49039   3.49641   3.50946
  Beta virt. eigenvalues --    3.51224   3.52436   3.53335   3.54621   3.54966
  Beta virt. eigenvalues --    3.55131   3.55799   3.58513   3.58992   3.62456
  Beta virt. eigenvalues --    3.63803   3.64710   3.64943   3.65095   3.65606
  Beta virt. eigenvalues --    3.68069   3.68421   3.70520   3.71668   3.72120
  Beta virt. eigenvalues --    3.74351   3.76115   3.76849   3.78797   3.79545
  Beta virt. eigenvalues --    3.84674   3.84710   3.85443   3.86033   3.86234
  Beta virt. eigenvalues --    3.87964   3.90361   3.90588   3.92898   3.93604
  Beta virt. eigenvalues --    3.94956   3.95407   3.99708   3.99913   4.02189
  Beta virt. eigenvalues --    4.04397   4.08220   4.08657   4.08889   4.10501
  Beta virt. eigenvalues --    4.11721   4.12763   4.13326   4.15898   4.17831
  Beta virt. eigenvalues --    4.18731   4.19755   4.21268   4.22661   4.23450
  Beta virt. eigenvalues --    4.25047   4.27254   4.30776   4.30919   4.33416
  Beta virt. eigenvalues --    4.35055   4.37508   4.37584   4.39122   4.40572
  Beta virt. eigenvalues --    4.43377   4.44066   4.46023   4.47670   4.49222
  Beta virt. eigenvalues --    4.50108   4.58805   4.60680   4.61968   4.65464
  Beta virt. eigenvalues --    4.68672   4.69077   4.71687   4.73919   4.74754
  Beta virt. eigenvalues --    4.75492   4.77873   4.78392   4.80473   4.83323
  Beta virt. eigenvalues --    4.84303   4.84452   4.89174   4.89723   4.93909
  Beta virt. eigenvalues --    4.93920   4.95924   4.98039   5.05752   5.08121
  Beta virt. eigenvalues --    5.11634   5.11859   5.17890   5.19065   5.22834
  Beta virt. eigenvalues --    5.23423   5.29927   5.31967   5.40008   5.40510
  Beta virt. eigenvalues --    5.43162   5.44526   5.48742   5.49000   5.66771
  Beta virt. eigenvalues --    5.70321   5.75042   5.77224   5.92310   5.98845
  Beta virt. eigenvalues --    7.93900   7.95514   8.01727   8.03592   8.05904
  Beta virt. eigenvalues --    8.06678   8.10566   8.11116   8.17441   8.18165
  Beta virt. eigenvalues --    8.33853   8.35915  34.76087  34.77662  34.80796
  Beta virt. eigenvalues --   34.81860  34.85959  34.86774  34.97066  34.97749
  Beta virt. eigenvalues --   35.00359  35.01541  35.15305  35.18656
          Condensed to atoms (all electrons):
               1          2          3          4          5          6
     1  C    5.121176   0.010512   0.423322  -0.001788   0.000282  -0.003411
     2  C    0.010512   5.244512  -0.002041   0.423756  -0.021140  -0.048664
     3  H    0.423322  -0.002041   0.497590   0.000036  -0.000045  -0.000028
     4  H   -0.001788   0.423756   0.000036   0.479707  -0.001994   0.002248
     5  C    0.000282  -0.021140  -0.000045  -0.001994   5.102155   0.549156
     6  C   -0.003411  -0.048664  -0.000028   0.002248   0.549156   5.244632
     7  H    0.000235  -0.000933   0.000000  -0.000079   0.423907  -0.028640
     8  H   -0.000685   0.002246  -0.000001   0.000011  -0.042262   0.423767
     9  C    0.001222   0.000573  -0.000003  -0.000829  -0.071096   0.265786
    10  H   -0.000021  -0.000215  -0.000001  -0.000060  -0.003764  -0.034075
    11  H    0.000089  -0.001773   0.000000   0.000031   0.006738  -0.050647
    12  C   -0.000102   0.006639   0.000002   0.001301   0.309786  -0.077680
    13  H   -0.000001   0.000011   0.000000   0.000002  -0.038239   0.005078
    14  C    0.000116  -0.003411  -0.000000  -0.000686  -0.064617   0.010513
    15  H   -0.000000  -0.000028  -0.000000  -0.000001   0.007381  -0.002041
    16  C   -0.000540   0.008290  -0.000000   0.000430   0.003525  -0.074364
    17  H   -0.000068  -0.001206  -0.000001  -0.000918   0.010919  -0.001195
    18  H    0.000002   0.000578   0.000000   0.000107  -0.002336   0.010996
    19  C   -0.064636   0.549194   0.007381  -0.042234  -0.001068  -0.021128
    20  H    0.003841  -0.028584  -0.000120  -0.005681   0.000196  -0.000933
    21  C    0.600296  -0.077687  -0.033265   0.005810   0.000465   0.006638
    22  H   -0.027852   0.005085  -0.006421  -0.000082   0.000014   0.000011
    23  C   -0.088605   0.265804   0.005493  -0.016067   0.002577   0.000570
    24  H    0.012421  -0.050661  -0.000138  -0.004110   0.002260  -0.001771
    25  H    0.005651  -0.034080  -0.000007   0.000064   0.000305  -0.000215
    26  C    0.289929  -0.074347  -0.030929   0.004098  -0.002167   0.008290
    27  H   -0.036329   0.010994  -0.004592  -0.000140   0.000345   0.000578
    28  H   -0.034579  -0.001195   0.001496  -0.000149  -0.003110  -0.001201
               7          8          9         10         11         12
     1  C    0.000235  -0.000685   0.001222  -0.000021   0.000089  -0.000102
     2  C   -0.000933   0.002246   0.000573  -0.000215  -0.001773   0.006639
     3  H    0.000000  -0.000001  -0.000003  -0.000001   0.000000   0.000002
     4  H   -0.000079   0.000011  -0.000829  -0.000060   0.000031   0.001301
     5  C    0.423907  -0.042262  -0.071096  -0.003764   0.006738   0.309786
     6  C   -0.028640   0.423767   0.265786  -0.034075  -0.050647  -0.077680
     7  H    0.486907  -0.005679   0.003732  -0.000305  -0.000067  -0.031806
     8  H   -0.005679   0.479615  -0.016036   0.000063  -0.004108   0.005811
     9  C    0.003732  -0.016036   4.927334   0.380860   0.445579   0.034717
    10  H   -0.000305   0.000063   0.380860   0.580721  -0.022020   0.001853
    11  H   -0.000067  -0.004108   0.445579  -0.022020   0.543053  -0.003428
    12  C   -0.031806   0.005811   0.034717   0.001853  -0.003428   4.990678
    13  H   -0.003482  -0.000082  -0.000531  -0.000052   0.000038   0.426028
    14  C    0.003838  -0.001788  -0.088622   0.005656   0.012420   0.600294
    15  H   -0.000120   0.000036   0.005493  -0.000007  -0.000138  -0.033275
    16  C   -0.000759   0.004098   0.374407  -0.025988  -0.049471  -0.064934
    17  H    0.000022  -0.000149  -0.035124   0.007732  -0.008846  -0.015802
    18  H    0.000039  -0.000140  -0.042492  -0.008657  -0.001258   0.005657
    19  C    0.000196  -0.001995   0.002580   0.000305   0.002260   0.000465
    20  H    0.000008  -0.000079   0.001657   0.000112  -0.000427  -0.000121
    21  C   -0.000122   0.001303  -0.000339   0.000019  -0.000304  -0.000190
    22  H   -0.000001   0.000003  -0.000047  -0.000000   0.000003   0.000000
    23  C    0.001654  -0.000827   0.000299  -0.000013   0.000052  -0.000337
    24  H   -0.000426   0.000031   0.000052   0.000002  -0.000016  -0.000304
    25  H    0.000112  -0.000060  -0.000013   0.000001   0.000002   0.000019
    26  C   -0.001285   0.000422  -0.000698   0.000055  -0.000070   0.000539
    27  H   -0.000020   0.000107  -0.000026   0.000001  -0.000002  -0.000049
    28  H    0.001570  -0.000921   0.000334  -0.000013   0.000022   0.000547
              13         14         15         16         17         18
     1  C   -0.000001   0.000116  -0.000000  -0.000540  -0.000068   0.000002
     2  C    0.000011  -0.003411  -0.000028   0.008290  -0.001206   0.000578
     3  H    0.000000  -0.000000  -0.000000  -0.000000  -0.000001   0.000000
     4  H    0.000002  -0.000686  -0.000001   0.000430  -0.000918   0.000107
     5  C   -0.038239  -0.064617   0.007381   0.003525   0.010919  -0.002336
     6  C    0.005078   0.010513  -0.002041  -0.074364  -0.001195   0.010996
     7  H   -0.003482   0.003838  -0.000120  -0.000759   0.000022   0.000039
     8  H   -0.000082  -0.001788   0.000036   0.004098  -0.000149  -0.000140
     9  C   -0.000531  -0.088622   0.005493   0.374407  -0.035124  -0.042492
    10  H   -0.000052   0.005656  -0.000007  -0.025988   0.007732  -0.008657
    11  H    0.000038   0.012420  -0.000138  -0.049471  -0.008846  -0.001258
    12  C    0.426028   0.600294  -0.033275  -0.064934  -0.015802   0.005657
    13  H    0.495405  -0.027878  -0.006420   0.004997  -0.000406  -0.000137
    14  C   -0.027878   5.121145   0.423322   0.289903  -0.034569  -0.036330
    15  H   -0.006420   0.423322   0.497602  -0.030921   0.001496  -0.004592
    16  C    0.004997   0.289903  -0.030921   4.912918   0.397240   0.428886
    17  H   -0.000406  -0.034569   0.001496   0.397240   0.594688  -0.022437
    18  H   -0.000137  -0.036330  -0.004592   0.428886  -0.022437   0.546841
    19  C    0.000014   0.000282  -0.000045  -0.002170  -0.003110   0.000344
    20  H   -0.000001   0.000235   0.000000  -0.001286   0.001569  -0.000020
    21  C    0.000000  -0.000102   0.000002   0.000540   0.000546  -0.000049
    22  H    0.000000  -0.000001   0.000000   0.000011  -0.000003  -0.000001
    23  C   -0.000047   0.001222  -0.000003  -0.000699   0.000334  -0.000026
    24  H    0.000003   0.000089   0.000000  -0.000070   0.000022  -0.000002
    25  H   -0.000000  -0.000021  -0.000001   0.000055  -0.000013   0.000001
    26  C    0.000011  -0.000540  -0.000000   0.000909   0.000130  -0.000002
    27  H   -0.000001   0.000002   0.000000  -0.000002   0.000003  -0.000000
    28  H   -0.000003  -0.000068  -0.000001   0.000130  -0.000029   0.000003
              19         20         21         22         23         24
     1  C   -0.064636   0.003841   0.600296  -0.027852  -0.088605   0.012421
     2  C    0.549194  -0.028584  -0.077687   0.005085   0.265804  -0.050661
     3  H    0.007381  -0.000120  -0.033265  -0.006421   0.005493  -0.000138
     4  H   -0.042234  -0.005681   0.005810  -0.000082  -0.016067  -0.004110
     5  C   -0.001068   0.000196   0.000465   0.000014   0.002577   0.002260
     6  C   -0.021128  -0.000933   0.006638   0.000011   0.000570  -0.001771
     7  H    0.000196   0.000008  -0.000122  -0.000001   0.001654  -0.000426
     8  H   -0.001995  -0.000079   0.001303   0.000003  -0.000827   0.000031
     9  C    0.002580   0.001657  -0.000339  -0.000047   0.000299   0.000052
    10  H    0.000305   0.000112   0.000019  -0.000000  -0.000013   0.000002
    11  H    0.002260  -0.000427  -0.000304   0.000003   0.000052  -0.000016
    12  C    0.000465  -0.000121  -0.000190   0.000000  -0.000337  -0.000304
    13  H    0.000014  -0.000001   0.000000   0.000000  -0.000047   0.000003
    14  C    0.000282   0.000235  -0.000102  -0.000001   0.001222   0.000089
    15  H   -0.000045   0.000000   0.000002   0.000000  -0.000003   0.000000
    16  C   -0.002170  -0.001286   0.000540   0.000011  -0.000699  -0.000070
    17  H   -0.003110   0.001569   0.000546  -0.000003   0.000334   0.000022
    18  H    0.000344  -0.000020  -0.000049  -0.000001  -0.000026  -0.000002
    19  C    5.102139   0.423878   0.309792  -0.038265  -0.071093   0.006742
    20  H    0.423878   0.486897  -0.031831  -0.003482   0.003732  -0.000067
    21  C    0.309792  -0.031831   4.990656   0.426020   0.034695  -0.003428
    22  H   -0.038265  -0.003482   0.426020   0.495418  -0.000532   0.000038
    23  C   -0.071093   0.003732   0.034695  -0.000532   4.927276   0.445580
    24  H    0.006742  -0.000067  -0.003428   0.000038   0.445580   0.543147
    25  H   -0.003769  -0.000305   0.001859  -0.000052   0.380872  -0.022018
    26  C    0.003526  -0.000760  -0.064946   0.004998   0.374396  -0.049479
    27  H   -0.002335   0.000039   0.005655  -0.000137  -0.042485  -0.001257
    28  H    0.010913   0.000022  -0.015783  -0.000405  -0.035133  -0.008848
              25         26         27         28
     1  C    0.005651   0.289929  -0.036329  -0.034579
     2  C   -0.034080  -0.074347   0.010994  -0.001195
     3  H   -0.000007  -0.030929  -0.004592   0.001496
     4  H    0.000064   0.004098  -0.000140  -0.000149
     5  C    0.000305  -0.002167   0.000345  -0.003110
     6  C   -0.000215   0.008290   0.000578  -0.001201
     7  H    0.000112  -0.001285  -0.000020   0.001570
     8  H   -0.000060   0.000422   0.000107  -0.000921
     9  C   -0.000013  -0.000698  -0.000026   0.000334
    10  H    0.000001   0.000055   0.000001  -0.000013
    11  H    0.000002  -0.000070  -0.000002   0.000022
    12  C    0.000019   0.000539  -0.000049   0.000547
    13  H   -0.000000   0.000011  -0.000001  -0.000003
    14  C   -0.000021  -0.000540   0.000002  -0.000068
    15  H   -0.000001  -0.000000   0.000000  -0.000001
    16  C    0.000055   0.000909  -0.000002   0.000130
    17  H   -0.000013   0.000130   0.000003  -0.000029
    18  H    0.000001  -0.000002  -0.000000   0.000003
    19  C   -0.003769   0.003526  -0.002335   0.010913
    20  H   -0.000305  -0.000760   0.000039   0.000022
    21  C    0.001859  -0.064946   0.005655  -0.015783
    22  H   -0.000052   0.004998  -0.000137  -0.000405
    23  C    0.380872   0.374396  -0.042485  -0.035133
    24  H   -0.022018  -0.049479  -0.001257  -0.008848
    25  H    0.580694  -0.025982  -0.008657   0.007732
    26  C   -0.025982   4.912859   0.428882   0.397238
    27  H   -0.008657   0.428882   0.546836  -0.022443
    28  H    0.007732   0.397238  -0.022443   0.594735
          Atomic-Atomic Spin Densities.
               1          2          3          4          5          6
     1  C   -0.000001  -0.000000   0.000000   0.000000  -0.000000  -0.000000
     2  C   -0.000000   0.000000   0.000000   0.000000  -0.000000  -0.000000
     3  H    0.000000   0.000000   0.000000  -0.000000  -0.000000   0.000000
     4  H    0.000000   0.000000  -0.000000   0.000000   0.000000  -0.000000
     5  C   -0.000000  -0.000000  -0.000000   0.000000  -0.000001   0.000000
     6  C   -0.000000  -0.000000   0.000000  -0.000000   0.000000  -0.000000
     7  H    0.000000   0.000000   0.000000  -0.000000  -0.000000  -0.000000
     8  H    0.000000   0.000000  -0.000000  -0.000000  -0.000000  -0.000000
     9  C   -0.000000   0.000000  -0.000000  -0.000000  -0.000000   0.000000
    10  H   -0.000000  -0.000000  -0.000000   0.000000  -0.000000   0.000000
    11  H    0.000000  -0.000000   0.000000   0.000000   0.000000  -0.000000
    12  C   -0.000000   0.000000   0.000000  -0.000000   0.000000   0.000000
    13  H    0.000000   0.000000   0.000000   0.000000   0.000000  -0.000000
    14  C    0.000000   0.000000  -0.000000  -0.000000   0.000000   0.000000
    15  H    0.000000  -0.000000  -0.000000   0.000000  -0.000000  -0.000000
    16  C   -0.000000   0.000000   0.000000   0.000000  -0.000000  -0.000000
    17  H   -0.000000  -0.000000  -0.000000   0.000000   0.000000  -0.000000
    18  H   -0.000000   0.000000   0.000000   0.000000   0.000000  -0.000000
    19  C   -0.000000  -0.000000   0.000000   0.000000  -0.000000   0.000000
    20  H   -0.000000   0.000000   0.000000   0.000000  -0.000000  -0.000000
    21  C    0.000000  -0.000000  -0.000000  -0.000000   0.000000  -0.000000
    22  H   -0.000000   0.000000  -0.000000  -0.000000   0.000000  -0.000000
    23  C   -0.000000  -0.000000   0.000000  -0.000000  -0.000000  -0.000000
    24  H   -0.000000   0.000000  -0.000000   0.000000   0.000000   0.000000
    25  H   -0.000000  -0.000000   0.000000   0.000000  -0.000000   0.000000
    26  C    0.000000   0.000000  -0.000000  -0.000000   0.000000  -0.000000
    27  H    0.000000   0.000000  -0.000000   0.000000   0.000000  -0.000000
    28  H    0.000000   0.000000  -0.000000   0.000000  -0.000000   0.000000
               7          8          9         10         11         12
     1  C    0.000000   0.000000  -0.000000  -0.000000   0.000000  -0.000000
     2  C    0.000000   0.000000   0.000000  -0.000000  -0.000000   0.000000
     3  H    0.000000  -0.000000  -0.000000  -0.000000   0.000000   0.000000
     4  H   -0.000000  -0.000000  -0.000000   0.000000   0.000000  -0.000000
     5  C   -0.000000  -0.000000  -0.000000  -0.000000   0.000000   0.000000
     6  C   -0.000000  -0.000000   0.000000   0.000000  -0.000000   0.000000
     7  H    0.000001  -0.000000   0.000000  -0.000000  -0.000000  -0.000000
     8  H   -0.000000  -0.000000   0.000000  -0.000000  -0.000000   0.000000
     9  C    0.000000   0.000000  -0.000001  -0.000000   0.000000  -0.000000
    10  H   -0.000000  -0.000000  -0.000000   0.000000  -0.000000   0.000000
    11  H   -0.000000  -0.000000   0.000000  -0.000000   0.000000  -0.000000
    12  C   -0.000000   0.000000  -0.000000   0.000000  -0.000000   0.000000
    13  H    0.000000   0.000000   0.000000  -0.000000  -0.000000  -0.000000
    14  C    0.000000  -0.000000   0.000000   0.000000   0.000000  -0.000000
    15  H   -0.000000   0.000000  -0.000000  -0.000000   0.000000   0.000000
    16  C   -0.000000   0.000000   0.000000  -0.000000  -0.000000   0.000000
    17  H   -0.000000  -0.000000   0.000000   0.000000  -0.000000   0.000000
    18  H    0.000000  -0.000000   0.000000   0.000000  -0.000000  -0.000000
    19  C    0.000000  -0.000000   0.000000   0.000000  -0.000000  -0.000000
    20  H    0.000000   0.000000  -0.000000  -0.000000   0.000000   0.000000
    21  C   -0.000000   0.000000  -0.000000   0.000000   0.000000  -0.000000
    22  H    0.000000  -0.000000  -0.000000   0.000000   0.000000   0.000000
    23  C    0.000000   0.000000  -0.000000  -0.000000   0.000000   0.000000
    24  H   -0.000000  -0.000000  -0.000000   0.000000  -0.000000  -0.000000
    25  H    0.000000  -0.000000   0.000000  -0.000000  -0.000000  -0.000000
    26  C   -0.000000  -0.000000   0.000000   0.000000  -0.000000  -0.000000
    27  H   -0.000000  -0.000000  -0.000000   0.000000  -0.000000  -0.000000
    28  H    0.000000  -0.000000   0.000000   0.000000  -0.000000  -0.000000
              13         14         15         16         17         18
     1  C    0.000000   0.000000   0.000000  -0.000000  -0.000000  -0.000000
     2  C    0.000000   0.000000  -0.000000   0.000000  -0.000000   0.000000
     3  H    0.000000  -0.000000  -0.000000   0.000000  -0.000000   0.000000
     4  H    0.000000  -0.000000   0.000000   0.000000   0.000000   0.000000
     5  C    0.000000   0.000000  -0.000000  -0.000000   0.000000   0.000000
     6  C   -0.000000   0.000000  -0.000000  -0.000000  -0.000000  -0.000000
     7  H    0.000000   0.000000  -0.000000  -0.000000  -0.000000   0.000000
     8  H    0.000000  -0.000000   0.000000   0.000000  -0.000000  -0.000000
     9  C    0.000000   0.000000  -0.000000   0.000000   0.000000   0.000000
    10  H   -0.000000   0.000000  -0.000000  -0.000000   0.000000   0.000000
    11  H   -0.000000   0.000000   0.000000  -0.000000  -0.000000  -0.000000
    12  C   -0.000000  -0.000000   0.000000   0.000000   0.000000  -0.000000
    13  H   -0.000000   0.000000   0.000000  -0.000000  -0.000000   0.000000
    14  C    0.000000   0.000001  -0.000000  -0.000000  -0.000000  -0.000000
    15  H    0.000000  -0.000000  -0.000000   0.000000   0.000000   0.000000
    16  C   -0.000000  -0.000000   0.000000   0.000001  -0.000000  -0.000000
    17  H   -0.000000  -0.000000   0.000000  -0.000000   0.000000   0.000000
    18  H    0.000000  -0.000000   0.000000  -0.000000   0.000000  -0.000000
    19  C   -0.000000   0.000000   0.000000  -0.000000   0.000000  -0.000000
    20  H   -0.000000  -0.000000  -0.000000   0.000000  -0.000000   0.000000
    21  C   -0.000000   0.000000  -0.000000   0.000000   0.000000   0.000000
    22  H    0.000000  -0.000000  -0.000000   0.000000  -0.000000   0.000000
    23  C    0.000000   0.000000   0.000000  -0.000000  -0.000000   0.000000
    24  H   -0.000000  -0.000000  -0.000000   0.000000   0.000000   0.000000
    25  H   -0.000000   0.000000   0.000000  -0.000000  -0.000000  -0.000000
    26  C   -0.000000   0.000000  -0.000000  -0.000000   0.000000   0.000000
    27  H   -0.000000   0.000000  -0.000000  -0.000000   0.000000   0.000000
    28  H    0.000000   0.000000   0.000000  -0.000000   0.000000  -0.000000
              19         20         21         22         23         24
     1  C   -0.000000  -0.000000   0.000000  -0.000000  -0.000000  -0.000000
     2  C   -0.000000   0.000000  -0.000000   0.000000  -0.000000   0.000000
     3  H    0.000000   0.000000  -0.000000  -0.000000   0.000000  -0.000000
     4  H    0.000000   0.000000  -0.000000  -0.000000  -0.000000   0.000000
     5  C   -0.000000  -0.000000   0.000000   0.000000  -0.000000   0.000000
     6  C    0.000000  -0.000000  -0.000000  -0.000000  -0.000000   0.000000
     7  H    0.000000   0.000000  -0.000000   0.000000   0.000000  -0.000000
     8  H   -0.000000   0.000000   0.000000  -0.000000   0.000000  -0.000000
     9  C    0.000000  -0.000000  -0.000000  -0.000000  -0.000000  -0.000000
    10  H    0.000000  -0.000000   0.000000   0.000000  -0.000000   0.000000
    11  H   -0.000000   0.000000   0.000000   0.000000   0.000000  -0.000000
    12  C   -0.000000   0.000000  -0.000000   0.000000   0.000000  -0.000000
    13  H   -0.000000  -0.000000  -0.000000   0.000000   0.000000  -0.000000
    14  C    0.000000  -0.000000   0.000000  -0.000000   0.000000  -0.000000
    15  H    0.000000  -0.000000  -0.000000  -0.000000   0.000000  -0.000000
    16  C   -0.000000   0.000000   0.000000   0.000000  -0.000000   0.000000
    17  H    0.000000  -0.000000   0.000000  -0.000000  -0.000000   0.000000
    18  H   -0.000000   0.000000   0.000000   0.000000   0.000000   0.000000
    19  C    0.000000   0.000000  -0.000000  -0.000000   0.000000  -0.000000
[...]
     4  H    0.000000  -0.000000   0.000000   0.000000
     5  C   -0.000000   0.000000   0.000000  -0.000000
     6  C    0.000000  -0.000000  -0.000000   0.000000
     7  H    0.000000  -0.000000  -0.000000   0.000000
     8  H   -0.000000  -0.000000  -0.000000  -0.000000
     9  C    0.000000   0.000000  -0.000000   0.000000
    10  H   -0.000000   0.000000   0.000000   0.000000
    11  H   -0.000000  -0.000000  -0.000000  -0.000000
    12  C   -0.000000  -0.000000  -0.000000  -0.000000
    13  H   -0.000000  -0.000000  -0.000000   0.000000
    14  C    0.000000   0.000000   0.000000   0.000000
    15  H    0.000000  -0.000000  -0.000000   0.000000
    16  C   -0.000000  -0.000000  -0.000000  -0.000000
    17  H   -0.000000   0.000000   0.000000   0.000000
    18  H   -0.000000   0.000000   0.000000  -0.000000
    19  C    0.000000   0.000000  -0.000000  -0.000000
    20  H    0.000000   0.000000  -0.000000   0.000000
    21  C   -0.000000  -0.000000   0.000000  -0.000000
    22  H    0.000000   0.000000  -0.000000   0.000000
    23  C    0.000000  -0.000000  -0.000000  -0.000000
    24  H    0.000000   0.000000   0.000000   0.000000
    25  H   -0.000000   0.000000  -0.000000  -0.000000
    26  C    0.000000  -0.000001   0.000000   0.000000
    27  H   -0.000000   0.000000   0.000000  -0.000000
    28  H   -0.000000   0.000000  -0.000000  -0.000000
 Mulliken charges and spin densities:
               1          2
     1  C   -0.210477  -0.000001
     2  C   -0.182229   0.000000
     3  H    0.142270   0.000000
     4  H    0.157217   0.000000
     5  C   -0.168173  -0.000001
     6  C   -0.182269  -0.000000
     7  H    0.151502   0.000000
     8  H    0.157301  -0.000000
     9  C   -0.188769  -0.000001
    10  H    0.117812   0.000000
    11  H    0.132288   0.000000
    12  C   -0.156305  -0.000000
    13  H    0.145695  -0.000000
    14  C   -0.210402   0.000001
    15  H    0.142260  -0.000000
    16  C   -0.175133   0.000000
    17  H    0.109174   0.000000
    18  H    0.125022  -0.000000
    19  C   -0.168166   0.000000
    20  H    0.151510  -0.000000
    21  C   -0.156251   0.000000
    22  H    0.145680   0.000000
    23  C   -0.188690   0.000001
    24  H    0.132210  -0.000000
    25  H    0.117826  -0.000000
    26  C   -0.175076  -0.000000
    27  H    0.125032   0.000000
    28  H    0.109140  -0.000000
 Sum of Mulliken charges =  -0.00000  -0.00000
 Mulliken charges and spin densities with hydrogens summed into heavy atoms:
               1          2
     1  C   -0.068207  -0.000001
     2  C   -0.025011   0.000000
     5  C   -0.016671  -0.000000
     6  C   -0.024969  -0.000000
     9  C    0.061331  -0.000000
    12  C   -0.010611  -0.000000
    14  C   -0.068142   0.000001
    16  C    0.059064   0.000000
    19  C   -0.016656   0.000000
    21  C   -0.010571   0.000001
    23  C    0.061345   0.000000
    26  C    0.059095  -0.000000
 Electronic spatial extent (au):  <R**2>=           2342.7771
 Charge=             -0.0000 electrons
 Dipole moment (field-independent basis, Debye):
    X=             -0.0000    Y=              0.0003    Z=              0.0001  Tot=              0.0003
 Quadrupole moment (field-independent basis, Debye-Ang):
   XX=            -72.6874   YY=            -69.7653   ZZ=            -76.5707
   XY=             -3.2366   XZ=             -3.9709   YZ=             -1.7120
 Traceless Quadrupole moment (field-independent basis, Debye-Ang):
   XX=              0.3204   YY=              3.2425   ZZ=             -3.5629
   XY=             -3.2366   XZ=             -3.9709   YZ=             -1.7120
 Octapole moment (field-independent basis, Debye-Ang**2):
  XXX=             -0.0059  YYY=              0.0023  ZZZ=              0.0000  XYY=              0.0018
  XXY=              0.0015  XXZ=              0.0003  XZZ=             -0.0003  YZZ=              0.0002
  YYZ=              0.0005  XYZ=              0.0010
 Hexadecapole moment (field-independent basis, Debye-Ang**3):
 XXXX=          -2131.0293 YYYY=           -628.6822 ZZZZ=           -454.8267 XXXY=           -121.0583
 XXXZ=           -173.3709 YYYX=            -70.8455 YYYZ=             -9.7668 ZZZX=           -116.7627
 ZZZY=            -22.8700 XXYY=           -454.7652 XXZZ=           -449.2871 YYZZ=           -195.7902
 XXYZ=            -26.4622 YYXZ=            -41.6802 ZZXY=            -48.0433
 N-N= 6.708270876523D+02 E-N=-2.423394952606D+03  KE= 4.641477996726D+02
                          Isotropic Fermi Contact Couplings
        Atom                 a.u.       MegaHertz       Gauss      10(-4) cm-1
     1  C(13)             -0.00000      -0.00003      -0.00001      -0.00001
     2  C(13)             -0.00000      -0.00006      -0.00002      -0.00002
     3  H(1)               0.00000       0.00001       0.00000       0.00000
     4  H(1)               0.00000       0.00007       0.00002       0.00002
     5  C(13)             -0.00000      -0.00019      -0.00007      -0.00006
     6  C(13)              0.00000       0.00007       0.00002       0.00002
     7  H(1)               0.00000       0.00028       0.00010       0.00009
     8  H(1)              -0.00000      -0.00007      -0.00003      -0.00002
     9  C(13)             -0.00000      -0.00026      -0.00009      -0.00009
    10  H(1)               0.00000       0.00012       0.00004       0.00004
    11  H(1)               0.00000       0.00013       0.00005       0.00004
    12  C(13)              0.00000       0.00013       0.00005       0.00004
    13  H(1)              -0.00000      -0.00023      -0.00008      -0.00008
    14  C(13)              0.00000       0.00003       0.00001       0.00001
    15  H(1)              -0.00000      -0.00000      -0.00000      -0.00000
    16  C(13)              0.00000       0.00012       0.00004       0.00004
    17  H(1)              -0.00000      -0.00002      -0.00001      -0.00001
    18  H(1)              -0.00000      -0.00003      -0.00001      -0.00001
    19  C(13)              0.00000       0.00019       0.00007       0.00006
    20  H(1)              -0.00000      -0.00028      -0.00010      -0.00009
    21  C(13)             -0.00000      -0.00012      -0.00004      -0.00004
    22  H(1)               0.00000       0.00023       0.00008       0.00008
    23  C(13)              0.00000       0.00026       0.00009       0.00009
    24  H(1)              -0.00000      -0.00013      -0.00005      -0.00004
    25  H(1)              -0.00000      -0.00012      -0.00004      -0.00004
    26  C(13)             -0.00000      -0.00012      -0.00004      -0.00004
    27  H(1)               0.00000       0.00003       0.00001       0.00001
    28  H(1)               0.00000       0.00002       0.00001       0.00001
 --------------------------------------------------------
       Center         ----  Spin Dipole Couplings  ----
                      3XX-RR        3YY-RR        3ZZ-RR
 --------------------------------------------------------
     1   Atom       -0.000000      0.000000     -0.000000
     2   Atom        0.000000     -0.000000     -0.000000
     3   Atom        0.000000      0.000000     -0.000000
     4   Atom       -0.000000     -0.000000      0.000000
     5   Atom       -0.000000     -0.000000      0.000001
     6   Atom       -0.000000      0.000000      0.000000
     7   Atom        0.000000     -0.000000      0.000000
     8   Atom        0.000000      0.000000     -0.000000
     9   Atom       -0.000000      0.000000     -0.000000
    10   Atom        0.000000      0.000000     -0.000000
    11   Atom        0.000000     -0.000000      0.000000
    12   Atom        0.000000      0.000001     -0.000001
    13   Atom       -0.000000      0.000000     -0.000000
    14   Atom        0.000000     -0.000000     -0.000000
    15   Atom       -0.000000     -0.000000      0.000000
    16   Atom        0.000000     -0.000000      0.000000
    17   Atom        0.000000     -0.000000     -0.000000
    18   Atom       -0.000000      0.000000     -0.000000
    19   Atom        0.000000      0.000000     -0.000001
    20   Atom       -0.000000      0.000000     -0.000000
    21   Atom       -0.000000     -0.000001      0.000001
    22   Atom        0.000000     -0.000000      0.000000
    23   Atom        0.000000     -0.000000      0.000000
    24   Atom       -0.000000      0.000000     -0.000000
    25   Atom       -0.000000     -0.000000      0.000000
    26   Atom       -0.000000      0.000000     -0.000000
    27   Atom        0.000000     -0.000000      0.000000
    28   Atom       -0.000000     -0.000000      0.000000
 --------------------------------------------------------
                        XY            XZ            YZ
 --------------------------------------------------------
     1   Atom        0.000000     -0.000001      0.000000
     2   Atom        0.000000      0.000000      0.000000
     3   Atom       -0.000000      0.000000      0.000000
     4   Atom       -0.000000     -0.000000      0.000000
     5   Atom        0.000000     -0.000000     -0.000000
     6   Atom       -0.000000     -0.000000     -0.000000
     7   Atom        0.000000      0.000000     -0.000000
     8   Atom        0.000000      0.000000     -0.000000
     9   Atom       -0.000000      0.000000     -0.000000
    10   Atom        0.000000     -0.000000      0.000000
    11   Atom       -0.000000     -0.000000     -0.000000
    12   Atom        0.000000     -0.000000     -0.000000
    13   Atom        0.000000     -0.000000     -0.000000
    14   Atom       -0.000000      0.000001     -0.000000
    15   Atom        0.000000     -0.000000     -0.000000
    16   Atom       -0.000000     -0.000000     -0.000000
    17   Atom        0.000000      0.000000      0.000000
    18   Atom       -0.000000      0.000000     -0.000000
    19   Atom       -0.000000      0.000000      0.000000
    20   Atom       -0.000000     -0.000000      0.000000
    21   Atom       -0.000000      0.000000      0.000000
    22   Atom       -0.000000      0.000000      0.000000
    23   Atom        0.000000     -0.000000      0.000000
    24   Atom        0.000000      0.000000      0.000000
    25   Atom       -0.000000      0.000000     -0.000000
    26   Atom        0.000000      0.000000      0.000000
    27   Atom        0.000000     -0.000000      0.000000
    28   Atom       -0.000000     -0.000000     -0.000000
 --------------------------------------------------------


 ---------------------------------------------------------------------------------
              Anisotropic Spin Dipole Couplings in Principal Axis System
 ---------------------------------------------------------------------------------

       Atom             a.u.   MegaHertz   Gauss  10(-4) cm-1        Axes

              Baa    -0.0000    -0.000    -0.000    -0.000  0.7708 -0.1440  0.6206
     1 C(13)  Bbb     0.0000     0.000     0.000     0.000  0.1795  0.9838  0.0054
              Bcc     0.0000     0.000     0.000     0.000 -0.6113  0.1072  0.7841
 
              Baa    -0.0000    -0.000    -0.000    -0.000 -0.5453  0.2941  0.7850
     2 C(13)  Bbb    -0.0000    -0.000    -0.000    -0.000 -0.0795  0.9141 -0.3977
              Bcc     0.0000     0.000     0.000     0.000  0.8345  0.2793  0.4751
 
              Baa    -0.0000    -0.000    -0.000    -0.000 -0.3563 -0.1858  0.9157
     3 H(1)   Bbb     0.0000     0.000     0.000     0.000  0.9293  0.0317  0.3680
              Bcc     0.0000     0.000     0.000     0.000 -0.0974  0.9821  0.1614
 
              Baa    -0.0000    -0.000    -0.000    -0.000  0.9623  0.2174  0.1636
     4 H(1)   Bbb    -0.0000    -0.000    -0.000    -0.000 -0.1634  0.9425 -0.2917
              Bcc     0.0000     0.000     0.000     0.000 -0.2176  0.2540  0.9424
 
              Baa    -0.0000    -0.000    -0.000    -0.000 -0.6798  0.7324  0.0387
     5 C(13)  Bbb    -0.0000    -0.000    -0.000    -0.000  0.7247  0.6626  0.1892
              Bcc     0.0000     0.000     0.000     0.000 -0.1129 -0.1567  0.9812
 
              Baa    -0.0000    -0.000    -0.000    -0.000  0.8583  0.2936  0.4208
     6 C(13)  Bbb     0.0000     0.000     0.000     0.000 -0.1255  0.9154 -0.3825
              Bcc     0.0000     0.000     0.000     0.000 -0.4975  0.2755  0.8225
 
              Baa    -0.0000    -0.000    -0.000    -0.000 -0.4964  0.8345  0.2391
     7 H(1)   Bbb     0.0000     0.000     0.000     0.000  0.8396  0.5316 -0.1122
              Bcc     0.0000     0.000     0.000     0.000  0.2208 -0.1450  0.9645
 
              Baa    -0.0000    -0.000    -0.000    -0.000 -0.1943  0.2747  0.9417
     8 H(1)   Bbb     0.0000     0.000     0.000     0.000 -0.1550  0.9393 -0.3060
              Bcc     0.0000     0.000     0.000     0.000  0.9686  0.2054  0.1399
 
              Baa    -0.0000    -0.000    -0.000    -0.000  0.8649  0.2177 -0.4522
     9 C(13)  Bbb    -0.0000    -0.000    -0.000    -0.000  0.3180  0.4592  0.8294
              Bcc     0.0000     0.000     0.000     0.000 -0.3882  0.8612 -0.3280
 
              Baa    -0.0000    -0.000    -0.000    -0.000  0.4884 -0.1902  0.8516
    10 H(1)   Bbb     0.0000     0.000     0.000     0.000 -0.5679  0.6717  0.4757
              Bcc     0.0000     0.000     0.000     0.000  0.6625  0.7160 -0.2200
 
              Baa    -0.0000    -0.000    -0.000    -0.000  0.5687  0.8182  0.0850
    11 H(1)   Bbb     0.0000     0.000     0.000     0.000 -0.4660  0.2352  0.8530
              Bcc     0.0000     0.000     0.000     0.000  0.6779 -0.5247  0.5150
 
              Baa    -0.0000    -0.000    -0.000    -0.000  0.1656  0.0697  0.9837
    12 C(13)  Bbb     0.0000     0.000     0.000     0.000  0.9012 -0.4159 -0.1222
              Bcc     0.0000     0.000     0.000     0.000  0.4006  0.9067 -0.1317
 
              Baa    -0.0000    -0.000    -0.000    -0.000  0.3126  0.1808  0.9325
    13 H(1)   Bbb    -0.0000    -0.000    -0.000    -0.000  0.9256 -0.2783 -0.2563
              Bcc     0.0000     0.000     0.000     0.000  0.2132  0.9433 -0.2544
 
              Baa    -0.0000    -0.000    -0.000    -0.000 -0.5893  0.1110  0.8003
    14 C(13)  Bbb    -0.0000    -0.000    -0.000    -0.000  0.1881  0.9821  0.0023
              Bcc     0.0000     0.000     0.000     0.000  0.7857 -0.1519  0.5996
 
              Baa    -0.0000    -0.000    -0.000    -0.000 -0.0988  0.9813  0.1650
    15 H(1)   Bbb    -0.0000    -0.000    -0.000    -0.000  0.9364  0.0356  0.3490
              Bcc     0.0000     0.000     0.000     0.000 -0.3366 -0.1890  0.9225
 
              Baa    -0.0000    -0.000    -0.000    -0.000  0.3246  0.8853  0.3329
    16 C(13)  Bbb    -0.0000    -0.000    -0.000    -0.000  0.6486 -0.4645  0.6030
              Bcc     0.0000     0.000     0.000     0.000 -0.6885 -0.0202  0.7250
 
              Baa    -0.0000    -0.000    -0.000    -0.000 -0.3930  0.7569 -0.5222
    17 H(1)   Bbb    -0.0000    -0.000    -0.000    -0.000 -0.6962  0.1261  0.7067
              Bcc     0.0000     0.000     0.000     0.000  0.6007  0.6413  0.4773
 
              Baa    -0.0000    -0.000    -0.000    -0.000  0.5821  0.6083  0.5396
    18 H(1)   Bbb    -0.0000    -0.000    -0.000    -0.000 -0.5817 -0.1521  0.7990
              Bcc     0.0000     0.000     0.000     0.000 -0.5681  0.7790 -0.2653
 
              Baa    -0.0000    -0.000    -0.000    -0.000 -0.0737 -0.1334  0.9883
    19 C(13)  Bbb     0.0000     0.000     0.000     0.000  0.7983  0.5861  0.1386
              Bcc     0.0000     0.000     0.000     0.000 -0.5977  0.7992  0.0633
 
              Baa    -0.0000    -0.000    -0.000    -0.000  0.2884 -0.1027  0.9520
    20 H(1)   Bbb    -0.0000    -0.000    -0.000    -0.000  0.8210  0.5381 -0.1906
              Bcc     0.0000     0.000     0.000     0.000 -0.4927  0.8366  0.2395
 
              Baa    -0.0000    -0.000    -0.000    -0.000  0.3856  0.9132 -0.1321
    21 C(13)  Bbb    -0.0000    -0.000    -0.000    -0.000  0.9037 -0.4027 -0.1455
              Bcc     0.0000     0.000     0.000     0.000  0.1861  0.0633  0.9805
 
              Baa    -0.0000    -0.000    -0.000    -0.000  0.1977  0.9478 -0.2500
    22 H(1)   Bbb     0.0000     0.000     0.000     0.000  0.9208 -0.2670 -0.2841
              Bcc     0.0000     0.000     0.000     0.000  0.3361  0.1740  0.9256
 
              Baa    -0.0000    -0.000    -0.000    -0.000 -0.3863  0.8627 -0.3265
    23 C(13)  Bbb     0.0000     0.000     0.000     0.000  0.3143  0.4559  0.8327
              Bcc     0.0000     0.000     0.000     0.000  0.8672  0.2190 -0.4473
 
              Baa    -0.0000    -0.000    -0.000    -0.000  0.6722 -0.5168  0.5302
    24 H(1)   Bbb    -0.0000    -0.000    -0.000    -0.000 -0.4796  0.2417  0.8436
              Bcc     0.0000     0.000     0.000     0.000  0.5641  0.8213  0.0854
 
              Baa    -0.0000    -0.000    -0.000    -0.000  0.6776  0.6971 -0.2344
    25 H(1)   Bbb    -0.0000    -0.000    -0.000    -0.000 -0.5460  0.6904  0.4746
              Bcc     0.0000     0.000     0.000     0.000  0.4927 -0.1936  0.8484
 
              Baa    -0.0000    -0.000    -0.000    -0.000 -0.6885 -0.0210  0.7250
    26 C(13)  Bbb     0.0000     0.000     0.000     0.000  0.6500 -0.4612  0.6039
              Bcc     0.0000     0.000     0.000     0.000  0.3217  0.8870  0.3312
 
              Baa    -0.0000    -0.000    -0.000    -0.000 -0.5583  0.7853 -0.2676
    27 H(1)   Bbb     0.0000     0.000     0.000     0.000 -0.6009 -0.1604  0.7831
              Bcc     0.0000     0.000     0.000     0.000  0.5720  0.5980  0.5614
 
              Baa    -0.0000    -0.000    -0.000    -0.000  0.6045  0.6515  0.4584
    28 H(1)   Bbb     0.0000     0.000     0.000     0.000 -0.6680  0.1011  0.7373
              Bcc     0.0000     0.000     0.000     0.000 -0.4340  0.7518 -0.4964
 

 ---------------------------------------------------------------------------------

 No NMR shielding tensors so no spin-rotation constants.
 Leave Link  601 at Mon Aug  3 14:12:34 2020, MaxMem=  6442450944 cpu:               7.9 elap:               0.4
 (Enter /scratch/scicomp/CentOS/7.3.1611/Haswell/software/Gaussian/g16/l9999.exe)
 1\1\GINC-ATLAS-205\SP\UwB97XD\def2TZVP\C12H16\BOCHEN\03-Aug-2020\0\\#p
  uwb97xd guess=mix def2tzvp # scrf=(iefpcm,solvent=Cyclohexane,read) n
 osym 6d 10f\\endo-2 xp-pcm for eta=3\\0,1\C,0,-3.121942,-0.439924,0.27
 7771\C,0,-0.797162,-0.267484,-1.333299\H,0,-4.04452,-0.521623,0.840727
 \H,0,0.132617,-0.192479,-1.884118\C,0,1.213684,1.436717,0.855014\C,0,0
 .797162,0.267484,1.333299\H,0,0.625474,2.334691,1.002965\H,0,-0.132617
 ,0.192479,1.884118\C,0,1.625967,-0.975882,1.184356\H,0,2.219247,-1.095
 182,2.100353\H,0,0.977773,-1.851608,1.125614\C,0,2.478853,1.534377,0.1
 2517\H,0,2.879166,2.517204,-0.093218\C,0,3.121942,0.439924,-0.277771\H
 ,0,4.04452,0.521623,-0.840727\C,0,2.55568,-0.931899,-0.031548\H,0,2.00
 912,-1.243493,-0.930088\H,0,3.361336,-1.657785,0.093053\C,0,-1.213684,
 -1.436717,-0.855014\H,0,-0.625474,-2.334691,-1.002965\C,0,-2.478853,-1
 .534377,-0.12517\H,0,-2.879166,-2.517204,0.093218\C,0,-1.625967,0.9758
 82,-1.184356\H,0,-0.977773,1.851608,-1.125614\H,0,-2.219247,1.095182,-
 2.100353\C,0,-2.55568,0.931899,0.031548\H,0,-3.361336,1.657785,-0.0930
 53\H,0,-2.00912,1.243493,0.930088\\Version=ES64L-G16RevB.01\HF=-466.85
 95907\S2=0.\S2-1=0.\S2A=0.\RMSD=9.744e-09\Dipole=-0.0000138,0.000105,0
 .0000469\Quadrupole=0.2381955,2.4107322,-2.6489278,-2.4063632,-2.95226
 07,-1.2728565\PG=CI [X(C12H16)]\\@


 THE MOST SERIOUS THREAT TO THE SURVIVAL OF MANKIND IS NOT NOW
 IGNORANCE IN THE TRADITIONAL SENSE,
 BUT A MORALLY NEUTRAL, AN INSENSITIVE OR INHIBITED HUMAN INTELLIGENCE.

                     -- MARGO JEFFERSON IN NEWSWEEK, SEPTEMBER 2, 1974
 Job cpu time:       0 days  1 hours 58 minutes 17.0 seconds.
 Elapsed time:       0 days  0 hours  4 minutes 58.8 seconds.
 File lengths (MBytes):  RWF=    637 Int=      0 D2E=      0 Chk=     23 Scr=      1
 Normal termination of Gaussian 16 at Mon Aug  3 14:12:34 2020.
