 Entering Gaussian System, Link 0=g16
 Input=meso-TS_4_1_xp-Ger.com
 Output=meso-TS_4_1_xp-Ger.log
 Initial command:
 /scratch/scicomp/CentOS/7.3.1611/Haswell/software/Gaussian/g16/l1.exe "/scratch/bochen/cyclohexadiene-dimerization/wb97xd-def2tzvp/xp-pcm/meso/Gau-433505.inp" -scrdir="/scratch/bochen/cyclohexadiene-dimerization/wb97xd-def2tzvp/xp-pcm/meso/"
 Entering Link 1 = /scratch/scicomp/CentOS/7.3.1611/Haswell/software/Gaussian/g16/l1.exe PID=    433506.
  
 Copyright (c) 1988-2017, Gaussian, Inc.  All Rights Reserved.
  
 This is part of the Gaussian(R) 16 program.  It is based on
 the Gaussian(R) 09 system (copyright 2009, Gaussian, Inc.),
 the Gaussian(R) 03 system (copyright 2003, Gaussian, Inc.),
 the Gaussian(R) 98 system (copyright 1998, Gaussian, Inc.),
 the Gaussian(R) 94 system (copyright 1995, Gaussian, Inc.),
 the Gaussian 92(TM) system (copyright 1992, Gaussian, Inc.),
 the Gaussian 90(TM) system (copyright 1990, Gaussian, Inc.),
 the Gaussian 88(TM) system (copyright 1988, Gaussian, Inc.),
 the Gaussian 86(TM) system (copyright 1986, Carnegie Mellon
 University), and the Gaussian 82(TM) system (copyright 1983,
 Carnegie Mellon University). Gaussian is a federally registered
 trademark of Gaussian, Inc.
  
 This software contains proprietary and confidential information,
 including trade secrets, belonging to Gaussian, Inc.
  
 This software is provided under written license and may be
 used, copied, transmitted, or stored only in accord with that
 written license.
  
 The following legend is applicable only to US Government
 contracts under FAR:
  
                    RESTRICTED RIGHTS LEGEND
  
 Use, reproduction and disclosure by the US Government is
 subject to restrictions as set forth in subparagraphs (a)
 and (c) of the Commercial Computer Software - Restricted
 Rights clause in FAR 52.227-19.
  
 Gaussian, Inc.
 340 Quinnipiac St., Bldg. 40, Wallingford CT 06492
  
  
 ---------------------------------------------------------------
 Warning -- This program may not be used in any manner that
 competes with the business of Gaussian, Inc. or will provide
 assistance to any competitor of Gaussian, Inc.  The licensee
 of this program is prohibited from giving any competitor of
 Gaussian, Inc. access to this program.  By using this program,
 the user acknowledges that Gaussian, Inc. is engaged in the
 business of creating and licensing software in the field of
 computational chemistry and represents and warrants to the
 licensee that it is not a competitor of Gaussian, Inc. and that
 it will not use this program in any manner prohibited above.
 ---------------------------------------------------------------
  

 Cite this work as:
 Gaussian 16, Revision B.01,
 M. J. Frisch, G. W. Trucks, H. B. Schlegel, G. E. Scuseria, 
 M. A. Robb, J. R. Cheeseman, G. Scalmani, V. Barone, 
 G. A. Petersson, H. Nakatsuji, X. Li, M. Caricato, A. V. Marenich, 
 J. Bloino, B. G. Janesko, R. Gomperts, B. Mennucci, H. P. Hratchian, 
 J. V. Ortiz, A. F. Izmaylov, J. L. Sonnenberg, D. Williams-Young, 
 F. Ding, F. Lipparini, F. Egidi, J. Goings, B. Peng, A. Petrone, 
 T. Henderson, D. Ranasinghe, V. G. Zakrzewski, J. Gao, N. Rega, 
 G. Zheng, W. Liang, M. Hada, M. Ehara, K. Toyota, R. Fukuda, 
 J. Hasegawa, M. Ishida, T. Nakajima, Y. Honda, O. Kitao, H. Nakai, 
 T. Vreven, K. Throssell, J. A. Montgomery, Jr., J. E. Peralta, 
 F. Ogliaro, M. J. Bearpark, J. J. Heyd, E. N. Brothers, K. N. Kudin, 
 V. N. Staroverov, T. A. Keith, R. Kobayashi, J. Normand, 
 K. Raghavachari, A. P. Rendell, J. C. Burant, S. S. Iyengar, 
 J. Tomasi, M. Cossi, J. M. Millam, M. Klene, C. Adamo, R. Cammi, 
 J. W. Ochterski, R. L. Martin, K. Morokuma, O. Farkas, 
 J. B. Foresman, and D. J. Fox, Gaussian, Inc., Wallingford CT, 2016.
 
 ******************************************
 Gaussian 16:  ES64L-G16RevB.01 20-Dec-2017
                 4-Aug-2020 
 ******************************************
 %chk=meso-TS_4_1_xp-12.chk
 %nproc=24
 Will use up to   24 processors via shared memory.
 %mem=48GB
 ----------------------------------------------------------------------
 #p uwb97xd guess=mix def2tzvp # scrf=(iefpcm,solvent=Cyclohexane,read)
  nosym 6d 10f
 ----------------------------------------------------------------------
 1/38=1,40=2,172=1/1;
 2/12=2,15=1,17=6,18=5,40=1/2;
 3/5=44,7=101,8=22,11=2,25=1,30=1,70=2203,72=17,74=-58,116=2/1,2,3;
 4/13=-1/1;
 5/5=2,38=5,53=17/2;
 6/7=2,8=2,9=2,10=2,28=1/1;
 99/5=1,9=1/99;
 Leave Link    1 at Tue Aug  4 15:46:06 2020, MaxMem=  6442450944 cpu:              10.7 elap:               0.5
 (Enter /scratch/scicomp/CentOS/7.3.1611/Haswell/software/Gaussian/g16/l101.exe)
 -----------------------
 endo-2 xp-pcm for eta=3
 -----------------------
 Symbolic Z-matrix:
 Charge =  0 Multiplicity = 1
 6                    -3.11937  -0.42989   0.24771 
 6                    -0.48324  -0.15114  -0.81766 
 1                    -4.08469  -0.54834   0.72495 
 1                     0.34529  -0.11483  -1.51998 
 6                     1.10923   1.42387   0.67843 
 6                     0.48324   0.15114   0.81766 
 1                     0.55031   2.32597   0.89209 
 1                    -0.34529   0.11483   1.51998 
 6                     1.46135  -0.99962   0.98665 
 1                     1.89494  -0.9287    1.98963 
 1                     0.93419  -1.9533    0.93935 
 6                     2.403     1.52468   0.11993 
 1                     2.82435   2.51037  -0.04195 
 6                     3.11937   0.42989  -0.24771 
 1                     4.08469   0.54834  -0.72495 
 6                     2.59246  -0.95872  -0.04309 
 1                     2.24729  -1.35738  -1.00581 
 1                     3.40144  -1.62324   0.27068 
 6                    -1.10923  -1.42387  -0.67843 
 1                    -0.55031  -2.32597  -0.89209 
 6                    -2.403    -1.52468  -0.11993 
 1                    -2.82435  -2.51037   0.04195 
 6                    -1.46135   0.99962  -0.98665 
 1                    -0.93419   1.9533   -0.93935 
 1                    -1.89494   0.9287   -1.98963 
 6                    -2.59246   0.95872   0.04309 
 1                    -3.40144   1.62324  -0.27068 
 1                    -2.24729   1.35738   1.00581 
 
 ITRead=  0  0  0  0  0  0  0  0  0  0  0  0  0  0  0  0  0  0  0  0
 ITRead=  0  0  0  0  0  0  0  0
 MicOpt= -1 -1 -1 -1 -1 -1 -1 -1 -1 -1 -1 -1 -1 -1 -1 -1 -1 -1 -1 -1
 MicOpt= -1 -1 -1 -1 -1 -1 -1 -1
 NAtoms=     28 NQM=       28 NQMF=       0 NMMI=      0 NMMIF=      0
                NMic=       0 NMicF=      0.
                    Isotopes and Nuclear Properties:
 (Nuclear quadrupole moments (NQMom) in fm**2, nuclear magnetic moments (NMagM)
  in nuclear magnetons)

  Atom         1           2           3           4           5           6           7           8           9          10
 IAtWgt=          12          12           1           1          12          12           1           1          12           1
 AtmWgt=  12.0000000  12.0000000   1.0078250   1.0078250  12.0000000  12.0000000   1.0078250   1.0078250  12.0000000   1.0078250
 NucSpn=           0           0           1           1           0           0           1           1           0           1
 AtZEff=  -0.0000000  -0.0000000  -0.0000000  -0.0000000  -0.0000000  -0.0000000  -0.0000000  -0.0000000  -0.0000000  -0.0000000
 NQMom=    0.0000000   0.0000000   0.0000000   0.0000000   0.0000000   0.0000000   0.0000000   0.0000000   0.0000000   0.0000000
 NMagM=    0.0000000   0.0000000   2.7928460   2.7928460   0.0000000   0.0000000   2.7928460   2.7928460   0.0000000   2.7928460
 AtZNuc=   6.0000000   6.0000000   1.0000000   1.0000000   6.0000000   6.0000000   1.0000000   1.0000000   6.0000000   1.0000000

  Atom        11          12          13          14          15          16          17          18          19          20
 IAtWgt=           1          12           1          12           1          12           1           1          12           1
 AtmWgt=   1.0078250  12.0000000   1.0078250  12.0000000   1.0078250  12.0000000   1.0078250   1.0078250  12.0000000   1.0078250
 NucSpn=           1           0           1           0           1           0           1           1           0           1
 AtZEff=  -0.0000000  -0.0000000  -0.0000000  -0.0000000  -0.0000000  -0.0000000  -0.0000000  -0.0000000  -0.0000000  -0.0000000
 NQMom=    0.0000000   0.0000000   0.0000000   0.0000000   0.0000000   0.0000000   0.0000000   0.0000000   0.0000000   0.0000000
 NMagM=    2.7928460   0.0000000   2.7928460   0.0000000   2.7928460   0.0000000   2.7928460   2.7928460   0.0000000   2.7928460
 AtZNuc=   1.0000000   6.0000000   1.0000000   6.0000000   1.0000000   6.0000000   1.0000000   1.0000000   6.0000000   1.0000000

  Atom        21          22          23          24          25          26          27          28
 IAtWgt=          12           1          12           1           1          12           1           1
 AtmWgt=  12.0000000   1.0078250  12.0000000   1.0078250   1.0078250  12.0000000   1.0078250   1.0078250
 NucSpn=           0           1           0           1           1           0           1           1
 AtZEff=  -0.0000000  -0.0000000  -0.0000000  -0.0000000  -0.0000000  -0.0000000  -0.0000000  -0.0000000
 NQMom=    0.0000000   0.0000000   0.0000000   0.0000000   0.0000000   0.0000000   0.0000000   0.0000000
 NMagM=    0.0000000   2.7928460   0.0000000   2.7928460   2.7928460   0.0000000   2.7928460   2.7928460
 AtZNuc=   6.0000000   1.0000000   6.0000000   1.0000000   1.0000000   6.0000000   1.0000000   1.0000000
 Leave Link  101 at Tue Aug  4 15:46:06 2020, MaxMem=  6442450944 cpu:               2.4 elap:               0.2
 (Enter /scratch/scicomp/CentOS/7.3.1611/Haswell/software/Gaussian/g16/l202.exe)
                          Input orientation:                          
 ---------------------------------------------------------------------
 Center     Atomic      Atomic             Coordinates (Angstroms)
 Number     Number       Type             X           Y           Z
 ---------------------------------------------------------------------
      1          6           0       -3.119365   -0.429886    0.247711
      2          6           0       -0.483238   -0.151143   -0.817662
      3          1           0       -4.084691   -0.548341    0.724950
      4          1           0        0.345292   -0.114825   -1.519981
      5          6           0        1.109235    1.423870    0.678430
      6          6           0        0.483238    0.151143    0.817662
      7          1           0        0.550310    2.325971    0.892085
      8          1           0       -0.345292    0.114825    1.519981
      9          6           0        1.461352   -0.999620    0.986645
     10          1           0        1.894943   -0.928704    1.989628
     11          1           0        0.934187   -1.953298    0.939348
     12          6           0        2.402996    1.524681    0.119927
     13          1           0        2.824354    2.510372   -0.041948
     14          6           0        3.119365    0.429886   -0.247711
     15          1           0        4.084691    0.548341   -0.724950
     16          6           0        2.592455   -0.958721   -0.043087
     17          1           0        2.247288   -1.357377   -1.005814
     18          1           0        3.401438   -1.623242    0.270678
     19          6           0       -1.109235   -1.423870   -0.678430
     20          1           0       -0.550310   -2.325971   -0.892085
     21          6           0       -2.402996   -1.524681   -0.119927
     22          1           0       -2.824354   -2.510372    0.041948
     23          6           0       -1.461352    0.999620   -0.986645
     24          1           0       -0.934187    1.953298   -0.939348
     25          1           0       -1.894943    0.928704   -1.989628
     26          6           0       -2.592455    0.958721    0.043088
     27          1           0       -3.401438    1.623242   -0.270678
     28          1           0       -2.247288    1.357377    1.005814
 ---------------------------------------------------------------------
                    Distance matrix (angstroms):
                    1          2          3          4          5
     1  C    0.000000
     2  C    2.856901   0.000000
     3  H    1.083348   3.938005   0.000000
     4  H    3.902287   1.086753   4.985218   0.000000
     5  C    4.637131   2.693497   5.555956   2.790018   0.000000
     6  C    3.693398   1.923470   4.622104   2.356765   1.425164
     7  H    4.634272   3.182381   5.456449   3.437671   1.082512
     8  H    3.100139   2.356765   3.880073   3.125862   2.130130
     9  C    4.674782   2.785115   5.570523   2.882989   2.468256
    10  H    5.331639   3.760482   6.123733   3.921884   2.805563
    11  H    4.385251   2.888588   5.216225   3.126512   3.391752
    12  C    5.859448   3.466671   6.837657   3.100230   1.412765
    13  H    6.637531   4.315734   7.594653   3.901537   2.154313
    14  C    6.317151   3.693398   7.334945   3.100139   2.426183
    15  H    7.334945   4.622104   8.369213   3.880073   3.404316
    16  C    5.743615   3.272925   6.733689   2.818354   2.897804
    17  H    5.588607   2.991016   6.613928   2.329354   3.444877
    18  H    6.629140   4.294446   7.576536   3.849910   3.834755
    19  C    2.426183   1.425164   3.404316   2.130130   3.856462
    20  H    3.390327   2.177134   4.273947   2.466885   4.391118
    21  C    1.359014   2.461486   2.120178   3.391302   4.654793
    22  H    2.111348   3.433033   2.429919   4.269066   5.599687
    23  C    2.513191   1.519710   3.493945   2.188698   3.091986
    24  H    3.444369   2.155652   4.353592   2.500267   2.659525
    25  H    2.889751   2.128963   3.787558   2.515586   4.048309
    26  C    1.499245   2.534065   2.227766   3.496576   3.784512
    27  H    2.136265   3.458833   2.484730   4.315046   4.613754
    28  H    2.128273   2.951706   2.662085   3.907492   3.373107
                    6          7          8          9         10
     6  C    0.000000
     7  H    2.177134   0.000000
     8  H    1.086753   2.466885   0.000000
     9  C    1.519710   3.449419   2.188698   0.000000
    10  H    2.128963   3.688570   2.515586   1.094991   0.000000
    11  H    2.155652   4.296713   2.500267   1.090707   1.753834
    12  C    2.461486   2.161189   3.391302   2.830192   3.126179
    13  H    3.433033   2.465299   4.269066   3.903309   4.101018
    14  C    2.856901   3.390327   3.902287   2.513191   2.889751
    15  H    3.938005   4.273947   4.985218   3.493945   3.787558
    16  C    2.534065   3.979209   3.496575   1.530168   2.149268
    17  H    2.951706   4.477589   3.907492   2.171538   3.046404
    18  H    3.458833   4.910332   4.315046   2.159965   2.388870
    19  C    2.693497   4.391118   2.790018   3.091986   4.048309
    20  H    3.182381   5.102469   3.437671   3.055424   4.029378
    21  C    3.466671   4.957187   3.100230   4.053810   4.824696
    22  H    4.315734   5.958297   3.901537   4.641347   5.344801
    23  C    2.785115   3.055424   2.882989   4.053768   4.882761
    24  H    2.888588   2.386789   3.126512   4.262368   4.988869
    25  H    3.760482   4.029378   3.921884   4.882761   5.800662
    26  C    3.272924   3.530884   2.818353   4.599864   5.242913
    27  H    4.294446   4.178775   3.849910   5.666303   6.298656
    28  H    2.991016   2.962712   2.329354   4.394293   4.832405
                   11         12         13         14         15
    11  H    0.000000
    12  C    3.863313   0.000000
    13  H    4.945708   1.084128   0.000000
    14  C    3.444369   1.359014   2.111348   0.000000
    15  H    4.353592   2.120178   2.429919   1.083348   0.000000
    16  C    2.168920   2.495947   3.476835   1.499245   2.227766
    17  H    2.421366   3.098031   4.027595   2.128273   2.662085
    18  H    2.577476   3.305909   4.185394   2.136265   2.484730
    19  C    2.659525   4.654793   5.599687   4.637131   5.555956
    20  H    2.386789   4.957187   5.958297   4.634272   5.456449
    21  C    3.527402   5.696815   6.604008   5.859448   6.837657
    22  H    3.904137   6.604008   7.557963   6.637531   7.594653
    23  C    4.262368   4.053810   4.641347   4.674782   5.570523
    24  H    4.720361   3.527402   3.904137   4.385251   5.216225
    25  H    4.988869   4.824696   5.344801   5.331639   6.123733
    26  C    4.660509   5.027996   5.635306   5.743615   6.733689
    27  H    5.749213   5.818397   6.292837   6.629140   7.576536
    28  H    4.592033   4.736869   5.305540   5.588607   6.613928
                   16         17         18         19         20
    16  C    0.000000
    17  H    1.097684   0.000000
    18  H    1.092927   1.741315   0.000000
    19  C    3.784512   3.373107   4.613754   0.000000
    20  H    3.530884   2.962712   4.178775   1.082512   0.000000
    21  C    5.027996   4.736869   5.818397   1.412765   2.161189
    22  H    5.635306   5.305540   6.292837   2.154313   2.465299
    23  C    4.599864   4.394293   5.666303   2.468256   3.449419
    24  H    4.660509   4.592033   5.749213   3.391752   4.296713
    25  H    5.242913   4.832405   6.298656   2.805563   3.688570
    26  C    5.528770   5.466957   6.530320   2.897804   3.979209
    27  H    6.530320   6.429045   7.557238   3.834755   4.910332
    28  H    5.466957   5.622966   6.429045   3.444877   4.477589
                   21         22         23         24         25
    21  C    0.000000
    22  H    1.084128   0.000000
    23  C    2.830192   3.903309   0.000000
    24  H    3.863313   4.945708   1.090707   0.000000
    25  H    3.126179   4.101018   1.094991   1.753834   0.000000
    26  C    2.495948   3.476835   1.530169   2.168921   2.149269
    27  H    3.305909   4.185394   2.159965   2.577476   2.388870
    28  H    3.098031   4.027595   2.171538   2.421366   3.046404
                   26         27         28
    26  C    0.000000
    27  H    1.092928   0.000000
    28  H    1.097683   1.741315   0.000000
 Symmetry turned off by external request.
 Stoichiometry    C12H16
 Framework group  CI[X(C12H16)]
 Deg. of freedom    39
 Full point group                 CI      NOp   2
 Rotational constants (GHZ):           1.9524158           0.6383220           0.5525380
 Leave Link  202 at Tue Aug  4 15:46:06 2020, MaxMem=  6442450944 cpu:               0.3 elap:               0.1
 (Enter /scratch/scicomp/CentOS/7.3.1611/Haswell/software/Gaussian/g16/l301.exe)
 Standard basis: def2TZVP (6D, 10F)
 Ernie: Thresh=  0.10000D-02 Tol=  0.10000D-05 Strict=F.
   528 basis functions,   740 primitive gaussians,   528 cartesian basis functions
    44 alpha electrons       44 beta electrons
       nuclear repulsion energy       691.9222290504 Hartrees.
 IExCor= 4639 DFT=T Ex+Corr=wB97XD ExCW=0 ScaHFX=  1.000000
 ScaDFX=  1.000000  1.000000  1.000000  1.000000 ScalE2=  1.000000  1.000000
 IRadAn=      5 IRanWt=     -1 IRanGd=            0 ICorTp=0 IEmpDi=121
 HFx  wShort=  0.000000 wLong=  0.200000 cFull=  0.222036 cShort=  0.000000 cLong=  0.777964
 DFx  wShort=  0.000000 wLong=  0.200000 cFull=  0.000000 cShort=  0.000000 cLong=  1.000000
 NAtoms=   28 NActive=   28 NUniq=   28 SFac= 1.00D+00 NAtFMM=   60 NAOKFM=F Big=F
 Integral buffers will be    131072 words long.
 Raffenetti 2 integral format.
 Two-electron integral symmetry is turned off.
 R6Disp:  Grimme-D2 Dispersion energy=       -0.0228937751 Hartrees.
 Nuclear repulsion after empirical dispersion term =      691.8993352753 Hartrees.
 Using the following non-standard input for PCM:
 qrep pcmdoc geomview  nodis nocav g03defaults tsare=0.075
 Warning! Using old PCM defaults because the g03defaults keyword was found.
 These settings can be overridden by following keywords.
 nsfe=28
 NVESolv=36  SolvMW=84.1595   Rsolv=2.815
 eps=2.0165 RhoS=0.778099999999998
 --- end of non-standard input.
 Reading user-defined spheres from input:
 ISph  on   Nord    Re0     Alpha      Xe            Ye            Ze
 --- end of user-defined spheres data.
 ------------------------------------------------------------------------------
 Polarizable Continuum Model (PCM)
 =================================
 Model                : PCM.
 Atomic radii         : UA0 (Simple United Atom Topological Model).
 Polarization charges : Total charges.
 Charge compensation  : None.
 Solution method      : On-the-fly selection.
 Cavity type          : SES (Solvent Excluding Surface) (Alpha=1.000).
 Cavity algorithm     : GePol (RMin=0.200 OFac=0.890).
                        User-defined sphere list used, NSphG=   28.
                        Tesserae with average area of 0.075 Ang**2.
                        Smoothing algorithm: None.
                        Polarization charges: point-like.
                        Self-potential: constant (ISelfS= 1).
                        Self-field    : global E.n sum rule (ISelfD= 3).
 Solvent              : CycloHexane, Eps=   2.016500 Eps(inf)=   2.035188
                        RSolv=   2.815000 Ang.
 ------------------------------------------------------------------------------
 GePol: Number of generator spheres                  =      28
 GePol: Total number of spheres                      =     166
 GePol: Number of exposed spheres                    =     123 ( 74.10%)
 GePol: Number of tesserae                           =    4582
 GePol: Average area of tesserae                     =       0.05 Ang**2
 GePol: Minimum area of tessera                      =   0.10D-02 Ang**2
 GePol: Maximum area of tessera                      =    0.12609 Ang**2
 GePol: Number of small tesserae                     =       0
 GePol: Fraction of small tesserae (<1% of avg)      =       0.00%
 GePol: Total count of vertices                      =   16183
 GePol: Maximum number of vertices in a tessera      =       7
 GePol: Cavity surface area                          =    218.717 Ang**2
 GePol: Cavity volume                                =    245.831 Ang**3
 Leave Link  301 at Tue Aug  4 15:46:07 2020, MaxMem=  6442450944 cpu:              11.5 elap:               0.5
 (Enter /scratch/scicomp/CentOS/7.3.1611/Haswell/software/Gaussian/g16/l302.exe)
 NPDir=0 NMtPBC=     1 NCelOv=     1 NCel=       1 NClECP=     1 NCelD=      1
         NCelK=      1 NCelE2=     1 NClLst=     1 CellRange=     0.0.
 One-electron integrals computed using PRISM.
   1 Symmetry operations used in ECPInt.
 ECPInt:  NShTT=   19306 NPrTT=   56928 LenC2=   18530 LenP2D=   42290.
 LDataN:  DoStor=T MaxTD1= 6 Len=  172
 NBasis=   528 RedAO= T EigKep=  2.59D-05  NBF=   528
 NBsUse=   528 1.00D-06 EigRej= -1.00D+00 NBFU=   528
 Precomputing XC quadrature grid using
 IXCGrd= 4 IRadAn=           5 IRanWt=          -1 IRanGd=           0 AccXCQ= 0.00D+00.
 Generated NRdTot=       0 NPtTot=           0 NUsed=           0 NTot=          32
 NSgBfM=   526   526   526   526   526 MxSgAt=    28 MxSgA2=    28.
 Leave Link  302 at Tue Aug  4 15:46:07 2020, MaxMem=  6442450944 cpu:              12.9 elap:               0.6
 (Enter /scratch/scicomp/CentOS/7.3.1611/Haswell/software/Gaussian/g16/l303.exe)
 DipDrv:  MaxL=1.
 Leave Link  303 at Tue Aug  4 15:46:08 2020, MaxMem=  6442450944 cpu:               1.5 elap:               0.1
 (Enter /scratch/scicomp/CentOS/7.3.1611/Haswell/software/Gaussian/g16/l401.exe)
 ExpMin= 9.52D-02 ExpMax= 1.36D+04 ExpMxC= 4.63D+02 IAcc=3 IRadAn=         5 AccDes= 0.00D+00
 Harris functional with IExCor= 4639 and IRadAn=       5 diagonalized for initial guess.
 HarFok:  IExCor= 4639 AccDes= 0.00D+00 IRadAn=         5 IDoV= 1 UseB2=F ITyADJ=14
 ICtDFT=  3500011 ScaDFX=  1.000000  1.000000  1.000000  1.000000
 FoFCou: FMM=F IPFlag=           0 FMFlag=      100000 FMFlg1=           0
         NFxFlg=           0 DoJE=T BraDBF=F KetDBF=T FulRan=T
         wScrn=  0.000000 ICntrl=       500 IOpCl=  0 I1Cent=   200000004 NGrid=           0
         NMat0=    1 NMatS0=      1 NMatT0=    0 NMatD0=    1 NMtDS0=    0 NMtDT0=    0
 Symmetry not used in FoFCou.
 Harris En= -444.615997417059    
 JPrj=0 DoOrth=F DoCkMO=T.
 Mixing orbitals, IMix= 1 IMixAn=  0 NRI=1 NE=   44 Coef=  7.07106781D-01  7.07106781D-01
 Mixing orbitals, IMix= 1 IMixAn=  0 NRI=1 NE=   44 Coef= -7.07106781D-01  7.07106781D-01
 Initial guess <Sx>= 0.0000 <Sy>= 0.0000 <Sz>= 0.0000 <S**2>= 1.0000 S= 0.6180
 Leave Link  401 at Tue Aug  4 15:46:10 2020, MaxMem=  6442450944 cpu:              49.4 elap:               2.1
 (Enter /scratch/scicomp/CentOS/7.3.1611/Haswell/software/Gaussian/g16/l502.exe)
 Two-electron integral symmetry not used.
 UHF open shell SCF:
 Using DIIS extrapolation, IDIIS=  1040.
 NGot=  6442450944 LenX=  6441877030 LenY=  6441597718
 Requested convergence on RMS density matrix=1.00D-08 within 128 cycles.
 Requested convergence on MAX density matrix=1.00D-06.
 Requested convergence on             energy=1.00D-06.
 No special actions if energy rises.
 Fock matrices will be formed incrementally for  20 cycles.

 Cycle   1  Pass 1  IDiag  1:
 FoFJK:  IHMeth= 1 ICntrl=       0 DoSepK=T KAlg= 0 I1Cent=           0 FoldK=F
 IRaf=         1 NMat=       1 IRICut=       1 DoRegI=T DoRafI=F ISym2E= 0 IDoP0=0 IntGTp=1.
 FoFCou: FMM=F IPFlag=           0 FMFlag=      100000 FMFlg1=           0
         NFxFlg=           0 DoJE=T BraDBF=F KetDBF=F FulRan=T
         wScrn=  0.000000 ICntrl=       500 IOpCl=  0 I1Cent=           0 NGrid=           0
         NMat0=    1 NMatS0=      1 NMatT0=    0 NMatD0=    1 NMtDS0=    0 NMtDT0=    0
 Symmetry not used in FoFCou.
 Inv3:  Mode=1 IEnd=    62984172.
 Iteration    1 A*A^-1 deviation from unit magnitude is 4.22D-15 for   2519.
 Iteration    1 A*A^-1 deviation from orthogonality  is 2.12D-15 for   2161    902.
 Iteration    1 A^-1*A deviation from unit magnitude is 4.44D-15 for   2519.
 Iteration    1 A^-1*A deviation from orthogonality  is 2.89D-15 for   2879     57.
 E= -466.651600072083    
 DIIS: error= 4.90D-02 at cycle   1 NSaved=   1.
 NSaved= 1 IEnMin= 1 EnMin= -466.651600072083     IErMin= 1 ErrMin= 4.90D-02
 ErrMax= 4.90D-02  0.00D+00 EMaxC= 1.00D-01 BMatC= 4.11D+00 BMatP= 4.11D+00
 IDIUse=3 WtCom= 5.10D-01 WtEn= 4.90D-01
 Coeff-Com:  0.100D+01
 Coeff-En:   0.100D+01
 Coeff:      0.100D+01
 Gap=     0.218 Goal=   None    Shift=    0.000
 Gap=     0.218 Goal=   None    Shift=    0.000
 GapD=    0.218 DampG=1.000 DampE=0.500 DampFc=0.5000 IDamp=-1.
 Damping current iteration by 5.00D-01
 RMSDP=1.46D-03 MaxDP=9.24D-02              OVMax= 1.22D-01

 Cycle   2  Pass 1  IDiag  1:
 RMSU=  7.13D-04    CP:  9.76D-01
 E= -466.725956024547     Delta-E=       -0.074355952464 Rises=F Damp=T
 DIIS: error= 2.33D-02 at cycle   2 NSaved=   2.
 NSaved= 2 IEnMin= 2 EnMin= -466.725956024547     IErMin= 2 ErrMin= 2.33D-02
 ErrMax= 2.33D-02  0.00D+00 EMaxC= 1.00D-01 BMatC= 9.21D-01 BMatP= 4.11D+00
 IDIUse=3 WtCom= 7.67D-01 WtEn= 2.33D-01
 Coeff-Com: -0.864D+00 0.186D+01
 Coeff-En:   0.000D+00 0.100D+01
 Coeff:     -0.663D+00 0.166D+01
 Gap=     0.234 Goal=   None    Shift=    0.000
 Gap=     0.234 Goal=   None    Shift=    0.000
 RMSDP=9.17D-04 MaxDP=4.87D-02 DE=-7.44D-02 OVMax= 5.24D-02

 Cycle   3  Pass 1  IDiag  1:
 RMSU=  4.47D-04    CP:  9.45D-01  2.09D+00
 E= -466.801357990180     Delta-E=       -0.075401965632 Rises=F Damp=F
 DIIS: error= 2.67D-03 at cycle   3 NSaved=   3.
 NSaved= 3 IEnMin= 3 EnMin= -466.801357990180     IErMin= 3 ErrMin= 2.67D-03
 ErrMax= 2.67D-03  0.00D+00 EMaxC= 1.00D-01 BMatC= 1.91D-02 BMatP= 9.21D-01
 IDIUse=3 WtCom= 9.73D-01 WtEn= 2.67D-02
 Coeff-Com: -0.322D+00 0.692D+00 0.630D+00
 Coeff-En:   0.000D+00 0.000D+00 0.100D+01
 Coeff:     -0.313D+00 0.674D+00 0.639D+00
 Gap=     0.238 Goal=   None    Shift=    0.000
 Gap=     0.238 Goal=   None    Shift=    0.000
 RMSDP=1.26D-04 MaxDP=5.87D-03 DE=-7.54D-02 OVMax= 2.26D-02

 Cycle   4  Pass 1  IDiag  1:
 RMSU=  1.07D-04    CP:  9.42D-01  2.16D+00  9.21D-01
 E= -466.806650922268     Delta-E=       -0.005292932089 Rises=F Damp=F
 DIIS: error= 1.71D-03 at cycle   4 NSaved=   4.
 NSaved= 4 IEnMin= 4 EnMin= -466.806650922268     IErMin= 4 ErrMin= 1.71D-03
 ErrMax= 1.71D-03  0.00D+00 EMaxC= 1.00D-01 BMatC= 5.91D-04 BMatP= 1.91D-02
 IDIUse=3 WtCom= 9.83D-01 WtEn= 1.71D-02
 Coeff-Com:  0.119D+00-0.255D+00-0.131D+00 0.127D+01
 Coeff-En:   0.000D+00 0.000D+00 0.000D+00 0.100D+01
 Coeff:      0.117D+00-0.251D+00-0.128D+00 0.126D+01
 Gap=     0.242 Goal=   None    Shift=    0.000
 Gap=     0.242 Goal=   None    Shift=    0.000
 RMSDP=1.07D-04 MaxDP=5.44D-03 DE=-5.29D-03 OVMax= 2.85D-02

 Cycle   5  Pass 1  IDiag  1:
 RMSU=  4.43D-05    CP:  9.40D-01  2.21D+00  1.07D+00  1.59D+00
 E= -466.807598498033     Delta-E=       -0.000947575765 Rises=F Damp=F
 DIIS: error= 6.83D-04 at cycle   5 NSaved=   5.
 NSaved= 5 IEnMin= 5 EnMin= -466.807598498033     IErMin= 5 ErrMin= 6.83D-04
 ErrMax= 6.83D-04  0.00D+00 EMaxC= 1.00D-01 BMatC= 1.24D-04 BMatP= 5.91D-04
 IDIUse=3 WtCom= 9.93D-01 WtEn= 6.83D-03
 Coeff-Com:  0.323D-01-0.699D-01-0.622D-01 0.111D-01 0.109D+01
 Coeff-En:   0.000D+00 0.000D+00 0.000D+00 0.000D+00 0.100D+01
 Coeff:      0.321D-01-0.694D-01-0.618D-01 0.110D-01 0.109D+01
 Gap=     0.242 Goal=   None    Shift=    0.000
 Gap=     0.242 Goal=   None    Shift=    0.000
 RMSDP=4.61D-05 MaxDP=3.26D-03 DE=-9.48D-04 OVMax= 1.33D-02

 Cycle   6  Pass 1  IDiag  1:
 RMSU=  1.60D-05    CP:  9.39D-01  2.21D+00  1.10D+00  1.85D+00  1.64D+00
 E= -466.807807515479     Delta-E=       -0.000209017446 Rises=F Damp=F
 DIIS: error= 3.01D-04 at cycle   6 NSaved=   6.
 NSaved= 6 IEnMin= 6 EnMin= -466.807807515479     IErMin= 6 ErrMin= 3.01D-04
 ErrMax= 3.01D-04  0.00D+00 EMaxC= 1.00D-01 BMatC= 5.16D-05 BMatP= 1.24D-04
 IDIUse=3 WtCom= 9.97D-01 WtEn= 3.01D-03
 Coeff-Com: -0.263D-01 0.566D-01 0.202D-01-0.388D+00 0.419D+00 0.919D+00
 Coeff-En:   0.000D+00 0.000D+00 0.000D+00 0.000D+00 0.000D+00 0.100D+01
 Coeff:     -0.263D-01 0.565D-01 0.201D-01-0.387D+00 0.417D+00 0.919D+00
 Gap=     0.243 Goal=   None    Shift=    0.000
 Gap=     0.243 Goal=   None    Shift=    0.000
 RMSDP=2.77D-05 MaxDP=1.77D-03 DE=-2.09D-04 OVMax= 8.78D-03

 Cycle   7  Pass 1  IDiag  1:
 RMSU=  9.49D-06    CP:  9.39D-01  2.21D+00  1.11D+00  1.99D+00  2.09D+00
                    CP:  1.45D+00
 E= -466.807876627978     Delta-E=       -0.000069112499 Rises=F Damp=F
 DIIS: error= 1.34D-04 at cycle   7 NSaved=   7.
 NSaved= 7 IEnMin= 7 EnMin= -466.807876627978     IErMin= 7 ErrMin= 1.34D-04
 ErrMax= 1.34D-04  0.00D+00 EMaxC= 1.00D-01 BMatC= 7.78D-06 BMatP= 5.16D-05
 IDIUse=3 WtCom= 9.99D-01 WtEn= 1.34D-03
 Coeff-Com: -0.101D-01 0.218D-01 0.148D-01-0.501D-01-0.134D+00 0.969D-01
 Coeff-Com:  0.106D+01
 Coeff-En:   0.000D+00 0.000D+00 0.000D+00 0.000D+00 0.000D+00 0.000D+00
 Coeff-En:   0.100D+01
 Coeff:     -0.101D-01 0.218D-01 0.148D-01-0.500D-01-0.133D+00 0.967D-01
 Coeff:      0.106D+01
 Gap=     0.243 Goal=   None    Shift=    0.000
 Gap=     0.243 Goal=   None    Shift=    0.000
 RMSDP=1.31D-05 MaxDP=8.01D-04 DE=-6.91D-05 OVMax= 3.70D-03

 Cycle   8  Pass 1  IDiag  1:
 RMSU=  4.10D-06    CP:  9.39D-01  2.21D+00  1.11D+00  2.02D+00  2.28D+00
                    CP:  1.84D+00  1.47D+00
 E= -466.807891716876     Delta-E=       -0.000015088898 Rises=F Damp=F
 DIIS: error= 7.03D-05 at cycle   8 NSaved=   8.
 NSaved= 8 IEnMin= 8 EnMin= -466.807891716876     IErMin= 8 ErrMin= 7.03D-05
 ErrMax= 7.03D-05  0.00D+00 EMaxC= 1.00D-01 BMatC= 2.61D-06 BMatP= 7.78D-06
 IDIUse=1 WtCom= 1.00D+00 WtEn= 0.00D+00
 Coeff-Com:  0.424D-02-0.914D-02-0.120D-02 0.916D-01-0.129D+00-0.236D+00
 Coeff-Com:  0.249D+00 0.103D+01
 Coeff:      0.424D-02-0.914D-02-0.120D-02 0.916D-01-0.129D+00-0.236D+00
 Coeff:      0.249D+00 0.103D+01
 Gap=     0.243 Goal=   None    Shift=    0.000
 Gap=     0.243 Goal=   None    Shift=    0.000
 RMSDP=6.87D-06 MaxDP=2.69D-04 DE=-1.51D-05 OVMax= 2.26D-03

 Cycle   9  Pass 1  IDiag  1:
 RMSU=  2.03D-06    CP:  9.39D-01  2.21D+00  1.11D+00  2.04D+00  2.36D+00
                    CP:  2.01D+00  1.89D+00  1.50D+00
 E= -466.807896665419     Delta-E=       -0.000004948543 Rises=F Damp=F
 DIIS: error= 4.88D-05 at cycle   9 NSaved=   9.
 NSaved= 9 IEnMin= 9 EnMin= -466.807896665419     IErMin= 9 ErrMin= 4.88D-05
 ErrMax= 4.88D-05  0.00D+00 EMaxC= 1.00D-01 BMatC= 7.69D-07 BMatP= 2.61D-06
 IDIUse=1 WtCom= 1.00D+00 WtEn= 0.00D+00
 Coeff-Com:  0.413D-02-0.893D-02-0.471D-02 0.393D-01 0.129D-01-0.946D-01
 Coeff-Com: -0.243D+00 0.242D+00 0.105D+01
 Coeff:      0.413D-02-0.893D-02-0.471D-02 0.393D-01 0.129D-01-0.946D-01
 Coeff:     -0.243D+00 0.242D+00 0.105D+01
 Gap=     0.242 Goal=   None    Shift=    0.000
 Gap=     0.242 Goal=   None    Shift=    0.000
 RMSDP=3.87D-06 MaxDP=1.44D-04 DE=-4.95D-06 OVMax= 1.36D-03

 Cycle  10  Pass 1  IDiag  1:
 RMSU=  1.07D-06    CP:  9.39D-01  2.21D+00  1.11D+00  2.05D+00  2.40D+00
                    CP:  2.09D+00  2.09D+00  1.97D+00  1.51D+00
 E= -466.807898362769     Delta-E=       -0.000001697350 Rises=F Damp=F
 DIIS: error= 3.56D-05 at cycle  10 NSaved=  10.
 NSaved=10 IEnMin=10 EnMin= -466.807898362769     IErMin=10 ErrMin= 3.56D-05
 ErrMax= 3.56D-05  0.00D+00 EMaxC= 1.00D-01 BMatC= 1.90D-07 BMatP= 7.69D-07
 IDIUse=1 WtCom= 1.00D+00 WtEn= 0.00D+00
 Coeff-Com: -0.187D-02 0.404D-02 0.109D-02-0.325D-01 0.438D-01 0.825D-01
 Coeff-Com: -0.595D-01-0.379D+00-0.157D+00 0.150D+01
 Coeff:     -0.187D-02 0.404D-02 0.109D-02-0.325D-01 0.438D-01 0.825D-01
 Coeff:     -0.595D-01-0.379D+00-0.157D+00 0.150D+01
 Gap=     0.242 Goal=   None    Shift=    0.000
 Gap=     0.242 Goal=   None    Shift=    0.000
 RMSDP=3.06D-06 MaxDP=1.35D-04 DE=-1.70D-06 OVMax= 1.20D-03

 Cycle  11  Pass 1  IDiag  1:
 RMSU=  6.69D-07    CP:  9.39D-01  2.21D+00  1.11D+00  2.06D+00  2.43D+00
                    CP:  2.12D+00  2.21D+00  2.25D+00  2.12D+00  2.07D+00
 E= -466.807899050804     Delta-E=       -0.000000688035 Rises=F Damp=F
 DIIS: error= 1.63D-05 at cycle  11 NSaved=  11.
 NSaved=11 IEnMin=11 EnMin= -466.807899050804     IErMin=11 ErrMin= 1.63D-05
 ErrMax= 1.63D-05  0.00D+00 EMaxC= 1.00D-01 BMatC= 4.02D-08 BMatP= 1.90D-07
 IDIUse=1 WtCom= 1.00D+00 WtEn= 0.00D+00
 Coeff-Com: -0.972D-03 0.210D-02 0.903D-03-0.121D-01 0.876D-02 0.312D-01
 Coeff-Com:  0.176D-01-0.123D+00-0.187D+00 0.338D+00 0.925D+00
 Coeff:     -0.972D-03 0.210D-02 0.903D-03-0.121D-01 0.876D-02 0.312D-01
 Coeff:      0.176D-01-0.123D+00-0.187D+00 0.338D+00 0.925D+00
 Gap=     0.242 Goal=   None    Shift=    0.000
 Gap=     0.242 Goal=   None    Shift=    0.000
 RMSDP=9.46D-07 MaxDP=4.14D-05 DE=-6.88D-07 OVMax= 3.65D-04

 Cycle  12  Pass 1  IDiag  1:
 RMSU=  2.21D-07    CP:  9.39D-01  2.21D+00  1.11D+00  2.06D+00  2.44D+00
                    CP:  2.13D+00  2.22D+00  2.29D+00  2.25D+00  2.52D+00
                    CP:  1.48D+00
 E= -466.807899143114     Delta-E=       -0.000000092310 Rises=F Damp=F
 DIIS: error= 8.80D-06 at cycle  12 NSaved=  12.
 NSaved=12 IEnMin=12 EnMin= -466.807899143114     IErMin=12 ErrMin= 8.80D-06
 ErrMax= 8.80D-06  0.00D+00 EMaxC= 1.00D-01 BMatC= 1.33D-08 BMatP= 4.02D-08
 IDIUse=1 WtCom= 1.00D+00 WtEn= 0.00D+00
 Coeff-Com:  0.614D-03-0.133D-02-0.289D-03 0.116D-01-0.150D-01-0.285D-01
 Coeff-Com:  0.208D-01 0.127D+00 0.396D-01-0.540D+00 0.190D+00 0.120D+01
 Coeff:      0.614D-03-0.133D-02-0.289D-03 0.116D-01-0.150D-01-0.285D-01
 Coeff:      0.208D-01 0.127D+00 0.396D-01-0.540D+00 0.190D+00 0.120D+01
 Gap=     0.242 Goal=   None    Shift=    0.000
 Gap=     0.242 Goal=   None    Shift=    0.000
 RMSDP=7.52D-07 MaxDP=3.71D-05 DE=-9.23D-08 OVMax= 2.75D-04

 Cycle  13  Pass 1  IDiag  1:
 RMSU=  1.54D-07    CP:  9.39D-01  2.21D+00  1.11D+00  2.06D+00  2.45D+00
                    CP:  2.13D+00  2.24D+00  2.30D+00  2.32D+00  2.85D+00
                    CP:  1.99D+00  1.66D+00
 E= -466.807899178204     Delta-E=       -0.000000035090 Rises=F Damp=F
 DIIS: error= 2.67D-06 at cycle  13 NSaved=  13.
 NSaved=13 IEnMin=13 EnMin= -466.807899178204     IErMin=13 ErrMin= 2.67D-06
 ErrMax= 2.67D-06  0.00D+00 EMaxC= 1.00D-01 BMatC= 2.21D-09 BMatP= 1.33D-08
 IDIUse=1 WtCom= 1.00D+00 WtEn= 0.00D+00
 Coeff-Com:  0.245D-03-0.527D-03-0.188D-03 0.351D-02-0.287D-02-0.893D-02
 Coeff-Com: -0.196D-02 0.344D-01 0.408D-01-0.118D+00-0.145D+00 0.127D+00
 Coeff-Com:  0.107D+01
 Coeff:      0.245D-03-0.527D-03-0.188D-03 0.351D-02-0.287D-02-0.893D-02
 Coeff:     -0.196D-02 0.344D-01 0.408D-01-0.118D+00-0.145D+00 0.127D+00
 Coeff:      0.107D+01
 Gap=     0.242 Goal=   None    Shift=    0.000
 Gap=     0.242 Goal=   None    Shift=    0.000
 RMSDP=2.34D-07 MaxDP=1.08D-05 DE=-3.51D-08 OVMax= 8.70D-05

 Cycle  14  Pass 1  IDiag  1:
 RMSU=  6.26D-08    CP:  9.39D-01  2.21D+00  1.11D+00  2.07D+00  2.45D+00
                    CP:  2.13D+00  2.24D+00  2.31D+00  2.34D+00  2.94D+00
                    CP:  2.12D+00  2.02D+00  1.44D+00
 E= -466.807899182876     Delta-E=       -0.000000004672 Rises=F Damp=F
 DIIS: error= 9.70D-07 at cycle  14 NSaved=  14.
 NSaved=14 IEnMin=14 EnMin= -466.807899182876     IErMin=14 ErrMin= 9.70D-07
 ErrMax= 9.70D-07  0.00D+00 EMaxC= 1.00D-01 BMatC= 6.57D-10 BMatP= 2.21D-09
 IDIUse=1 WtCom= 1.00D+00 WtEn= 0.00D+00
 Coeff-Com: -0.114D-03 0.248D-03 0.365D-04-0.240D-02 0.380D-02 0.567D-02
 Coeff-Com: -0.796D-02-0.285D-01 0.169D-02 0.125D+00-0.992D-01-0.315D+00
 Coeff-Com:  0.329D+00 0.987D+00
 Coeff:     -0.114D-03 0.248D-03 0.365D-04-0.240D-02 0.380D-02 0.567D-02
 Coeff:     -0.796D-02-0.285D-01 0.169D-02 0.125D+00-0.992D-01-0.315D+00
 Coeff:      0.329D+00 0.987D+00
 Gap=     0.242 Goal=   None    Shift=    0.000
 Gap=     0.242 Goal=   None    Shift=    0.000
 RMSDP=1.19D-07 MaxDP=4.67D-06 DE=-4.67D-09 OVMax= 4.41D-05

 Cycle  15  Pass 1  IDiag  1:
 RMSU=  2.99D-08    CP:  9.39D-01  2.21D+00  1.11D+00  2.07D+00  2.45D+00
                    CP:  2.14D+00  2.25D+00  2.32D+00  2.36D+00  2.96D+00
                    CP:  2.16D+00  2.18D+00  1.76D+00  1.39D+00
 E= -466.807899183851     Delta-E=       -0.000000000976 Rises=F Damp=F
 DIIS: error= 2.35D-07 at cycle  15 NSaved=  15.
 NSaved=15 IEnMin=15 EnMin= -466.807899183851     IErMin=15 ErrMin= 2.35D-07
 ErrMax= 2.35D-07  0.00D+00 EMaxC= 1.00D-01 BMatC= 6.98D-11 BMatP= 6.57D-10
 IDIUse=1 WtCom= 1.00D+00 WtEn= 0.00D+00
 Coeff-Com: -0.587D-04 0.127D-03 0.292D-04-0.105D-02 0.133D-02 0.258D-02
 Coeff-Com: -0.176D-02-0.116D-01-0.579D-02 0.470D-01-0.743D-04-0.935D-01
 Coeff-Com: -0.102D+00 0.234D+00 0.931D+00
 Coeff:     -0.587D-04 0.127D-03 0.292D-04-0.105D-02 0.133D-02 0.258D-02
 Coeff:     -0.176D-02-0.116D-01-0.579D-02 0.470D-01-0.743D-04-0.935D-01
 Coeff:     -0.102D+00 0.234D+00 0.931D+00
 Gap=     0.242 Goal=   None    Shift=    0.000
 Gap=     0.242 Goal=   None    Shift=    0.000
 RMSDP=3.35D-08 MaxDP=1.46D-06 DE=-9.76D-10 OVMax= 1.12D-05

 Cycle  16  Pass 1  IDiag  1:
 RMSU=  1.07D-08    CP:  9.39D-01  2.21D+00  1.11D+00  2.07D+00  2.45D+00
                    CP:  2.14D+00  2.25D+00  2.32D+00  2.36D+00  2.96D+00
                    CP:  2.16D+00  2.21D+00  1.84D+00  1.60D+00  1.30D+00
 E= -466.807899183918     Delta-E=       -0.000000000067 Rises=F Damp=F
 DIIS: error= 4.74D-08 at cycle  16 NSaved=  16.
 NSaved=16 IEnMin=16 EnMin= -466.807899183918     IErMin=16 ErrMin= 4.74D-08
 ErrMax= 4.74D-08  0.00D+00 EMaxC= 1.00D-01 BMatC= 5.50D-12 BMatP= 6.98D-11
 IDIUse=1 WtCom= 1.00D+00 WtEn= 0.00D+00
 Coeff-Com:  0.494D-05-0.109D-04-0.123D-05 0.127D-03-0.214D-03-0.306D-03
 Coeff-Com:  0.621D-03 0.168D-02-0.911D-03-0.763D-02 0.111D-01 0.229D-01
 Coeff-Com: -0.486D-01-0.766D-01 0.123D+00 0.975D+00
 Coeff:      0.494D-05-0.109D-04-0.123D-05 0.127D-03-0.214D-03-0.306D-03
 Coeff:      0.621D-03 0.168D-02-0.911D-03-0.763D-02 0.111D-01 0.229D-01
 Coeff:     -0.486D-01-0.766D-01 0.123D+00 0.975D+00
 Gap=     0.242 Goal=   None    Shift=    0.000
 Gap=     0.242 Goal=   None    Shift=    0.000
 RMSDP=8.38D-09 MaxDP=3.52D-07 DE=-6.70D-11 OVMax= 8.95D-07

 Error on total polarization charges =  0.01112
 SCF Done:  E(UwB97XD) =  -466.807899184     A.U. after   16 cycles
            NFock= 16  Conv=0.84D-08     -V/T= 2.0060
 <Sx>= 0.0000 <Sy>= 0.0000 <Sz>= 0.0000 <S**2>= 0.8621 S= 0.5546
 <L.S>=  0.00000000000    
 KE= 4.640344154434D+02 PE=-2.465494812961D+03 EE= 8.427531630580D+02
 --------------------------------------------------------------------
 Variational PCM results
 =======================
 <psi(f)|   H    |psi(f)>                     (a.u.) =    -466.816104
 <psi(f)|H+V(f)/2|psi(f)>                     (a.u.) =    -466.817397
 Total free energy in solution:
 - with all non electrostatic terms           (a.u.) =    -466.807899
 --------------------------------------------------------------------
 (Polarized solute)-Solvent               (kcal/mol) =      -0.81
 --------------------------------------------------------------------
 Quantum repulsion energy                 (kcal/mol) =       5.96
 Total non electrostatic                  (kcal/mol) =       5.96
 --------------------------------------------------------------------
 Partition over spheres:
 Sphere  on Atom  Surface  Charge   GEl     GCav    GDR
    1               7.38   0.011   -0.05    0.00    0.00
    2               0.80   0.001   -0.00    0.00    0.00
    3               7.51  -0.010   -0.04    0.00    0.00
    4               2.97  -0.003   -0.01    0.00    0.00
    5               4.75   0.008   -0.04    0.00    0.00
    6               0.71   0.000   -0.00    0.00    0.00
    7               4.92  -0.007   -0.03    0.00    0.00
    8               3.67  -0.004   -0.01    0.00    0.00
    9               3.06   0.002   -0.00    0.00    0.00
   10               6.69  -0.006   -0.01    0.00    0.00
   11               3.70  -0.003   -0.01    0.00    0.00
   12               6.69   0.011   -0.06    0.00    0.00
   13               7.51  -0.010   -0.03    0.00    0.00
   14               7.40   0.011   -0.05    0.00    0.00
   15               7.51  -0.010   -0.04    0.00    0.00
   16               3.32   0.002    0.00    0.00    0.00
   17               4.15  -0.004   -0.02    0.00    0.00
   18               7.48  -0.008   -0.03    0.00    0.00
   19               4.99   0.009   -0.05    0.00    0.00
   20               5.38  -0.007   -0.03    0.00    0.00
   21               6.66   0.011   -0.06    0.00    0.00
   22               7.50  -0.010   -0.03    0.00    0.00
   23               3.03   0.002   -0.00    0.00    0.00
   24               3.89  -0.003   -0.01    0.00    0.00
   25               6.89  -0.006   -0.01    0.00    0.00
   26               3.23   0.001    0.00    0.00    0.00
   27               7.41  -0.008   -0.03    0.00    0.00
   28               4.17  -0.004   -0.02    0.00    0.00
 Added spheres:    75.34   0.023   -0.19    0.00    0.00
 --------------------------------------------------------------------
 After PCM corrections, the energy is  -466.807899184     a.u.
 --------------------------------------------------------------------
 Annihilation of the first spin contaminant:
 S**2 before annihilation     0.8621,   after     0.3651
 Leave Link  502 at Tue Aug  4 15:51:17 2020, MaxMem=  6442450944 cpu:            7299.7 elap:             306.9
 (Enter /scratch/scicomp/CentOS/7.3.1611/Haswell/software/Gaussian/g16/l601.exe)
 Copying SCF densities to generalized density rwf, IOpCl= 1 IROHF=0.

 **********************************************************************

            Population analysis using the SCF Density.

 **********************************************************************

 Alpha  occ. eigenvalues --  -10.29770 -10.29449 -10.28462 -10.28300 -10.28263
 Alpha  occ. eigenvalues --  -10.28142 -10.27975 -10.27894 -10.27862 -10.27835
 Alpha  occ. eigenvalues --  -10.27678 -10.27478  -0.94769  -0.92891  -0.84931
 Alpha  occ. eigenvalues --   -0.84315  -0.83467  -0.81987  -0.71046  -0.70002
 Alpha  occ. eigenvalues --   -0.69381  -0.67662  -0.59833  -0.59223  -0.58138
 Alpha  occ. eigenvalues --   -0.56196  -0.53239  -0.52854  -0.50638  -0.49665
 Alpha  occ. eigenvalues --   -0.49014  -0.47968  -0.47721  -0.47275  -0.46353
 Alpha  occ. eigenvalues --   -0.44553  -0.41314  -0.40813  -0.39702  -0.39537
 Alpha  occ. eigenvalues --   -0.38746  -0.37141  -0.32466  -0.24280
 Alpha virt. eigenvalues --   -0.00058   0.09480   0.11376   0.13487   0.14150
 Alpha virt. eigenvalues --    0.14629   0.15534   0.16469   0.16988   0.17320
 Alpha virt. eigenvalues --    0.17567   0.18130   0.19262   0.20526   0.21223
 Alpha virt. eigenvalues --    0.21574   0.22301   0.23421   0.24052   0.24347
 Alpha virt. eigenvalues --    0.25484   0.25941   0.27089   0.27206   0.27879
 Alpha virt. eigenvalues --    0.29245   0.29350   0.30417   0.31167   0.31195
 Alpha virt. eigenvalues --    0.31910   0.32459   0.32622   0.33241   0.34553
 Alpha virt. eigenvalues --    0.34820   0.36113   0.36724   0.37194   0.37859
 Alpha virt. eigenvalues --    0.38263   0.39304   0.41624   0.41981   0.42732
 Alpha virt. eigenvalues --    0.43977   0.44571   0.45522   0.46098   0.46249
 Alpha virt. eigenvalues --    0.47084   0.47485   0.49161   0.49276   0.49308
 Alpha virt. eigenvalues --    0.49394   0.49801   0.49954   0.50829   0.50978
 Alpha virt. eigenvalues --    0.51124   0.51775   0.52083   0.52885   0.53568
 Alpha virt. eigenvalues --    0.53714   0.54899   0.54917   0.55636   0.56714
 Alpha virt. eigenvalues --    0.57022   0.57285   0.58503   0.58996   0.59323
 Alpha virt. eigenvalues --    0.59495   0.61200   0.61412   0.63807   0.65676
 Alpha virt. eigenvalues --    0.66786   0.67996   0.68425   0.69186   0.69293
 Alpha virt. eigenvalues --    0.71156   0.72001   0.73987   0.76066   0.76191
 Alpha virt. eigenvalues --    0.78637   0.79313   0.79487   0.81852   0.82538
 Alpha virt. eigenvalues --    0.83308   0.84633   0.86336   0.88077   0.88231
 Alpha virt. eigenvalues --    0.88846   0.89722   0.93447   0.94342   0.95127
 Alpha virt. eigenvalues --    0.96740   0.97272   0.98399   0.99064   1.00038
 Alpha virt. eigenvalues --    1.02094   1.02259   1.04407   1.04862   1.06038
 Alpha virt. eigenvalues --    1.07550   1.08400   1.08692   1.10003   1.10405
 Alpha virt. eigenvalues --    1.12526   1.14364   1.15916   1.17017   1.17726
 Alpha virt. eigenvalues --    1.18701   1.19393   1.19834   1.19957   1.20181
 Alpha virt. eigenvalues --    1.21411   1.22950   1.24665   1.26027   1.26287
 Alpha virt. eigenvalues --    1.27306   1.28215   1.28384   1.29101   1.29577
 Alpha virt. eigenvalues --    1.30486   1.30876   1.33384   1.34546   1.34824
 Alpha virt. eigenvalues --    1.35324   1.35853   1.36200   1.38430   1.39303
 Alpha virt. eigenvalues --    1.39465   1.39754   1.40376   1.41680   1.42566
 Alpha virt. eigenvalues --    1.43292   1.43588   1.44469   1.44873   1.45912
 Alpha virt. eigenvalues --    1.46457   1.47431   1.47467   1.49037   1.49688
 Alpha virt. eigenvalues --    1.50912   1.53849   1.54978   1.57002   1.57890
 Alpha virt. eigenvalues --    1.59856   1.59992   1.60138   1.63089   1.63189
 Alpha virt. eigenvalues --    1.63849   1.66286   1.67021   1.68430   1.68853
 Alpha virt. eigenvalues --    1.72926   1.74083   1.76195   1.77646   1.78548
 Alpha virt. eigenvalues --    1.79667   1.81094   1.81816   1.85526   1.85909
 Alpha virt. eigenvalues --    1.87814   1.89738   1.91318   1.92735   1.94318
 Alpha virt. eigenvalues --    1.97630   1.97842   2.01275   2.03974   2.04500
 Alpha virt. eigenvalues --    2.06779   2.07105   2.08817   2.10464   2.11147
 Alpha virt. eigenvalues --    2.12833   2.15099   2.16620   2.17359   2.18376
 Alpha virt. eigenvalues --    2.18756   2.19041   2.20256   2.21565   2.24149
 Alpha virt. eigenvalues --    2.25157   2.25789   2.28671   2.30441   2.32129
 Alpha virt. eigenvalues --    2.34730   2.36988   2.37645   2.39622   2.44184
 Alpha virt. eigenvalues --    2.45723   2.47220   2.47351   2.48351   2.49954
 Alpha virt. eigenvalues --    2.50993   2.55025   2.55191   2.57107   2.57936
 Alpha virt. eigenvalues --    2.58430   2.59428   2.61339   2.62230   2.63722
 Alpha virt. eigenvalues --    2.64122   2.64312   2.67967   2.68451   2.68693
 Alpha virt. eigenvalues --    2.68984   2.71457   2.72654   2.73130   2.74100
 Alpha virt. eigenvalues --    2.74379   2.75610   2.76423   2.77921   2.78162
 Alpha virt. eigenvalues --    2.79620   2.81090   2.81440   2.82407   2.83034
 Alpha virt. eigenvalues --    2.83272   2.84658   2.85295   2.85964   2.86685
 Alpha virt. eigenvalues --    2.87544   2.88679   2.89507   2.89950   2.90924
 Alpha virt. eigenvalues --    2.92987   2.93970   2.94449   2.94970   2.96016
 Alpha virt. eigenvalues --    2.96247   2.99266   3.00412   3.01788   3.02595
 Alpha virt. eigenvalues --    3.04106   3.05007   3.06105   3.06610   3.07126
 Alpha virt. eigenvalues --    3.08912   3.09341   3.10000   3.10847   3.11503
 Alpha virt. eigenvalues --    3.12736   3.13153   3.13778   3.14739   3.15253
 Alpha virt. eigenvalues --    3.15500   3.16154   3.17801   3.19854   3.20361
 Alpha virt. eigenvalues --    3.20469   3.21232   3.21738   3.22540   3.23276
 Alpha virt. eigenvalues --    3.23352   3.24539   3.25523   3.25886   3.26257
 Alpha virt. eigenvalues --    3.26805   3.27051   3.28420   3.29559   3.30552
 Alpha virt. eigenvalues --    3.31257   3.31613   3.32618   3.32736   3.35008
 Alpha virt. eigenvalues --    3.35798   3.36170   3.36994   3.37199   3.37452
 Alpha virt. eigenvalues --    3.39102   3.40131   3.40627   3.40999   3.41949
 Alpha virt. eigenvalues --    3.42827   3.45171   3.45696   3.47005   3.47516
 Alpha virt. eigenvalues --    3.48596   3.49187   3.50123   3.50478   3.51616
 Alpha virt. eigenvalues --    3.52549   3.53307   3.53802   3.56462   3.57659
 Alpha virt. eigenvalues --    3.57931   3.58097   3.58817   3.60465   3.60824
 Alpha virt. eigenvalues --    3.61743   3.62114   3.63036   3.64410   3.66460
 Alpha virt. eigenvalues --    3.66491   3.67437   3.69857   3.70269   3.72691
 Alpha virt. eigenvalues --    3.73163   3.77735   3.78202   3.78833   3.80845
 Alpha virt. eigenvalues --    3.80921   3.82338   3.82785   3.83082   3.84662
 Alpha virt. eigenvalues --    3.85292   3.88303   3.90813   3.91409   3.92966
 Alpha virt. eigenvalues --    3.93860   3.95605   3.96337   3.99219   4.02352
 Alpha virt. eigenvalues --    4.03486   4.04309   4.06433   4.09222   4.10285
 Alpha virt. eigenvalues --    4.11946   4.12123   4.12729   4.15050   4.16082
 Alpha virt. eigenvalues --    4.17808   4.18801   4.20623   4.21578   4.22395
 Alpha virt. eigenvalues --    4.23127   4.25336   4.25630   4.27880   4.29306
 Alpha virt. eigenvalues --    4.32351   4.32875   4.34870   4.36564   4.37184
 Alpha virt. eigenvalues --    4.38493   4.44445   4.46023   4.46687   4.49038
 Alpha virt. eigenvalues --    4.50282   4.51236   4.52816   4.54454   4.55107
 Alpha virt. eigenvalues --    4.56608   4.59673   4.63017   4.64140   4.66795
 Alpha virt. eigenvalues --    4.68305   4.70769   4.73677   4.75926   4.76303
 Alpha virt. eigenvalues --    4.76820   4.79763   4.82325   4.88237   4.90499
 Alpha virt. eigenvalues --    4.91886   4.92619   4.92738   4.95836   4.96745
 Alpha virt. eigenvalues --    4.97372   5.03271   5.05990   5.10285   5.10364
 Alpha virt. eigenvalues --    5.17625   5.21130   5.22456   5.25937   5.26849
 Alpha virt. eigenvalues --    5.30568   5.36390   5.38118   5.38514   5.40224
 Alpha virt. eigenvalues --    5.40989   5.41454   5.52394   5.52885   5.57755
 Alpha virt. eigenvalues --    5.63428   5.71751   5.73589   5.81813   5.87567
 Alpha virt. eigenvalues --    7.94340   7.95124   8.02722   8.04548   8.06893
 Alpha virt. eigenvalues --    8.09965   8.11282   8.15083   8.18166   8.20586
 Alpha virt. eigenvalues --    8.34315   8.38851  34.75918  34.76386  34.81208
 Alpha virt. eigenvalues --   34.81982  34.84716  34.88569  34.98392  35.00053
 Alpha virt. eigenvalues --   35.01393  35.03229  35.18244  35.23239
  Beta  occ. eigenvalues --  -10.29770 -10.29449 -10.28461 -10.28302 -10.28261
  Beta  occ. eigenvalues --  -10.28143 -10.27975 -10.27894 -10.27863 -10.27835
  Beta  occ. eigenvalues --  -10.27678 -10.27476  -0.94769  -0.92891  -0.84931
  Beta  occ. eigenvalues --   -0.84315  -0.83467  -0.81987  -0.71045  -0.70002
  Beta  occ. eigenvalues --   -0.69381  -0.67662  -0.59833  -0.59223  -0.58138
  Beta  occ. eigenvalues --   -0.56196  -0.53239  -0.52854  -0.50638  -0.49665
  Beta  occ. eigenvalues --   -0.49014  -0.47968  -0.47721  -0.47275  -0.46353
  Beta  occ. eigenvalues --   -0.44554  -0.41314  -0.40813  -0.39701  -0.39538
  Beta  occ. eigenvalues --   -0.38746  -0.37141  -0.32466  -0.24280
  Beta virt. eigenvalues --   -0.00058   0.09480   0.11376   0.13486   0.14151
  Beta virt. eigenvalues --    0.14628   0.15534   0.16469   0.16988   0.17320
  Beta virt. eigenvalues --    0.17567   0.18130   0.19262   0.20526   0.21225
  Beta virt. eigenvalues --    0.21573   0.22300   0.23421   0.24051   0.24349
  Beta virt. eigenvalues --    0.25485   0.25941   0.27089   0.27206   0.27879
  Beta virt. eigenvalues --    0.29244   0.29350   0.30417   0.31170   0.31194
  Beta virt. eigenvalues --    0.31909   0.32459   0.32622   0.33241   0.34554
  Beta virt. eigenvalues --    0.34820   0.36113   0.36724   0.37195   0.37858
  Beta virt. eigenvalues --    0.38264   0.39304   0.41625   0.41980   0.42732
  Beta virt. eigenvalues --    0.43976   0.44571   0.45522   0.46098   0.46249
  Beta virt. eigenvalues --    0.47084   0.47485   0.49161   0.49276   0.49308
  Beta virt. eigenvalues --    0.49394   0.49801   0.49954   0.50829   0.50977
  Beta virt. eigenvalues --    0.51124   0.51774   0.52083   0.52885   0.53569
  Beta virt. eigenvalues --    0.53714   0.54899   0.54916   0.55636   0.56714
  Beta virt. eigenvalues --    0.57022   0.57285   0.58503   0.58996   0.59325
  Beta virt. eigenvalues --    0.59493   0.61199   0.61414   0.63807   0.65676
  Beta virt. eigenvalues --    0.66786   0.67996   0.68425   0.69185   0.69294
  Beta virt. eigenvalues --    0.71156   0.72001   0.73987   0.76067   0.76190
  Beta virt. eigenvalues --    0.78637   0.79313   0.79487   0.81852   0.82538
  Beta virt. eigenvalues --    0.83308   0.84633   0.86336   0.88078   0.88231
  Beta virt. eigenvalues --    0.88846   0.89722   0.93447   0.94342   0.95127
  Beta virt. eigenvalues --    0.96740   0.97272   0.98399   0.99063   1.00038
  Beta virt. eigenvalues --    1.02094   1.02259   1.04407   1.04862   1.06038
  Beta virt. eigenvalues --    1.07550   1.08400   1.08692   1.10003   1.10404
  Beta virt. eigenvalues --    1.12526   1.14364   1.15916   1.17017   1.17726
  Beta virt. eigenvalues --    1.18701   1.19393   1.19833   1.19957   1.20182
  Beta virt. eigenvalues --    1.21411   1.22950   1.24665   1.26027   1.26288
  Beta virt. eigenvalues --    1.27306   1.28215   1.28383   1.29100   1.29576
  Beta virt. eigenvalues --    1.30486   1.30876   1.33384   1.34546   1.34824
  Beta virt. eigenvalues --    1.35324   1.35854   1.36201   1.38430   1.39303
  Beta virt. eigenvalues --    1.39465   1.39754   1.40376   1.41680   1.42566
  Beta virt. eigenvalues --    1.43292   1.43588   1.44469   1.44873   1.45912
  Beta virt. eigenvalues --    1.46457   1.47431   1.47467   1.49037   1.49688
  Beta virt. eigenvalues --    1.50912   1.53849   1.54978   1.57002   1.57890
  Beta virt. eigenvalues --    1.59856   1.59992   1.60138   1.63089   1.63189
  Beta virt. eigenvalues --    1.63849   1.66286   1.67021   1.68430   1.68853
  Beta virt. eigenvalues --    1.72926   1.74083   1.76195   1.77646   1.78549
  Beta virt. eigenvalues --    1.79667   1.81094   1.81817   1.85526   1.85909
  Beta virt. eigenvalues --    1.87814   1.89738   1.91318   1.92735   1.94318
  Beta virt. eigenvalues --    1.97630   1.97842   2.01275   2.03974   2.04500
  Beta virt. eigenvalues --    2.06779   2.07105   2.08818   2.10464   2.11147
  Beta virt. eigenvalues --    2.12833   2.15099   2.16620   2.17359   2.18376
  Beta virt. eigenvalues --    2.18756   2.19041   2.20257   2.21565   2.24149
  Beta virt. eigenvalues --    2.25156   2.25789   2.28671   2.30441   2.32129
  Beta virt. eigenvalues --    2.34730   2.36988   2.37645   2.39622   2.44184
  Beta virt. eigenvalues --    2.45723   2.47220   2.47351   2.48351   2.49954
  Beta virt. eigenvalues --    2.50993   2.55025   2.55191   2.57107   2.57936
  Beta virt. eigenvalues --    2.58430   2.59428   2.61339   2.62230   2.63722
  Beta virt. eigenvalues --    2.64122   2.64312   2.67967   2.68452   2.68693
  Beta virt. eigenvalues --    2.68984   2.71457   2.72654   2.73130   2.74100
  Beta virt. eigenvalues --    2.74379   2.75610   2.76423   2.77921   2.78162
  Beta virt. eigenvalues --    2.79620   2.81089   2.81440   2.82407   2.83033
  Beta virt. eigenvalues --    2.83272   2.84658   2.85295   2.85963   2.86685
  Beta virt. eigenvalues --    2.87544   2.88679   2.89507   2.89950   2.90924
  Beta virt. eigenvalues --    2.92987   2.93970   2.94449   2.94970   2.96016
  Beta virt. eigenvalues --    2.96247   2.99266   3.00412   3.01788   3.02595
  Beta virt. eigenvalues --    3.04106   3.05007   3.06105   3.06609   3.07126
  Beta virt. eigenvalues --    3.08912   3.09341   3.10000   3.10848   3.11502
  Beta virt. eigenvalues --    3.12736   3.13154   3.13778   3.14739   3.15253
  Beta virt. eigenvalues --    3.15501   3.16154   3.17801   3.19854   3.20361
  Beta virt. eigenvalues --    3.20469   3.21232   3.21738   3.22540   3.23276
  Beta virt. eigenvalues --    3.23351   3.24539   3.25523   3.25886   3.26257
  Beta virt. eigenvalues --    3.26804   3.27051   3.28420   3.29559   3.30552
  Beta virt. eigenvalues --    3.31257   3.31613   3.32618   3.32736   3.35008
  Beta virt. eigenvalues --    3.35799   3.36170   3.36994   3.37199   3.37452
  Beta virt. eigenvalues --    3.39102   3.40131   3.40627   3.40999   3.41949
  Beta virt. eigenvalues --    3.42827   3.45171   3.45696   3.47005   3.47516
  Beta virt. eigenvalues --    3.48596   3.49187   3.50123   3.50478   3.51616
  Beta virt. eigenvalues --    3.52549   3.53307   3.53802   3.56462   3.57659
  Beta virt. eigenvalues --    3.57931   3.58097   3.58817   3.60465   3.60824
  Beta virt. eigenvalues --    3.61743   3.62114   3.63036   3.64410   3.66460
  Beta virt. eigenvalues --    3.66491   3.67437   3.69857   3.70269   3.72691
  Beta virt. eigenvalues --    3.73163   3.77735   3.78202   3.78833   3.80845
  Beta virt. eigenvalues --    3.80921   3.82338   3.82785   3.83083   3.84662
  Beta virt. eigenvalues --    3.85292   3.88303   3.90813   3.91409   3.92966
  Beta virt. eigenvalues --    3.93860   3.95605   3.96337   3.99219   4.02352
  Beta virt. eigenvalues --    4.03486   4.04309   4.06433   4.09222   4.10285
  Beta virt. eigenvalues --    4.11946   4.12123   4.12729   4.15050   4.16082
  Beta virt. eigenvalues --    4.17807   4.18801   4.20623   4.21578   4.22395
  Beta virt. eigenvalues --    4.23127   4.25336   4.25630   4.27880   4.29306
  Beta virt. eigenvalues --    4.32351   4.32875   4.34870   4.36564   4.37184
  Beta virt. eigenvalues --    4.38493   4.44445   4.46023   4.46687   4.49038
  Beta virt. eigenvalues --    4.50282   4.51236   4.52816   4.54454   4.55107
  Beta virt. eigenvalues --    4.56608   4.59673   4.63017   4.64140   4.66795
  Beta virt. eigenvalues --    4.68305   4.70769   4.73677   4.75926   4.76303
  Beta virt. eigenvalues --    4.76820   4.79763   4.82325   4.88238   4.90499
  Beta virt. eigenvalues --    4.91886   4.92619   4.92738   4.95836   4.96745
  Beta virt. eigenvalues --    4.97372   5.03271   5.05990   5.10285   5.10364
  Beta virt. eigenvalues --    5.17625   5.21130   5.22456   5.25937   5.26849
  Beta virt. eigenvalues --    5.30568   5.36390   5.38118   5.38514   5.40224
  Beta virt. eigenvalues --    5.40989   5.41453   5.52394   5.52885   5.57755
  Beta virt. eigenvalues --    5.63429   5.71750   5.73589   5.81813   5.87567
  Beta virt. eigenvalues --    7.94340   7.95124   8.02722   8.04548   8.06893
  Beta virt. eigenvalues --    8.09965   8.11282   8.15083   8.18166   8.20586
  Beta virt. eigenvalues --    8.34315   8.38851  34.75918  34.76386  34.81208
  Beta virt. eigenvalues --   34.81982  34.84716  34.88569  34.98392  35.00053
  Beta virt. eigenvalues --   35.01393  35.03229  35.18244  35.23239
          Condensed to atoms (all electrons):
               1          2          3          4          5          6
     1  C    5.236811   0.010482   0.426471  -0.003024   0.002049  -0.008233
     2  C    0.010482   5.381595  -0.001648   0.434088  -0.110635   0.243415
     3  H    0.426471  -0.001648   0.486596   0.000038  -0.000010   0.000115
     4  H   -0.003024   0.434088   0.000038   0.499228  -0.004856  -0.016152
     5  C    0.002049  -0.110635  -0.000010  -0.004856   5.312170   0.307869
     6  C   -0.008233   0.243415   0.000115  -0.016152   0.307869   5.382388
     7  H    0.000041  -0.001814   0.000002   0.000216   0.437686  -0.034193
     8  H   -0.000052  -0.016060  -0.000094   0.000458  -0.044548   0.434148
     9  C    0.002362  -0.058579  -0.000006  -0.004887  -0.044653   0.225806
    10  H   -0.000018   0.006906  -0.000001  -0.000416  -0.004400  -0.046160
    11  H   -0.000235  -0.008905   0.000004   0.001031   0.011773  -0.058105
    12  C   -0.000249   0.012087  -0.000000   0.004257   0.368091  -0.058642
    13  H   -0.000001   0.000020   0.000000   0.000017  -0.028151   0.003127
    14  C    0.000093  -0.008253  -0.000000  -0.000078  -0.049626   0.010563
    15  H   -0.000000   0.000117  -0.000000  -0.000096   0.004329  -0.001660
    16  C   -0.000357   0.017680   0.000000  -0.000894   0.001693  -0.073076
    17  H    0.000037   0.002315  -0.000000  -0.004094   0.007975  -0.010403
    18  H    0.000001  -0.000074   0.000000   0.000431  -0.003016   0.013015
    19  C   -0.049806   0.308463   0.004280  -0.044505  -0.007400  -0.110532
    20  H    0.004393  -0.033640  -0.000120  -0.005536  -0.000371  -0.001842
    21  C    0.484986  -0.058723  -0.031186   0.006343   0.001531   0.012111
    22  H   -0.025431   0.003099  -0.004935  -0.000078   0.000048   0.000022
    23  C   -0.086989   0.226152   0.004761  -0.017970   0.015934  -0.058704
    24  H    0.013530  -0.058118  -0.000041  -0.003454   0.006851  -0.008888
    25  H    0.000006  -0.045988  -0.000109  -0.004390  -0.000326   0.006898
    26  C    0.267488  -0.073175  -0.026921   0.007562  -0.011837   0.017673
    27  H   -0.034288   0.013027  -0.004276  -0.000109   0.000235  -0.000074
    28  H   -0.038241  -0.010323   0.000437  -0.000142  -0.002703   0.002233
               7          8          9         10         11         12
     1  C    0.000041  -0.000052   0.002362  -0.000018  -0.000235  -0.000249
     2  C   -0.001814  -0.016060  -0.058579   0.006906  -0.008905   0.012087
     3  H    0.000002  -0.000094  -0.000006  -0.000001   0.000004  -0.000000
     4  H    0.000216   0.000458  -0.004887  -0.000416   0.001031   0.004257
     5  C    0.437686  -0.044548  -0.044653  -0.004400   0.011773   0.368091
     6  C   -0.034193   0.434148   0.225806  -0.046160  -0.058105  -0.058642
     7  H    0.475536  -0.005546   0.003295   0.000073  -0.000012  -0.034900
     8  H   -0.005546   0.499003  -0.017929  -0.004388  -0.003459   0.006340
     9  C    0.003295  -0.017929   5.024227   0.410644   0.460756   0.029543
    10  H    0.000073  -0.004388   0.410644   0.555758  -0.017039   0.001657
    11  H   -0.000012  -0.003459   0.460756  -0.017039   0.523178  -0.005562
    12  C   -0.034900   0.006340   0.029543   0.001657  -0.005562   5.030029
    13  H   -0.003769  -0.000077   0.000586  -0.000122   0.000027   0.419260
    14  C    0.004385  -0.003025  -0.087172   0.000008   0.013535   0.484607
    15  H   -0.000122   0.000038   0.004767  -0.000109  -0.000041  -0.031529
    16  C   -0.001266   0.007555   0.325237  -0.024776  -0.056545  -0.049029
    17  H    0.000002  -0.000142  -0.027725   0.005011  -0.005063  -0.008809
    18  H    0.000041  -0.000109  -0.043210  -0.006958  -0.001904   0.005481
    19  C   -0.000373  -0.004885   0.015794  -0.000324   0.006866   0.001554
    20  H    0.000002   0.000214   0.002928   0.000317  -0.003192  -0.000053
    21  C   -0.000053   0.004268  -0.003427  -0.000170  -0.000035  -0.000087
    22  H   -0.000001   0.000018  -0.000068  -0.000003  -0.000023  -0.000000
    23  C    0.002899  -0.004907   0.007070  -0.000269   0.000265  -0.003437
    24  H   -0.003209   0.001030   0.000265  -0.000028  -0.000005  -0.000037
    25  H    0.000318  -0.000416  -0.000270   0.000016  -0.000028  -0.000166
    26  C   -0.001094  -0.000945  -0.001620   0.000048  -0.000031   0.001440
    27  H   -0.000026   0.000434   0.000018  -0.000001  -0.000003  -0.000019
    28  H    0.002046  -0.004142   0.000676   0.000008   0.000018   0.000142
              13         14         15         16         17         18
     1  C   -0.000001   0.000093  -0.000000  -0.000357   0.000037   0.000001
     2  C    0.000020  -0.008253   0.000117   0.017680   0.002315  -0.000074
     3  H    0.000000  -0.000000  -0.000000   0.000000  -0.000000   0.000000
     4  H    0.000017  -0.000078  -0.000096  -0.000894  -0.004094   0.000431
     5  C   -0.028151  -0.049626   0.004329   0.001693   0.007975  -0.003016
     6  C    0.003127   0.010563  -0.001660  -0.073076  -0.010403   0.013015
     7  H   -0.003769   0.004385  -0.000122  -0.001266   0.000002   0.000041
     8  H   -0.000077  -0.003025   0.000038   0.007555  -0.000142  -0.000109
     9  C    0.000586  -0.087172   0.004767   0.325237  -0.027725  -0.043210
    10  H   -0.000122   0.000008  -0.000109  -0.024776   0.005011  -0.006958
    11  H    0.000027   0.013535  -0.000041  -0.056545  -0.005063  -0.001904
    12  C    0.419260   0.484607  -0.031529  -0.049029  -0.008809   0.005481
    13  H    0.490103  -0.025523  -0.004945   0.003484  -0.000366  -0.000098
    14  C   -0.025523   5.237120   0.426734   0.267353  -0.038176  -0.034202
    15  H   -0.004945   0.426734   0.486705  -0.026896   0.000439  -0.004267
    16  C    0.003484   0.267353  -0.026896   4.983759   0.405281   0.427067
    17  H   -0.000366  -0.038176   0.000439   0.405281   0.573777  -0.021998
    18  H   -0.000098  -0.034202  -0.004267   0.427067  -0.021998   0.538769
    19  C    0.000048   0.002055  -0.000010  -0.011866  -0.002768   0.000237
    20  H   -0.000001   0.000044   0.000002  -0.001116   0.002004  -0.000025
    21  C   -0.000000  -0.000247  -0.000000   0.001429   0.000131  -0.000019
    22  H    0.000000  -0.000001   0.000000   0.000005  -0.000003  -0.000001
    23  C   -0.000069   0.002354  -0.000006  -0.001604   0.000680   0.000018
    24  H   -0.000023  -0.000234   0.000004  -0.000033   0.000018  -0.000003
    25  H   -0.000003  -0.000019  -0.000001   0.000049   0.000008  -0.000001
    26  C    0.000005  -0.000357   0.000000   0.000380  -0.000049  -0.000000
    27  H   -0.000001   0.000001   0.000000  -0.000000   0.000001  -0.000000
    28  H   -0.000003   0.000036  -0.000000  -0.000047  -0.000007   0.000001
              19         20         21         22         23         24
     1  C   -0.049806   0.004393   0.484986  -0.025431  -0.086989   0.013530
     2  C    0.308463  -0.033640  -0.058723   0.003099   0.226152  -0.058118
     3  H    0.004280  -0.000120  -0.031186  -0.004935   0.004761  -0.000041
     4  H   -0.044505  -0.005536   0.006343  -0.000078  -0.017970  -0.003454
     5  C   -0.007400  -0.000371   0.001531   0.000048   0.015934   0.006851
     6  C   -0.110532  -0.001842   0.012111   0.000022  -0.058704  -0.008888
     7  H   -0.000373   0.000002  -0.000053  -0.000001   0.002899  -0.003209
     8  H   -0.004885   0.000214   0.004268   0.000018  -0.004907   0.001030
     9  C    0.015794   0.002928  -0.003427  -0.000068   0.007070   0.000265
    10  H   -0.000324   0.000317  -0.000170  -0.000003  -0.000269  -0.000028
    11  H    0.006866  -0.003192  -0.000035  -0.000023   0.000265  -0.000005
    12  C    0.001554  -0.000053  -0.000087  -0.000000  -0.003437  -0.000037
    13  H    0.000048  -0.000001  -0.000000   0.000000  -0.000069  -0.000023
    14  C    0.002055   0.000044  -0.000247  -0.000001   0.002354  -0.000234
    15  H   -0.000010   0.000002  -0.000000   0.000000  -0.000006   0.000004
    16  C   -0.011866  -0.001116   0.001429   0.000005  -0.001604  -0.000033
    17  H   -0.002768   0.002004   0.000131  -0.000003   0.000680   0.000018
    18  H    0.000237  -0.000025  -0.000019  -0.000001   0.000018  -0.000003
    19  C    5.312072   0.437711   0.367968  -0.028181  -0.044805   0.011789
    20  H    0.437711   0.474883  -0.035332  -0.003756   0.003289  -0.000012
    21  C    0.367968  -0.035332   5.030188   0.419236   0.029411  -0.005565
    22  H   -0.028181  -0.003756   0.419236   0.490065   0.000589   0.000026
    23  C   -0.044805   0.003289   0.029411   0.000589   5.024155   0.460802
    24  H    0.011789  -0.000012  -0.005565   0.000026   0.460802   0.523120
    25  H   -0.004456   0.000074   0.001688  -0.000121   0.410450  -0.017075
    26  C    0.001936  -0.001278  -0.049232   0.003487   0.325071  -0.056547
    27  H   -0.003028   0.000041   0.005541  -0.000098  -0.043165  -0.001907
    28  H    0.007930   0.000002  -0.008716  -0.000365  -0.027963  -0.005075
              25         26         27         28
     1  C    0.000006   0.267488  -0.034288  -0.038241
     2  C   -0.045988  -0.073175   0.013027  -0.010323
     3  H   -0.000109  -0.026921  -0.004276   0.000437
     4  H   -0.004390   0.007562  -0.000109  -0.000142
     5  C   -0.000326  -0.011837   0.000235  -0.002703
     6  C    0.006898   0.017673  -0.000074   0.002233
     7  H    0.000318  -0.001094  -0.000026   0.002046
     8  H   -0.000416  -0.000945   0.000434  -0.004142
     9  C   -0.000270  -0.001620   0.000018   0.000676
    10  H    0.000016   0.000048  -0.000001   0.000008
    11  H   -0.000028  -0.000031  -0.000003   0.000018
    12  C   -0.000166   0.001440  -0.000019   0.000142
    13  H   -0.000003   0.000005  -0.000001  -0.000003
    14  C   -0.000019  -0.000357   0.000001   0.000036
    15  H   -0.000001   0.000000   0.000000  -0.000000
    16  C    0.000049   0.000380  -0.000000  -0.000047
    17  H    0.000008  -0.000049   0.000001  -0.000007
    18  H   -0.000001  -0.000000  -0.000000   0.000001
    19  C   -0.004456   0.001936  -0.003028   0.007930
    20  H    0.000074  -0.001278   0.000041   0.000002
    21  C    0.001688  -0.049232   0.005541  -0.008716
    22  H   -0.000121   0.003487  -0.000098  -0.000365
    23  C    0.410450   0.325071  -0.043165  -0.027963
    24  H   -0.017075  -0.056547  -0.001907  -0.005075
    25  H    0.555816  -0.024733  -0.006946   0.005019
    26  C   -0.024733   4.983796   0.427094   0.405312
    27  H   -0.006946   0.427094   0.538641  -0.022029
    28  H    0.005019   0.405312  -0.022029   0.574253
          Atomic-Atomic Spin Densities.
               1          2          3          4          5          6
     1  C    0.540670   0.002406  -0.000525   0.000185   0.000015   0.005284
     2  C    0.002406  -0.286859   0.000072   0.004956   0.081811  -0.000066
     3  H   -0.000525   0.000072  -0.019377   0.000000  -0.000003  -0.000045
     4  H    0.000185   0.004956   0.000000   0.016032  -0.005180  -0.012391
     5  C    0.000015   0.081811  -0.000003  -0.005180  -0.726193   0.041931
     6  C    0.005284  -0.000066  -0.000045  -0.012391   0.041931   0.286834
     7  H   -0.000005  -0.000601  -0.000000   0.000002   0.002473  -0.000294
     8  H   -0.001902   0.012382  -0.000001  -0.000001  -0.002128  -0.004930
     9  C   -0.000121   0.015153   0.000001   0.001637  -0.002727  -0.017459
    10  H    0.000061  -0.000765   0.000000  -0.000068   0.001346  -0.002580
    11  H   -0.000260  -0.000902   0.000001   0.000190  -0.000143  -0.003121
    12  C   -0.000076  -0.012435   0.000000   0.002711   0.021129  -0.020455
    13  H   -0.000000  -0.000182   0.000000   0.000039   0.001288  -0.000454
    14  C    0.000000  -0.005261   0.000000   0.001908   0.045623  -0.002384
    15  H   -0.000000   0.000045   0.000000   0.000000   0.000067  -0.000072
    16  C   -0.000019   0.000803  -0.000000  -0.001037  -0.003110   0.001955
    17  H    0.000013   0.003744  -0.000000  -0.001116  -0.005210   0.004423
    18  H   -0.000000  -0.000332  -0.000000   0.000065   0.000627  -0.001086
    19  C   -0.045650  -0.041863  -0.000066   0.002132   0.000028  -0.081817
    20  H   -0.000259   0.000260   0.000004   0.000266   0.000089   0.000597
    21  C    0.005952   0.020390   0.000016  -0.001638  -0.001419   0.012423
    22  H   -0.000564   0.000453   0.000167  -0.000026  -0.000013   0.000181
    23  C    0.002980   0.017584  -0.000222   0.004019  -0.005793  -0.015076
    24  H    0.000116   0.003117   0.000002  -0.000378  -0.004123   0.000903
    25  H   -0.000854   0.002575   0.000003   0.000016   0.001191   0.000764
    26  C   -0.025429  -0.001990   0.000705  -0.000001  -0.000217  -0.000828
    27  H   -0.006490   0.001080   0.000083  -0.000049   0.000010   0.000333
    28  H   -0.015386  -0.004409   0.000065   0.000219   0.000153  -0.003764
               7          8          9         10         11         12
     1  C   -0.000005  -0.001902  -0.000121   0.000061  -0.000260  -0.000076
     2  C   -0.000601   0.012382   0.015153  -0.000765  -0.000902  -0.012435
     3  H   -0.000000  -0.000001   0.000001   0.000000   0.000001   0.000000
     4  H    0.000002  -0.000001   0.001637  -0.000068   0.000190   0.002711
     5  C    0.002473  -0.002128  -0.002727   0.001346  -0.000143   0.021129
     6  C   -0.000294  -0.004930  -0.017459  -0.002580  -0.003121  -0.020455
     7  H    0.023302  -0.000264   0.000316   0.000015  -0.000006  -0.001941
     8  H   -0.000264  -0.016029  -0.004034  -0.000014   0.000377   0.001638
     9  C    0.000316  -0.004034  -0.009648   0.003133   0.001175   0.005497
    10  H    0.000015  -0.000014   0.003133   0.007145  -0.001663  -0.000749
    11  H   -0.000006   0.000377   0.001175  -0.001663   0.002839   0.000135
    12  C   -0.001941   0.001638   0.005497  -0.000749   0.000135   0.222098
    13  H   -0.000227   0.000026   0.000144  -0.000023   0.000002  -0.001425
    14  C    0.000259  -0.000187  -0.003010   0.000859  -0.000117  -0.005958
    15  H   -0.000004  -0.000000   0.000222  -0.000002  -0.000002  -0.000029
    16  C   -0.000067   0.000004  -0.005090  -0.000973   0.000109  -0.004671
    17  H    0.000017  -0.000218   0.000509   0.000063  -0.000003   0.001669
    18  H   -0.000001   0.000049  -0.001645   0.000203  -0.000076  -0.001012
    19  C   -0.000086   0.005158   0.005736  -0.001191   0.004132   0.001427
    20  H   -0.000000  -0.000001  -0.000237  -0.000007   0.000156  -0.000031
    21  C    0.000031  -0.002702  -0.000695   0.000138  -0.000420  -0.000001
    22  H    0.000000  -0.000039  -0.000008   0.000001  -0.000017   0.000000
    23  C    0.000237  -0.001647  -0.000008  -0.000009   0.000200   0.000701
    24  H   -0.000157  -0.000190  -0.000200   0.000005  -0.000000   0.000419
    25  H    0.000007   0.000068   0.000009  -0.000000  -0.000005  -0.000138
    26  C   -0.000107   0.001042   0.000070  -0.000017   0.000027   0.000166
    27  H   -0.000003  -0.000065  -0.000010   0.000000  -0.000002  -0.000011
    28  H    0.000052   0.001110   0.000198  -0.000022   0.000040   0.000132
              13         14         15         16         17         18
     1  C   -0.000000   0.000000  -0.000000  -0.000019   0.000013  -0.000000
     2  C   -0.000182  -0.005261   0.000045   0.000803   0.003744  -0.000332
     3  H    0.000000   0.000000   0.000000  -0.000000  -0.000000  -0.000000
     4  H    0.000039   0.001908   0.000000  -0.001037  -0.001116   0.000065
     5  C    0.001288   0.045623   0.000067  -0.003110  -0.005210   0.000627
     6  C   -0.000454  -0.002384  -0.000072   0.001955   0.004423  -0.001086
     7  H   -0.000227   0.000259  -0.000004  -0.000067   0.000017  -0.000001
     8  H    0.000026  -0.000187  -0.000000   0.000004  -0.000218   0.000049
     9  C    0.000144  -0.003010   0.000222  -0.005090   0.000509  -0.001645
    10  H   -0.000023   0.000859  -0.000002  -0.000973   0.000063   0.000203
    11  H    0.000002  -0.000117  -0.000002   0.000109  -0.000003  -0.000076
    12  C   -0.001425  -0.005958  -0.000029  -0.004671   0.001669  -0.001012
    13  H   -0.007693   0.000564  -0.000168  -0.000102   0.000039  -0.000017
    14  C    0.000564  -0.540654   0.000536   0.025441   0.015368   0.006487
    15  H   -0.000168   0.000536   0.019381  -0.000703  -0.000065  -0.000083
    16  C   -0.000102   0.025441  -0.000703   0.029779  -0.008283  -0.004169
    17  H    0.000039   0.015368  -0.000065  -0.008283  -0.042535   0.006797
    18  H   -0.000017   0.006487  -0.000083  -0.004169   0.006797  -0.016999
    19  C    0.000013  -0.000030   0.000003   0.000238  -0.000147  -0.000011
    20  H   -0.000000   0.000004   0.000000   0.000109  -0.000047   0.000003
    21  C   -0.000000   0.000075  -0.000000  -0.000165  -0.000130   0.000011
    22  H    0.000000   0.000000  -0.000000  -0.000002  -0.000002   0.000000
    23  C    0.000008   0.000123  -0.000001  -0.000068  -0.000199   0.000010
    24  H    0.000017   0.000259  -0.000001  -0.000027  -0.000039   0.000002
    25  H   -0.000001  -0.000061  -0.000000   0.000017   0.000022  -0.000000
    26  C    0.000002   0.000018   0.000000   0.000000  -0.000009   0.000000
    27  H   -0.000000   0.000000   0.000000  -0.000000   0.000000   0.000000
    28  H    0.000002  -0.000013   0.000000   0.000009  -0.000000  -0.000000
              19         20         21         22         23         24
     1  C   -0.045650  -0.000259   0.005952  -0.000564   0.002980   0.000116
     2  C   -0.041863   0.000260   0.020390   0.000453   0.017584   0.003117
     3  H   -0.000066   0.000004   0.000016   0.000167  -0.000222   0.000002
     4  H    0.002132   0.000266  -0.001638  -0.000026   0.004019  -0.000378
     5  C    0.000028   0.000089  -0.001419  -0.000013  -0.005793  -0.004123
     6  C   -0.081817   0.000597   0.012423   0.000181  -0.015076   0.000903
     7  H   -0.000086  -0.000000   0.000031   0.000000   0.000237  -0.000157
     8  H    0.005158  -0.000001  -0.002702  -0.000039  -0.001647  -0.000190
     9  C    0.005736  -0.000237  -0.000695  -0.000008  -0.000008  -0.000200
    10  H   -0.001191  -0.000007   0.000138   0.000001  -0.000009   0.000005
    11  H    0.004132   0.000156  -0.000420  -0.000017   0.000200  -0.000000
    12  C    0.001427  -0.000031  -0.000001   0.000000   0.000701   0.000419
    13  H    0.000013  -0.000000  -0.000000   0.000000   0.000008   0.000017
    14  C   -0.000030   0.000004   0.000075   0.000000   0.000123   0.000259
    15  H    0.000003   0.000000  -0.000000  -0.000000  -0.000001  -0.000001
    16  C    0.000238   0.000109  -0.000165  -0.000002  -0.000068  -0.000027
    17  H   -0.000147  -0.000047  -0.000130  -0.000002  -0.000199  -0.000039
    18  H   -0.000011   0.000003   0.000011   0.000000   0.000010   0.000002
    19  C    0.726143  -0.002485  -0.021082  -0.001289   0.002672   0.000144
    20  H   -0.002485  -0.023271   0.001965   0.000227  -0.000314   0.000006
    21  C   -0.021082   0.001965  -0.222127   0.001425  -0.005454  -0.000134
    22  H   -0.001289   0.000227   0.001425   0.007693  -0.000144  -0.000002
    23  C    0.002672  -0.000314  -0.005454  -0.000144   0.009570  -0.001181
    24  H    0.000144   0.000006  -0.000134  -0.000002  -0.001181  -0.002837
    25  H   -0.001350  -0.000015   0.000745   0.000023  -0.003115   0.001662
    26  C    0.003115   0.000069   0.004676   0.000102   0.005102  -0.000105
    27  H   -0.000625   0.000001   0.001007   0.000017   0.001665   0.000076
    28  H    0.005218  -0.000017  -0.001663  -0.000039  -0.000549   0.000002
              25         26         27         28
     1  C   -0.000854  -0.025429  -0.006490  -0.015386
     2  C    0.002575  -0.001990   0.001080  -0.004409
     3  H    0.000003   0.000705   0.000083   0.000065
     4  H    0.000016  -0.000001  -0.000049   0.000219
     5  C    0.001191  -0.000217   0.000010   0.000153
[...]
     2  C    0.002257  -0.002179   0.001464  -0.005681
     3  H    0.000004   0.000573   0.000064   0.000084
     4  H   -0.000057  -0.000049  -0.000045   0.000200
     5  C    0.001097   0.000586   0.000016  -0.000130
     6  C    0.000543  -0.000046   0.000227  -0.002646
     7  H    0.000001  -0.000149  -0.000004   0.000074
     8  H    0.000059   0.000930  -0.000047   0.000785
     9  C    0.000019   0.000084  -0.000012   0.000221
    10  H    0.000000  -0.000010   0.000000  -0.000019
    11  H   -0.000004   0.000009  -0.000001   0.000029
    12  C   -0.000129   0.000077  -0.000007   0.000099
    13  H   -0.000001   0.000001  -0.000000   0.000001
    14  C   -0.000049   0.000006   0.000000  -0.000009
    15  H   -0.000000   0.000000   0.000000   0.000000
    16  C    0.000010   0.000001   0.000000   0.000002
    17  H    0.000019  -0.000001   0.000000  -0.000000
    18  H   -0.000000  -0.000000   0.000000  -0.000000
    19  C   -0.001225   0.001012  -0.000782   0.005679
    20  H   -0.000003   0.000107   0.000002  -0.000024
    21  C    0.000647   0.005263   0.001047  -0.001953
    22  H    0.000017   0.000138   0.000017  -0.000040
    23  C   -0.002110   0.006191   0.000901   0.000980
    24  H    0.001357   0.000181   0.000082  -0.000071
    25  H   -0.006855   0.000362  -0.000165  -0.000034
    26  C    0.000362  -0.031008   0.004738   0.006297
    27  H   -0.000165   0.004738   0.016582  -0.006501
    28  H   -0.000034   0.006297  -0.006501   0.042112
 Mulliken charges and spin densities:
               1          2
     1  C   -0.199336   0.457798
     2  C   -0.186429  -0.187413
     3  H    0.149907  -0.018778
     4  H    0.168141   0.012607
     5  C   -0.179973  -0.556366
     6  C   -0.187633   0.187448
     7  H    0.165737   0.022518
     8  H    0.167887  -0.012579
     9  C   -0.244915  -0.010629
    10  H    0.133797   0.004859
    11  H    0.148867   0.002274
    12  C   -0.168542   0.207246
    13  H    0.149209  -0.008025
    14  C   -0.200110  -0.457768
    15  H    0.149916   0.018775
    16  C   -0.196684   0.029198
    17  H    0.126734  -0.025428
    18  H    0.135342  -0.011172
    19  C   -0.179690   0.556366
    20  H    0.164970  -0.022535
    21  C   -0.169159  -0.207262
    22  H    0.149153   0.008024
    23  C   -0.244121   0.010519
    24  H    0.150175  -0.002228
    25  H    0.132735  -0.004857
    26  C   -0.198144  -0.029202
    27  H    0.135510   0.011173
    28  H    0.126657   0.025439
 Sum of Mulliken charges =  -0.00000  -0.00000
 Mulliken charges and spin densities with hydrogens summed into heavy atoms:
               1          2
     1  C   -0.049429   0.439020
     2  C   -0.018288  -0.174806
     5  C   -0.014236  -0.533848
     6  C   -0.019746   0.174868
     9  C    0.037749  -0.003496
    12  C   -0.019333   0.199220
    14  C   -0.050194  -0.438993
    16  C    0.065391  -0.007403
    19  C   -0.014720   0.533831
    21  C   -0.020005  -0.199238
    23  C    0.038788   0.003434
    26  C    0.064022   0.007411
 Electronic spatial extent (au):  <R**2>=           2186.4385
 Charge=             -0.0000 electrons
 Dipole moment (field-independent basis, Debye):
    X=             -0.0003    Y=              0.0034    Z=             -0.0064  Tot=              0.0072
 Quadrupole moment (field-independent basis, Debye-Ang):
   XX=            -70.2527   YY=            -69.2383   ZZ=            -74.9808
   XY=             -2.8939   XZ=             -3.1283   YZ=             -0.5735
 Traceless Quadrupole moment (field-independent basis, Debye-Ang):
   XX=              1.2379   YY=              2.2523   ZZ=             -3.4902
   XY=             -2.8939   XZ=             -3.1283   YZ=             -0.5735
 Octapole moment (field-independent basis, Debye-Ang**2):
  XXX=             -0.0097  YYY=              0.0348  ZZZ=             -0.0358  XYY=              0.0103
  XXY=             -0.0053  XXZ=             -0.0167  XZZ=             -0.0092  YZZ=              0.0020
  YYZ=             -0.0047  XYZ=             -0.0076
 Hexadecapole moment (field-independent basis, Debye-Ang**3):
 XXXX=          -1966.1115 YYYY=           -616.7605 ZZZZ=           -300.6085 XXXY=            -91.8335
 XXXZ=           -116.3815 YYYX=            -57.2851 YYYZ=              0.5177 ZZZX=            -63.3934
 ZZZY=             -7.5557 XXYY=           -428.9911 XXZZ=           -406.7884 YYZZ=           -167.8683
 XXYZ=            -20.5011 YYXZ=            -24.7960 ZZXY=            -40.7485
 N-N= 6.918993352753D+02 E-N=-2.466176970143D+03  KE= 4.641470521018D+02
                          Isotropic Fermi Contact Couplings
        Atom                 a.u.       MegaHertz       Gauss      10(-4) cm-1
     1  C(13)              0.03523      19.80491       7.06688       6.60621
     2  C(13)             -0.07985     -44.88290     -16.01533     -14.97132
     3  H(1)              -0.00704     -15.72401      -5.61072      -5.24497
     4  H(1)               0.00677      15.12881       5.39834       5.04643
     5  C(13)             -0.04359     -24.50223      -8.74301      -8.17306
     6  C(13)              0.07989      44.90303      16.02252      14.97804
     7  H(1)               0.00856      19.13886       6.82922       6.38404
     8  H(1)              -0.00677     -15.12127      -5.39565      -5.04391
     9  C(13)             -0.00835      -4.69594      -1.67563      -1.56640
    10  H(1)               0.00279       6.23668       2.22540       2.08033
    11  H(1)               0.00071       1.59633       0.56961       0.53248
    12  C(13)              0.03795      21.32939       7.61086       7.11472
    13  H(1)              -0.00274      -6.11748      -2.18287      -2.04057
    14  C(13)             -0.03523     -19.80519      -7.06698      -6.60630
    15  H(1)               0.00704      15.72415       5.61077       5.24501
    16  C(13)              0.01571       8.82788       3.15001       2.94466
    17  H(1)              -0.01232     -27.53170      -9.82400      -9.18359
    18  H(1)              -0.00532     -11.88724      -4.24166      -3.96516
    19  C(13)              0.04360      24.50576       8.74427       8.17424
    20  H(1)              -0.00856     -19.13499      -6.82784      -6.38275
    21  C(13)             -0.03794     -21.32855      -7.61056      -7.11444
    22  H(1)               0.00274       6.11727       2.18279       2.04050
    23  C(13)              0.00835       4.69562       1.67551       1.56629
    24  H(1)              -0.00072      -1.59918      -0.57063      -0.53343
    25  H(1)              -0.00279      -6.23782      -2.22581      -2.08071
    26  C(13)             -0.01570      -8.82712      -3.14974      -2.94441
    27  H(1)               0.00532      11.89077       4.24292       3.96633
    28  H(1)               0.01232      27.52985       9.82333       9.18297
 --------------------------------------------------------
       Center         ----  Spin Dipole Couplings  ----
                      3XX-RR        3YY-RR        3ZZ-RR
 --------------------------------------------------------
     1   Atom       -0.098264     -0.273259      0.371523
     2   Atom        0.037698      0.107290     -0.144989
     3   Atom        0.026654     -0.034581      0.007927
     4   Atom       -0.004191      0.012946     -0.008756
     5   Atom        0.200837      0.335665     -0.536502
     6   Atom       -0.037680     -0.107285      0.144965
     7   Atom        0.013597     -0.013001     -0.000596
     8   Atom        0.004191     -0.012948      0.008758
     9   Atom       -0.000066     -0.005895      0.005961
    10   Atom        0.003648     -0.002798     -0.000851
    11   Atom        0.004490     -0.004805      0.000315
    12   Atom       -0.063224     -0.096491      0.159715
    13   Atom       -0.007390      0.003481      0.003909
    14   Atom        0.098275      0.273260     -0.371535
    15   Atom       -0.026654      0.034581     -0.007927
    16   Atom        0.004002     -0.002695     -0.001307
    17   Atom        0.006233     -0.007153      0.000920
    18   Atom        0.005181     -0.008323      0.003142
    19   Atom       -0.200925     -0.335664      0.536589
    20   Atom       -0.013589      0.012998      0.000591
    21   Atom        0.063218      0.096482     -0.159701
    22   Atom        0.007389     -0.003480     -0.003909
    23   Atom        0.000066      0.005895     -0.005961
    24   Atom       -0.004488      0.004805     -0.000317
    25   Atom       -0.003649      0.002798      0.000851
    26   Atom       -0.004001      0.002696      0.001305
    27   Atom       -0.005181      0.008323     -0.003142
    28   Atom       -0.006232      0.007153     -0.000921
 --------------------------------------------------------
                        XY            XZ            YZ
 --------------------------------------------------------
     1   Atom       -0.003811      0.323760     -0.011359
     2   Atom       -0.023990     -0.135802     -0.060135
     3   Atom        0.006481     -0.013898     -0.004007
     4   Atom        0.002961      0.003102     -0.007833
     5   Atom        0.013905     -0.335310      0.000576
     6   Atom        0.023991      0.135806      0.060141
     7   Atom        0.039352     -0.006452     -0.012909
     8   Atom       -0.002963     -0.003105      0.007832
     9   Atom        0.010019      0.009280     -0.003442
    10   Atom       -0.000098      0.003608      0.003984
    11   Atom       -0.004076      0.006910      0.000383
    12   Atom        0.009377      0.121326     -0.017411
    13   Atom        0.007036      0.006986     -0.002993
    14   Atom        0.003790     -0.323752      0.011320
    15   Atom       -0.006482      0.013898      0.004006
    16   Atom       -0.001813     -0.007268      0.000590
    17   Atom       -0.003292     -0.001790     -0.003767
    18   Atom        0.001722      0.000425      0.002137
    19   Atom       -0.013865      0.335208     -0.000464
    20   Atom       -0.039362      0.006461      0.012887
    21   Atom       -0.009376     -0.121322      0.017416
    22   Atom       -0.007036     -0.006986      0.002993
    23   Atom       -0.010003     -0.009275      0.003428
    24   Atom        0.004080     -0.006909     -0.000381
    25   Atom        0.000099     -0.003609     -0.003983
    26   Atom        0.001814      0.007266     -0.000589
    27   Atom       -0.001723     -0.000425     -0.002137
    28   Atom        0.003293      0.001789      0.003766
 --------------------------------------------------------


 ---------------------------------------------------------------------------------
              Anisotropic Spin Dipole Couplings in Principal Axis System
 ---------------------------------------------------------------------------------

       Atom             a.u.   MegaHertz   Gauss  10(-4) cm-1        Axes

              Baa    -0.2737   -36.732   -13.107   -12.253 -0.1430  0.9857  0.0891
     1 C(13)  Bbb    -0.2631   -35.301   -12.596   -11.775  0.8793  0.1678 -0.4456
              Bcc     0.5368    72.033    25.703    24.028  0.4542 -0.0146  0.8908
 
              Baa    -0.2296   -30.811   -10.994   -10.277  0.4582  0.1877  0.8688
     2 C(13)  Bbb     0.1064    14.272     5.093     4.761  0.8237 -0.4570 -0.3357
              Bcc     0.1233    16.539     5.902     5.517  0.3340  0.8694 -0.3640
 
              Baa    -0.0354   -18.899    -6.743    -6.304 -0.0896  0.9940  0.0632
     3 H(1)   Bbb     0.0005     0.288     0.103     0.096  0.4723 -0.0134  0.8813
              Bcc     0.0349    18.611     6.641     6.208  0.8768  0.1088 -0.4683
 
              Baa    -0.0130    -6.938    -2.476    -2.314 -0.4060  0.3062  0.8611
     4 H(1)   Bbb    -0.0027    -1.416    -0.505    -0.472  0.9088  0.0362  0.4156
              Bcc     0.0157     8.354     2.981     2.787  0.0961  0.9513 -0.2930
 
              Baa    -0.6662   -89.399   -31.900   -29.820  0.3608 -0.0055  0.9326
     5 C(13)  Bbb     0.3201    42.952    15.326    14.327  0.7208 -0.6329 -0.2826
              Bcc     0.3461    46.447    16.573    15.493  0.5918  0.7742 -0.2243
 
              Baa    -0.1233   -16.539    -5.902    -5.517  0.3341  0.8694 -0.3641
     6 C(13)  Bbb    -0.1063   -14.271    -5.092    -4.760  0.8236 -0.4571 -0.3357
              Bcc     0.2296    30.810    10.994    10.277  0.4583  0.1877  0.8688
 
              Baa    -0.0424   -22.610    -8.068    -7.542 -0.5542  0.8156  0.1664
     7 H(1)   Bbb    -0.0030    -1.624    -0.579    -0.542  0.3166  0.0216  0.9483
              Bcc     0.0454    24.234     8.647     8.084  0.7698  0.5782 -0.2702
 
              Baa    -0.0157    -8.355    -2.981    -2.787  0.0962  0.9513 -0.2929
     8 H(1)   Bbb     0.0027     1.415     0.505     0.472  0.9088  0.0361  0.4157
              Bcc     0.0130     6.940     2.476     2.315 -0.4061  0.3062  0.8610
 
              Baa    -0.0166    -2.234    -0.797    -0.745 -0.6219  0.6949  0.3610
     9 C(13)  Bbb     0.0033     0.438     0.156     0.146  0.4258  0.6870 -0.5888
              Bcc     0.0134     1.796     0.641     0.599  0.6572  0.2125  0.7231
 
              Baa    -0.0065    -3.468    -1.237    -1.157  0.2407  0.7140 -0.6574
    10 H(1)   Bbb     0.0004     0.210     0.075     0.070 -0.5499  0.6585  0.5139
              Bcc     0.0061     3.257     1.162     1.087  0.7998  0.2378  0.5511
 
              Baa    -0.0078    -4.175    -1.490    -1.393  0.5006  0.7337 -0.4594
    11 H(1)   Bbb    -0.0024    -1.297    -0.463    -0.433 -0.3121  0.6480  0.6948
              Bcc     0.0103     5.473     1.953     1.826  0.8075 -0.2044  0.5534
 
              Baa    -0.1251   -16.791    -5.991    -5.601  0.7942 -0.4837 -0.3678
    12 C(13)  Bbb    -0.0884   -11.856    -4.231    -3.955  0.4573  0.8744 -0.1623
              Bcc     0.2135    28.647    10.222     9.556  0.4001 -0.0393  0.9156
 
              Baa    -0.0141    -7.499    -2.676    -2.501  0.8299 -0.3995 -0.3894
    13 H(1)   Bbb     0.0067     3.550     1.267     1.184  0.1267  0.8147 -0.5658
              Bcc     0.0074     3.948     1.409     1.317  0.5433  0.4202  0.7268
 
              Baa    -0.5368   -72.033   -25.703   -24.028  0.4542 -0.0146  0.8908
    14 C(13)  Bbb     0.2631    35.301    12.596    11.775  0.8793  0.1679 -0.4456
              Bcc     0.2737    36.732    13.107    12.253 -0.1430  0.9857  0.0891
 
              Baa    -0.0349   -18.611    -6.641    -6.208  0.8769  0.1088 -0.4683
    15 H(1)   Bbb    -0.0005    -0.288    -0.103    -0.096  0.4723 -0.0133  0.8813
              Bcc     0.0354    18.899     6.743     6.304 -0.0897  0.9940  0.0631
 
              Baa    -0.0065    -0.869    -0.310    -0.290  0.5810  0.1540  0.7992
    16 C(13)  Bbb    -0.0029    -0.387    -0.138    -0.129  0.0332  0.9767 -0.2123
              Bcc     0.0094     1.256     0.448     0.419  0.8133 -0.1498 -0.5623
 
              Baa    -0.0095    -5.078    -1.812    -1.694  0.2301  0.9021  0.3651
    17 H(1)   Bbb     0.0024     1.261     0.450     0.421  0.0890 -0.3931  0.9152
              Bcc     0.0072     3.816     1.362     1.273  0.9691 -0.1780 -0.1707
 
              Baa    -0.0089    -4.746    -1.693    -1.583 -0.1146  0.9788 -0.1697
    18 H(1)   Bbb     0.0033     1.750     0.624     0.584 -0.3229  0.1249  0.9382
              Bcc     0.0056     2.996     1.069     0.999  0.9395  0.1623  0.3017
 
              Baa    -0.3461   -46.447   -16.573   -15.493  0.5918  0.7742 -0.2243
    19 C(13)  Bbb    -0.3201   -42.951   -15.326   -14.327  0.7209 -0.6329 -0.2824
              Bcc     0.6662    89.398    31.900    29.820  0.3606 -0.0054  0.9327
 
              Baa    -0.0454   -24.235    -8.648    -8.084  0.7698  0.5783 -0.2701
    20 H(1)   Bbb     0.0030     1.624     0.580     0.542  0.3161  0.0221  0.9485
              Bcc     0.0424    22.611     8.068     7.542 -0.5544  0.8155  0.1658
 
              Baa    -0.2135   -28.646   -10.221    -9.555  0.4001 -0.0393  0.9156
    21 C(13)  Bbb     0.0883    11.855     4.230     3.954  0.4573  0.8744 -0.1623
              Bcc     0.1251    16.790     5.991     5.601  0.7942 -0.4837 -0.3679
 
              Baa    -0.0074    -3.948    -1.409    -1.317  0.5432  0.4197  0.7272
    22 H(1)   Bbb    -0.0067    -3.550    -1.267    -1.184  0.1271  0.8150 -0.5654
              Bcc     0.0141     7.498     2.676     2.501  0.8299 -0.3995 -0.3893
 
              Baa    -0.0134    -1.795    -0.641    -0.599  0.6570  0.2123  0.7234
    23 C(13)  Bbb    -0.0032    -0.436    -0.156    -0.145  0.4261  0.6870 -0.5886
              Bcc     0.0166     2.231     0.796     0.744 -0.6219  0.6950  0.3609
 
              Baa    -0.0103    -5.473    -1.953    -1.826  0.8074 -0.2047  0.5533
    24 H(1)   Bbb     0.0024     1.297     0.463     0.433 -0.3121  0.6477  0.6950
              Bcc     0.0078     4.176     1.490     1.393  0.5007  0.7339 -0.4591
 
              Baa    -0.0061    -3.257    -1.162    -1.087  0.8000  0.2376  0.5510
    25 H(1)   Bbb    -0.0004    -0.210    -0.075    -0.070 -0.5496  0.6586  0.5140
              Bcc     0.0065     3.467     1.237     1.157  0.2408  0.7140 -0.6574
 
              Baa    -0.0094    -1.256    -0.448    -0.419  0.8132 -0.1498 -0.5623
    26 C(13)  Bbb     0.0029     0.387     0.138     0.129  0.0329  0.9766 -0.2126
              Bcc     0.0065     0.869     0.310     0.290  0.5810  0.1544  0.7991
 
              Baa    -0.0056    -2.996    -1.069    -0.999  0.9395  0.1624  0.3017
    27 H(1)   Bbb    -0.0033    -1.750    -0.625    -0.584 -0.3229  0.1248  0.9382
              Bcc     0.0089     4.746     1.693     1.583 -0.1147  0.9788 -0.1697
 
              Baa    -0.0072    -3.816    -1.362    -1.273  0.9691 -0.1782 -0.1706
    28 H(1)   Bbb    -0.0024    -1.261    -0.450    -0.421  0.0888 -0.3929  0.9153
              Bcc     0.0095     5.078     1.812     1.694  0.2301  0.9021  0.3650
 

 ---------------------------------------------------------------------------------

 No NMR shielding tensors so no spin-rotation constants.
 Leave Link  601 at Tue Aug  4 16:22:48 2020, MaxMem=  6442450944 cpu:               8.6 elap:               0.6
 (Enter /scratch/scicomp/CentOS/7.3.1611/Haswell/software/Gaussian/g16/l9999.exe)
 1\1\GINC-ATLAS-205\SP\UwB97XD\def2TZVP\C12H16\BOCHEN\04-Aug-2020\0\\#p
  uwb97xd guess=mix def2tzvp # scrf=(iefpcm,solvent=Cyclohexane,read) n
 osym 6d 10f\\endo-2 xp-pcm for eta=3\\0,1\C,0,-3.119365,-0.429886,0.24
 7711\C,0,-0.483238,-0.151143,-0.817662\H,0,-4.084691,-0.548341,0.72495
 \H,0,0.345292,-0.114825,-1.519981\C,0,1.109235,1.42387,0.67843\C,0,0.4
 83238,0.151143,0.817662\H,0,0.55031,2.325971,0.892085\H,0,-0.345292,0.
 114825,1.519981\C,0,1.461352,-0.99962,0.986645\H,0,1.894943,-0.928704,
 1.989628\H,0,0.934187,-1.953298,0.939348\C,0,2.402996,1.524681,0.11992
 7\H,0,2.824354,2.510372,-0.041948\C,0,3.119365,0.429886,-0.247711\H,0,
 4.084691,0.548341,-0.72495\C,0,2.592455,-0.958721,-0.043087\H,0,2.2472
 88,-1.357377,-1.005814\H,0,3.401438,-1.623242,0.270678\C,0,-1.109235,-
 1.42387,-0.67843\H,0,-0.55031,-2.325971,-0.892085\C,0,-2.402996,-1.524
 681,-0.119927\H,0,-2.824354,-2.510372,0.041948\C,0,-1.461352,0.99962,-
 0.986645\H,0,-0.934187,1.953298,-0.939348\H,0,-1.894943,0.928704,-1.98
 9628\C,0,-2.592455,0.958721,0.043088\H,0,-3.401438,1.623242,-0.270678\
 H,0,-2.247288,1.357377,1.005814\\Version=ES64L-G16RevB.01\HF=-466.7710
 771\S2=0.862799\S2-1=0.\S2A=0.368331\RMSD=6.841e-09\Dipole=-0.0001309,
 0.0013181,-0.0025098\Quadrupole=0.9203598,1.6745352,-2.594895,-2.15154
 51,-2.3258453,-0.4264026\PG=CI [X(C12H16)]\\@


 I take a simple view of life: keep your eyes open and get on with it.
 -- Laurence Olivier
 Job cpu time:       0 days  2 hours  4 minutes 24.3 seconds.
 Elapsed time:       0 days  0 hours  5 minutes 14.6 seconds.
 File lengths (MBytes):  RWF=    630 Int=      0 D2E=      0 Chk=     24 Scr=      1
 Normal termination of Gaussian 16 at Tue Aug  4 16:22:49 2020.
