 Entering Gaussian System, Link 0=g16
 Input=meso-TS_64_2_xp-Ger.com
 Output=meso-TS_64_2_xp-Ger.log
 Initial command:
 /scratch/scicomp/CentOS/7.3.1611/Haswell/software/Gaussian/g16/l1.exe "/scratch/bochen/cyclohexadiene-dimerization/wb97xd-def2tzvp/xp-pcm/meso/Gau-213982.inp" -scrdir="/scratch/bochen/cyclohexadiene-dimerization/wb97xd-def2tzvp/xp-pcm/meso/"
 Entering Link 1 = /scratch/scicomp/CentOS/7.3.1611/Haswell/software/Gaussian/g16/l1.exe PID=    213983.
  
 Copyright (c) 1988-2017, Gaussian, Inc.  All Rights Reserved.
  
 This is part of the Gaussian(R) 16 program.  It is based on
 the Gaussian(R) 09 system (copyright 2009, Gaussian, Inc.),
 the Gaussian(R) 03 system (copyright 2003, Gaussian, Inc.),
 the Gaussian(R) 98 system (copyright 1998, Gaussian, Inc.),
 the Gaussian(R) 94 system (copyright 1995, Gaussian, Inc.),
 the Gaussian 92(TM) system (copyright 1992, Gaussian, Inc.),
 the Gaussian 90(TM) system (copyright 1990, Gaussian, Inc.),
 the Gaussian 88(TM) system (copyright 1988, Gaussian, Inc.),
 the Gaussian 86(TM) system (copyright 1986, Carnegie Mellon
 University), and the Gaussian 82(TM) system (copyright 1983,
 Carnegie Mellon University). Gaussian is a federally registered
 trademark of Gaussian, Inc.
  
 This software contains proprietary and confidential information,
 including trade secrets, belonging to Gaussian, Inc.
  
 This software is provided under written license and may be
 used, copied, transmitted, or stored only in accord with that
 written license.
  
 The following legend is applicable only to US Government
 contracts under FAR:
  
                    RESTRICTED RIGHTS LEGEND
  
 Use, reproduction and disclosure by the US Government is
 subject to restrictions as set forth in subparagraphs (a)
 and (c) of the Commercial Computer Software - Restricted
 Rights clause in FAR 52.227-19.
  
 Gaussian, Inc.
 340 Quinnipiac St., Bldg. 40, Wallingford CT 06492
  
  
 ---------------------------------------------------------------
 Warning -- This program may not be used in any manner that
 competes with the business of Gaussian, Inc. or will provide
 assistance to any competitor of Gaussian, Inc.  The licensee
 of this program is prohibited from giving any competitor of
 Gaussian, Inc. access to this program.  By using this program,
 the user acknowledges that Gaussian, Inc. is engaged in the
 business of creating and licensing software in the field of
 computational chemistry and represents and warrants to the
 licensee that it is not a competitor of Gaussian, Inc. and that
 it will not use this program in any manner prohibited above.
 ---------------------------------------------------------------
  

 Cite this work as:
 Gaussian 16, Revision B.01,
 M. J. Frisch, G. W. Trucks, H. B. Schlegel, G. E. Scuseria, 
 M. A. Robb, J. R. Cheeseman, G. Scalmani, V. Barone, 
 G. A. Petersson, H. Nakatsuji, X. Li, M. Caricato, A. V. Marenich, 
 J. Bloino, B. G. Janesko, R. Gomperts, B. Mennucci, H. P. Hratchian, 
 J. V. Ortiz, A. F. Izmaylov, J. L. Sonnenberg, D. Williams-Young, 
 F. Ding, F. Lipparini, F. Egidi, J. Goings, B. Peng, A. Petrone, 
 T. Henderson, D. Ranasinghe, V. G. Zakrzewski, J. Gao, N. Rega, 
 G. Zheng, W. Liang, M. Hada, M. Ehara, K. Toyota, R. Fukuda, 
 J. Hasegawa, M. Ishida, T. Nakajima, Y. Honda, O. Kitao, H. Nakai, 
 T. Vreven, K. Throssell, J. A. Montgomery, Jr., J. E. Peralta, 
 F. Ogliaro, M. J. Bearpark, J. J. Heyd, E. N. Brothers, K. N. Kudin, 
 V. N. Staroverov, T. A. Keith, R. Kobayashi, J. Normand, 
 K. Raghavachari, A. P. Rendell, J. C. Burant, S. S. Iyengar, 
 J. Tomasi, M. Cossi, J. M. Millam, M. Klene, C. Adamo, R. Cammi, 
 J. W. Ochterski, R. L. Martin, K. Morokuma, O. Farkas, 
 J. B. Foresman, and D. J. Fox, Gaussian, Inc., Wallingford CT, 2016.
 
 ******************************************
 Gaussian 16:  ES64L-G16RevB.01 20-Dec-2017
                 3-Aug-2020 
 ******************************************
 %chk=meso-TS_64_2_xp-12.chk
 %nproc=24
 Will use up to   24 processors via shared memory.
 %mem=48GB
 ----------------------------------------------------------------------
 #p uwb97xd guess=mix def2tzvp # scrf=(iefpcm,solvent=Cyclohexane,read)
  nosym 6d 10f
 ----------------------------------------------------------------------
 1/38=1,40=2,172=1/1;
 2/12=2,15=1,17=6,18=5,40=1/2;
 3/5=44,7=101,8=22,11=2,25=1,30=1,70=2203,72=17,74=-58,116=2/1,2,3;
 4/13=-1/1;
 5/5=2,38=5,53=17/2;
 6/7=2,8=2,9=2,10=2,28=1/1;
 99/5=1,9=1/99;
 Leave Link    1 at Mon Aug  3 23:27:37 2020, MaxMem=  6442450944 cpu:               3.7 elap:               0.2
 (Enter /scratch/scicomp/CentOS/7.3.1611/Haswell/software/Gaussian/g16/l101.exe)
 -----------------------
 endo-2 xp-pcm for eta=3
 -----------------------
 Symbolic Z-matrix:
 Charge =  0 Multiplicity = 1
 6                    -3.12468  -0.44069   0.27304 
 6                    -0.77579  -0.26199  -1.30218 
 1                    -4.05407  -0.52582   0.82419 
 1                     0.1616   -0.18453  -1.83944 
 6                     1.19854   1.43292   0.83418 
 6                     0.77579   0.26199   1.30218 
 1                     0.6082    2.33018   0.97771 
 1                    -0.1616    0.18453   1.83944 
 6                     1.60523  -0.98179   1.16163 
 1                     2.17694  -1.10827   2.09015 
 1                     0.9563   -1.85528   1.08385 
 6                     2.47187   1.53314   0.11941 
 1                     2.87141   2.51693  -0.09608 
 6                     3.12468   0.44069  -0.27304 
 1                     4.05407   0.52582  -0.82419 
 6                     2.56349  -0.93427  -0.03247 
 1                     2.04332  -1.25613  -0.943 
 1                     3.37242  -1.65219   0.11536 
 6                    -1.19854  -1.43292  -0.83418 
 1                    -0.6082   -2.33018  -0.97771 
 6                    -2.47187  -1.53314  -0.11941 
 1                    -2.87141  -2.51693   0.09608 
 6                    -1.60523   0.98179  -1.16163 
 1                    -0.9563    1.85528  -1.08385 
 1                    -2.17694   1.10827  -2.09015 
 6                    -2.56349   0.93427   0.03247 
 1                    -3.37242   1.65219  -0.11536 
 1                    -2.04332   1.25613   0.943 
 
 ITRead=  0  0  0  0  0  0  0  0  0  0  0  0  0  0  0  0  0  0  0  0
 ITRead=  0  0  0  0  0  0  0  0
 MicOpt= -1 -1 -1 -1 -1 -1 -1 -1 -1 -1 -1 -1 -1 -1 -1 -1 -1 -1 -1 -1
 MicOpt= -1 -1 -1 -1 -1 -1 -1 -1
 NAtoms=     28 NQM=       28 NQMF=       0 NMMI=      0 NMMIF=      0
                NMic=       0 NMicF=      0.
                    Isotopes and Nuclear Properties:
 (Nuclear quadrupole moments (NQMom) in fm**2, nuclear magnetic moments (NMagM)
  in nuclear magnetons)

  Atom         1           2           3           4           5           6           7           8           9          10
 IAtWgt=          12          12           1           1          12          12           1           1          12           1
 AtmWgt=  12.0000000  12.0000000   1.0078250   1.0078250  12.0000000  12.0000000   1.0078250   1.0078250  12.0000000   1.0078250
 NucSpn=           0           0           1           1           0           0           1           1           0           1
 AtZEff=  -0.0000000  -0.0000000  -0.0000000  -0.0000000  -0.0000000  -0.0000000  -0.0000000  -0.0000000  -0.0000000  -0.0000000
 NQMom=    0.0000000   0.0000000   0.0000000   0.0000000   0.0000000   0.0000000   0.0000000   0.0000000   0.0000000   0.0000000
 NMagM=    0.0000000   0.0000000   2.7928460   2.7928460   0.0000000   0.0000000   2.7928460   2.7928460   0.0000000   2.7928460
 AtZNuc=   6.0000000   6.0000000   1.0000000   1.0000000   6.0000000   6.0000000   1.0000000   1.0000000   6.0000000   1.0000000

  Atom        11          12          13          14          15          16          17          18          19          20
 IAtWgt=           1          12           1          12           1          12           1           1          12           1
 AtmWgt=   1.0078250  12.0000000   1.0078250  12.0000000   1.0078250  12.0000000   1.0078250   1.0078250  12.0000000   1.0078250
 NucSpn=           1           0           1           0           1           0           1           1           0           1
 AtZEff=  -0.0000000  -0.0000000  -0.0000000  -0.0000000  -0.0000000  -0.0000000  -0.0000000  -0.0000000  -0.0000000  -0.0000000
 NQMom=    0.0000000   0.0000000   0.0000000   0.0000000   0.0000000   0.0000000   0.0000000   0.0000000   0.0000000   0.0000000
 NMagM=    2.7928460   0.0000000   2.7928460   0.0000000   2.7928460   0.0000000   2.7928460   2.7928460   0.0000000   2.7928460
 AtZNuc=   1.0000000   6.0000000   1.0000000   6.0000000   1.0000000   6.0000000   1.0000000   1.0000000   6.0000000   1.0000000

  Atom        21          22          23          24          25          26          27          28
 IAtWgt=          12           1          12           1           1          12           1           1
 AtmWgt=  12.0000000   1.0078250  12.0000000   1.0078250   1.0078250  12.0000000   1.0078250   1.0078250
 NucSpn=           0           1           0           1           1           0           1           1
 AtZEff=  -0.0000000  -0.0000000  -0.0000000  -0.0000000  -0.0000000  -0.0000000  -0.0000000  -0.0000000
 NQMom=    0.0000000   0.0000000   0.0000000   0.0000000   0.0000000   0.0000000   0.0000000   0.0000000
 NMagM=    0.0000000   2.7928460   0.0000000   2.7928460   2.7928460   0.0000000   2.7928460   2.7928460
 AtZNuc=   6.0000000   1.0000000   6.0000000   1.0000000   1.0000000   6.0000000   1.0000000   1.0000000
 Leave Link  101 at Mon Aug  3 23:27:38 2020, MaxMem=  6442450944 cpu:               2.4 elap:               0.1
 (Enter /scratch/scicomp/CentOS/7.3.1611/Haswell/software/Gaussian/g16/l202.exe)
                          Input orientation:                          
 ---------------------------------------------------------------------
 Center     Atomic      Atomic             Coordinates (Angstroms)
 Number     Number       Type             X           Y           Z
 ---------------------------------------------------------------------
      1          6           0       -3.124680   -0.440685    0.273036
      2          6           0       -0.775792   -0.261985   -1.302176
      3          1           0       -4.054066   -0.525819    0.824190
      4          1           0        0.161604   -0.184531   -1.839436
      5          6           0        1.198536    1.432924    0.834184
      6          6           0        0.775792    0.261985    1.302176
      7          1           0        0.608196    2.330179    0.977711
      8          1           0       -0.161604    0.184531    1.839436
      9          6           0        1.605227   -0.981794    1.161635
     10          1           0        2.176937   -1.108268    2.090145
     11          1           0        0.956297   -1.855279    1.083849
     12          6           0        2.471867    1.533139    0.119408
     13          1           0        2.871405    2.516926   -0.096077
     14          6           0        3.124680    0.440685   -0.273036
     15          1           0        4.054066    0.525819   -0.824190
     16          6           0        2.563488   -0.934271   -0.032474
     17          1           0        2.043317   -1.256129   -0.942998
     18          1           0        3.372415   -1.652191    0.115362
     19          6           0       -1.198536   -1.432924   -0.834184
     20          1           0       -0.608196   -2.330179   -0.977711
     21          6           0       -2.471867   -1.533139   -0.119408
     22          1           0       -2.871405   -2.516926    0.096077
     23          6           0       -1.605227    0.981794   -1.161635
     24          1           0       -0.956297    1.855279   -1.083849
     25          1           0       -2.176937    1.108268   -2.090145
     26          6           0       -2.563488    0.934271    0.032474
     27          1           0       -3.372415    1.652191   -0.115362
     28          1           0       -2.043317    1.256129    0.942998
 ---------------------------------------------------------------------
                    Distance matrix (angstroms):
                    1          2          3          4          5
     1  C    0.000000
     2  C    2.833814   0.000000
     3  H    1.083871   3.916391   0.000000
     4  H    3.915075   1.083217   4.998325   0.000000
     5  C    4.745049   3.366708   5.605943   3.292360   0.000000
     6  C    4.094699   3.076460   4.916974   3.232078   1.329973
     7  H    4.701980   3.719223   5.469642   3.802569   1.083590
     8  H    3.409446   3.232078   4.084921   3.711438   2.102141
     9  C    4.842977   3.501106   5.687652   3.424340   2.470523
    10  H    5.643996   4.576313   6.384927   4.511814   2.998727
    11  H    4.394641   3.351393   5.190243   3.459556   3.306553
    12  C    5.936406   3.973746   6.879232   3.482065   1.463666
    13  H    6.696024   4.741209   7.620193   4.204782   2.199758
    14  C    6.334786   4.094699   7.326147   3.409446   2.433209
    15  H    7.326147   4.916974   8.340558   4.084921   3.424485
    16  C    5.717711   3.635231   6.685262   3.097784   2.866671
    17  H    5.371395   3.010765   6.390179   2.343665   3.332122
    18  H    6.610964   4.598881   7.544784   4.035414   3.841925
    19  C    2.433209   1.329973   3.424485   2.102141   4.091759
    20  H    3.386332   2.100189   4.286792   2.437000   4.550625
    21  C    1.331778   2.427229   2.099625   3.422340   4.814429
    22  H    2.099104   3.381045   2.427621   4.287822   5.719313
    23  C    2.527937   1.501566   3.494740   2.222930   3.471008
    24  H    3.437219   2.136131   4.348151   2.445698   2.915568
    25  H    2.980285   2.112273   3.832389   2.683833   4.477825
    26  C    1.504430   2.531438   2.231703   3.490257   3.878688
    27  H    2.142978   3.437302   2.468022   4.339962   4.673683
    28  H    2.120701   2.992005   2.689343   3.831334   3.248493
                    6          7          8          9         10
     6  C    0.000000
     7  H    2.100189   0.000000
     8  H    1.083217   2.437000   0.000000
     9  C    1.501566   3.463678   2.222930   0.000000
    10  H    2.112273   3.939718   2.683833   1.097715   0.000000
    11  H    2.136131   4.201250   2.445698   1.090934   1.749463
    12  C    2.427229   2.201187   3.422340   2.856955   3.308749
    13  H    3.381045   2.511973   4.287822   3.927606   4.289975
    14  C    2.833814   3.386332   3.915075   2.527937   2.980285
    15  H    3.916391   4.286792   4.998325   3.494740   3.832389
    16  C    2.531438   3.937039   3.490257   1.531802   2.164534
    17  H    2.992005   4.313966   3.831334   2.167178   3.039683
    18  H    3.437302   4.923802   4.339962   2.160341   2.371664
    19  C    3.366708   4.550625   3.292360   3.471008   4.477825
    20  H    3.719223   5.198290   3.802569   3.360682   4.319927
    21  C    3.973746   5.061194   3.482065   4.309031   5.164690
    22  H    4.741209   6.031528   4.204782   4.851008   5.607707
    23  C    3.501106   3.360682   3.424340   4.422700   5.408068
    24  H    3.351393   2.631197   3.459556   4.433124   5.354811
    25  H    4.576313   4.319927   4.511814   5.408068   6.429936
    26  C    3.635231   3.591881   3.097784   4.724880   5.556762
    27  H    4.598881   4.183269   4.035414   5.774558   6.578731
    28  H    3.010765   2.860998   2.343665   4.285788   4.971606
                   11         12         13         14         15
    11  H    0.000000
    12  C    3.835163   0.000000
    13  H    4.916914   1.083467   0.000000
    14  C    3.437219   1.331778   2.099104   0.000000
    15  H    4.348151   2.099625   2.427621   1.083871   0.000000
    16  C    2.162752   2.473777   3.465490   1.504430   2.231703
    17  H    2.376700   3.015357   3.954611   2.120701   2.689343
    18  H    2.610908   3.310186   4.204433   2.142978   2.468022
    19  C    2.915568   4.814429   5.719313   4.745049   5.605943
    20  H    2.631197   5.061194   6.031528   4.701980   5.469642
    21  C    3.647453   5.822336   6.704784   5.936406   6.879232
    22  H    4.008088   6.704784   7.639140   6.696024   7.620193
    23  C    4.433124   4.309031   4.851008   4.842977   5.687652
    24  H    4.703740   3.647453   4.008088   4.394641   5.190243
    25  H    5.354811   5.164690   5.607707   5.643996   6.384927
    26  C    4.612577   5.071588   5.662101   5.717711   6.685262
    27  H    5.698965   5.850207   6.303446   6.610964   7.544784
    28  H    4.324163   4.598035   5.179168   5.371395   6.390179
                   16         17         18         19         20
    16  C    0.000000
    17  H    1.096916   0.000000
    18  H    1.091617   1.744561   0.000000
    19  C    3.878688   3.248493   4.673683   0.000000
    20  H    3.591881   2.860998   4.183269   1.083590   0.000000
    21  C    5.071588   4.598035   5.850207   1.463666   2.201187
    22  H    5.662101   5.179168   6.303446   2.199758   2.511973
    23  C    4.724880   4.285788   5.774558   2.470523   3.463678
    24  H    4.612577   4.324163   5.698965   3.306553   4.201250
    25  H    5.556762   4.971606   6.578731   2.998727   3.939718
    26  C    5.457248   5.193462   6.475461   2.866671   3.937039
    27  H    6.475461   6.202698   7.514313   3.841925   4.923802
    28  H    5.193462   5.154512   6.202698   3.332122   4.313966
                   21         22         23         24         25
    21  C    0.000000
    22  H    1.083467   0.000000
    23  C    2.856955   3.927606   0.000000
    24  H    3.835163   4.916914   1.090934   0.000000
    25  H    3.308749   4.289975   1.097715   1.749463   0.000000
    26  C    2.473777   3.465490   1.531802   2.162752   2.164534
    27  H    3.310186   4.204433   2.160341   2.610908   2.371664
    28  H    3.015357   3.954611   2.167178   2.376700   3.039683
                   26         27         28
    26  C    0.000000
    27  H    1.091617   0.000000
    28  H    1.096916   1.744561   0.000000
 Symmetry turned off by external request.
 Stoichiometry    C12H16
 Framework group  CI[X(C12H16)]
 Deg. of freedom    39
 Full point group                 CI      NOp   2
 Rotational constants (GHZ):           1.7158847           0.5828782           0.5313882
 Leave Link  202 at Mon Aug  3 23:27:38 2020, MaxMem=  6442450944 cpu:               0.3 elap:               0.0
 (Enter /scratch/scicomp/CentOS/7.3.1611/Haswell/software/Gaussian/g16/l301.exe)
 Standard basis: def2TZVP (6D, 10F)
 Ernie: Thresh=  0.10000D-02 Tol=  0.10000D-05 Strict=F.
   528 basis functions,   740 primitive gaussians,   528 cartesian basis functions
    44 alpha electrons       44 beta electrons
       nuclear repulsion energy       672.5181360396 Hartrees.
 IExCor= 4639 DFT=T Ex+Corr=wB97XD ExCW=0 ScaHFX=  1.000000
 ScaDFX=  1.000000  1.000000  1.000000  1.000000 ScalE2=  1.000000  1.000000
 IRadAn=      5 IRanWt=     -1 IRanGd=            0 ICorTp=0 IEmpDi=121
 HFx  wShort=  0.000000 wLong=  0.200000 cFull=  0.222036 cShort=  0.000000 cLong=  0.777964
 DFx  wShort=  0.000000 wLong=  0.200000 cFull=  0.000000 cShort=  0.000000 cLong=  1.000000
 NAtoms=   28 NActive=   28 NUniq=   28 SFac= 1.00D+00 NAtFMM=   60 NAOKFM=F Big=F
 Integral buffers will be    131072 words long.
 Raffenetti 2 integral format.
 Two-electron integral symmetry is turned off.
 R6Disp:  Grimme-D2 Dispersion energy=       -0.0216072657 Hartrees.
 Nuclear repulsion after empirical dispersion term =      672.4965287740 Hartrees.
 Using the following non-standard input for PCM:
 qrep pcmdoc geomview  nodis nocav g03defaults tsare=0.075
 Warning! Using old PCM defaults because the g03defaults keyword was found.
 These settings can be overridden by following keywords.
 nsfe=28
 NVESolv=36  SolvMW=84.1595   Rsolv=2.815
 eps=2.0165 RhoS=0.778099999999998
 --- end of non-standard input.
 Reading user-defined spheres from input:
 ISph  on   Nord    Re0     Alpha      Xe            Ye            Ze
 --- end of user-defined spheres data.
 ------------------------------------------------------------------------------
 Polarizable Continuum Model (PCM)
 =================================
 Model                : PCM.
 Atomic radii         : UA0 (Simple United Atom Topological Model).
 Polarization charges : Total charges.
 Charge compensation  : None.
 Solution method      : On-the-fly selection.
 Cavity type          : SES (Solvent Excluding Surface) (Alpha=1.000).
 Cavity algorithm     : GePol (RMin=0.200 OFac=0.890).
                        User-defined sphere list used, NSphG=   28.
                        Tesserae with average area of 0.075 Ang**2.
                        Smoothing algorithm: None.
                        Polarization charges: point-like.
                        Self-potential: constant (ISelfS= 1).
                        Self-field    : global E.n sum rule (ISelfD= 3).
 Solvent              : CycloHexane, Eps=   2.016500 Eps(inf)=   2.035188
                        RSolv=   2.815000 Ang.
 ------------------------------------------------------------------------------
 GePol: Number of generator spheres                  =      28
 GePol: Total number of spheres                      =     181
 GePol: Number of exposed spheres                    =     123 ( 67.96%)
 GePol: Number of tesserae                           =    4644
 GePol: Average area of tesserae                     =       0.05 Ang**2
 GePol: Minimum area of tessera                      =   0.10D-02 Ang**2
 GePol: Maximum area of tessera                      =    0.12659 Ang**2
 GePol: Number of small tesserae                     =       0
 GePol: Fraction of small tesserae (<1% of avg)      =       0.00%
 GePol: Total count of vertices                      =   16410
 GePol: Maximum number of vertices in a tessera      =       6
 GePol: Cavity surface area                          =    223.663 Ang**2
 GePol: Cavity volume                                =    255.380 Ang**3
 Leave Link  301 at Mon Aug  3 23:27:38 2020, MaxMem=  6442450944 cpu:               7.7 elap:               0.4
 (Enter /scratch/scicomp/CentOS/7.3.1611/Haswell/software/Gaussian/g16/l302.exe)
 NPDir=0 NMtPBC=     1 NCelOv=     1 NCel=       1 NClECP=     1 NCelD=      1
         NCelK=      1 NCelE2=     1 NClLst=     1 CellRange=     0.0.
 One-electron integrals computed using PRISM.
   1 Symmetry operations used in ECPInt.
 ECPInt:  NShTT=   19306 NPrTT=   56928 LenC2=   18453 LenP2D=   41793.
 LDataN:  DoStor=T MaxTD1= 6 Len=  172
 NBasis=   528 RedAO= T EigKep=  1.93D-05  NBF=   528
 NBsUse=   528 1.00D-06 EigRej= -1.00D+00 NBFU=   528
 Precomputing XC quadrature grid using
 IXCGrd= 4 IRadAn=           5 IRanWt=          -1 IRanGd=           0 AccXCQ= 0.00D+00.
 Generated NRdTot=       0 NPtTot=           0 NUsed=           0 NTot=          32
 NSgBfM=   526   525   525   526   526 MxSgAt=    28 MxSgA2=    28.
 Leave Link  302 at Mon Aug  3 23:27:39 2020, MaxMem=  6442450944 cpu:              12.7 elap:               0.6
 (Enter /scratch/scicomp/CentOS/7.3.1611/Haswell/software/Gaussian/g16/l303.exe)
 DipDrv:  MaxL=1.
 Leave Link  303 at Mon Aug  3 23:27:39 2020, MaxMem=  6442450944 cpu:               1.5 elap:               0.1
 (Enter /scratch/scicomp/CentOS/7.3.1611/Haswell/software/Gaussian/g16/l401.exe)
 ExpMin= 9.52D-02 ExpMax= 1.36D+04 ExpMxC= 4.63D+02 IAcc=3 IRadAn=         5 AccDes= 0.00D+00
 Harris functional with IExCor= 4639 and IRadAn=       5 diagonalized for initial guess.
 HarFok:  IExCor= 4639 AccDes= 0.00D+00 IRadAn=         5 IDoV= 1 UseB2=F ITyADJ=14
 ICtDFT=  3500011 ScaDFX=  1.000000  1.000000  1.000000  1.000000
 FoFCou: FMM=F IPFlag=           0 FMFlag=      100000 FMFlg1=           0
         NFxFlg=           0 DoJE=T BraDBF=F KetDBF=T FulRan=T
         wScrn=  0.000000 ICntrl=       500 IOpCl=  0 I1Cent=   200000004 NGrid=           0
         NMat0=    1 NMatS0=      1 NMatT0=    0 NMatD0=    1 NMtDS0=    0 NMtDT0=    0
 Symmetry not used in FoFCou.
 Harris En= -444.659454422303    
 JPrj=0 DoOrth=F DoCkMO=T.
 Mixing orbitals, IMix= 1 IMixAn=  0 NRI=1 NE=   44 Coef=  7.07106781D-01  7.07106781D-01
 Mixing orbitals, IMix= 1 IMixAn=  0 NRI=1 NE=   44 Coef= -7.07106781D-01  7.07106781D-01
 Initial guess <Sx>= 0.0000 <Sy>= 0.0000 <Sz>= 0.0000 <S**2>= 1.0000 S= 0.6180
 Leave Link  401 at Mon Aug  3 23:27:41 2020, MaxMem=  6442450944 cpu:              49.3 elap:               2.1
 (Enter /scratch/scicomp/CentOS/7.3.1611/Haswell/software/Gaussian/g16/l502.exe)
 Two-electron integral symmetry not used.
 UHF open shell SCF:
 Using DIIS extrapolation, IDIIS=  1040.
 NGot=  6442450944 LenX=  6441877030 LenY=  6441597718
 Requested convergence on RMS density matrix=1.00D-08 within 128 cycles.
 Requested convergence on MAX density matrix=1.00D-06.
 Requested convergence on             energy=1.00D-06.
 No special actions if energy rises.
 Fock matrices will be formed incrementally for  20 cycles.

 Cycle   1  Pass 1  IDiag  1:
 FoFJK:  IHMeth= 1 ICntrl=       0 DoSepK=T KAlg= 0 I1Cent=           0 FoldK=F
 IRaf=         1 NMat=       1 IRICut=       1 DoRegI=T DoRafI=F ISym2E= 0 IDoP0=0 IntGTp=1.
 FoFCou: FMM=F IPFlag=           0 FMFlag=      100000 FMFlg1=           0
         NFxFlg=           0 DoJE=T BraDBF=F KetDBF=F FulRan=T
         wScrn=  0.000000 ICntrl=       500 IOpCl=  0 I1Cent=           0 NGrid=           0
         NMat0=    1 NMatS0=      1 NMatT0=    0 NMatD0=    1 NMtDS0=    0 NMtDT0=    0
 Symmetry not used in FoFCou.
 Inv3:  Mode=1 IEnd=    64700208.
 Iteration    1 A*A^-1 deviation from unit magnitude is 4.00D-15 for   4314.
 Iteration    1 A*A^-1 deviation from orthogonality  is 2.22D-15 for   3177   2192.
 Iteration    1 A^-1*A deviation from unit magnitude is 4.44D-15 for   4314.
 Iteration    1 A^-1*A deviation from orthogonality  is 2.00D-15 for   4520   1954.
 E= -466.566906686727    
 DIIS: error= 5.12D-02 at cycle   1 NSaved=   1.
 NSaved= 1 IEnMin= 1 EnMin= -466.566906686727     IErMin= 1 ErrMin= 5.12D-02
 ErrMax= 5.12D-02  0.00D+00 EMaxC= 1.00D-01 BMatC= 4.12D+00 BMatP= 4.12D+00
 IDIUse=3 WtCom= 4.88D-01 WtEn= 5.12D-01
 Coeff-Com:  0.100D+01
 Coeff-En:   0.100D+01
 Coeff:      0.100D+01
 Gap=     0.180 Goal=   None    Shift=    0.000
 Gap=     0.180 Goal=   None    Shift=    0.000
 GapD=    0.180 DampG=1.000 DampE=0.500 DampFc=0.5000 IDamp=-1.
 Damping current iteration by 5.00D-01
 RMSDP=1.70D-03 MaxDP=9.31D-02              OVMax= 3.58D-01

 Cycle   2  Pass 1  IDiag  1:
 RMSU=  8.18D-04    CP:  9.62D-01
 E= -466.680682316096     Delta-E=       -0.113775629369 Rises=F Damp=T
 DIIS: error= 2.45D-02 at cycle   2 NSaved=   2.
 NSaved= 2 IEnMin= 2 EnMin= -466.680682316096     IErMin= 2 ErrMin= 2.45D-02
 ErrMax= 2.45D-02  0.00D+00 EMaxC= 1.00D-01 BMatC= 9.37D-01 BMatP= 4.12D+00
 IDIUse=3 WtCom= 7.55D-01 WtEn= 2.45D-01
 Coeff-Com: -0.869D+00 0.187D+01
 Coeff-En:   0.000D+00 0.100D+01
 Coeff:     -0.657D+00 0.166D+01
 Gap=     0.282 Goal=   None    Shift=    0.000
 Gap=     0.282 Goal=   None    Shift=    0.000
 RMSDP=1.22D-03 MaxDP=4.93D-02 DE=-1.14D-01 OVMax= 1.40D-01

 Cycle   3  Pass 1  IDiag  1:
 RMSU=  5.90D-04    CP:  9.06D-01  2.23D+00
 E= -466.830024067600     Delta-E=       -0.149341751504 Rises=F Damp=F
 DIIS: error= 7.84D-03 at cycle   3 NSaved=   3.
 NSaved= 3 IEnMin= 3 EnMin= -466.830024067600     IErMin= 3 ErrMin= 7.84D-03
 ErrMax= 7.84D-03  0.00D+00 EMaxC= 1.00D-01 BMatC= 2.36D-02 BMatP= 9.37D-01
 IDIUse=3 WtCom= 9.22D-01 WtEn= 7.84D-02
 Coeff-Com: -0.314D+00 0.672D+00 0.642D+00
 Coeff-En:   0.000D+00 0.000D+00 0.100D+01
 Coeff:     -0.289D+00 0.619D+00 0.670D+00
 Gap=     0.304 Goal=   None    Shift=    0.000
 Gap=     0.304 Goal=   None    Shift=    0.000
 RMSDP=2.12D-04 MaxDP=1.08D-02 DE=-1.49D-01 OVMax= 6.41D-02

 Cycle   4  Pass 1  IDiag  1:
 RMSU=  1.96D-04    CP:  9.00D-01  2.31D+00  1.01D+00
 E= -466.840646683682     Delta-E=       -0.010622616082 Rises=F Damp=F
 DIIS: error= 5.12D-03 at cycle   4 NSaved=   4.
 NSaved= 4 IEnMin= 4 EnMin= -466.840646683682     IErMin= 4 ErrMin= 5.12D-03
 ErrMax= 5.12D-03  0.00D+00 EMaxC= 1.00D-01 BMatC= 2.05D-03 BMatP= 2.36D-02
 IDIUse=3 WtCom= 9.49D-01 WtEn= 5.12D-02
 Coeff-Com:  0.149D+00-0.319D+00-0.765D-01 0.125D+01
 Coeff-En:   0.000D+00 0.000D+00 0.000D+00 0.100D+01
 Coeff:      0.141D+00-0.303D+00-0.725D-01 0.123D+01
 Gap=     0.315 Goal=   None    Shift=    0.000
 Gap=     0.315 Goal=   None    Shift=    0.000
 RMSDP=2.16D-04 MaxDP=1.27D-02 DE=-1.06D-02 OVMax= 7.70D-02

 Cycle   5  Pass 1  IDiag  1:
 RMSU=  8.48D-05    CP:  8.93D-01  2.37D+00  1.25D+00  1.65D+00
 E= -466.845276885534     Delta-E=       -0.004630201852 Rises=F Damp=F
 DIIS: error= 2.26D-03 at cycle   5 NSaved=   5.
 NSaved= 5 IEnMin= 5 EnMin= -466.845276885534     IErMin= 5 ErrMin= 2.26D-03
 ErrMax= 2.26D-03  0.00D+00 EMaxC= 1.00D-01 BMatC= 8.06D-04 BMatP= 2.05D-03
 IDIUse=3 WtCom= 9.77D-01 WtEn= 2.26D-02
 Coeff-Com:  0.591D-01-0.127D+00-0.639D-01 0.332D+00 0.800D+00
 Coeff-En:   0.000D+00 0.000D+00 0.000D+00 0.000D+00 0.100D+01
 Coeff:      0.577D-01-0.124D+00-0.624D-01 0.324D+00 0.804D+00
 Gap=     0.317 Goal=   None    Shift=    0.000
 Gap=     0.317 Goal=   None    Shift=    0.000
 RMSDP=7.38D-05 MaxDP=3.10D-03 DE=-4.63D-03 OVMax= 2.69D-02

 Cycle   6  Pass 1  IDiag  1:
 RMSU=  3.13D-05    CP:  8.91D-01  2.37D+00  1.28D+00  1.92D+00  1.40D+00
 E= -466.846593532028     Delta-E=       -0.001316646494 Rises=F Damp=F
 DIIS: error= 1.64D-03 at cycle   6 NSaved=   6.
 NSaved= 6 IEnMin= 6 EnMin= -466.846593532028     IErMin= 6 ErrMin= 1.64D-03
 ErrMax= 1.64D-03  0.00D+00 EMaxC= 1.00D-01 BMatC= 5.18D-04 BMatP= 8.06D-04
 IDIUse=3 WtCom= 9.84D-01 WtEn= 1.64D-02
 Coeff-Com: -0.834D-01 0.179D+00 0.567D-01-0.620D+00 0.843D-01 0.138D+01
 Coeff-En:   0.000D+00 0.000D+00 0.000D+00 0.000D+00 0.000D+00 0.100D+01
 Coeff:     -0.821D-01 0.176D+00 0.558D-01-0.610D+00 0.830D-01 0.138D+01
 Gap=     0.314 Goal=   None    Shift=    0.000
 Gap=     0.314 Goal=   None    Shift=    0.000
 RMSDP=1.01D-04 MaxDP=4.03D-03 DE=-1.32D-03 OVMax= 3.73D-02

 Cycle   7  Pass 1  IDiag  1:
 RMSU=  3.07D-05    CP:  8.89D-01  2.37D+00  1.32D+00  2.21D+00  2.11D+00
                    CP:  2.29D+00
 E= -466.848202663993     Delta-E=       -0.001609131966 Rises=F Damp=F
 DIIS: error= 1.04D-03 at cycle   7 NSaved=   7.
 NSaved= 7 IEnMin= 7 EnMin= -466.848202663993     IErMin= 7 ErrMin= 1.04D-03
 ErrMax= 1.04D-03  0.00D+00 EMaxC= 1.00D-01 BMatC= 2.61D-04 BMatP= 5.18D-04
 IDIUse=3 WtCom= 9.90D-01 WtEn= 1.04D-02
 Coeff-Com: -0.236D-01 0.511D-01 0.404D-01 0.440D-02-0.745D+00-0.451D+00
 Coeff-Com:  0.212D+01
 Coeff-En:   0.000D+00 0.000D+00 0.000D+00 0.000D+00 0.000D+00 0.000D+00
 Coeff-En:   0.100D+01
 Coeff:     -0.233D-01 0.505D-01 0.400D-01 0.435D-02-0.737D+00-0.446D+00
 Coeff:      0.211D+01
 Gap=     0.314 Goal=   None    Shift=    0.000
 Gap=     0.314 Goal=   None    Shift=    0.000
 RMSDP=1.38D-04 MaxDP=6.47D-03 DE=-1.61D-03 OVMax= 5.09D-02

 Cycle   8  Pass 1  IDiag  1:
 RMSU=  5.76D-05    CP:  8.87D-01  2.36D+00  1.36D+00  2.52D+00  3.00D+00
                    CP:  3.00D+00  2.68D+00
 E= -466.849578199928     Delta-E=       -0.001375535935 Rises=F Damp=F
 DIIS: error= 3.53D-04 at cycle   8 NSaved=   8.
 NSaved= 8 IEnMin= 8 EnMin= -466.849578199928     IErMin= 8 ErrMin= 3.53D-04
 ErrMax= 3.53D-04  0.00D+00 EMaxC= 1.00D-01 BMatC= 6.03D-05 BMatP= 2.61D-04
 IDIUse=3 WtCom= 9.96D-01 WtEn= 3.53D-03
 Coeff-Com:  0.252D-01-0.542D-01-0.724D-02 0.265D+00-0.243D+00-0.689D+00
 Coeff-Com:  0.599D+00 0.110D+01
 Coeff-En:   0.000D+00 0.000D+00 0.000D+00 0.000D+00 0.000D+00 0.000D+00
 Coeff-En:   0.000D+00 0.100D+01
 Coeff:      0.251D-01-0.540D-01-0.722D-02 0.264D+00-0.242D+00-0.687D+00
 Coeff:      0.597D+00 0.110D+01
 Gap=     0.316 Goal=   None    Shift=    0.000
 Gap=     0.316 Goal=   None    Shift=    0.000
 RMSDP=6.20D-05 MaxDP=3.01D-03 DE=-1.38D-03 OVMax= 2.24D-02

 Cycle   9  Pass 1  IDiag  1:
 RMSU=  3.67D-05    CP:  8.86D-01  2.36D+00  1.38D+00  2.62D+00  3.00D+00
                    CP:  3.00D+00  3.00D+00  1.68D+00
 E= -466.849806667881     Delta-E=       -0.000228467952 Rises=F Damp=F
 DIIS: error= 1.18D-04 at cycle   9 NSaved=   9.
 NSaved= 9 IEnMin= 9 EnMin= -466.849806667881     IErMin= 9 ErrMin= 1.18D-04
 ErrMax= 1.18D-04  0.00D+00 EMaxC= 1.00D-01 BMatC= 9.20D-06 BMatP= 6.03D-05
 IDIUse=3 WtCom= 9.99D-01 WtEn= 1.18D-03
 Coeff-Com:  0.126D-01-0.271D-01-0.852D-02 0.887D-01 0.352D-01-0.157D+00
 Coeff-Com: -0.132D+00 0.306D+00 0.882D+00
 Coeff-En:   0.000D+00 0.000D+00 0.000D+00 0.000D+00 0.000D+00 0.000D+00
 Coeff-En:   0.000D+00 0.000D+00 0.100D+01
 Coeff:      0.126D-01-0.271D-01-0.851D-02 0.886D-01 0.352D-01-0.157D+00
 Coeff:     -0.132D+00 0.306D+00 0.882D+00
 Gap=     0.315 Goal=   None    Shift=    0.000
 Gap=     0.315 Goal=   None    Shift=    0.000
 RMSDP=1.50D-05 MaxDP=7.46D-04 DE=-2.28D-04 OVMax= 5.56D-03

 Cycle  10  Pass 1  IDiag  1:
 RMSU=  4.96D-06    CP:  8.86D-01  2.36D+00  1.38D+00  2.63D+00  3.00D+00
                    CP:  3.00D+00  3.00D+00  1.85D+00  1.26D+00
 E= -466.849823648978     Delta-E=       -0.000016981097 Rises=F Damp=F
 DIIS: error= 5.03D-05 at cycle  10 NSaved=  10.
 NSaved=10 IEnMin=10 EnMin= -466.849823648978     IErMin=10 ErrMin= 5.03D-05
 ErrMax= 5.03D-05  0.00D+00 EMaxC= 1.00D-01 BMatC= 1.47D-06 BMatP= 9.20D-06
 IDIUse=1 WtCom= 1.00D+00 WtEn= 0.00D+00
 Coeff-Com: -0.167D-02 0.362D-02-0.463D-03-0.291D-01 0.442D-01 0.869D-01
 Coeff-Com: -0.115D+00-0.173D+00 0.174D+00 0.101D+01
 Coeff:     -0.167D-02 0.362D-02-0.463D-03-0.291D-01 0.442D-01 0.869D-01
 Coeff:     -0.115D+00-0.173D+00 0.174D+00 0.101D+01
 Gap=     0.315 Goal=   None    Shift=    0.000
 Gap=     0.315 Goal=   None    Shift=    0.000
 RMSDP=6.39D-06 MaxDP=3.09D-04 DE=-1.70D-05 OVMax= 2.41D-03

 Cycle  11  Pass 1  IDiag  1:
 RMSU=  2.36D-06    CP:  8.86D-01  2.36D+00  1.38D+00  2.64D+00  3.00D+00
                    CP:  3.00D+00  3.00D+00  1.90D+00  1.37D+00  1.42D+00
 E= -466.849825878104     Delta-E=       -0.000002229126 Rises=F Damp=F
 DIIS: error= 2.01D-05 at cycle  11 NSaved=  11.
 NSaved=11 IEnMin=11 EnMin= -466.849825878104     IErMin=11 ErrMin= 2.01D-05
 ErrMax= 2.01D-05  0.00D+00 EMaxC= 1.00D-01 BMatC= 3.31D-07 BMatP= 1.47D-06
 IDIUse=1 WtCom= 1.00D+00 WtEn= 0.00D+00
 Coeff-Com: -0.146D-02 0.316D-02 0.368D-03-0.169D-01 0.134D-01 0.419D-01
 Coeff-Com: -0.287D-01-0.893D-01-0.916D-02 0.389D+00 0.697D+00
 Coeff:     -0.146D-02 0.316D-02 0.368D-03-0.169D-01 0.134D-01 0.419D-01
 Coeff:     -0.287D-01-0.893D-01-0.916D-02 0.389D+00 0.697D+00
 Gap=     0.315 Goal=   None    Shift=    0.000
 Gap=     0.315 Goal=   None    Shift=    0.000
 RMSDP=1.02D-06 MaxDP=5.70D-05 DE=-2.23D-06 OVMax= 2.63D-04

 Cycle  12  Pass 1  IDiag  1:
 RMSU=  6.67D-07    CP:  8.86D-01  2.36D+00  1.38D+00  2.64D+00  3.00D+00
                    CP:  3.00D+00  3.00D+00  1.90D+00  1.38D+00  1.48D+00
                    CP:  1.19D+00
 E= -466.849826063222     Delta-E=       -0.000000185118 Rises=F Damp=F
 DIIS: error= 1.31D-05 at cycle  12 NSaved=  12.
 NSaved=12 IEnMin=12 EnMin= -466.849826063222     IErMin=12 ErrMin= 1.31D-05
 ErrMax= 1.31D-05  0.00D+00 EMaxC= 1.00D-01 BMatC= 6.96D-08 BMatP= 3.31D-07
 IDIUse=1 WtCom= 1.00D+00 WtEn= 0.00D+00
 Coeff-Com:  0.448D-03-0.973D-03-0.243D-05 0.704D-02-0.865D-02-0.205D-01
 Coeff-Com:  0.258D-01 0.393D-01-0.423D-01-0.245D+00 0.975D-01 0.115D+01
 Coeff:      0.448D-03-0.973D-03-0.243D-05 0.704D-02-0.865D-02-0.205D-01
 Coeff:      0.258D-01 0.393D-01-0.423D-01-0.245D+00 0.975D-01 0.115D+01
 Gap=     0.315 Goal=   None    Shift=    0.000
 Gap=     0.315 Goal=   None    Shift=    0.000
 RMSDP=7.77D-07 MaxDP=3.35D-05 DE=-1.85D-07 OVMax= 1.51D-04

 Cycle  13  Pass 1  IDiag  1:
 RMSU=  4.47D-07    CP:  8.86D-01  2.36D+00  1.38D+00  2.64D+00  3.00D+00
                    CP:  3.00D+00  3.00D+00  1.90D+00  1.38D+00  1.50D+00
                    CP:  1.38D+00  1.59D+00
 E= -466.849826158704     Delta-E=       -0.000000095482 Rises=F Damp=F
 DIIS: error= 7.12D-06 at cycle  13 NSaved=  13.
 NSaved=13 IEnMin=13 EnMin= -466.849826158704     IErMin=13 ErrMin= 7.12D-06
 ErrMax= 7.12D-06  0.00D+00 EMaxC= 1.00D-01 BMatC= 1.56D-08 BMatP= 6.96D-08
 IDIUse=1 WtCom= 1.00D+00 WtEn= 0.00D+00
 Coeff-Com: -0.677D-04 0.149D-03 0.678D-04-0.637D-03 0.533D-03 0.151D-02
 Coeff-Com: -0.279D-02-0.194D-03 0.723D-02 0.682D-02-0.141D+00-0.292D+00
 Coeff-Com:  0.142D+01
 Coeff:     -0.677D-04 0.149D-03 0.678D-04-0.637D-03 0.533D-03 0.151D-02
 Coeff:     -0.279D-02-0.194D-03 0.723D-02 0.682D-02-0.141D+00-0.292D+00
 Coeff:      0.142D+01
 Gap=     0.315 Goal=   None    Shift=    0.000
 Gap=     0.315 Goal=   None    Shift=    0.000
 RMSDP=4.22D-07 MaxDP=2.30D-05 DE=-9.55D-08 OVMax= 1.02D-04

 Cycle  14  Pass 1  IDiag  1:
 RMSU=  2.65D-07    CP:  8.86D-01  2.36D+00  1.38D+00  2.64D+00  3.00D+00
                    CP:  3.00D+00  3.00D+00  1.90D+00  1.38D+00  1.51D+00
                    CP:  1.42D+00  1.84D+00  1.56D+00
 E= -466.849826193319     Delta-E=       -0.000000034615 Rises=F Damp=F
 DIIS: error= 3.69D-06 at cycle  14 NSaved=  14.
 NSaved=14 IEnMin=14 EnMin= -466.849826193319     IErMin=14 ErrMin= 3.69D-06
 ErrMax= 3.69D-06  0.00D+00 EMaxC= 1.00D-01 BMatC= 4.57D-09 BMatP= 1.56D-08
 IDIUse=1 WtCom= 1.00D+00 WtEn= 0.00D+00
 Coeff-Com: -0.180D-03 0.388D-03 0.621D-04-0.227D-02 0.229D-02 0.623D-02
 Coeff-Com: -0.768D-02-0.111D-01 0.140D-01 0.745D-01-0.573D-01-0.403D+00
 Coeff-Com:  0.185D+00 0.120D+01
 Coeff:     -0.180D-03 0.388D-03 0.621D-04-0.227D-02 0.229D-02 0.623D-02
 Coeff:     -0.768D-02-0.111D-01 0.140D-01 0.745D-01-0.573D-01-0.403D+00
 Coeff:      0.185D+00 0.120D+01
 Gap=     0.315 Goal=   None    Shift=    0.000
 Gap=     0.315 Goal=   None    Shift=    0.000
 RMSDP=2.90D-07 MaxDP=1.30D-05 DE=-3.46D-08 OVMax= 6.92D-05

 Cycle  15  Pass 1  IDiag  1:
 RMSU=  1.01D-07    CP:  8.86D-01  2.36D+00  1.38D+00  2.64D+00  3.00D+00
                    CP:  3.00D+00  3.00D+00  1.90D+00  1.38D+00  1.52D+00
                    CP:  1.43D+00  1.95D+00  1.89D+00  1.78D+00
 E= -466.849826203276     Delta-E=       -0.000000009956 Rises=F Damp=F
 DIIS: error= 1.23D-06 at cycle  15 NSaved=  15.
 NSaved=15 IEnMin=15 EnMin= -466.849826203276     IErMin=15 ErrMin= 1.23D-06
 ErrMax= 1.23D-06  0.00D+00 EMaxC= 1.00D-01 BMatC= 6.60D-10 BMatP= 4.57D-09
 IDIUse=1 WtCom= 1.00D+00 WtEn= 0.00D+00
 Coeff-Com:  0.149D-04-0.326D-04-0.278D-04 0.316D-04 0.180D-03 0.161D-03
 Coeff-Com: -0.646D-03-0.580D-03 0.185D-02 0.778D-02 0.188D-01-0.130D-02
 Coeff-Com: -0.281D+00 0.188D+00 0.107D+01
 Coeff:      0.149D-04-0.326D-04-0.278D-04 0.316D-04 0.180D-03 0.161D-03
 Coeff:     -0.646D-03-0.580D-03 0.185D-02 0.778D-02 0.188D-01-0.130D-02
 Coeff:     -0.281D+00 0.188D+00 0.107D+01
 Gap=     0.315 Goal=   None    Shift=    0.000
 Gap=     0.315 Goal=   None    Shift=    0.000
 RMSDP=1.25D-07 MaxDP=5.24D-06 DE=-9.96D-09 OVMax= 2.64D-05

 Cycle  16  Pass 1  IDiag  1:
 RMSU=  4.19D-08    CP:  8.86D-01  2.36D+00  1.38D+00  2.64D+00  3.00D+00
                    CP:  3.00D+00  3.00D+00  1.90D+00  1.38D+00  1.52D+00
                    CP:  1.43D+00  1.96D+00  1.99D+00  2.12D+00  1.45D+00
 E= -466.849826204350     Delta-E=       -0.000000001075 Rises=F Damp=F
 DIIS: error= 2.29D-07 at cycle  16 NSaved=  16.
 NSaved=16 IEnMin=16 EnMin= -466.849826204350     IErMin=16 ErrMin= 2.29D-07
 ErrMax= 2.29D-07  0.00D+00 EMaxC= 1.00D-01 BMatC= 6.32D-11 BMatP= 6.60D-10
 IDIUse=1 WtCom= 1.00D+00 WtEn= 0.00D+00
 Coeff-Com:  0.103D-04-0.222D-04-0.835D-05 0.130D-03-0.109D-03-0.309D-03
 Coeff-Com:  0.347D-03 0.598D-03-0.833D-03-0.418D-02 0.101D-01 0.341D-01
 Coeff-Com: -0.809D-01-0.679D-01 0.249D+00 0.860D+00
 Coeff:      0.103D-04-0.222D-04-0.835D-05 0.130D-03-0.109D-03-0.309D-03
 Coeff:      0.347D-03 0.598D-03-0.833D-03-0.418D-02 0.101D-01 0.341D-01
 Coeff:     -0.809D-01-0.679D-01 0.249D+00 0.860D+00
 Gap=     0.315 Goal=   None    Shift=    0.000
 Gap=     0.315 Goal=   None    Shift=    0.000
 RMSDP=2.71D-08 MaxDP=1.31D-06 DE=-1.07D-09 OVMax= 4.20D-06

 Cycle  17  Pass 1  IDiag  1:
 RMSU=  1.26D-08    CP:  8.86D-01  2.36D+00  1.38D+00  2.64D+00  3.00D+00
                    CP:  3.00D+00  3.00D+00  1.90D+00  1.38D+00  1.53D+00
                    CP:  1.43D+00  1.96D+00  1.99D+00  2.17D+00  1.55D+00
                    CP:  1.31D+00
 E= -466.849826204398     Delta-E=       -0.000000000047 Rises=F Damp=F
 DIIS: error= 7.88D-08 at cycle  17 NSaved=  17.
 NSaved=17 IEnMin=17 EnMin= -466.849826204398     IErMin=17 ErrMin= 7.88D-08
 ErrMax= 7.88D-08  0.00D+00 EMaxC= 1.00D-01 BMatC= 7.21D-12 BMatP= 6.32D-11
 IDIUse=1 WtCom= 1.00D+00 WtEn= 0.00D+00
 Coeff-Com: -0.190D-06 0.465D-06 0.115D-05 0.727D-05-0.304D-04-0.191D-04
 Coeff-Com:  0.762D-04 0.109D-03-0.358D-03-0.133D-02-0.461D-03 0.463D-02
 Coeff-Com:  0.216D-01-0.321D-01-0.943D-01 0.138D+00 0.965D+00
 Coeff:     -0.190D-06 0.465D-06 0.115D-05 0.727D-05-0.304D-04-0.191D-04
 Coeff:      0.762D-04 0.109D-03-0.358D-03-0.133D-02-0.461D-03 0.463D-02
 Coeff:      0.216D-01-0.321D-01-0.943D-01 0.138D+00 0.965D+00
 Gap=     0.315 Goal=   None    Shift=    0.000
 Gap=     0.315 Goal=   None    Shift=    0.000
 RMSDP=9.30D-09 MaxDP=2.92D-07 DE=-4.72D-11 OVMax= 1.39D-06

 Error on total polarization charges =  0.01123
 SCF Done:  E(UwB97XD) =  -466.849826204     A.U. after   17 cycles
            NFock= 17  Conv=0.93D-08     -V/T= 2.0057
 <Sx>= 0.0000 <Sy>= 0.0000 <Sz>= 0.0000 <S**2>= 0.0000 S= 0.0000
 <L.S>=  0.00000000000    
 KE= 4.641850417099D+02 PE=-2.426923353483D+03 EE= 8.233919567945D+02
 --------------------------------------------------------------------
 Variational PCM results
 =======================
 <psi(f)|   H    |psi(f)>                     (a.u.) =    -466.857308
 <psi(f)|H+V(f)/2|psi(f)>                     (a.u.) =    -466.858822
 Total free energy in solution:
 - with all non electrostatic terms           (a.u.) =    -466.849826
 --------------------------------------------------------------------
 (Polarized solute)-Solvent               (kcal/mol) =      -0.95
 --------------------------------------------------------------------
 Quantum repulsion energy                 (kcal/mol) =       5.65
 Total non electrostatic                  (kcal/mol) =       5.65
 --------------------------------------------------------------------
 Partition over spheres:
 Sphere  on Atom  Surface  Charge   GEl     GCav    GDR
    1               7.03   0.010   -0.05    0.00    0.00
    2               5.02   0.007   -0.04    0.00    0.00
    3               7.52  -0.010   -0.04    0.00    0.00
    4               3.46  -0.004   -0.01    0.00    0.00
    5               4.55   0.009   -0.06    0.00    0.00
    6               4.82   0.007   -0.04    0.00    0.00
    7               4.75  -0.007   -0.03    0.00    0.00
    8               4.12  -0.005   -0.01    0.00    0.00
    9               3.58   0.002    0.00    0.00    0.00
   10               7.19  -0.007   -0.01    0.00    0.00
   11               3.09  -0.003   -0.01    0.00    0.00
   12               6.31   0.010   -0.06    0.00    0.00
   13               7.52  -0.010   -0.03    0.00    0.00
   14               7.03   0.010   -0.05    0.00    0.00
   15               7.52  -0.010   -0.04    0.00    0.00
   16               3.52   0.002    0.00    0.00    0.00
   17               2.84  -0.002   -0.01    0.00    0.00
   18               7.41  -0.008   -0.03    0.00    0.00
   19               5.09   0.009   -0.06    0.00    0.00
   20               4.97  -0.007   -0.03    0.00    0.00
   21               6.54   0.010   -0.06    0.00    0.00
   22               7.51  -0.010   -0.03    0.00    0.00
   23               3.58   0.002    0.00    0.00    0.00
   24               2.85  -0.002   -0.01    0.00    0.00
   25               7.19  -0.007   -0.01    0.00    0.00
   26               3.46   0.002    0.00    0.00    0.00
   27               7.41  -0.008   -0.03    0.00    0.00
   28               3.00  -0.003   -0.01    0.00    0.00
 Added spheres:    74.80   0.014   -0.21    0.00    0.00
 --------------------------------------------------------------------
 After PCM corrections, the energy is  -466.849826204     a.u.
 --------------------------------------------------------------------
 Annihilation of the first spin contaminant:
 S**2 before annihilation     0.0000,   after    -0.0000
 Leave Link  502 at Mon Aug  3 23:32:53 2020, MaxMem=  6442450944 cpu:            7424.3 elap:             312.0
 (Enter /scratch/scicomp/CentOS/7.3.1611/Haswell/software/Gaussian/g16/l601.exe)
 Copying SCF densities to generalized density rwf, IOpCl= 1 IROHF=0.

 **********************************************************************

            Population analysis using the SCF Density.

 **********************************************************************

 Alpha  occ. eigenvalues --  -10.28304 -10.28303 -10.28129 -10.28127 -10.28091
 Alpha  occ. eigenvalues --  -10.28089 -10.28022 -10.28019 -10.27802 -10.27800
 Alpha  occ. eigenvalues --  -10.27467 -10.27466  -0.94004  -0.93526  -0.84061
 Alpha  occ. eigenvalues --   -0.83993  -0.83743  -0.83582  -0.71235  -0.71099
 Alpha  occ. eigenvalues --   -0.67832  -0.67805  -0.59620  -0.59478  -0.57278
 Alpha  occ. eigenvalues --   -0.56663  -0.53412  -0.52629  -0.50817  -0.50762
 Alpha  occ. eigenvalues --   -0.49797  -0.49343  -0.47194  -0.46817  -0.44988
 Alpha  occ. eigenvalues --   -0.44973  -0.41126  -0.40902  -0.39565  -0.39152
 Alpha  occ. eigenvalues --   -0.39115  -0.38899  -0.29645  -0.27585
 Alpha virt. eigenvalues --    0.03883   0.04968   0.11366   0.12978   0.14317
 Alpha virt. eigenvalues --    0.15320   0.15436   0.16282   0.16456   0.16911
 Alpha virt. eigenvalues --    0.17660   0.17698   0.18068   0.19190   0.20906
 Alpha virt. eigenvalues --    0.21898   0.22410   0.23586   0.24068   0.24295
 Alpha virt. eigenvalues --    0.25595   0.26385   0.26552   0.27551   0.28784
 Alpha virt. eigenvalues --    0.28787   0.29465   0.29800   0.30642   0.31100
 Alpha virt. eigenvalues --    0.32079   0.32344   0.32673   0.32891   0.33697
 Alpha virt. eigenvalues --    0.34197   0.34562   0.36027   0.36203   0.37826
 Alpha virt. eigenvalues --    0.38207   0.39240   0.40113   0.41723   0.42068
 Alpha virt. eigenvalues --    0.42107   0.43966   0.44664   0.45818   0.46547
 Alpha virt. eigenvalues --    0.46978   0.46996   0.48346   0.48612   0.49054
 Alpha virt. eigenvalues --    0.49129   0.49637   0.49876   0.50323   0.50586
 Alpha virt. eigenvalues --    0.51176   0.51327   0.52158   0.52584   0.53261
 Alpha virt. eigenvalues --    0.53657   0.54400   0.55016   0.55236   0.55800
 Alpha virt. eigenvalues --    0.57657   0.58140   0.58400   0.59404   0.60043
 Alpha virt. eigenvalues --    0.60436   0.61175   0.63369   0.63433   0.64638
 Alpha virt. eigenvalues --    0.65715   0.67128   0.68242   0.68756   0.69163
 Alpha virt. eigenvalues --    0.71498   0.72341   0.73158   0.73622   0.75048
 Alpha virt. eigenvalues --    0.77103   0.78505   0.78642   0.81044   0.81419
 Alpha virt. eigenvalues --    0.82198   0.82494   0.82952   0.87839   0.87921
 Alpha virt. eigenvalues --    0.88563   0.89402   0.90843   0.91810   0.92381
 Alpha virt. eigenvalues --    0.92774   0.95401   0.96579   0.98962   0.99088
 Alpha virt. eigenvalues --    1.00979   1.03969   1.04515   1.04758   1.04994
 Alpha virt. eigenvalues --    1.06952   1.07464   1.08186   1.09404   1.11897
 Alpha virt. eigenvalues --    1.13388   1.13814   1.14436   1.15155   1.15924
 Alpha virt. eigenvalues --    1.16091   1.16928   1.17101   1.19106   1.20883
 Alpha virt. eigenvalues --    1.21300   1.22212   1.24217   1.24280   1.25083
 Alpha virt. eigenvalues --    1.25665   1.25882   1.26879   1.27587   1.28794
 Alpha virt. eigenvalues --    1.28825   1.30794   1.32087   1.32801   1.32869
 Alpha virt. eigenvalues --    1.34268   1.34983   1.36710   1.37274   1.38122
 Alpha virt. eigenvalues --    1.38945   1.40392   1.40426   1.41402   1.41530
 Alpha virt. eigenvalues --    1.42943   1.43108   1.44137   1.44422   1.45445
 Alpha virt. eigenvalues --    1.46082   1.46866   1.47091   1.47627   1.48539
 Alpha virt. eigenvalues --    1.49987   1.50676   1.50776   1.53923   1.55772
 Alpha virt. eigenvalues --    1.56724   1.57986   1.58559   1.58849   1.61196
 Alpha virt. eigenvalues --    1.61538   1.62925   1.63718   1.65612   1.67960
 Alpha virt. eigenvalues --    1.68655   1.70359   1.71177   1.74173   1.76593
 Alpha virt. eigenvalues --    1.76820   1.80211   1.80268   1.83359   1.84278
 Alpha virt. eigenvalues --    1.86207   1.87984   1.89994   1.90560   1.91621
 Alpha virt. eigenvalues --    1.92959   1.96262   1.99501   2.00754   2.01458
 Alpha virt. eigenvalues --    2.04113   2.05977   2.06105   2.08069   2.08663
 Alpha virt. eigenvalues --    2.09270   2.11863   2.12867   2.13184   2.15586
 Alpha virt. eigenvalues --    2.18266   2.19870   2.20325   2.21121   2.22571
 Alpha virt. eigenvalues --    2.23322   2.24154   2.24730   2.26548   2.26612
 Alpha virt. eigenvalues --    2.29550   2.34044   2.37353   2.38173   2.40945
 Alpha virt. eigenvalues --    2.43224   2.45797   2.45986   2.49044   2.50100
 Alpha virt. eigenvalues --    2.50286   2.50437   2.53831   2.54101   2.55311
 Alpha virt. eigenvalues --    2.55353   2.57685   2.57755   2.60818   2.61594
 Alpha virt. eigenvalues --    2.62421   2.64561   2.64783   2.65260   2.66298
 Alpha virt. eigenvalues --    2.67575   2.68000   2.70709   2.72411   2.72618
 Alpha virt. eigenvalues --    2.73357   2.73419   2.74863   2.76000   2.77248
 Alpha virt. eigenvalues --    2.77742   2.77958   2.79274   2.80922   2.81320
 Alpha virt. eigenvalues --    2.81480   2.82437   2.82748   2.83910   2.85006
 Alpha virt. eigenvalues --    2.85199   2.86527   2.87485   2.88333   2.89502
 Alpha virt. eigenvalues --    2.90398   2.90577   2.92694   2.92834   2.93605
 Alpha virt. eigenvalues --    2.94911   2.95239   2.95443   2.96297   2.99783
 Alpha virt. eigenvalues --    3.01764   3.02235   3.03070   3.04527   3.06341
 Alpha virt. eigenvalues --    3.06995   3.08897   3.09632   3.09667   3.10860
 Alpha virt. eigenvalues --    3.12167   3.13037   3.13332   3.14498   3.15157
 Alpha virt. eigenvalues --    3.15177   3.17086   3.17271   3.18897   3.19027
 Alpha virt. eigenvalues --    3.19929   3.20052   3.20467   3.21078   3.21543
 Alpha virt. eigenvalues --    3.22237   3.23174   3.23391   3.23757   3.24158
 Alpha virt. eigenvalues --    3.25976   3.26243   3.26963   3.27153   3.28271
 Alpha virt. eigenvalues --    3.28745   3.29518   3.30882   3.31397   3.31507
 Alpha virt. eigenvalues --    3.32392   3.33126   3.33196   3.33659   3.34380
 Alpha virt. eigenvalues --    3.35234   3.36157   3.36183   3.37871   3.38342
 Alpha virt. eigenvalues --    3.39070   3.40682   3.42555   3.43709   3.43821
 Alpha virt. eigenvalues --    3.45065   3.45651   3.46514   3.46674   3.47016
 Alpha virt. eigenvalues --    3.48654   3.49426   3.49436   3.50131   3.51043
 Alpha virt. eigenvalues --    3.51485   3.52982   3.53447   3.55011   3.55288
 Alpha virt. eigenvalues --    3.55919   3.57034   3.58115   3.59246   3.63434
 Alpha virt. eigenvalues --    3.64628   3.65212   3.65343   3.65647   3.66608
 Alpha virt. eigenvalues --    3.68532   3.68574   3.71149   3.71987   3.72879
 Alpha virt. eigenvalues --    3.75239   3.76293   3.77612   3.79660   3.80616
 Alpha virt. eigenvalues --    3.84955   3.85414   3.85853   3.86273   3.86468
 Alpha virt. eigenvalues --    3.88384   3.91093   3.91216   3.93725   3.93913
 Alpha virt. eigenvalues --    3.95779   3.95995   4.00475   4.00756   4.02898
 Alpha virt. eigenvalues --    4.04981   4.08431   4.08729   4.09051   4.10604
 Alpha virt. eigenvalues --    4.11913   4.13043   4.13803   4.15759   4.18191
 Alpha virt. eigenvalues --    4.18709   4.19859   4.21075   4.23070   4.24184
 Alpha virt. eigenvalues --    4.25245   4.27627   4.30840   4.31116   4.33838
 Alpha virt. eigenvalues --    4.35107   4.37987   4.38402   4.39201   4.41552
 Alpha virt. eigenvalues --    4.43264   4.43881   4.46647   4.48277   4.50117
 Alpha virt. eigenvalues --    4.51422   4.58970   4.61018   4.62680   4.66318
 Alpha virt. eigenvalues --    4.68352   4.69178   4.72282   4.73930   4.75872
 Alpha virt. eigenvalues --    4.75999   4.78911   4.78973   4.81662   4.84375
 Alpha virt. eigenvalues --    4.84816   4.85077   4.89685   4.91028   4.93876
 Alpha virt. eigenvalues --    4.94181   4.96734   4.98925   5.06285   5.08125
 Alpha virt. eigenvalues --    5.12781   5.13191   5.18456   5.19391   5.22925
 Alpha virt. eigenvalues --    5.23456   5.30886   5.32459   5.40780   5.40968
 Alpha virt. eigenvalues --    5.43285   5.44647   5.49527   5.49581   5.67618
 Alpha virt. eigenvalues --    5.70788   5.75600   5.78040   5.93229   6.00363
 Alpha virt. eigenvalues --    7.94085   7.95662   8.01705   8.04542   8.06394
 Alpha virt. eigenvalues --    8.06477   8.10440   8.11538   8.17916   8.18323
 Alpha virt. eigenvalues --    8.34435   8.36174  34.76291  34.77852  34.81016
 Alpha virt. eigenvalues --   34.82028  34.86666  34.87082  34.97065  34.98132
 Alpha virt. eigenvalues --   35.00759  35.01915  35.15731  35.18986
  Beta  occ. eigenvalues --  -10.28304 -10.28303 -10.28129 -10.28127 -10.28091
  Beta  occ. eigenvalues --  -10.28089 -10.28022 -10.28019 -10.27802 -10.27800
  Beta  occ. eigenvalues --  -10.27467 -10.27466  -0.94004  -0.93526  -0.84061
  Beta  occ. eigenvalues --   -0.83993  -0.83743  -0.83582  -0.71235  -0.71099
  Beta  occ. eigenvalues --   -0.67832  -0.67805  -0.59620  -0.59478  -0.57278
  Beta  occ. eigenvalues --   -0.56663  -0.53412  -0.52629  -0.50817  -0.50762
  Beta  occ. eigenvalues --   -0.49797  -0.49343  -0.47194  -0.46817  -0.44988
  Beta  occ. eigenvalues --   -0.44973  -0.41126  -0.40902  -0.39565  -0.39152
  Beta  occ. eigenvalues --   -0.39115  -0.38899  -0.29645  -0.27585
  Beta virt. eigenvalues --    0.03883   0.04968   0.11366   0.12978   0.14317
  Beta virt. eigenvalues --    0.15320   0.15436   0.16282   0.16456   0.16911
  Beta virt. eigenvalues --    0.17660   0.17698   0.18068   0.19190   0.20906
  Beta virt. eigenvalues --    0.21898   0.22410   0.23586   0.24068   0.24295
  Beta virt. eigenvalues --    0.25595   0.26385   0.26552   0.27551   0.28784
  Beta virt. eigenvalues --    0.28787   0.29465   0.29800   0.30642   0.31100
  Beta virt. eigenvalues --    0.32079   0.32344   0.32673   0.32891   0.33697
  Beta virt. eigenvalues --    0.34197   0.34562   0.36027   0.36203   0.37826
  Beta virt. eigenvalues --    0.38207   0.39240   0.40113   0.41723   0.42068
  Beta virt. eigenvalues --    0.42107   0.43966   0.44664   0.45818   0.46547
  Beta virt. eigenvalues --    0.46978   0.46996   0.48346   0.48612   0.49054
  Beta virt. eigenvalues --    0.49129   0.49637   0.49876   0.50323   0.50586
  Beta virt. eigenvalues --    0.51176   0.51327   0.52158   0.52584   0.53261
  Beta virt. eigenvalues --    0.53657   0.54400   0.55016   0.55236   0.55800
  Beta virt. eigenvalues --    0.57657   0.58140   0.58400   0.59404   0.60043
  Beta virt. eigenvalues --    0.60436   0.61175   0.63369   0.63433   0.64638
  Beta virt. eigenvalues --    0.65715   0.67128   0.68242   0.68756   0.69163
  Beta virt. eigenvalues --    0.71498   0.72341   0.73158   0.73622   0.75048
  Beta virt. eigenvalues --    0.77103   0.78505   0.78642   0.81044   0.81419
  Beta virt. eigenvalues --    0.82198   0.82494   0.82952   0.87839   0.87921
  Beta virt. eigenvalues --    0.88563   0.89402   0.90843   0.91810   0.92381
  Beta virt. eigenvalues --    0.92774   0.95401   0.96579   0.98962   0.99088
  Beta virt. eigenvalues --    1.00979   1.03969   1.04515   1.04758   1.04994
  Beta virt. eigenvalues --    1.06952   1.07464   1.08186   1.09404   1.11897
  Beta virt. eigenvalues --    1.13388   1.13814   1.14436   1.15155   1.15924
  Beta virt. eigenvalues --    1.16091   1.16928   1.17101   1.19106   1.20883
  Beta virt. eigenvalues --    1.21300   1.22212   1.24217   1.24280   1.25083
  Beta virt. eigenvalues --    1.25665   1.25882   1.26879   1.27587   1.28794
  Beta virt. eigenvalues --    1.28825   1.30794   1.32087   1.32801   1.32869
  Beta virt. eigenvalues --    1.34268   1.34983   1.36710   1.37274   1.38122
  Beta virt. eigenvalues --    1.38945   1.40392   1.40426   1.41402   1.41530
  Beta virt. eigenvalues --    1.42943   1.43108   1.44137   1.44422   1.45445
  Beta virt. eigenvalues --    1.46082   1.46866   1.47091   1.47627   1.48539
  Beta virt. eigenvalues --    1.49987   1.50676   1.50776   1.53923   1.55772
  Beta virt. eigenvalues --    1.56724   1.57986   1.58559   1.58849   1.61196
  Beta virt. eigenvalues --    1.61538   1.62925   1.63718   1.65612   1.67960
  Beta virt. eigenvalues --    1.68655   1.70359   1.71177   1.74173   1.76593
  Beta virt. eigenvalues --    1.76820   1.80211   1.80268   1.83359   1.84278
  Beta virt. eigenvalues --    1.86207   1.87984   1.89994   1.90560   1.91621
  Beta virt. eigenvalues --    1.92959   1.96262   1.99501   2.00754   2.01458
  Beta virt. eigenvalues --    2.04113   2.05977   2.06105   2.08069   2.08663
  Beta virt. eigenvalues --    2.09270   2.11863   2.12867   2.13184   2.15586
  Beta virt. eigenvalues --    2.18266   2.19870   2.20325   2.21121   2.22571
  Beta virt. eigenvalues --    2.23322   2.24154   2.24730   2.26548   2.26612
  Beta virt. eigenvalues --    2.29550   2.34044   2.37353   2.38173   2.40945
  Beta virt. eigenvalues --    2.43224   2.45797   2.45986   2.49044   2.50100
  Beta virt. eigenvalues --    2.50286   2.50437   2.53831   2.54101   2.55311
  Beta virt. eigenvalues --    2.55353   2.57685   2.57755   2.60818   2.61594
  Beta virt. eigenvalues --    2.62421   2.64561   2.64783   2.65260   2.66298
  Beta virt. eigenvalues --    2.67575   2.68000   2.70709   2.72411   2.72618
  Beta virt. eigenvalues --    2.73357   2.73419   2.74863   2.76000   2.77248
  Beta virt. eigenvalues --    2.77742   2.77958   2.79274   2.80922   2.81320
  Beta virt. eigenvalues --    2.81480   2.82437   2.82748   2.83910   2.85006
  Beta virt. eigenvalues --    2.85199   2.86527   2.87485   2.88333   2.89502
  Beta virt. eigenvalues --    2.90398   2.90577   2.92694   2.92834   2.93605
  Beta virt. eigenvalues --    2.94911   2.95239   2.95443   2.96297   2.99783
  Beta virt. eigenvalues --    3.01764   3.02235   3.03070   3.04527   3.06341
  Beta virt. eigenvalues --    3.06995   3.08897   3.09632   3.09667   3.10860
  Beta virt. eigenvalues --    3.12167   3.13037   3.13332   3.14498   3.15157
  Beta virt. eigenvalues --    3.15177   3.17086   3.17271   3.18897   3.19027
  Beta virt. eigenvalues --    3.19929   3.20052   3.20467   3.21078   3.21543
  Beta virt. eigenvalues --    3.22237   3.23174   3.23391   3.23757   3.24158
  Beta virt. eigenvalues --    3.25976   3.26243   3.26963   3.27153   3.28271
  Beta virt. eigenvalues --    3.28745   3.29518   3.30882   3.31397   3.31507
  Beta virt. eigenvalues --    3.32392   3.33126   3.33196   3.33659   3.34380
  Beta virt. eigenvalues --    3.35234   3.36157   3.36183   3.37871   3.38342
  Beta virt. eigenvalues --    3.39070   3.40682   3.42555   3.43709   3.43821
  Beta virt. eigenvalues --    3.45065   3.45651   3.46514   3.46674   3.47016
  Beta virt. eigenvalues --    3.48654   3.49426   3.49436   3.50131   3.51043
  Beta virt. eigenvalues --    3.51485   3.52982   3.53447   3.55011   3.55288
  Beta virt. eigenvalues --    3.55919   3.57034   3.58115   3.59246   3.63434
  Beta virt. eigenvalues --    3.64628   3.65212   3.65343   3.65647   3.66608
  Beta virt. eigenvalues --    3.68532   3.68574   3.71149   3.71987   3.72879
  Beta virt. eigenvalues --    3.75239   3.76293   3.77612   3.79660   3.80616
  Beta virt. eigenvalues --    3.84955   3.85414   3.85853   3.86273   3.86468
  Beta virt. eigenvalues --    3.88384   3.91093   3.91216   3.93725   3.93913
  Beta virt. eigenvalues --    3.95779   3.95995   4.00475   4.00756   4.02898
  Beta virt. eigenvalues --    4.04981   4.08431   4.08729   4.09051   4.10604
  Beta virt. eigenvalues --    4.11913   4.13043   4.13803   4.15759   4.18191
  Beta virt. eigenvalues --    4.18709   4.19859   4.21075   4.23070   4.24184
  Beta virt. eigenvalues --    4.25245   4.27627   4.30840   4.31116   4.33838
  Beta virt. eigenvalues --    4.35107   4.37987   4.38402   4.39201   4.41552
  Beta virt. eigenvalues --    4.43264   4.43881   4.46647   4.48277   4.50117
  Beta virt. eigenvalues --    4.51422   4.58970   4.61018   4.62680   4.66318
  Beta virt. eigenvalues --    4.68352   4.69178   4.72282   4.73930   4.75872
  Beta virt. eigenvalues --    4.75999   4.78911   4.78973   4.81662   4.84375
  Beta virt. eigenvalues --    4.84816   4.85077   4.89685   4.91028   4.93876
  Beta virt. eigenvalues --    4.94181   4.96734   4.98925   5.06285   5.08125
  Beta virt. eigenvalues --    5.12781   5.13191   5.18456   5.19391   5.22925
  Beta virt. eigenvalues --    5.23456   5.30886   5.32459   5.40780   5.40968
  Beta virt. eigenvalues --    5.43285   5.44647   5.49527   5.49581   5.67618
  Beta virt. eigenvalues --    5.70788   5.75600   5.78040   5.93229   6.00363
  Beta virt. eigenvalues --    7.94085   7.95662   8.01705   8.04542   8.06394
  Beta virt. eigenvalues --    8.06477   8.10440   8.11538   8.17916   8.18323
  Beta virt. eigenvalues --    8.34435   8.36174  34.76291  34.77852  34.81016
  Beta virt. eigenvalues --   34.82028  34.86666  34.87082  34.97065  34.98132
  Beta virt. eigenvalues --   35.00759  35.01915  35.15731  35.18986
          Condensed to atoms (all electrons):
               1          2          3          4          5          6
     1  C    5.141704   0.005533   0.422697  -0.001804   0.000593  -0.003762
     2  C    0.005533   5.296541  -0.001927   0.424971  -0.023875  -0.044379
     3  H    0.422697  -0.001927   0.491144   0.000027  -0.000041  -0.000017
     4  H   -0.001804   0.424971   0.000027   0.470799  -0.002142   0.002360
     5  C    0.000593  -0.023875  -0.000041  -0.002142   5.138727   0.519697
     6  C   -0.003762  -0.044379  -0.000017   0.002360   0.519697   5.297910
     7  H    0.000244  -0.001186   0.000000  -0.000065   0.423469  -0.027112
     8  H   -0.001088   0.002378  -0.000008  -0.000022  -0.041134   0.424902
     9  C    0.001254  -0.001147  -0.000004  -0.001125  -0.065626   0.237244
    10  H   -0.000027  -0.000078  -0.000001  -0.000064  -0.003544  -0.035070
    11  H   -0.000004  -0.002597   0.000000   0.000100   0.008099  -0.055095
    12  C   -0.000103   0.007432   0.000002   0.001045   0.298544  -0.070768
    13  H   -0.000001   0.000018   0.000000   0.000002  -0.034665   0.004333
    14  C    0.000128  -0.003745  -0.000000  -0.001070  -0.057747   0.005542
    15  H   -0.000000  -0.000017  -0.000000  -0.000008   0.006740  -0.001926
    16  C   -0.000575   0.009819  -0.000000   0.000663   0.004067  -0.065971
    17  H   -0.000059  -0.001246  -0.000001  -0.000666   0.009805  -0.001752
    18  H    0.000002   0.000550   0.000000   0.000140  -0.002990   0.011427
    19  C   -0.057782   0.520128   0.006738  -0.041311  -0.004043  -0.023957
    20  H    0.003386  -0.026735  -0.000089  -0.004574   0.000216  -0.001195
    21  C    0.582265  -0.070755  -0.031104   0.005264   0.000698   0.007487
    22  H   -0.024265   0.004394  -0.005454  -0.000056   0.000013   0.000018
    23  C   -0.081928   0.237739   0.004880  -0.013935   0.005254  -0.001172
    24  H    0.013200  -0.055138  -0.000090  -0.004012   0.001765  -0.002580
    25  H    0.004069  -0.035142  -0.000036  -0.000304   0.000364  -0.000078
    26  C    0.278740  -0.065891  -0.027875   0.003587  -0.003347   0.009859
    27  H   -0.039533   0.011417  -0.004455  -0.000095   0.000316   0.000548
    28  H   -0.036230  -0.001744   0.001030  -0.000123  -0.002919  -0.001245
               7          8          9         10         11         12
     1  C    0.000244  -0.001088   0.001254  -0.000027  -0.000004  -0.000103
     2  C   -0.001186   0.002378  -0.001147  -0.000078  -0.002597   0.007432
     3  H    0.000000  -0.000008  -0.000004  -0.000001   0.000000   0.000002
     4  H   -0.000065  -0.000022  -0.001125  -0.000064   0.000100   0.001045
     5  C    0.423469  -0.041134  -0.065626  -0.003544   0.008099   0.298544
     6  C   -0.027112   0.424902   0.237244  -0.035070  -0.055095  -0.070768
     7  H    0.476885  -0.004553   0.002927  -0.000264  -0.000024  -0.028747
     8  H   -0.004553   0.470051  -0.013892  -0.000307  -0.003989   0.005248
     9  C    0.002927  -0.013892   4.962683   0.385807   0.455113   0.036894
    10  H   -0.000264  -0.000307   0.385807   0.568967  -0.020417   0.001497
    11  H   -0.000024  -0.003989   0.455113  -0.020417   0.534891  -0.004265
    12  C   -0.028747   0.005248   0.036894   0.001497  -0.004265   5.005270
    13  H   -0.003066  -0.000056  -0.000261  -0.000052   0.000026   0.423731
    14  C    0.003355  -0.001796  -0.082023   0.004072   0.013195   0.581876
    15  H   -0.000089   0.000027   0.004879  -0.000036  -0.000089  -0.031168
    16  C   -0.000662   0.003568   0.353749  -0.023212  -0.054039  -0.061995
    17  H    0.000023  -0.000124  -0.034248   0.006790  -0.008109  -0.014508
    18  H    0.000028  -0.000094  -0.045076  -0.008045  -0.001120   0.006339
    19  C    0.000217  -0.002172   0.005287   0.000362   0.001759   0.000704
    20  H    0.000007  -0.000065   0.001774   0.000123  -0.000832  -0.000112
    21  C   -0.000113   0.001073  -0.000571   0.000006  -0.000141  -0.000265
    22  H   -0.000001   0.000003  -0.000036  -0.000001   0.000010  -0.000000
    23  C    0.001745  -0.001116   0.000348  -0.000010   0.000086  -0.000569
    24  H   -0.000821   0.000102   0.000085  -0.000000  -0.000016  -0.000138
    25  H    0.000123  -0.000064  -0.000010   0.000001  -0.000000   0.000007
    26  C   -0.001271   0.000626  -0.000666   0.000057  -0.000051   0.000623
    27  H   -0.000020   0.000141  -0.000022   0.000001  -0.000002  -0.000047
    28  H    0.001361  -0.000727   0.000407  -0.000009   0.000021   0.000584
              13         14         15         16         17         18
     1  C   -0.000001   0.000128  -0.000000  -0.000575  -0.000059   0.000002
     2  C    0.000018  -0.003745  -0.000017   0.009819  -0.001246   0.000550
     3  H    0.000000  -0.000000  -0.000000  -0.000000  -0.000001   0.000000
     4  H    0.000002  -0.001070  -0.000008   0.000663  -0.000666   0.000140
     5  C   -0.034665  -0.057747   0.006740   0.004067   0.009805  -0.002990
     6  C    0.004333   0.005542  -0.001926  -0.065971  -0.001752   0.011427
     7  H   -0.003066   0.003355  -0.000089  -0.000662   0.000023   0.000028
     8  H   -0.000056  -0.001796   0.000027   0.003568  -0.000124  -0.000094
     9  C   -0.000261  -0.082023   0.004879   0.353749  -0.034248  -0.045076
    10  H   -0.000052   0.004072  -0.000036  -0.023212   0.006790  -0.008045
    11  H    0.000026   0.013195  -0.000089  -0.054039  -0.008109  -0.001120
    12  C    0.423731   0.581876  -0.031168  -0.061995  -0.014508   0.006339
    13  H    0.488050  -0.024515  -0.005456   0.003938  -0.000363  -0.000090
    14  C   -0.024515   5.142247   0.422740   0.278634  -0.036215  -0.039531
    15  H   -0.005456   0.422740   0.491140  -0.027859   0.001030  -0.004451
    16  C    0.003938   0.278634  -0.027859   4.932054   0.401779   0.437782
    17  H   -0.000363  -0.036215   0.001030   0.401779   0.586802  -0.021723
    18  H   -0.000090  -0.039531  -0.004451   0.437782  -0.021723   0.537563
    19  C    0.000013   0.000595  -0.000041  -0.003357  -0.002943   0.000315
    20  H   -0.000001   0.000244   0.000000  -0.001287   0.001351  -0.000020
    21  C   -0.000000  -0.000104   0.000002   0.000623   0.000584  -0.000047
    22  H    0.000000  -0.000001   0.000000   0.000012  -0.000002  -0.000001
    23  C   -0.000037   0.001251  -0.000004  -0.000669   0.000408  -0.000022
    24  H    0.000011  -0.000005   0.000000  -0.000051   0.000020  -0.000002
    25  H   -0.000001  -0.000027  -0.000001   0.000057  -0.000009   0.000001
    26  C    0.000012  -0.000575  -0.000000   0.000964   0.000102  -0.000003
    27  H   -0.000001   0.000002   0.000000  -0.000003   0.000002  -0.000000
    28  H   -0.000002  -0.000059  -0.000001   0.000102  -0.000025   0.000002
              19         20         21         22         23         24
     1  C   -0.057782   0.003386   0.582265  -0.024265  -0.081928   0.013200
     2  C    0.520128  -0.026735  -0.070755   0.004394   0.237739  -0.055138
     3  H    0.006738  -0.000089  -0.031104  -0.005454   0.004880  -0.000090
     4  H   -0.041311  -0.004574   0.005264  -0.000056  -0.013935  -0.004012
     5  C   -0.004043   0.000216   0.000698   0.000013   0.005254   0.001765
     6  C   -0.023957  -0.001195   0.007487   0.000018  -0.001172  -0.002580
     7  H    0.000217   0.000007  -0.000113  -0.000001   0.001745  -0.000821
     8  H   -0.002172  -0.000065   0.001073   0.000003  -0.001116   0.000102
     9  C    0.005287   0.001774  -0.000571  -0.000036   0.000348   0.000085
    10  H    0.000362   0.000123   0.000006  -0.000001  -0.000010  -0.000000
    11  H    0.001759  -0.000832  -0.000141   0.000010   0.000086  -0.000016
    12  C    0.000704  -0.000112  -0.000265  -0.000000  -0.000569  -0.000138
    13  H    0.000013  -0.000001  -0.000000   0.000000  -0.000037   0.000011
    14  C    0.000595   0.000244  -0.000104  -0.000001   0.001251  -0.000005
    15  H   -0.000041   0.000000   0.000002   0.000000  -0.000004   0.000000
    16  C   -0.003357  -0.001287   0.000623   0.000012  -0.000669  -0.000051
    17  H   -0.002943   0.001351   0.000584  -0.000002   0.000408   0.000020
    18  H    0.000315  -0.000020  -0.000047  -0.000001  -0.000022  -0.000002
    19  C    5.138647   0.423153   0.298473  -0.034778  -0.065774   0.008121
    20  H    0.423153   0.476787  -0.028836  -0.003062   0.002920  -0.000024
    21  C    0.298473  -0.028836   5.005132   0.423525   0.036825  -0.004265
    22  H   -0.034778  -0.003062   0.423525   0.487991  -0.000263   0.000026
    23  C   -0.065774   0.002920   0.036825  -0.000263   4.962135   0.455058
    24  H    0.008121  -0.000024  -0.004265   0.000026   0.455058   0.535291
    25  H   -0.003521  -0.000264   0.001504  -0.000052   0.385853  -0.020427
    26  C    0.003969  -0.000664  -0.062079   0.003942   0.353716  -0.054079
    27  H   -0.002981   0.000028   0.006342  -0.000091  -0.045049  -0.001115
    28  H    0.009778   0.000023  -0.014433  -0.000362  -0.034323  -0.008112
              25         26         27         28
     1  C    0.004069   0.278740  -0.039533  -0.036230
     2  C   -0.035142  -0.065891   0.011417  -0.001744
     3  H   -0.000036  -0.027875  -0.004455   0.001030
     4  H   -0.000304   0.003587  -0.000095  -0.000123
     5  C    0.000364  -0.003347   0.000316  -0.002919
     6  C   -0.000078   0.009859   0.000548  -0.001245
     7  H    0.000123  -0.001271  -0.000020   0.001361
     8  H   -0.000064   0.000626   0.000141  -0.000727
     9  C   -0.000010  -0.000666  -0.000022   0.000407
    10  H    0.000001   0.000057   0.000001  -0.000009
    11  H   -0.000000  -0.000051  -0.000002   0.000021
    12  C    0.000007   0.000623  -0.000047   0.000584
    13  H   -0.000001   0.000012  -0.000001  -0.000002
    14  C   -0.000027  -0.000575   0.000002  -0.000059
    15  H   -0.000001  -0.000000   0.000000  -0.000001
    16  C    0.000057   0.000964  -0.000003   0.000102
    17  H   -0.000009   0.000102   0.000002  -0.000025
    18  H    0.000001  -0.000003  -0.000000   0.000002
    19  C   -0.003521   0.003969  -0.002981   0.009778
    20  H   -0.000264  -0.000664   0.000028   0.000023
    21  C    0.001504  -0.062079   0.006342  -0.014433
    22  H   -0.000052   0.003942  -0.000091  -0.000362
    23  C    0.385853   0.353716  -0.045049  -0.034323
    24  H   -0.020427  -0.054079  -0.001115  -0.008112
    25  H    0.568977  -0.023195  -0.008053   0.006788
    26  C   -0.023195   4.932248   0.437735   0.401920
    27  H   -0.008053   0.437735   0.537590  -0.021753
    28  H    0.006788   0.401920  -0.021753   0.586632
          Atomic-Atomic Spin Densities.
               1          2          3          4          5          6
     1  C   -0.000001  -0.000000   0.000000   0.000000  -0.000000  -0.000000
     2  C   -0.000000   0.000000   0.000000   0.000000  -0.000000  -0.000000
     3  H    0.000000   0.000000   0.000000  -0.000000  -0.000000   0.000000
     4  H    0.000000   0.000000  -0.000000   0.000000   0.000000  -0.000000
     5  C   -0.000000  -0.000000  -0.000000   0.000000  -0.000000   0.000000
     6  C   -0.000000  -0.000000   0.000000  -0.000000   0.000000  -0.000000
     7  H   -0.000000   0.000000   0.000000  -0.000000  -0.000000  -0.000000
     8  H    0.000000   0.000000  -0.000000  -0.000000  -0.000000  -0.000000
     9  C   -0.000000   0.000000  -0.000000  -0.000000  -0.000000   0.000000
    10  H   -0.000000  -0.000000  -0.000000   0.000000  -0.000000   0.000000
    11  H    0.000000  -0.000000   0.000000   0.000000   0.000000  -0.000000
    12  C    0.000000   0.000000   0.000000  -0.000000  -0.000000   0.000000
    13  H    0.000000   0.000000   0.000000  -0.000000   0.000000  -0.000000
    14  C   -0.000000   0.000000  -0.000000  -0.000000   0.000000   0.000000
    15  H    0.000000  -0.000000  -0.000000   0.000000  -0.000000  -0.000000
    16  C   -0.000000   0.000000   0.000000   0.000000  -0.000000  -0.000000
    17  H   -0.000000  -0.000000  -0.000000   0.000000   0.000000  -0.000000
    18  H   -0.000000   0.000000  -0.000000   0.000000   0.000000   0.000000
    19  C    0.000000  -0.000000   0.000000   0.000000  -0.000000   0.000000
    20  H   -0.000000   0.000000   0.000000   0.000000  -0.000000  -0.000000
    21  C    0.000000  -0.000000  -0.000000  -0.000000   0.000000  -0.000000
    22  H   -0.000000   0.000000  -0.000000  -0.000000   0.000000  -0.000000
    23  C   -0.000000  -0.000000   0.000000  -0.000000  -0.000000  -0.000000
    24  H   -0.000000   0.000000  -0.000000   0.000000   0.000000   0.000000
    25  H   -0.000000  -0.000000   0.000000   0.000000   0.000000   0.000000
    26  C    0.000000   0.000000  -0.000000  -0.000000   0.000000  -0.000000
    27  H    0.000000  -0.000000  -0.000000   0.000000   0.000000  -0.000000
    28  H    0.000000   0.000000  -0.000000   0.000000  -0.000000   0.000000
               7          8          9         10         11         12
     1  C   -0.000000   0.000000  -0.000000  -0.000000   0.000000   0.000000
     2  C    0.000000   0.000000   0.000000  -0.000000  -0.000000   0.000000
     3  H    0.000000  -0.000000  -0.000000  -0.000000   0.000000   0.000000
     4  H   -0.000000  -0.000000  -0.000000   0.000000   0.000000  -0.000000
     5  C   -0.000000  -0.000000  -0.000000  -0.000000   0.000000  -0.000000
     6  C   -0.000000  -0.000000   0.000000   0.000000  -0.000000   0.000000
     7  H    0.000000  -0.000000   0.000000  -0.000000  -0.000000  -0.000000
     8  H   -0.000000  -0.000000   0.000000  -0.000000  -0.000000   0.000000
     9  C    0.000000   0.000000  -0.000001  -0.000000   0.000000  -0.000000
    10  H   -0.000000  -0.000000  -0.000000   0.000000  -0.000000   0.000000
    11  H   -0.000000  -0.000000   0.000000  -0.000000   0.000000  -0.000000
    12  C   -0.000000   0.000000  -0.000000   0.000000  -0.000000   0.000000
    13  H    0.000000   0.000000   0.000000  -0.000000  -0.000000  -0.000000
    14  C    0.000000  -0.000000   0.000000   0.000000   0.000000  -0.000000
    15  H   -0.000000   0.000000  -0.000000  -0.000000   0.000000   0.000000
    16  C   -0.000000   0.000000   0.000000  -0.000000  -0.000000   0.000000
    17  H   -0.000000  -0.000000   0.000000   0.000000  -0.000000   0.000000
    18  H    0.000000  -0.000000   0.000000   0.000000  -0.000000  -0.000000
    19  C    0.000000  -0.000000   0.000000  -0.000000  -0.000000  -0.000000
    20  H    0.000000   0.000000   0.000000  -0.000000   0.000000   0.000000
    21  C   -0.000000   0.000000  -0.000000   0.000000   0.000000  -0.000000
    22  H   -0.000000   0.000000  -0.000000   0.000000   0.000000   0.000000
    23  C   -0.000000   0.000000  -0.000000  -0.000000   0.000000   0.000000
    24  H   -0.000000  -0.000000  -0.000000   0.000000  -0.000000  -0.000000
    25  H    0.000000  -0.000000   0.000000  -0.000000  -0.000000  -0.000000
    26  C   -0.000000  -0.000000   0.000000   0.000000  -0.000000  -0.000000
    27  H   -0.000000  -0.000000  -0.000000   0.000000  -0.000000  -0.000000
    28  H    0.000000  -0.000000   0.000000   0.000000  -0.000000  -0.000000
              13         14         15         16         17         18
     1  C    0.000000  -0.000000   0.000000  -0.000000  -0.000000  -0.000000
     2  C    0.000000   0.000000  -0.000000   0.000000  -0.000000   0.000000
     3  H    0.000000  -0.000000  -0.000000   0.000000  -0.000000  -0.000000
     4  H   -0.000000  -0.000000   0.000000   0.000000   0.000000   0.000000
     5  C    0.000000   0.000000  -0.000000  -0.000000   0.000000   0.000000
     6  C   -0.000000   0.000000  -0.000000  -0.000000  -0.000000   0.000000
     7  H    0.000000   0.000000  -0.000000  -0.000000  -0.000000   0.000000
     8  H    0.000000  -0.000000   0.000000   0.000000  -0.000000  -0.000000
     9  C    0.000000   0.000000  -0.000000   0.000000   0.000000   0.000000
    10  H   -0.000000   0.000000  -0.000000  -0.000000   0.000000   0.000000
    11  H   -0.000000   0.000000   0.000000  -0.000000  -0.000000  -0.000000
    12  C   -0.000000  -0.000000   0.000000   0.000000   0.000000  -0.000000
    13  H   -0.000000   0.000000   0.000000  -0.000000  -0.000000   0.000000
    14  C    0.000000   0.000001  -0.000000  -0.000000  -0.000000  -0.000000
    15  H    0.000000  -0.000000  -0.000000   0.000000   0.000000   0.000000
    16  C   -0.000000  -0.000000   0.000000   0.000001  -0.000000  -0.000000
    17  H   -0.000000  -0.000000   0.000000  -0.000000   0.000000   0.000000
    18  H    0.000000  -0.000000   0.000000  -0.000000   0.000000  -0.000000
    19  C   -0.000000   0.000000   0.000000  -0.000000   0.000000  -0.000000
    20  H    0.000000   0.000000  -0.000000   0.000000  -0.000000   0.000000
    21  C   -0.000000  -0.000000  -0.000000   0.000000   0.000000   0.000000
    22  H    0.000000  -0.000000  -0.000000   0.000000  -0.000000   0.000000
    23  C    0.000000   0.000000   0.000000  -0.000000  -0.000000   0.000000
    24  H   -0.000000  -0.000000  -0.000000   0.000000   0.000000   0.000000
    25  H   -0.000000   0.000000   0.000000  -0.000000  -0.000000  -0.000000
    26  C   -0.000000   0.000000  -0.000000  -0.000000   0.000000   0.000000
    27  H   -0.000000   0.000000   0.000000  -0.000000   0.000000   0.000000
    28  H    0.000000   0.000000   0.000000  -0.000000   0.000000  -0.000000
              19         20         21         22         23         24
     1  C    0.000000  -0.000000   0.000000  -0.000000  -0.000000  -0.000000
     2  C   -0.000000   0.000000  -0.000000   0.000000  -0.000000   0.000000
     3  H    0.000000   0.000000  -0.000000  -0.000000   0.000000  -0.000000
     4  H    0.000000   0.000000  -0.000000  -0.000000  -0.000000   0.000000
     5  C   -0.000000  -0.000000   0.000000   0.000000  -0.000000   0.000000
     6  C    0.000000  -0.000000  -0.000000  -0.000000  -0.000000   0.000000
     7  H    0.000000   0.000000  -0.000000  -0.000000  -0.000000  -0.000000
     8  H   -0.000000   0.000000   0.000000   0.000000   0.000000  -0.000000
     9  C    0.000000   0.000000  -0.000000  -0.000000  -0.000000  -0.000000
    10  H   -0.000000  -0.000000   0.000000   0.000000  -0.000000   0.000000
    11  H   -0.000000   0.000000   0.000000   0.000000   0.000000  -0.000000
    12  C   -0.000000   0.000000  -0.000000   0.000000   0.000000  -0.000000
    13  H   -0.000000   0.000000  -0.000000   0.000000   0.000000  -0.000000
    14  C    0.000000   0.000000  -0.000000  -0.000000   0.000000  -0.000000
[...]
     3  H    0.000000   0.000000  -0.000000  -0.000000
     4  H    0.000000  -0.000000  -0.000000   0.000000
     5  C    0.000000   0.000000   0.000000  -0.000000
     6  C    0.000000  -0.000000  -0.000000   0.000000
     7  H    0.000000  -0.000000  -0.000000   0.000000
     8  H   -0.000000  -0.000000  -0.000000  -0.000000
     9  C   -0.000000   0.000000  -0.000000   0.000000
    10  H    0.000000   0.000000   0.000000   0.000000
    11  H   -0.000000  -0.000000   0.000000  -0.000000
    12  C   -0.000000  -0.000000  -0.000000  -0.000000
    13  H   -0.000000  -0.000000  -0.000000   0.000000
    14  C    0.000000   0.000000   0.000000   0.000000
    15  H    0.000000  -0.000000   0.000000   0.000000
    16  C   -0.000000   0.000000  -0.000000  -0.000000
    17  H    0.000000   0.000000   0.000000  -0.000000
    18  H   -0.000000   0.000000  -0.000000  -0.000000
    19  C    0.000000   0.000000  -0.000000  -0.000000
    20  H    0.000000   0.000000  -0.000000   0.000000
    21  C   -0.000000  -0.000000   0.000000  -0.000000
    22  H    0.000000   0.000000  -0.000000   0.000000
    23  C    0.000000  -0.000000  -0.000000  -0.000000
    24  H    0.000000   0.000000   0.000000   0.000000
    25  H   -0.000000   0.000000  -0.000000  -0.000000
    26  C    0.000000  -0.000001   0.000000   0.000000
    27  H   -0.000000   0.000000   0.000000  -0.000000
    28  H   -0.000000   0.000000  -0.000000   0.000000
 Mulliken charges and spin densities:
               1          2
     1  C   -0.203574   0.000001
     2  C   -0.195286  -0.000001
     3  H    0.148663  -0.000000
     4  H    0.168580   0.000000
     5  C   -0.191717   0.000001
     6  C   -0.198499  -0.000001
     7  H    0.168231   0.000000
     8  H    0.168963   0.000000
     9  C   -0.213191  -0.000001
    10  H    0.131233   0.000000
    11  H    0.141672   0.000000
    12  C   -0.160038  -0.000001
    13  H    0.151848  -0.000000
    14  C   -0.203021   0.000002
    15  H    0.148625  -0.000000
    16  C   -0.193008   0.000000
    17  H    0.116268   0.000000
    18  H    0.132716  -0.000000
    19  C   -0.191883   0.000001
    20  H    0.166994  -0.000000
    21  C   -0.160640  -0.000001
    22  H    0.151589   0.000000
    23  C   -0.213091   0.000001
    24  H    0.140786  -0.000000
    25  H    0.131288  -0.000000
    26  C   -0.193987  -0.000001
    27  H    0.133174   0.000000
    28  H    0.117306   0.000000
 Sum of Mulliken charges =  -0.00000   0.00000
 Mulliken charges and spin densities with hydrogens summed into heavy atoms:
               1          2
     1  C   -0.054910   0.000001
     2  C   -0.026706  -0.000001
     5  C   -0.023485   0.000001
     6  C   -0.029536  -0.000001
     9  C    0.059714  -0.000000
    12  C   -0.008191  -0.000001
    14  C   -0.054396   0.000002
    16  C    0.055976   0.000000
    19  C   -0.024889   0.000001
    21  C   -0.009052  -0.000001
    23  C    0.058983   0.000000
    26  C    0.056492  -0.000000
 Electronic spatial extent (au):  <R**2>=           2324.1080
 Charge=              0.0000 electrons
 Dipole moment (field-independent basis, Debye):
    X=             -0.0011    Y=             -0.0005    Z=              0.0003  Tot=              0.0012
 Quadrupole moment (field-independent basis, Debye-Ang):
   XX=            -70.3792   YY=            -68.1102   ZZ=            -75.1172
   XY=             -3.3316   XZ=             -3.8687   YZ=             -1.7270
 Traceless Quadrupole moment (field-independent basis, Debye-Ang):
   XX=              0.8230   YY=              3.0920   ZZ=             -3.9150
   XY=             -3.3316   XZ=             -3.8687   YZ=             -1.7270
 Octapole moment (field-independent basis, Debye-Ang**2):
  XXX=              0.0087  YYY=             -0.0024  ZZZ=             -0.0035  XYY=             -0.0034
  XXY=             -0.0124  XXZ=             -0.0075  XZZ=             -0.0066  YZZ=              0.0057
  YYZ=              0.0083  XYZ=             -0.0065
 Hexadecapole moment (field-independent basis, Debye-Ang**3):
 XXXX=          -2058.2852 YYYY=           -609.6937 ZZZZ=           -426.8989 XXXY=           -116.6669
 XXXZ=           -166.5439 YYYX=            -66.6884 YYYZ=             -8.1358 ZZZX=           -107.6825
 ZZZY=            -21.4211 XXYY=           -439.6768 XXZZ=           -435.3221 YYZZ=           -187.8609
 XXYZ=            -26.4775 YYXZ=            -38.7142 ZZXY=            -47.3620
 N-N= 6.724965287740D+02 E-N=-2.427602815476D+03  KE= 4.642989918674D+02
                          Isotropic Fermi Contact Couplings
        Atom                 a.u.       MegaHertz       Gauss      10(-4) cm-1
     1  C(13)              0.00000       0.00006       0.00002       0.00002
     2  C(13)             -0.00000      -0.00015      -0.00005      -0.00005
     3  H(1)              -0.00000      -0.00005      -0.00002      -0.00002
     4  H(1)               0.00000       0.00013       0.00005       0.00004
     5  C(13)             -0.00000      -0.00005      -0.00002      -0.00002
     6  C(13)             -0.00000      -0.00003      -0.00001      -0.00001
     7  H(1)               0.00000       0.00018       0.00007       0.00006
     8  H(1)              -0.00000      -0.00001      -0.00000      -0.00000
     9  C(13)             -0.00000      -0.00023      -0.00008      -0.00008
    10  H(1)               0.00000       0.00005       0.00002       0.00002
    11  H(1)               0.00000       0.00011       0.00004       0.00004
    12  C(13)              0.00000       0.00000       0.00000       0.00000
    13  H(1)              -0.00000      -0.00014      -0.00005      -0.00005
    14  C(13)              0.00000       0.00012       0.00004       0.00004
    15  H(1)              -0.00000      -0.00007      -0.00002      -0.00002
    16  C(13)              0.00000       0.00009       0.00003       0.00003
    17  H(1)               0.00000       0.00005       0.00002       0.00002
    18  H(1)               0.00000       0.00000       0.00000       0.00000
    19  C(13)              0.00000       0.00024       0.00009       0.00008
    20  H(1)              -0.00000      -0.00028      -0.00010      -0.00009
    21  C(13)             -0.00000      -0.00019      -0.00007      -0.00006
    22  H(1)               0.00000       0.00023       0.00008       0.00008
    23  C(13)              0.00000       0.00031       0.00011       0.00010
    24  H(1)              -0.00000      -0.00017      -0.00006      -0.00006
    25  H(1)              -0.00000      -0.00019      -0.00007      -0.00006
    26  C(13)             -0.00000      -0.00017      -0.00006      -0.00006
    27  H(1)               0.00000       0.00006       0.00002       0.00002
    28  H(1)               0.00000       0.00010       0.00004       0.00003
 --------------------------------------------------------
       Center         ----  Spin Dipole Couplings  ----
                      3XX-RR        3YY-RR        3ZZ-RR
 --------------------------------------------------------
     1   Atom       -0.000001     -0.000000      0.000001
     2   Atom        0.000000      0.000000     -0.000001
     3   Atom        0.000000     -0.000000     -0.000000
     4   Atom       -0.000000      0.000000      0.000000
     5   Atom       -0.000000     -0.000001      0.000001
     6   Atom       -0.000000      0.000001     -0.000001
     7   Atom        0.000000     -0.000000      0.000000
     8   Atom       -0.000000      0.000000     -0.000000
     9   Atom       -0.000000      0.000000     -0.000000
    10   Atom        0.000000      0.000000     -0.000000
    11   Atom        0.000000     -0.000000      0.000000
    12   Atom        0.000001      0.000001     -0.000002
    13   Atom        0.000000      0.000000     -0.000000
    14   Atom        0.000000     -0.000001      0.000001
    15   Atom        0.000000     -0.000000      0.000000
    16   Atom        0.000000     -0.000000      0.000000
    17   Atom       -0.000000      0.000000     -0.000000
    18   Atom       -0.000000      0.000000     -0.000000
    19   Atom        0.000000     -0.000000      0.000000
    20   Atom       -0.000000      0.000000     -0.000000
    21   Atom       -0.000000      0.000000      0.000000
    22   Atom        0.000000     -0.000000      0.000000
    23   Atom        0.000000     -0.000000      0.000000
    24   Atom        0.000000      0.000000     -0.000000
    25   Atom       -0.000000     -0.000000      0.000000
    26   Atom       -0.000000      0.000000     -0.000000
    27   Atom       -0.000000     -0.000000      0.000000
    28   Atom       -0.000000      0.000000     -0.000000
 --------------------------------------------------------
                        XY            XZ            YZ
 --------------------------------------------------------
     1   Atom        0.000000      0.000000      0.000000
     2   Atom        0.000000     -0.000000     -0.000000
     3   Atom        0.000000      0.000000      0.000000
     4   Atom       -0.000000      0.000000      0.000000
     5   Atom        0.000000      0.000001      0.000000
     6   Atom       -0.000000     -0.000001     -0.000000
     7   Atom        0.000000      0.000000     -0.000000
     8   Atom       -0.000000      0.000000     -0.000000
     9   Atom       -0.000000      0.000000     -0.000000
    10   Atom        0.000000     -0.000000      0.000000
    11   Atom       -0.000000     -0.000000     -0.000000
    12   Atom        0.000000     -0.000001     -0.000000
    13   Atom       -0.000000     -0.000000      0.000000
    14   Atom       -0.000000      0.000002     -0.000000
    15   Atom        0.000000     -0.000000     -0.000000
    16   Atom       -0.000000     -0.000000     -0.000000
    17   Atom        0.000000      0.000000      0.000000
    18   Atom       -0.000000      0.000000     -0.000000
    19   Atom        0.000000      0.000001      0.000000
    20   Atom       -0.000000     -0.000000      0.000000
    21   Atom       -0.000000     -0.000001      0.000000
    22   Atom       -0.000000     -0.000000      0.000000
    23   Atom        0.000000     -0.000000      0.000000
    24   Atom        0.000000      0.000000      0.000000
    25   Atom       -0.000000      0.000000     -0.000000
    26   Atom        0.000000      0.000000      0.000000
    27   Atom        0.000000     -0.000000      0.000000
    28   Atom        0.000000     -0.000000     -0.000000
 --------------------------------------------------------


 ---------------------------------------------------------------------------------
              Anisotropic Spin Dipole Couplings in Principal Axis System
 ---------------------------------------------------------------------------------

       Atom             a.u.   MegaHertz   Gauss  10(-4) cm-1        Axes

              Baa    -0.0000    -0.000    -0.000    -0.000  0.9092 -0.3973 -0.1247
     1 C(13)  Bbb    -0.0000    -0.000    -0.000    -0.000  0.3837  0.9156 -0.1201
              Bcc     0.0000     0.000     0.000     0.000  0.1619  0.0614  0.9849
 
              Baa    -0.0000    -0.000    -0.000    -0.000  0.2615  0.1976  0.9448
     2 C(13)  Bbb     0.0000     0.000     0.000     0.000  0.7398 -0.6697 -0.0647
              Bcc     0.0000     0.000     0.000     0.000  0.6200  0.7158 -0.3213
 
              Baa    -0.0000    -0.000    -0.000    -0.000 -0.0802  0.9003 -0.4279
     3 H(1)   Bbb    -0.0000    -0.000    -0.000    -0.000 -0.0503  0.4251  0.9037
              Bcc     0.0000     0.000     0.000     0.000  0.9955  0.0940  0.0112
 
              Baa    -0.0000    -0.000    -0.000    -0.000  0.9661  0.1225 -0.2273
     4 H(1)   Bbb     0.0000     0.000     0.000     0.000  0.2255  0.0289  0.9738
              Bcc     0.0000     0.000     0.000     0.000 -0.1258  0.9921 -0.0003
 
              Baa    -0.0000    -0.000    -0.000    -0.000 -0.3688  0.9291  0.0266
     5 C(13)  Bbb    -0.0000    -0.000    -0.000    -0.000  0.8844  0.3595 -0.2978
              Bcc     0.0000     0.000     0.000     0.000  0.2863  0.0863  0.9543
 
              Baa    -0.0000    -0.000    -0.000    -0.000  0.5914  0.2056  0.7797
     6 C(13)  Bbb     0.0000     0.000     0.000     0.000  0.3413  0.8122 -0.4731
              Bcc     0.0000     0.000     0.000     0.000  0.7306 -0.5459 -0.4101
 
              Baa    -0.0000    -0.000    -0.000    -0.000 -0.0977  0.9905  0.0967
     7 H(1)   Bbb    -0.0000    -0.000    -0.000    -0.000  0.8254  0.1350 -0.5482
              Bcc     0.0000     0.000     0.000     0.000  0.5561 -0.0263  0.8307
 
              Baa    -0.0000    -0.000    -0.000    -0.000 -0.5521  0.0942  0.8285
     8 H(1)   Bbb     0.0000     0.000     0.000     0.000  0.8272  0.1869  0.5299
              Bcc     0.0000     0.000     0.000     0.000 -0.1049  0.9779 -0.1811
 
              Baa    -0.0000    -0.000    -0.000    -0.000  0.9348  0.3094 -0.1745
     9 C(13)  Bbb    -0.0000    -0.000    -0.000    -0.000  0.0829  0.2875  0.9542
              Bcc     0.0000     0.000     0.000     0.000 -0.3454  0.9064 -0.2431
 
              Baa    -0.0000    -0.000    -0.000    -0.000  0.5362 -0.2314  0.8118
    10 H(1)   Bbb     0.0000     0.000     0.000     0.000 -0.3998  0.7774  0.4857
              Bcc     0.0000     0.000     0.000     0.000  0.7434  0.5849 -0.3243
 
              Baa    -0.0000    -0.000    -0.000    -0.000  0.4920  0.8626  0.1177
    11 H(1)   Bbb     0.0000     0.000     0.000     0.000  0.7499 -0.3512 -0.5607
              Bcc     0.0000     0.000     0.000     0.000  0.4423 -0.3641  0.8196
 
              Baa    -0.0000    -0.000    -0.000    -0.000  0.3383  0.0225  0.9408
    12 C(13)  Bbb     0.0000     0.000     0.000     0.000  0.9324 -0.1429 -0.3319
              Bcc     0.0000     0.000     0.000     0.000  0.1270  0.9895 -0.0693
 
              Baa    -0.0000    -0.000    -0.000    -0.000  0.5219  0.2516  0.8150
    13 H(1)   Bbb    -0.0000    -0.000    -0.000    -0.000  0.4692  0.7133 -0.5207
              Bcc     0.0000     0.000     0.000     0.000  0.7123 -0.6542 -0.2542
 
              Baa    -0.0000    -0.000    -0.000    -0.000 -0.5278  0.6769  0.5131
    14 C(13)  Bbb    -0.0000    -0.000    -0.000    -0.000  0.5621  0.7312 -0.3865
              Bcc     0.0000     0.000     0.000     0.000  0.6368 -0.0844  0.7664
 
              Baa    -0.0000    -0.000    -0.000    -0.000 -0.0907  0.9876  0.1278
    15 H(1)   Bbb    -0.0000    -0.000    -0.000    -0.000  0.8033 -0.0033  0.5956
              Bcc     0.0000     0.000     0.000     0.000 -0.5887 -0.1567  0.7930
 
              Baa    -0.0000    -0.000    -0.000    -0.000  0.2058  0.9481  0.2424
    16 C(13)  Bbb    -0.0000    -0.000    -0.000    -0.000  0.6849 -0.3164  0.6563
              Bcc     0.0000     0.000     0.000     0.000 -0.6990 -0.0309  0.7145
 
              Baa    -0.0000    -0.000    -0.000    -0.000  0.7874 -0.5971 -0.1536
    17 H(1)   Bbb    -0.0000    -0.000    -0.000    -0.000 -0.1525 -0.4301  0.8898
              Bcc     0.0000     0.000     0.000     0.000  0.5973  0.6772  0.4297
 
              Baa    -0.0000    -0.000    -0.000    -0.000 -0.1308  0.2754  0.9524
    18 H(1)   Bbb    -0.0000    -0.000    -0.000    -0.000  0.8966  0.4428 -0.0049
              Bcc     0.0000     0.000     0.000     0.000 -0.4230  0.8533 -0.3049
 
              Baa    -0.0000    -0.000    -0.000    -0.000 -0.5322 -0.4398  0.7234
    19 C(13)  Bbb    -0.0000    -0.000    -0.000    -0.000 -0.4915  0.8562  0.1589
              Bcc     0.0000     0.000     0.000     0.000  0.6893  0.2710  0.6719
 
              Baa    -0.0000    -0.000    -0.000    -0.000  0.6094  0.5605 -0.5608
    20 H(1)   Bbb    -0.0000    -0.000    -0.000    -0.000  0.5858  0.1584  0.7948
              Bcc     0.0000     0.000     0.000     0.000 -0.5343  0.8129  0.2318
 
              Baa    -0.0000    -0.000    -0.000    -0.000  0.8225 -0.0717  0.5643
    21 C(13)  Bbb    -0.0000    -0.000    -0.000    -0.000  0.2392  0.9437 -0.2286
              Bcc     0.0000     0.000     0.000     0.000 -0.5161  0.3230  0.7933
 
              Baa    -0.0000    -0.000    -0.000    -0.000  0.3243  0.9029 -0.2821
    22 H(1)   Bbb     0.0000     0.000     0.000     0.000  0.7151 -0.0388  0.6980
              Bcc     0.0000     0.000     0.000     0.000 -0.6192  0.4281  0.6582
 
              Baa    -0.0000    -0.000    -0.000    -0.000 -0.4116  0.8629 -0.2934
    23 C(13)  Bbb     0.0000     0.000     0.000     0.000  0.2919  0.4298  0.8544
              Bcc     0.0000     0.000     0.000     0.000  0.8634  0.2660 -0.4288
 
              Baa    -0.0000    -0.000    -0.000    -0.000  0.6969 -0.6368  0.3299
    24 H(1)   Bbb    -0.0000    -0.000    -0.000    -0.000 -0.3207  0.1348  0.9375
              Bcc     0.0000     0.000     0.000     0.000  0.6415  0.7591  0.1102
 
              Baa    -0.0000    -0.000    -0.000    -0.000 -0.4278  0.8477  0.3138
    25 H(1)   Bbb    -0.0000    -0.000    -0.000    -0.000  0.8070  0.5146 -0.2898
              Bcc     0.0000     0.000     0.000     0.000  0.4071 -0.1292  0.9042
 
              Baa    -0.0000    -0.000    -0.000    -0.000 -0.6988 -0.0016  0.7153
    26 C(13)  Bbb     0.0000     0.000     0.000     0.000  0.6417 -0.4432  0.6260
              Bcc     0.0000     0.000     0.000     0.000  0.3160  0.8964  0.3107
 
              Baa    -0.0000    -0.000    -0.000    -0.000  0.7254 -0.6452  0.2397
    27 H(1)   Bbb     0.0000     0.000     0.000     0.000 -0.3446 -0.0391  0.9379
              Bcc     0.0000     0.000     0.000     0.000  0.5958  0.7630  0.2507
 
              Baa    -0.0000    -0.000    -0.000    -0.000  0.3949  0.3045  0.8668
    28 H(1)   Bbb    -0.0000    -0.000    -0.000    -0.000  0.8795 -0.3979 -0.2610
              Bcc     0.0000     0.000     0.000     0.000  0.2654  0.8654 -0.4249
 

 ---------------------------------------------------------------------------------

 No NMR shielding tensors so no spin-rotation constants.
 Leave Link  601 at Tue Aug  4 00:04:54 2020, MaxMem=  6442450944 cpu:               8.4 elap:               0.7
 (Enter /scratch/scicomp/CentOS/7.3.1611/Haswell/software/Gaussian/g16/l9999.exe)
 1\1\GINC-ATLAS-205\SP\UwB97XD\def2TZVP\C12H16\BOCHEN\04-Aug-2020\0\\#p
  uwb97xd guess=mix def2tzvp # scrf=(iefpcm,solvent=Cyclohexane,read) n
 osym 6d 10f\\endo-2 xp-pcm for eta=3\\0,1\C,0,-3.12468,-0.440685,0.273
 036\C,0,-0.775792,-0.261985,-1.302176\H,0,-4.054066,-0.525819,0.82419\
 H,0,0.161604,-0.184531,-1.839436\C,0,1.198536,1.432924,0.834184\C,0,0.
 775792,0.261985,1.302176\H,0,0.608196,2.330179,0.977711\H,0,-0.161604,
 0.184531,1.839436\C,0,1.605227,-0.981794,1.161635\H,0,2.176937,-1.1082
 68,2.090145\H,0,0.956297,-1.855279,1.083849\C,0,2.471867,1.533139,0.11
 9408\H,0,2.871405,2.516926,-0.096077\C,0,3.12468,0.440685,-0.273036\H,
 0,4.054066,0.525819,-0.82419\C,0,2.563488,-0.934271,-0.032474\H,0,2.04
 3317,-1.256129,-0.942998\H,0,3.372415,-1.652191,0.115362\C,0,-1.198536
 ,-1.432924,-0.834184\H,0,-0.608196,-2.330179,-0.977711\C,0,-2.471867,-
 1.533139,-0.119408\H,0,-2.871405,-2.516926,0.096077\C,0,-1.605227,0.98
 1794,-1.161635\H,0,-0.956297,1.855279,-1.083849\H,0,-2.176937,1.108268
 ,-2.090145\C,0,-2.563488,0.934271,0.032474\H,0,-3.372415,1.652191,-0.1
 15362\H,0,-2.043317,1.256129,0.942998\\Version=ES64L-G16RevB.01\HF=-46
 6.810775\S2=0.\S2-1=0.\S2A=0.\RMSD=8.831e-09\Dipole=-0.0004146,-0.0001
 82,0.0001002\Quadrupole=0.6118853,2.2988184,-2.9107037,-2.4769786,-2.8
 762868,-1.2839758\PG=CI [X(C12H16)]\\@


 THE MORE ACCURATE THE CALCULATIONS BECOME, THE MORE THE CONCEPTS
 TEND TO VANISH INTO THIN AIR.
     -- R.S. MULLIKEN, J.C.P. 43,S2(1965)
 Job cpu time:       0 days  2 hours  7 minutes 41.3 seconds.
 Elapsed time:       0 days  0 hours  5 minutes 22.9 seconds.
 File lengths (MBytes):  RWF=    645 Int=      0 D2E=      0 Chk=     24 Scr=      1
 Normal termination of Gaussian 16 at Tue Aug  4 00:04:54 2020.
