 Entering Gaussian System, Link 0=g16
 Input=meso-TS_85_2_xp-Ger.com
 Output=meso-TS_85_2_xp-Ger.log
 Initial command:
 /scratch/scicomp/CentOS/7.3.1611/Haswell/software/Gaussian/g16/l1.exe "/scratch/bochen/cyclohexadiene-dimerization/wb97xd-def2tzvp/xp-pcm/meso/Gau-146780.inp" -scrdir="/scratch/bochen/cyclohexadiene-dimerization/wb97xd-def2tzvp/xp-pcm/meso/"
 Entering Link 1 = /scratch/scicomp/CentOS/7.3.1611/Haswell/software/Gaussian/g16/l1.exe PID=    146781.
  
 Copyright (c) 1988-2017, Gaussian, Inc.  All Rights Reserved.
  
 This is part of the Gaussian(R) 16 program.  It is based on
 the Gaussian(R) 09 system (copyright 2009, Gaussian, Inc.),
 the Gaussian(R) 03 system (copyright 2003, Gaussian, Inc.),
 the Gaussian(R) 98 system (copyright 1998, Gaussian, Inc.),
 the Gaussian(R) 94 system (copyright 1995, Gaussian, Inc.),
 the Gaussian 92(TM) system (copyright 1992, Gaussian, Inc.),
 the Gaussian 90(TM) system (copyright 1990, Gaussian, Inc.),
 the Gaussian 88(TM) system (copyright 1988, Gaussian, Inc.),
 the Gaussian 86(TM) system (copyright 1986, Carnegie Mellon
 University), and the Gaussian 82(TM) system (copyright 1983,
 Carnegie Mellon University). Gaussian is a federally registered
 trademark of Gaussian, Inc.
  
 This software contains proprietary and confidential information,
 including trade secrets, belonging to Gaussian, Inc.
  
 This software is provided under written license and may be
 used, copied, transmitted, or stored only in accord with that
 written license.
  
 The following legend is applicable only to US Government
 contracts under FAR:
  
                    RESTRICTED RIGHTS LEGEND
  
 Use, reproduction and disclosure by the US Government is
 subject to restrictions as set forth in subparagraphs (a)
 and (c) of the Commercial Computer Software - Restricted
 Rights clause in FAR 52.227-19.
  
 Gaussian, Inc.
 340 Quinnipiac St., Bldg. 40, Wallingford CT 06492
  
  
 ---------------------------------------------------------------
 Warning -- This program may not be used in any manner that
 competes with the business of Gaussian, Inc. or will provide
 assistance to any competitor of Gaussian, Inc.  The licensee
 of this program is prohibited from giving any competitor of
 Gaussian, Inc. access to this program.  By using this program,
 the user acknowledges that Gaussian, Inc. is engaged in the
 business of creating and licensing software in the field of
 computational chemistry and represents and warrants to the
 licensee that it is not a competitor of Gaussian, Inc. and that
 it will not use this program in any manner prohibited above.
 ---------------------------------------------------------------
  

 Cite this work as:
 Gaussian 16, Revision B.01,
 M. J. Frisch, G. W. Trucks, H. B. Schlegel, G. E. Scuseria, 
 M. A. Robb, J. R. Cheeseman, G. Scalmani, V. Barone, 
 G. A. Petersson, H. Nakatsuji, X. Li, M. Caricato, A. V. Marenich, 
 J. Bloino, B. G. Janesko, R. Gomperts, B. Mennucci, H. P. Hratchian, 
 J. V. Ortiz, A. F. Izmaylov, J. L. Sonnenberg, D. Williams-Young, 
 F. Ding, F. Lipparini, F. Egidi, J. Goings, B. Peng, A. Petrone, 
 T. Henderson, D. Ranasinghe, V. G. Zakrzewski, J. Gao, N. Rega, 
 G. Zheng, W. Liang, M. Hada, M. Ehara, K. Toyota, R. Fukuda, 
 J. Hasegawa, M. Ishida, T. Nakajima, Y. Honda, O. Kitao, H. Nakai, 
 T. Vreven, K. Throssell, J. A. Montgomery, Jr., J. E. Peralta, 
 F. Ogliaro, M. J. Bearpark, J. J. Heyd, E. N. Brothers, K. N. Kudin, 
 V. N. Staroverov, T. A. Keith, R. Kobayashi, J. Normand, 
 K. Raghavachari, A. P. Rendell, J. C. Burant, S. S. Iyengar, 
 J. Tomasi, M. Cossi, J. M. Millam, M. Klene, C. Adamo, R. Cammi, 
 J. W. Ochterski, R. L. Martin, K. Morokuma, O. Farkas, 
 J. B. Foresman, and D. J. Fox, Gaussian, Inc., Wallingford CT, 2016.
 
 ******************************************
 Gaussian 16:  ES64L-G16RevB.01 20-Dec-2017
                 3-Aug-2020 
 ******************************************
 %chk=meso-TS_85_2_xp-12.chk
 %nproc=24
 Will use up to   24 processors via shared memory.
 %mem=48GB
 ----------------------------------------------------------------------
 #p uwb97xd guess=mix def2tzvp # scrf=(iefpcm,solvent=Cyclohexane,read)
  nosym 6d 10f
 ----------------------------------------------------------------------
 1/38=1,40=2,172=1/1;
 2/12=2,15=1,17=6,18=5,40=1/2;
 3/5=44,7=101,8=22,11=2,25=1,30=1,70=2203,72=17,74=-58,116=2/1,2,3;
 4/13=-1/1;
 5/5=2,38=5,53=17/2;
 6/7=2,8=2,9=2,10=2,28=1/1;
 99/5=1,9=1/99;
 Leave Link    1 at Mon Aug  3 19:06:57 2020, MaxMem=  6442450944 cpu:               3.7 elap:               0.2
 (Enter /scratch/scicomp/CentOS/7.3.1611/Haswell/software/Gaussian/g16/l101.exe)
 -----------------------
 endo-2 xp-pcm for eta=3
 -----------------------
 Symbolic Z-matrix:
 Charge =  0 Multiplicity = 1
 6                    -3.10656  -0.43738   0.29194 
 6                    -0.84844  -0.28319  -1.41236 
 1                    -4.00958  -0.50962   0.88693 
 1                     0.05994  -0.21558  -1.99903 
 6                     1.25045   1.44814   0.9104 
 6                     0.84844   0.28319   1.41236 
 1                     0.67092   2.3492    1.07337 
 1                    -0.05994   0.21558   1.99903 
 6                     1.67109  -0.96135   1.23751 
 1                     2.31691  -1.06727   2.11928 
 1                     1.02412  -1.84005   1.22447 
 6                     2.49149   1.53748   0.13881 
 1                     2.89451   2.51724  -0.08812 
 6                     3.10656   0.43738  -0.29194 
 1                     4.00958   0.50962  -0.88693 
 6                     2.52739  -0.92595  -0.03 
 1                     1.91689  -1.21141  -0.89542 
 1                     3.32181  -1.67133   0.03759 
 6                    -1.25045  -1.44814  -0.9104 
 1                    -0.67092  -2.3492   -1.07337 
 6                    -2.49149  -1.53748  -0.13881 
 1                    -2.89451  -2.51724   0.08812 
 6                    -1.67109   0.96135  -1.23751 
 1                    -1.02412   1.84005  -1.22447 
 1                    -2.31691   1.06727  -2.11928 
 6                    -2.52739   0.92595   0.03 
 1                    -3.32181   1.67133  -0.03759 
 1                    -1.91689   1.21141   0.89542 
 
 ITRead=  0  0  0  0  0  0  0  0  0  0  0  0  0  0  0  0  0  0  0  0
 ITRead=  0  0  0  0  0  0  0  0
 MicOpt= -1 -1 -1 -1 -1 -1 -1 -1 -1 -1 -1 -1 -1 -1 -1 -1 -1 -1 -1 -1
 MicOpt= -1 -1 -1 -1 -1 -1 -1 -1
 NAtoms=     28 NQM=       28 NQMF=       0 NMMI=      0 NMMIF=      0
                NMic=       0 NMicF=      0.
                    Isotopes and Nuclear Properties:
 (Nuclear quadrupole moments (NQMom) in fm**2, nuclear magnetic moments (NMagM)
  in nuclear magnetons)

  Atom         1           2           3           4           5           6           7           8           9          10
 IAtWgt=          12          12           1           1          12          12           1           1          12           1
 AtmWgt=  12.0000000  12.0000000   1.0078250   1.0078250  12.0000000  12.0000000   1.0078250   1.0078250  12.0000000   1.0078250
 NucSpn=           0           0           1           1           0           0           1           1           0           1
 AtZEff=  -0.0000000  -0.0000000  -0.0000000  -0.0000000  -0.0000000  -0.0000000  -0.0000000  -0.0000000  -0.0000000  -0.0000000
 NQMom=    0.0000000   0.0000000   0.0000000   0.0000000   0.0000000   0.0000000   0.0000000   0.0000000   0.0000000   0.0000000
 NMagM=    0.0000000   0.0000000   2.7928460   2.7928460   0.0000000   0.0000000   2.7928460   2.7928460   0.0000000   2.7928460
 AtZNuc=   6.0000000   6.0000000   1.0000000   1.0000000   6.0000000   6.0000000   1.0000000   1.0000000   6.0000000   1.0000000

  Atom        11          12          13          14          15          16          17          18          19          20
 IAtWgt=           1          12           1          12           1          12           1           1          12           1
 AtmWgt=   1.0078250  12.0000000   1.0078250  12.0000000   1.0078250  12.0000000   1.0078250   1.0078250  12.0000000   1.0078250
 NucSpn=           1           0           1           0           1           0           1           1           0           1
 AtZEff=  -0.0000000  -0.0000000  -0.0000000  -0.0000000  -0.0000000  -0.0000000  -0.0000000  -0.0000000  -0.0000000  -0.0000000
 NQMom=    0.0000000   0.0000000   0.0000000   0.0000000   0.0000000   0.0000000   0.0000000   0.0000000   0.0000000   0.0000000
 NMagM=    2.7928460   0.0000000   2.7928460   0.0000000   2.7928460   0.0000000   2.7928460   2.7928460   0.0000000   2.7928460
 AtZNuc=   1.0000000   6.0000000   1.0000000   6.0000000   1.0000000   6.0000000   1.0000000   1.0000000   6.0000000   1.0000000

  Atom        21          22          23          24          25          26          27          28
 IAtWgt=          12           1          12           1           1          12           1           1
 AtmWgt=  12.0000000   1.0078250  12.0000000   1.0078250   1.0078250  12.0000000   1.0078250   1.0078250
 NucSpn=           0           1           0           1           1           0           1           1
 AtZEff=  -0.0000000  -0.0000000  -0.0000000  -0.0000000  -0.0000000  -0.0000000  -0.0000000  -0.0000000
 NQMom=    0.0000000   0.0000000   0.0000000   0.0000000   0.0000000   0.0000000   0.0000000   0.0000000
 NMagM=    0.0000000   2.7928460   0.0000000   2.7928460   2.7928460   0.0000000   2.7928460   2.7928460
 AtZNuc=   6.0000000   1.0000000   6.0000000   1.0000000   1.0000000   6.0000000   1.0000000   1.0000000
 Leave Link  101 at Mon Aug  3 19:06:57 2020, MaxMem=  6442450944 cpu:               2.4 elap:               0.1
 (Enter /scratch/scicomp/CentOS/7.3.1611/Haswell/software/Gaussian/g16/l202.exe)
                          Input orientation:                          
 ---------------------------------------------------------------------
 Center     Atomic      Atomic             Coordinates (Angstroms)
 Number     Number       Type             X           Y           Z
 ---------------------------------------------------------------------
      1          6           0       -3.106560   -0.437378    0.291938
      2          6           0       -0.848443   -0.283188   -1.412362
      3          1           0       -4.009580   -0.509623    0.886930
      4          1           0        0.059937   -0.215575   -1.999027
      5          6           0        1.250446    1.448137    0.910401
      6          6           0        0.848443    0.283188    1.412362
      7          1           0        0.670918    2.349204    1.073365
      8          1           0       -0.059937    0.215575    1.999027
      9          6           0        1.671088   -0.961349    1.237510
     10          1           0        2.316912   -1.067273    2.119278
     11          1           0        1.024124   -1.840049    1.224471
     12          6           0        2.491494    1.537477    0.138807
     13          1           0        2.894509    2.517243   -0.088123
     14          6           0        3.106560    0.437378   -0.291938
     15          1           0        4.009580    0.509623   -0.886930
     16          6           0        2.527393   -0.925952   -0.029998
     17          1           0        1.916886   -1.211409   -0.895423
     18          1           0        3.321807   -1.671334    0.037592
     19          6           0       -1.250446   -1.448137   -0.910401
     20          1           0       -0.670918   -2.349204   -1.073365
     21          6           0       -2.491494   -1.537477   -0.138807
     22          1           0       -2.894509   -2.517243    0.088123
     23          6           0       -1.671088    0.961349   -1.237510
     24          1           0       -1.024124    1.840049   -1.224471
     25          1           0       -2.316912    1.067273   -2.119278
     26          6           0       -2.527393    0.925952    0.029998
     27          1           0       -3.321807    1.671334   -0.037592
     28          1           0       -1.916886    1.211409    0.895423
 ---------------------------------------------------------------------
                    Distance matrix (angstroms):
                    1          2          3          4          5
     1  C    0.000000
     2  C    2.833285   0.000000
     3  H    1.083827   3.915457   0.000000
     4  H    3.914642   1.083467   4.997617   0.000000
     5  C    4.787605   3.577436   5.612597   3.556687   0.000000
     6  C    4.173322   3.343541   4.950254   3.536677   1.330668
     7  H    4.758677   3.926421   5.487687   4.048578   1.083666
     8  H    3.552803   3.536677   4.166816   4.023021   2.102717
     9  C    4.898426   3.718839   5.709374   3.691498   2.467704
    10  H    5.757603   4.806947   6.469479   4.772815   2.987645
    11  H    4.460903   3.589319   5.217484   3.736243   3.310895
    12  C    5.938157   4.108056   6.856695   3.681847   1.464083
    13  H    6.699781   4.858571   7.601256   4.376602   2.200677
    14  C    6.301505   4.173322   7.275025   3.552803   2.431545
    15  H    7.275025   4.950254   8.276012   4.166816   3.424037
    16  C    5.664254   3.704098   6.614084   3.235746   2.855038
    17  H    5.219575   2.962409   6.228345   2.378631   3.283036
    18  H    6.550667   4.628207   7.471291   4.111794   3.844923
    19  C    2.431545   1.330668   3.424037   2.102717   4.237710
    20  H    3.384004   2.101156   4.286430   2.437903   4.695398
    21  C    1.331940   2.427921   2.100763   3.423104   4.900698
    22  H    2.100558   3.380657   2.431463   4.287496   5.794914
    23  C    2.521156   1.502062   3.485046   2.227444   3.658667
    24  H    3.438417   2.138762   4.346484   2.449636   3.144033
    25  H    2.949827   2.116572   3.793285   2.703622   4.695749
    26  C    1.504233   2.522161   2.234298   3.480561   3.914059
    27  H    2.145131   3.439139   2.466647   4.340950   4.674827
    28  H    2.120853   2.949790   2.709500   3.784436   3.176202
                    6          7          8          9         10
     6  C    0.000000
     7  H    2.101156   0.000000
     8  H    1.083467   2.437903   0.000000
     9  C    1.502062   3.462231   2.227444   0.000000
    10  H    2.116572   3.933897   2.703622   1.098100   0.000000
    11  H    2.138762   4.206831   2.449636   1.091259   1.751903
    12  C    2.427921   2.201544   3.423104   2.850324   3.276807
    13  H    3.380657   2.514289   4.287496   3.918503   4.249117
    14  C    2.833285   3.384004   3.914642   2.521156   2.949827
    15  H    3.915457   4.286430   4.997617   3.485046   3.793285
    16  C    2.522161   3.923080   3.480561   1.530061   2.164177
    17  H    2.949790   4.255177   3.784436   2.161562   3.044539
    18  H    3.439139   4.925928   4.340950   2.160730   2.389167
    19  C    3.577436   4.695398   3.556687   3.658667   4.695749
    20  H    3.926421   5.337041   4.048578   3.570893   4.556692
    21  C    4.108056   5.155240   3.681847   4.421907   5.332992
    22  H    4.858571   6.112714   4.376602   4.958485   5.778141
    23  C    3.718839   3.570893   3.691498   4.581772   5.593521
    24  H    3.589319   2.900423   3.736243   4.601451   5.549387
    25  H    4.806947   4.556692   4.772815   5.593521   6.632795
    26  C    3.704098   3.652869   3.235746   4.758911   5.639621
    27  H    4.628207   4.199475   4.111794   5.786701   6.629269
    28  H    2.962409   2.832485   2.378631   4.208498   4.961377
                   11         12         13         14         15
    11  H    0.000000
    12  C    3.839209   0.000000
    13  H    4.920085   1.083448   0.000000
    14  C    3.438417   1.331940   2.100558   0.000000
    15  H    4.346484   2.100763   2.431463   1.083827   0.000000
    16  C    2.160806   2.469467   3.463199   1.504233   2.234298
    17  H    2.384568   2.992688   3.938315   2.120853   2.709500
    18  H    2.591620   3.316042   4.212192   2.145131   2.466647
    19  C    3.144033   4.900698   5.794914   4.787605   5.612597
    20  H    2.900423   5.155240   6.112714   4.758677   5.487687
    21  C    3.782809   5.861961   6.741836   5.938157   6.856695
    22  H    4.135887   6.741836   7.673972   6.699781   7.601256
    23  C    4.601451   4.421907   4.958485   4.898426   5.709374
    24  H    4.871936   3.782809   4.135887   4.460903   5.217484
    25  H    5.549387   5.332992   5.778141   5.757603   6.469479
    26  C    4.657338   5.057176   5.651830   5.664254   6.614084
    27  H    5.727978   5.817517   6.273811   6.550667   7.471291
    28  H    4.250789   4.484708   5.081544   5.219575   6.228345
                   16         17         18         19         20
    16  C    0.000000
    17  H    1.096889   0.000000
    18  H    1.091447   1.748099   0.000000
    19  C    3.914059   3.176202   4.674827   0.000000
    20  H    3.652869   2.832485   4.199475   1.083666   0.000000
    21  C    5.057176   4.484708   5.817517   1.464083   2.201544
    22  H    5.651830   5.081544   6.273811   2.200677   2.514289
    23  C    4.758911   4.208498   5.786701   2.467704   3.462231
    24  H    4.657338   4.250789   5.727978   3.310895   4.206831
    25  H    5.639621   4.961377   6.629269   2.987645   3.933897
    26  C    5.383680   5.017602   6.399929   2.855038   3.923080
    27  H    6.399929   6.040694   7.437519   3.844923   4.925928
    28  H    5.017602   4.875960   6.040694   3.283036   4.255177
                   21         22         23         24         25
    21  C    0.000000
    22  H    1.083448   0.000000
    23  C    2.850324   3.918503   0.000000
    24  H    3.839209   4.920085   1.091259   0.000000
    25  H    3.276807   4.249117   1.098100   1.751903   0.000000
    26  C    2.469467   3.463199   1.530061   2.160806   2.164177
    27  H    3.316042   4.212192   2.160730   2.591620   2.389167
    28  H    2.992688   3.938315   2.161562   2.384568   3.044539
                   26         27         28
    26  C    0.000000
    27  H    1.091447   0.000000
    28  H    1.096889   1.748099   0.000000
 Symmetry turned off by external request.
 Stoichiometry    C12H16
 Framework group  CI[X(C12H16)]
 Deg. of freedom    39
 Full point group                 CI      NOp   2
 Rotational constants (GHZ):           1.6459081           0.5667964           0.5259422
 Leave Link  202 at Mon Aug  3 19:06:57 2020, MaxMem=  6442450944 cpu:               0.3 elap:               0.0
 (Enter /scratch/scicomp/CentOS/7.3.1611/Haswell/software/Gaussian/g16/l301.exe)
 Standard basis: def2TZVP (6D, 10F)
 Ernie: Thresh=  0.10000D-02 Tol=  0.10000D-05 Strict=F.
   528 basis functions,   740 primitive gaussians,   528 cartesian basis functions
    44 alpha electrons       44 beta electrons
       nuclear repulsion energy       667.2678745036 Hartrees.
 IExCor= 4639 DFT=T Ex+Corr=wB97XD ExCW=0 ScaHFX=  1.000000
 ScaDFX=  1.000000  1.000000  1.000000  1.000000 ScalE2=  1.000000  1.000000
 IRadAn=      5 IRanWt=     -1 IRanGd=            0 ICorTp=0 IEmpDi=121
 HFx  wShort=  0.000000 wLong=  0.200000 cFull=  0.222036 cShort=  0.000000 cLong=  0.777964
 DFx  wShort=  0.000000 wLong=  0.200000 cFull=  0.000000 cShort=  0.000000 cLong=  1.000000
 NAtoms=   28 NActive=   28 NUniq=   28 SFac= 1.00D+00 NAtFMM=   60 NAOKFM=F Big=F
 Integral buffers will be    131072 words long.
 Raffenetti 2 integral format.
 Two-electron integral symmetry is turned off.
 R6Disp:  Grimme-D2 Dispersion energy=       -0.0205653165 Hartrees.
 Nuclear repulsion after empirical dispersion term =      667.2473091871 Hartrees.
 Using the following non-standard input for PCM:
 qrep pcmdoc geomview  nodis nocav g03defaults tsare=0.075
 Warning! Using old PCM defaults because the g03defaults keyword was found.
 These settings can be overridden by following keywords.
 nsfe=28
 NVESolv=36  SolvMW=84.1595   Rsolv=2.815
 eps=2.0165 RhoS=0.778099999999998
 --- end of non-standard input.
 Reading user-defined spheres from input:
 ISph  on   Nord    Re0     Alpha      Xe            Ye            Ze
 --- end of user-defined spheres data.
 ------------------------------------------------------------------------------
 Polarizable Continuum Model (PCM)
 =================================
 Model                : PCM.
 Atomic radii         : UA0 (Simple United Atom Topological Model).
 Polarization charges : Total charges.
 Charge compensation  : None.
 Solution method      : On-the-fly selection.
 Cavity type          : SES (Solvent Excluding Surface) (Alpha=1.000).
 Cavity algorithm     : GePol (RMin=0.200 OFac=0.890).
                        User-defined sphere list used, NSphG=   28.
                        Tesserae with average area of 0.075 Ang**2.
                        Smoothing algorithm: None.
                        Polarization charges: point-like.
                        Self-potential: constant (ISelfS= 1).
                        Self-field    : global E.n sum rule (ISelfD= 3).
 Solvent              : CycloHexane, Eps=   2.016500 Eps(inf)=   2.035188
                        RSolv=   2.815000 Ang.
 ------------------------------------------------------------------------------
 GePol: Number of generator spheres                  =      28
 GePol: Total number of spheres                      =     192
 GePol: Number of exposed spheres                    =     131 ( 68.23%)
 GePol: Number of tesserae                           =    4729
 GePol: Average area of tesserae                     =       0.05 Ang**2
 GePol: Minimum area of tessera                      =   0.10D-02 Ang**2
 GePol: Maximum area of tessera                      =    0.13097 Ang**2
 GePol: Number of small tesserae                     =       0
 GePol: Fraction of small tesserae (<1% of avg)      =       0.00%
 GePol: Total count of vertices                      =   16707
 GePol: Maximum number of vertices in a tessera      =       7
 GePol: Cavity surface area                          =    226.111 Ang**2
 GePol: Cavity volume                                =    259.618 Ang**3
 Leave Link  301 at Mon Aug  3 19:06:57 2020, MaxMem=  6442450944 cpu:               8.0 elap:               0.4
 (Enter /scratch/scicomp/CentOS/7.3.1611/Haswell/software/Gaussian/g16/l302.exe)
 NPDir=0 NMtPBC=     1 NCelOv=     1 NCel=       1 NClECP=     1 NCelD=      1
         NCelK=      1 NCelE2=     1 NClLst=     1 CellRange=     0.0.
 One-electron integrals computed using PRISM.
   1 Symmetry operations used in ECPInt.
 ECPInt:  NShTT=   19306 NPrTT=   56928 LenC2=   18448 LenP2D=   41592.
 LDataN:  DoStor=T MaxTD1= 6 Len=  172
 NBasis=   528 RedAO= T EigKep=  2.10D-05  NBF=   528
 NBsUse=   528 1.00D-06 EigRej= -1.00D+00 NBFU=   528
 Precomputing XC quadrature grid using
 IXCGrd= 4 IRadAn=           5 IRanWt=          -1 IRanGd=           0 AccXCQ= 0.00D+00.
 Generated NRdTot=       0 NPtTot=           0 NUsed=           0 NTot=          32
 NSgBfM=   526   526   526   526   526 MxSgAt=    28 MxSgA2=    28.
 Leave Link  302 at Mon Aug  3 19:06:58 2020, MaxMem=  6442450944 cpu:              12.7 elap:               0.6
 (Enter /scratch/scicomp/CentOS/7.3.1611/Haswell/software/Gaussian/g16/l303.exe)
 DipDrv:  MaxL=1.
 Leave Link  303 at Mon Aug  3 19:06:58 2020, MaxMem=  6442450944 cpu:               1.5 elap:               0.1
 (Enter /scratch/scicomp/CentOS/7.3.1611/Haswell/software/Gaussian/g16/l401.exe)
 ExpMin= 9.52D-02 ExpMax= 1.36D+04 ExpMxC= 4.63D+02 IAcc=3 IRadAn=         5 AccDes= 0.00D+00
 Harris functional with IExCor= 4639 and IRadAn=       5 diagonalized for initial guess.
 HarFok:  IExCor= 4639 AccDes= 0.00D+00 IRadAn=         5 IDoV= 1 UseB2=F ITyADJ=14
 ICtDFT=  3500011 ScaDFX=  1.000000  1.000000  1.000000  1.000000
 FoFCou: FMM=F IPFlag=           0 FMFlag=      100000 FMFlg1=           0
         NFxFlg=           0 DoJE=T BraDBF=F KetDBF=T FulRan=T
         wScrn=  0.000000 ICntrl=       500 IOpCl=  0 I1Cent=   200000004 NGrid=           0
         NMat0=    1 NMatS0=      1 NMatT0=    0 NMatD0=    1 NMtDS0=    0 NMtDT0=    0
 Symmetry not used in FoFCou.
 Harris En= -444.661477549730    
 JPrj=0 DoOrth=F DoCkMO=T.
 Mixing orbitals, IMix= 1 IMixAn=  0 NRI=1 NE=   44 Coef=  7.07106781D-01  7.07106781D-01
 Mixing orbitals, IMix= 1 IMixAn=  0 NRI=1 NE=   44 Coef= -7.07106781D-01  7.07106781D-01
 Initial guess <Sx>= 0.0000 <Sy>= 0.0000 <Sz>= 0.0000 <S**2>= 1.0000 S= 0.6180
 Leave Link  401 at Mon Aug  3 19:07:00 2020, MaxMem=  6442450944 cpu:              48.4 elap:               2.1
 (Enter /scratch/scicomp/CentOS/7.3.1611/Haswell/software/Gaussian/g16/l502.exe)
 Two-electron integral symmetry not used.
 UHF open shell SCF:
 Using DIIS extrapolation, IDIIS=  1040.
 NGot=  6442450944 LenX=  6441877030 LenY=  6441597718
 Requested convergence on RMS density matrix=1.00D-08 within 128 cycles.
 Requested convergence on MAX density matrix=1.00D-06.
 Requested convergence on             energy=1.00D-06.
 No special actions if energy rises.
 Fock matrices will be formed incrementally for  20 cycles.

 Cycle   1  Pass 1  IDiag  1:
 FoFJK:  IHMeth= 1 ICntrl=       0 DoSepK=T KAlg= 0 I1Cent=           0 FoldK=F
 IRaf=         1 NMat=       1 IRICut=       1 DoRegI=T DoRafI=F ISym2E= 0 IDoP0=0 IntGTp=1.
 FoFCou: FMM=F IPFlag=           0 FMFlag=      100000 FMFlg1=           0
         NFxFlg=           0 DoJE=T BraDBF=F KetDBF=F FulRan=T
         wScrn=  0.000000 ICntrl=       500 IOpCl=  0 I1Cent=           0 NGrid=           0
         NMat0=    1 NMatS0=      1 NMatT0=    0 NMatD0=    1 NMtDS0=    0 NMtDT0=    0
 Symmetry not used in FoFCou.
 Inv3:  Mode=1 IEnd=    67090323.
 Iteration    1 A*A^-1 deviation from unit magnitude is 4.66D-15 for   2942.
 Iteration    1 A*A^-1 deviation from orthogonality  is 2.70D-15 for   2580   2547.
 Iteration    1 A^-1*A deviation from unit magnitude is 4.88D-15 for   2942.
 Iteration    1 A^-1*A deviation from orthogonality  is 2.24D-15 for   2580   2547.
 E= -466.562124240916    
 DIIS: error= 5.35D-02 at cycle   1 NSaved=   1.
 NSaved= 1 IEnMin= 1 EnMin= -466.562124240916     IErMin= 1 ErrMin= 5.35D-02
 ErrMax= 5.35D-02  0.00D+00 EMaxC= 1.00D-01 BMatC= 4.12D+00 BMatP= 4.12D+00
 IDIUse=3 WtCom= 4.65D-01 WtEn= 5.35D-01
 Coeff-Com:  0.100D+01
 Coeff-En:   0.100D+01
 Coeff:      0.100D+01
 Gap=     0.178 Goal=   None    Shift=    0.000
 Gap=     0.178 Goal=   None    Shift=    0.000
 GapD=    0.178 DampG=1.000 DampE=0.500 DampFc=0.5000 IDamp=-1.
 Damping current iteration by 5.00D-01
 RMSDP=1.72D-03 MaxDP=9.36D-02              OVMax= 3.69D-01

 Cycle   2  Pass 1  IDiag  1:
 RMSU=  8.23D-04    CP:  9.60D-01
 E= -466.678699807560     Delta-E=       -0.116575566644 Rises=F Damp=T
 DIIS: error= 2.55D-02 at cycle   2 NSaved=   2.
 NSaved= 2 IEnMin= 2 EnMin= -466.678699807560     IErMin= 2 ErrMin= 2.55D-02
 ErrMax= 2.55D-02  0.00D+00 EMaxC= 1.00D-01 BMatC= 9.38D-01 BMatP= 4.12D+00
 IDIUse=3 WtCom= 7.45D-01 WtEn= 2.55D-01
 Coeff-Com: -0.870D+00 0.187D+01
 Coeff-En:   0.000D+00 0.100D+01
 Coeff:     -0.648D+00 0.165D+01
 Gap=     0.286 Goal=   None    Shift=    0.000
 Gap=     0.286 Goal=   None    Shift=    0.000
 RMSDP=1.23D-03 MaxDP=4.94D-02 DE=-1.17D-01 OVMax= 1.39D-01

 Cycle   3  Pass 1  IDiag  1:
 RMSU=  5.86D-04    CP:  9.00D-01  2.23D+00
 E= -466.832115920230     Delta-E=       -0.153416112670 Rises=F Damp=F
 DIIS: error= 7.81D-03 at cycle   3 NSaved=   3.
 NSaved= 3 IEnMin= 3 EnMin= -466.832115920230     IErMin= 3 ErrMin= 7.81D-03
 ErrMax= 7.81D-03  0.00D+00 EMaxC= 1.00D-01 BMatC= 2.30D-02 BMatP= 9.38D-01
 IDIUse=3 WtCom= 9.22D-01 WtEn= 7.81D-02
 Coeff-Com: -0.309D+00 0.662D+00 0.647D+00
 Coeff-En:   0.000D+00 0.000D+00 0.100D+01
 Coeff:     -0.285D+00 0.611D+00 0.674D+00
 Gap=     0.309 Goal=   None    Shift=    0.000
 Gap=     0.309 Goal=   None    Shift=    0.000
 RMSDP=2.02D-04 MaxDP=9.50D-03 DE=-1.53D-01 OVMax= 6.35D-02

 Cycle   4  Pass 1  IDiag  1:
 RMSU=  1.84D-04    CP:  8.93D-01  2.32D+00  1.02D+00
 E= -466.842504002997     Delta-E=       -0.010388082767 Rises=F Damp=F
 DIIS: error= 5.03D-03 at cycle   4 NSaved=   4.
 NSaved= 4 IEnMin= 4 EnMin= -466.842504002997     IErMin= 4 ErrMin= 5.03D-03
 ErrMax= 5.03D-03  0.00D+00 EMaxC= 1.00D-01 BMatC= 1.99D-03 BMatP= 2.30D-02
 IDIUse=3 WtCom= 9.50D-01 WtEn= 5.03D-02
 Coeff-Com:  0.152D+00-0.325D+00-0.814D-01 0.125D+01
 Coeff-En:   0.000D+00 0.000D+00 0.000D+00 0.100D+01
 Coeff:      0.144D+00-0.309D+00-0.773D-01 0.124D+01
 Gap=     0.320 Goal=   None    Shift=    0.000
 Gap=     0.320 Goal=   None    Shift=    0.000
 RMSDP=2.08D-04 MaxDP=1.10D-02 DE=-1.04D-02 OVMax= 7.51D-02

 Cycle   5  Pass 1  IDiag  1:
 RMSU=  7.99D-05    CP:  8.86D-01  2.38D+00  1.25D+00  1.64D+00
 E= -466.846964248794     Delta-E=       -0.004460245797 Rises=F Damp=F
 DIIS: error= 2.13D-03 at cycle   5 NSaved=   5.
 NSaved= 5 IEnMin= 5 EnMin= -466.846964248794     IErMin= 5 ErrMin= 2.13D-03
 ErrMax= 2.13D-03  0.00D+00 EMaxC= 1.00D-01 BMatC= 7.34D-04 BMatP= 1.99D-03
 IDIUse=3 WtCom= 9.79D-01 WtEn= 2.13D-02
 Coeff-Com:  0.449D-01-0.964D-01-0.523D-01 0.239D+00 0.865D+00
 Coeff-En:   0.000D+00 0.000D+00 0.000D+00 0.000D+00 0.100D+01
 Coeff:      0.439D-01-0.944D-01-0.512D-01 0.234D+00 0.868D+00
 Gap=     0.322 Goal=   None    Shift=    0.000
 Gap=     0.322 Goal=   None    Shift=    0.000
 RMSDP=6.98D-05 MaxDP=2.68D-03 DE=-4.46D-03 OVMax= 2.63D-02

 Cycle   6  Pass 1  IDiag  1:
 RMSU=  3.03D-05    CP:  8.85D-01  2.38D+00  1.29D+00  1.90D+00  1.43D+00
 E= -466.848263303853     Delta-E=       -0.001299055059 Rises=F Damp=F
 DIIS: error= 1.46D-03 at cycle   6 NSaved=   6.
 NSaved= 6 IEnMin= 6 EnMin= -466.848263303853     IErMin= 6 ErrMin= 1.46D-03
 ErrMax= 1.46D-03  0.00D+00 EMaxC= 1.00D-01 BMatC= 4.96D-04 BMatP= 7.34D-04
 IDIUse=3 WtCom= 9.85D-01 WtEn= 1.46D-02
 Coeff-Com: -0.864D-01 0.185D+00 0.564D-01-0.655D+00 0.134D+00 0.137D+01
 Coeff-En:   0.000D+00 0.000D+00 0.000D+00 0.000D+00 0.000D+00 0.100D+01
 Coeff:     -0.851D-01 0.183D+00 0.556D-01-0.645D+00 0.132D+00 0.136D+01
 Gap=     0.318 Goal=   None    Shift=    0.000
 Gap=     0.318 Goal=   None    Shift=    0.000
 RMSDP=9.54D-05 MaxDP=3.87D-03 DE=-1.30D-03 OVMax= 3.61D-02

 Cycle   7  Pass 1  IDiag  1:
 RMSU=  2.90D-05    CP:  8.83D-01  2.38D+00  1.33D+00  2.17D+00  2.16D+00
                    CP:  2.36D+00
 E= -466.849816102542     Delta-E=       -0.001552798689 Rises=F Damp=F
 DIIS: error= 1.05D-03 at cycle   7 NSaved=   7.
 NSaved= 7 IEnMin= 7 EnMin= -466.849816102542     IErMin= 7 ErrMin= 1.05D-03
 ErrMax= 1.05D-03  0.00D+00 EMaxC= 1.00D-01 BMatC= 2.44D-04 BMatP= 4.96D-04
 IDIUse=3 WtCom= 9.90D-01 WtEn= 1.05D-02
 Coeff-Com: -0.230D-01 0.498D-01 0.390D-01-0.154D-02-0.826D+00-0.254D+00
 Coeff-Com:  0.202D+01
 Coeff-En:   0.000D+00 0.000D+00 0.000D+00 0.000D+00 0.000D+00 0.000D+00
 Coeff-En:   0.100D+01
 Coeff:     -0.227D-01 0.492D-01 0.386D-01-0.152D-02-0.818D+00-0.251D+00
 Coeff:      0.200D+01
 Gap=     0.319 Goal=   None    Shift=    0.000
 Gap=     0.319 Goal=   None    Shift=    0.000
 RMSDP=1.28D-04 MaxDP=5.93D-03 DE=-1.55D-03 OVMax= 4.78D-02

 Cycle   8  Pass 1  IDiag  1:
 RMSU=  5.86D-05    CP:  8.81D-01  2.38D+00  1.36D+00  2.46D+00  3.00D+00
                    CP:  3.00D+00  2.58D+00
 E= -466.851074236639     Delta-E=       -0.001258134096 Rises=F Damp=F
 DIIS: error= 3.59D-04 at cycle   8 NSaved=   8.
 NSaved= 8 IEnMin= 8 EnMin= -466.851074236639     IErMin= 8 ErrMin= 3.59D-04
 ErrMax= 3.59D-04  0.00D+00 EMaxC= 1.00D-01 BMatC= 5.19D-05 BMatP= 2.44D-04
 IDIUse=3 WtCom= 9.96D-01 WtEn= 3.59D-03
 Coeff-Com:  0.240D-01-0.516D-01-0.629D-02 0.254D+00-0.277D+00-0.583D+00
 Coeff-Com:  0.555D+00 0.109D+01
 Coeff-En:   0.000D+00 0.000D+00 0.000D+00 0.000D+00 0.000D+00 0.000D+00
 Coeff-En:   0.000D+00 0.100D+01
 Coeff:      0.240D-01-0.514D-01-0.627D-02 0.253D+00-0.276D+00-0.581D+00
 Coeff:      0.553D+00 0.109D+01
 Gap=     0.320 Goal=   None    Shift=    0.000
 Gap=     0.320 Goal=   None    Shift=    0.000
 RMSDP=5.35D-05 MaxDP=2.55D-03 DE=-1.26D-03 OVMax= 1.96D-02

 Cycle   9  Pass 1  IDiag  1:
 RMSU=  2.81D-05    CP:  8.80D-01  2.38D+00  1.38D+00  2.55D+00  3.00D+00
                    CP:  3.00D+00  3.00D+00  1.61D+00
 E= -466.851259743386     Delta-E=       -0.000185506747 Rises=F Damp=F
 DIIS: error= 1.06D-04 at cycle   9 NSaved=   9.
 NSaved= 9 IEnMin= 9 EnMin= -466.851259743386     IErMin= 9 ErrMin= 1.06D-04
 ErrMax= 1.06D-04  0.00D+00 EMaxC= 1.00D-01 BMatC= 7.13D-06 BMatP= 5.19D-05
 IDIUse=3 WtCom= 9.99D-01 WtEn= 1.06D-03
 Coeff-Com:  0.108D-01-0.233D-01-0.737D-02 0.749D-01 0.400D-01-0.129D+00
 Coeff-Com: -0.136D+00 0.258D+00 0.913D+00
 Coeff-En:   0.000D+00 0.000D+00 0.000D+00 0.000D+00 0.000D+00 0.000D+00
 Coeff-En:   0.000D+00 0.000D+00 0.100D+01
 Coeff:      0.108D-01-0.233D-01-0.736D-02 0.748D-01 0.400D-01-0.129D+00
 Coeff:     -0.136D+00 0.258D+00 0.913D+00
 Gap=     0.320 Goal=   None    Shift=    0.000
 Gap=     0.320 Goal=   None    Shift=    0.000
 RMSDP=1.28D-05 MaxDP=5.95D-04 DE=-1.86D-04 OVMax= 4.70D-03

 Cycle  10  Pass 1  IDiag  1:
 RMSU=  4.96D-06    CP:  8.80D-01  2.38D+00  1.38D+00  2.57D+00  3.00D+00
                    CP:  3.00D+00  3.00D+00  1.74D+00  1.27D+00
 E= -466.851272344244     Delta-E=       -0.000012600858 Rises=F Damp=F
 DIIS: error= 4.36D-05 at cycle  10 NSaved=  10.
 NSaved=10 IEnMin=10 EnMin= -466.851272344244     IErMin=10 ErrMin= 4.36D-05
 ErrMax= 4.36D-05  0.00D+00 EMaxC= 1.00D-01 BMatC= 9.93D-07 BMatP= 7.13D-06
 IDIUse=1 WtCom= 1.00D+00 WtEn= 0.00D+00
 Coeff-Com: -0.233D-02 0.502D-02-0.340D-04-0.328D-01 0.462D-01 0.803D-01
 Coeff-Com: -0.982D-01-0.185D+00 0.134D+00 0.105D+01
 Coeff:     -0.233D-02 0.502D-02-0.340D-04-0.328D-01 0.462D-01 0.803D-01
 Coeff:     -0.982D-01-0.185D+00 0.134D+00 0.105D+01
 Gap=     0.320 Goal=   None    Shift=    0.000
 Gap=     0.320 Goal=   None    Shift=    0.000
 RMSDP=5.42D-06 MaxDP=2.36D-04 DE=-1.26D-05 OVMax= 1.95D-03

 Cycle  11  Pass 1  IDiag  1:
 RMSU=  1.80D-06    CP:  8.80D-01  2.38D+00  1.39D+00  2.58D+00  3.00D+00
                    CP:  3.00D+00  3.00D+00  1.78D+00  1.39D+00  1.39D+00
 E= -466.851273820449     Delta-E=       -0.000001476205 Rises=F Damp=F
 DIIS: error= 1.50D-05 at cycle  11 NSaved=  11.
 NSaved=11 IEnMin=11 EnMin= -466.851273820449     IErMin=11 ErrMin= 1.50D-05
 ErrMax= 1.50D-05  0.00D+00 EMaxC= 1.00D-01 BMatC= 1.34D-07 BMatP= 9.93D-07
 IDIUse=1 WtCom= 1.00D+00 WtEn= 0.00D+00
 Coeff-Com: -0.816D-03 0.176D-02 0.165D-03-0.911D-02 0.820D-02 0.205D-01
 Coeff-Com: -0.125D-01-0.498D-01-0.167D-01 0.219D+00 0.839D+00
 Coeff:     -0.816D-03 0.176D-02 0.165D-03-0.911D-02 0.820D-02 0.205D-01
 Coeff:     -0.125D-01-0.498D-01-0.167D-01 0.219D+00 0.839D+00
 Gap=     0.320 Goal=   None    Shift=    0.000
 Gap=     0.320 Goal=   None    Shift=    0.000
 RMSDP=7.03D-07 MaxDP=3.15D-05 DE=-1.48D-06 OVMax= 1.39D-04

 Cycle  12  Pass 1  IDiag  1:
 RMSU=  5.63D-07    CP:  8.80D-01  2.38D+00  1.39D+00  2.58D+00  3.00D+00
                    CP:  3.00D+00  3.00D+00  1.78D+00  1.39D+00  1.40D+00
                    CP:  1.19D+00
 E= -466.851273918047     Delta-E=       -0.000000097598 Rises=F Damp=F
 DIIS: error= 1.04D-05 at cycle  12 NSaved=  12.
 NSaved=12 IEnMin=12 EnMin= -466.851273918047     IErMin=12 ErrMin= 1.04D-05
 ErrMax= 1.04D-05  0.00D+00 EMaxC= 1.00D-01 BMatC= 6.24D-08 BMatP= 1.34D-07
 IDIUse=1 WtCom= 1.00D+00 WtEn= 0.00D+00
 Coeff-Com:  0.418D-03-0.906D-03 0.293D-05 0.641D-02-0.925D-02-0.161D-01
 Coeff-Com:  0.229D-01 0.358D-01-0.445D-01-0.238D+00 0.358D+00 0.885D+00
 Coeff:      0.418D-03-0.906D-03 0.293D-05 0.641D-02-0.925D-02-0.161D-01
 Coeff:      0.229D-01 0.358D-01-0.445D-01-0.238D+00 0.358D+00 0.885D+00
 Gap=     0.320 Goal=   None    Shift=    0.000
 Gap=     0.320 Goal=   None    Shift=    0.000
 RMSDP=5.28D-07 MaxDP=2.22D-05 DE=-9.76D-08 OVMax= 1.19D-04

 Cycle  13  Pass 1  IDiag  1:
 RMSU=  3.05D-07    CP:  8.80D-01  2.38D+00  1.39D+00  2.58D+00  3.00D+00
                    CP:  3.00D+00  3.00D+00  1.78D+00  1.39D+00  1.40D+00
                    CP:  1.35D+00  1.52D+00
 E= -466.851273976738     Delta-E=       -0.000000058691 Rises=F Damp=F
 DIIS: error= 6.05D-06 at cycle  13 NSaved=  13.
 NSaved=13 IEnMin=13 EnMin= -466.851273976738     IErMin=13 ErrMin= 6.05D-06
 ErrMax= 6.05D-06  0.00D+00 EMaxC= 1.00D-01 BMatC= 1.21D-08 BMatP= 6.24D-08
 IDIUse=1 WtCom= 1.00D+00 WtEn= 0.00D+00
 Coeff-Com: -0.447D-04 0.987D-04 0.562D-04-0.414D-03 0.473D-03 0.559D-03
 Coeff-Com: -0.187D-02 0.829D-03 0.566D-02-0.340D-02-0.226D+00-0.982D-01
 Coeff-Com:  0.132D+01
 Coeff:     -0.447D-04 0.987D-04 0.562D-04-0.414D-03 0.473D-03 0.559D-03
 Coeff:     -0.187D-02 0.829D-03 0.566D-02-0.340D-02-0.226D+00-0.982D-01
 Coeff:      0.132D+01
 Gap=     0.320 Goal=   None    Shift=    0.000
 Gap=     0.320 Goal=   None    Shift=    0.000
 RMSDP=3.39D-07 MaxDP=1.83D-05 DE=-5.87D-08 OVMax= 8.62D-05

 Cycle  14  Pass 1  IDiag  1:
 RMSU=  2.24D-07    CP:  8.80D-01  2.38D+00  1.39D+00  2.58D+00  3.00D+00
                    CP:  3.00D+00  3.00D+00  1.78D+00  1.39D+00  1.41D+00
                    CP:  1.40D+00  1.80D+00  1.54D+00
 E= -466.851274001243     Delta-E=       -0.000000024505 Rises=F Damp=F
 DIIS: error= 3.28D-06 at cycle  14 NSaved=  14.
 NSaved=14 IEnMin=14 EnMin= -466.851274001243     IErMin=14 ErrMin= 3.28D-06
 ErrMax= 3.28D-06  0.00D+00 EMaxC= 1.00D-01 BMatC= 3.61D-09 BMatP= 1.21D-08
 IDIUse=1 WtCom= 1.00D+00 WtEn= 0.00D+00
 Coeff-Com: -0.154D-03 0.332D-03 0.454D-04-0.197D-02 0.240D-02 0.463D-02
 Coeff-Com: -0.651D-02-0.979D-02 0.140D-01 0.693D-01-0.143D+00-0.287D+00
 Coeff-Com:  0.124D+00 0.123D+01
 Coeff:     -0.154D-03 0.332D-03 0.454D-04-0.197D-02 0.240D-02 0.463D-02
 Coeff:     -0.651D-02-0.979D-02 0.140D-01 0.693D-01-0.143D+00-0.287D+00
 Coeff:      0.124D+00 0.123D+01
 Gap=     0.320 Goal=   None    Shift=    0.000
 Gap=     0.320 Goal=   None    Shift=    0.000
 RMSDP=2.45D-07 MaxDP=1.15D-05 DE=-2.45D-08 OVMax= 6.25D-05

 Cycle  15  Pass 1  IDiag  1:
 RMSU=  8.01D-08    CP:  8.80D-01  2.38D+00  1.39D+00  2.58D+00  3.00D+00
                    CP:  3.00D+00  3.00D+00  1.78D+00  1.39D+00  1.42D+00
                    CP:  1.41D+00  1.93D+00  1.92D+00  1.80D+00
 E= -466.851274009230     Delta-E=       -0.000000007987 Rises=F Damp=F
 DIIS: error= 1.17D-06 at cycle  15 NSaved=  15.
 NSaved=15 IEnMin=15 EnMin= -466.851274009230     IErMin=15 ErrMin= 1.17D-06
 ErrMax= 1.17D-06  0.00D+00 EMaxC= 1.00D-01 BMatC= 5.96D-10 BMatP= 3.61D-09
 IDIUse=1 WtCom= 1.00D+00 WtEn= 0.00D+00
 Coeff-Com:  0.970D-05-0.213D-04-0.241D-04 0.364D-05 0.168D-03 0.190D-03
 Coeff-Com: -0.569D-03-0.811D-03 0.185D-02 0.100D-01 0.298D-01-0.274D-01
 Coeff-Com: -0.314D+00 0.219D+00 0.108D+01
 Coeff:      0.970D-05-0.213D-04-0.241D-04 0.364D-05 0.168D-03 0.190D-03
 Coeff:     -0.569D-03-0.811D-03 0.185D-02 0.100D-01 0.298D-01-0.274D-01
 Coeff:     -0.314D+00 0.219D+00 0.108D+01
 Gap=     0.320 Goal=   None    Shift=    0.000
 Gap=     0.320 Goal=   None    Shift=    0.000
 RMSDP=1.14D-07 MaxDP=5.06D-06 DE=-7.99D-09 OVMax= 2.71D-05

 Cycle  16  Pass 1  IDiag  1:
 RMSU=  3.80D-08    CP:  8.80D-01  2.38D+00  1.39D+00  2.58D+00  3.00D+00
                    CP:  3.00D+00  3.00D+00  1.78D+00  1.39D+00  1.42D+00
                    CP:  1.40D+00  1.96D+00  2.07D+00  2.17D+00  1.46D+00
 E= -466.851274010266     Delta-E=       -0.000000001036 Rises=F Damp=F
 DIIS: error= 2.26D-07 at cycle  16 NSaved=  16.
 NSaved=16 IEnMin=16 EnMin= -466.851274010266     IErMin=16 ErrMin= 2.26D-07
 ErrMax= 2.26D-07  0.00D+00 EMaxC= 1.00D-01 BMatC= 5.20D-11 BMatP= 5.96D-10
 IDIUse=1 WtCom= 1.00D+00 WtEn= 0.00D+00
 Coeff-Com:  0.753D-05-0.163D-04-0.738D-05 0.920D-04-0.890D-04-0.167D-03
 Coeff-Com:  0.221D-03 0.367D-03-0.691D-03-0.245D-02 0.185D-01 0.150D-01
 Coeff-Com: -0.803D-01-0.532D-01 0.246D+00 0.856D+00
 Coeff:      0.753D-05-0.163D-04-0.738D-05 0.920D-04-0.890D-04-0.167D-03
 Coeff:      0.221D-03 0.367D-03-0.691D-03-0.245D-02 0.185D-01 0.150D-01
 Coeff:     -0.803D-01-0.532D-01 0.246D+00 0.856D+00
 Gap=     0.320 Goal=   None    Shift=    0.000
 Gap=     0.320 Goal=   None    Shift=    0.000
 RMSDP=2.27D-08 MaxDP=8.49D-07 DE=-1.04D-09 OVMax= 3.92D-06

 Cycle  17  Pass 1  IDiag  1:
 RMSU=  1.07D-08    CP:  8.80D-01  2.38D+00  1.39D+00  2.58D+00  3.00D+00
                    CP:  3.00D+00  3.00D+00  1.78D+00  1.39D+00  1.42D+00
                    CP:  1.40D+00  1.96D+00  2.08D+00  2.20D+00  1.56D+00
                    CP:  1.33D+00
 E= -466.851274010300     Delta-E=       -0.000000000034 Rises=F Damp=F
 DIIS: error= 9.43D-08 at cycle  17 NSaved=  17.
 NSaved=17 IEnMin=17 EnMin= -466.851274010300     IErMin=17 ErrMin= 9.43D-08
 ErrMax= 9.43D-08  0.00D+00 EMaxC= 1.00D-01 BMatC= 7.27D-12 BMatP= 5.20D-11
 IDIUse=1 WtCom= 1.00D+00 WtEn= 0.00D+00
 Coeff-Com: -0.334D-07 0.121D-06 0.115D-05 0.625D-05-0.255D-04-0.132D-04
 Coeff-Com:  0.619D-04 0.124D-03-0.372D-03-0.152D-02-0.131D-02 0.552D-02
 Coeff-Com:  0.331D-01-0.398D-01-0.122D+00 0.149D+00 0.977D+00
 Coeff:     -0.334D-07 0.121D-06 0.115D-05 0.625D-05-0.255D-04-0.132D-04
 Coeff:      0.619D-04 0.124D-03-0.372D-03-0.152D-02-0.131D-02 0.552D-02
 Coeff:      0.331D-01-0.398D-01-0.122D+00 0.149D+00 0.977D+00
 Gap=     0.320 Goal=   None    Shift=    0.000
 Gap=     0.320 Goal=   None    Shift=    0.000
 RMSDP=8.87D-09 MaxDP=3.15D-07 DE=-3.38D-11 OVMax= 1.31D-06

 Error on total polarization charges =  0.01115
 SCF Done:  E(UwB97XD) =  -466.851274010     A.U. after   17 cycles
            NFock= 17  Conv=0.89D-08     -V/T= 2.0058
 <Sx>= 0.0000 <Sy>= 0.0000 <Sz>= 0.0000 <S**2>= 0.0000 S= 0.0000
 <L.S>=  0.00000000000    
 KE= 4.641655637537D+02 PE=-2.416415066106D+03 EE= 8.181509191553D+02
 --------------------------------------------------------------------
 Variational PCM results
 =======================
 <psi(f)|   H    |psi(f)>                     (a.u.) =    -466.858737
 <psi(f)|H+V(f)/2|psi(f)>                     (a.u.) =    -466.860228
 Total free energy in solution:
 - with all non electrostatic terms           (a.u.) =    -466.851274
 --------------------------------------------------------------------
 (Polarized solute)-Solvent               (kcal/mol) =      -0.94
 --------------------------------------------------------------------
 Quantum repulsion energy                 (kcal/mol) =       5.62
 Total non electrostatic                  (kcal/mol) =       5.62
 --------------------------------------------------------------------
 Partition over spheres:
 Sphere  on Atom  Surface  Charge   GEl     GCav    GDR
    1               6.88   0.010   -0.05    0.00    0.00
    2               4.72   0.007   -0.04    0.00    0.00
    3               7.52  -0.010   -0.04    0.00    0.00
    4               3.81  -0.006   -0.02    0.00    0.00
    5               4.48   0.007   -0.05    0.00    0.00
    6               4.27   0.005   -0.03    0.00    0.00
    7               5.85  -0.008   -0.03    0.00    0.00
    8               4.53  -0.006   -0.02    0.00    0.00
    9               3.59   0.002    0.00    0.00    0.00
   10               7.15  -0.007   -0.01    0.00    0.00
   11               3.37  -0.003   -0.01    0.00    0.00
   12               6.57   0.011   -0.07    0.00    0.00
   13               7.51  -0.010   -0.03    0.00    0.00
   14               7.30   0.011   -0.06    0.00    0.00
   15               7.51  -0.010   -0.04    0.00    0.00
   16               3.61   0.002    0.00    0.00    0.00
   17               2.65  -0.002   -0.00    0.00    0.00
   18               7.34  -0.008   -0.03    0.00    0.00
   19               5.00   0.009   -0.06    0.00    0.00
   20               5.14  -0.007   -0.03    0.00    0.00
   21               6.44   0.010   -0.06    0.00    0.00
   22               7.51  -0.010   -0.03    0.00    0.00
   23               3.60   0.002    0.00    0.00    0.00
   24               3.44  -0.003   -0.01    0.00    0.00
   25               7.15  -0.007   -0.01    0.00    0.00
   26               3.61   0.002    0.00    0.00    0.00
   27               7.45  -0.008   -0.03    0.00    0.00
   28               2.53  -0.002   -0.00    0.00    0.00
 Added spheres:    75.54   0.019   -0.20    0.00    0.00
 --------------------------------------------------------------------
 After PCM corrections, the energy is  -466.851274010     a.u.
 --------------------------------------------------------------------
 Annihilation of the first spin contaminant:
 S**2 before annihilation     0.0000,   after    -0.0000
 Leave Link  502 at Mon Aug  3 19:12:09 2020, MaxMem=  6442450944 cpu:            7343.5 elap:             308.7
 (Enter /scratch/scicomp/CentOS/7.3.1611/Haswell/software/Gaussian/g16/l601.exe)
 Copying SCF densities to generalized density rwf, IOpCl= 1 IROHF=0.

 **********************************************************************

            Population analysis using the SCF Density.

 **********************************************************************

 Alpha  occ. eigenvalues --  -10.28218 -10.28217 -10.28137 -10.28136 -10.28098
 Alpha  occ. eigenvalues --  -10.28096 -10.28048 -10.28047 -10.27804 -10.27803
 Alpha  occ. eigenvalues --  -10.27577 -10.27575  -0.93970  -0.93639  -0.83938
 Alpha  occ. eigenvalues --   -0.83934  -0.83789  -0.83592  -0.71115  -0.71083
 Alpha  occ. eigenvalues --   -0.67804  -0.67774  -0.59614  -0.59482  -0.57345
 Alpha  occ. eigenvalues --   -0.56860  -0.53208  -0.52544  -0.50754  -0.50695
 Alpha  occ. eigenvalues --   -0.49854  -0.49449  -0.47144  -0.46909  -0.45038
 Alpha  occ. eigenvalues --   -0.44804  -0.41061  -0.40941  -0.39473  -0.39132
 Alpha  occ. eigenvalues --   -0.39068  -0.38982  -0.29619  -0.27814
 Alpha virt. eigenvalues --    0.04153   0.04677   0.11366   0.12906   0.14237
 Alpha virt. eigenvalues --    0.15181   0.15216   0.16235   0.16377   0.16900
 Alpha virt. eigenvalues --    0.17769   0.17778   0.18070   0.19207   0.20868
 Alpha virt. eigenvalues --    0.21558   0.22483   0.23333   0.23488   0.24364
 Alpha virt. eigenvalues --    0.25767   0.26493   0.26665   0.27499   0.28450
 Alpha virt. eigenvalues --    0.28698   0.29598   0.29606   0.30432   0.30986
 Alpha virt. eigenvalues --    0.31692   0.32106   0.32387   0.32711   0.33262
 Alpha virt. eigenvalues --    0.33680   0.34632   0.35413   0.35796   0.37875
 Alpha virt. eigenvalues --    0.37974   0.38500   0.40483   0.41464   0.41761
 Alpha virt. eigenvalues --    0.42085   0.43529   0.44489   0.45708   0.46244
 Alpha virt. eigenvalues --    0.46550   0.46893   0.48117   0.48594   0.48729
 Alpha virt. eigenvalues --    0.49187   0.49596   0.49872   0.50350   0.50435
 Alpha virt. eigenvalues --    0.51347   0.51376   0.51763   0.52364   0.53048
 Alpha virt. eigenvalues --    0.53163   0.53738   0.54807   0.55044   0.55659
 Alpha virt. eigenvalues --    0.57529   0.57653   0.57954   0.59736   0.59741
 Alpha virt. eigenvalues --    0.60506   0.61707   0.63020   0.63556   0.64611
 Alpha virt. eigenvalues --    0.64672   0.66608   0.68145   0.68804   0.69723
 Alpha virt. eigenvalues --    0.70660   0.72842   0.73484   0.73821   0.75534
 Alpha virt. eigenvalues --    0.76789   0.78471   0.78666   0.80410   0.81709
 Alpha virt. eigenvalues --    0.82132   0.82664   0.83857   0.86351   0.86464
 Alpha virt. eigenvalues --    0.86710   0.89161   0.91131   0.91351   0.92741
 Alpha virt. eigenvalues --    0.92970   0.95466   0.96298   0.98587   0.99217
 Alpha virt. eigenvalues --    1.01248   1.03070   1.04077   1.04092   1.04486
 Alpha virt. eigenvalues --    1.06755   1.07615   1.08757   1.10118   1.11491
 Alpha virt. eigenvalues --    1.13095   1.13374   1.14423   1.14917   1.15796
 Alpha virt. eigenvalues --    1.16185   1.16415   1.17172   1.19323   1.20442
 Alpha virt. eigenvalues --    1.21660   1.23041   1.23127   1.23861   1.24701
 Alpha virt. eigenvalues --    1.24988   1.25942   1.26827   1.27590   1.28878
 Alpha virt. eigenvalues --    1.29279   1.30439   1.32374   1.32468   1.33156
 Alpha virt. eigenvalues --    1.34825   1.34996   1.35376   1.37149   1.38652
 Alpha virt. eigenvalues --    1.39052   1.39307   1.40638   1.41052   1.41833
 Alpha virt. eigenvalues --    1.42268   1.42625   1.43834   1.45151   1.45712
 Alpha virt. eigenvalues --    1.45769   1.46446   1.46681   1.47164   1.48223
 Alpha virt. eigenvalues --    1.50069   1.50719   1.52153   1.52935   1.55615
 Alpha virt. eigenvalues --    1.56277   1.57360   1.57455   1.58519   1.60508
 Alpha virt. eigenvalues --    1.61023   1.62342   1.62893   1.64807   1.66285
 Alpha virt. eigenvalues --    1.68656   1.69268   1.69764   1.71347   1.75171
 Alpha virt. eigenvalues --    1.75874   1.79673   1.80986   1.82124   1.82930
 Alpha virt. eigenvalues --    1.87206   1.88057   1.88818   1.89408   1.91297
 Alpha virt. eigenvalues --    1.92182   1.95975   2.00223   2.01328   2.01791
 Alpha virt. eigenvalues --    2.03940   2.04782   2.06663   2.07511   2.09056
 Alpha virt. eigenvalues --    2.09077   2.11805   2.12346   2.13348   2.15422
 Alpha virt. eigenvalues --    2.19077   2.19463   2.20135   2.20408   2.22226
 Alpha virt. eigenvalues --    2.23044   2.23254   2.23692   2.25016   2.26090
 Alpha virt. eigenvalues --    2.28747   2.31516   2.37288   2.38065   2.40084
 Alpha virt. eigenvalues --    2.42229   2.46075   2.47449   2.48582   2.49329
 Alpha virt. eigenvalues --    2.50187   2.50230   2.51864   2.54177   2.55058
 Alpha virt. eigenvalues --    2.55289   2.57381   2.57445   2.60225   2.60286
 Alpha virt. eigenvalues --    2.61959   2.63896   2.64414   2.65309   2.66797
 Alpha virt. eigenvalues --    2.67775   2.69040   2.69922   2.72214   2.72387
 Alpha virt. eigenvalues --    2.73307   2.73332   2.75162   2.76008   2.76420
 Alpha virt. eigenvalues --    2.77414   2.78181   2.78903   2.80064   2.80978
 Alpha virt. eigenvalues --    2.81205   2.81766   2.82739   2.83822   2.84026
 Alpha virt. eigenvalues --    2.85052   2.85632   2.86706   2.88868   2.88978
 Alpha virt. eigenvalues --    2.89783   2.89852   2.92157   2.92636   2.93104
 Alpha virt. eigenvalues --    2.94041   2.94761   2.94891   2.95967   2.98896
 Alpha virt. eigenvalues --    3.01403   3.01903   3.03108   3.03718   3.06443
 Alpha virt. eigenvalues --    3.06709   3.08021   3.08547   3.09569   3.10810
 Alpha virt. eigenvalues --    3.11984   3.12212   3.12526   3.13902   3.14836
 Alpha virt. eigenvalues --    3.15032   3.16911   3.17251   3.18478   3.18676
 Alpha virt. eigenvalues --    3.19446   3.19485   3.20034   3.20956   3.21078
 Alpha virt. eigenvalues --    3.22122   3.22549   3.23486   3.23671   3.24270
 Alpha virt. eigenvalues --    3.25494   3.25525   3.27241   3.28176   3.28347
 Alpha virt. eigenvalues --    3.28859   3.29358   3.29793   3.31285   3.31380
 Alpha virt. eigenvalues --    3.32749   3.33155   3.33487   3.33839   3.34505
 Alpha virt. eigenvalues --    3.34753   3.35259   3.36156   3.38087   3.38669
 Alpha virt. eigenvalues --    3.38912   3.39181   3.41666   3.43275   3.43750
 Alpha virt. eigenvalues --    3.44957   3.45938   3.46323   3.47126   3.47186
 Alpha virt. eigenvalues --    3.47898   3.48568   3.49254   3.49445   3.50853
 Alpha virt. eigenvalues --    3.51523   3.51612   3.52831   3.52985   3.53921
 Alpha virt. eigenvalues --    3.54911   3.55717   3.60119   3.60305   3.60687
 Alpha virt. eigenvalues --    3.63006   3.64052   3.64406   3.64591   3.64812
 Alpha virt. eigenvalues --    3.67565   3.68449   3.69568   3.71340   3.71554
 Alpha virt. eigenvalues --    3.73574   3.75769   3.76344   3.77430   3.77722
 Alpha virt. eigenvalues --    3.83696   3.84446   3.85067   3.86217   3.86324
 Alpha virt. eigenvalues --    3.87423   3.88659   3.89679   3.92402   3.93507
 Alpha virt. eigenvalues --    3.93673   3.95309   3.98873   3.99010   4.01385
 Alpha virt. eigenvalues --    4.03693   4.08078   4.09297   4.09656   4.10784
 Alpha virt. eigenvalues --    4.11991   4.12540   4.13219   4.15259   4.18617
 Alpha virt. eigenvalues --    4.19587   4.20448   4.21887   4.22656   4.22841
 Alpha virt. eigenvalues --    4.24590   4.26857   4.30855   4.31266   4.33413
 Alpha virt. eigenvalues --    4.35712   4.36382   4.37201   4.39306   4.39487
 Alpha virt. eigenvalues --    4.43916   4.45249   4.45608   4.46770   4.47508
 Alpha virt. eigenvalues --    4.48124   4.59358   4.60418   4.61256   4.63958
 Alpha virt. eigenvalues --    4.69266   4.69874   4.71696   4.72588   4.74240
 Alpha virt. eigenvalues --    4.74245   4.76235   4.77476   4.78883   4.81365
 Alpha virt. eigenvalues --    4.83419   4.84398   4.88771   4.89152   4.94418
 Alpha virt. eigenvalues --    4.94665   4.94707   4.96068   5.04918   5.07999
 Alpha virt. eigenvalues --    5.08725   5.10264   5.18033   5.18883   5.23256
 Alpha virt. eigenvalues --    5.24010   5.28591   5.31296   5.39654   5.40030
 Alpha virt. eigenvalues --    5.43664   5.44825   5.47725   5.48475   5.66027
 Alpha virt. eigenvalues --    5.69678   5.74518   5.75892   5.91177   5.95701
 Alpha virt. eigenvalues --    7.94251   7.95900   8.01037   8.02477   8.05995
 Alpha virt. eigenvalues --    8.07513   8.11134   8.11451   8.17254   8.18049
 Alpha virt. eigenvalues --    8.33423   8.35591  34.76363  34.77989  34.81211
 Alpha virt. eigenvalues --   34.82067  34.84084  34.87040  34.97526  34.97889
 Alpha virt. eigenvalues --   35.00317  35.01176  35.15292  35.18175
  Beta  occ. eigenvalues --  -10.28218 -10.28217 -10.28137 -10.28136 -10.28098
  Beta  occ. eigenvalues --  -10.28096 -10.28048 -10.28047 -10.27804 -10.27803
  Beta  occ. eigenvalues --  -10.27577 -10.27575  -0.93970  -0.93639  -0.83938
  Beta  occ. eigenvalues --   -0.83934  -0.83789  -0.83592  -0.71115  -0.71083
  Beta  occ. eigenvalues --   -0.67804  -0.67774  -0.59614  -0.59482  -0.57345
  Beta  occ. eigenvalues --   -0.56860  -0.53208  -0.52544  -0.50754  -0.50695
  Beta  occ. eigenvalues --   -0.49854  -0.49449  -0.47144  -0.46909  -0.45038
  Beta  occ. eigenvalues --   -0.44804  -0.41061  -0.40941  -0.39473  -0.39132
  Beta  occ. eigenvalues --   -0.39068  -0.38982  -0.29619  -0.27814
  Beta virt. eigenvalues --    0.04153   0.04677   0.11366   0.12906   0.14237
  Beta virt. eigenvalues --    0.15181   0.15216   0.16235   0.16377   0.16900
  Beta virt. eigenvalues --    0.17769   0.17778   0.18070   0.19207   0.20868
  Beta virt. eigenvalues --    0.21558   0.22483   0.23333   0.23488   0.24364
  Beta virt. eigenvalues --    0.25767   0.26493   0.26665   0.27499   0.28450
  Beta virt. eigenvalues --    0.28698   0.29598   0.29606   0.30432   0.30986
  Beta virt. eigenvalues --    0.31692   0.32106   0.32387   0.32711   0.33262
  Beta virt. eigenvalues --    0.33680   0.34632   0.35413   0.35796   0.37875
  Beta virt. eigenvalues --    0.37974   0.38500   0.40483   0.41464   0.41761
  Beta virt. eigenvalues --    0.42085   0.43529   0.44489   0.45708   0.46244
  Beta virt. eigenvalues --    0.46550   0.46893   0.48117   0.48594   0.48729
  Beta virt. eigenvalues --    0.49187   0.49596   0.49872   0.50350   0.50435
  Beta virt. eigenvalues --    0.51347   0.51376   0.51763   0.52364   0.53048
  Beta virt. eigenvalues --    0.53163   0.53738   0.54807   0.55044   0.55659
  Beta virt. eigenvalues --    0.57529   0.57653   0.57954   0.59736   0.59741
  Beta virt. eigenvalues --    0.60506   0.61707   0.63020   0.63556   0.64611
  Beta virt. eigenvalues --    0.64672   0.66608   0.68145   0.68804   0.69723
  Beta virt. eigenvalues --    0.70660   0.72842   0.73484   0.73821   0.75534
  Beta virt. eigenvalues --    0.76789   0.78471   0.78666   0.80410   0.81709
  Beta virt. eigenvalues --    0.82132   0.82664   0.83857   0.86351   0.86464
  Beta virt. eigenvalues --    0.86710   0.89161   0.91131   0.91351   0.92741
  Beta virt. eigenvalues --    0.92970   0.95466   0.96298   0.98587   0.99217
  Beta virt. eigenvalues --    1.01248   1.03070   1.04077   1.04092   1.04486
  Beta virt. eigenvalues --    1.06755   1.07615   1.08757   1.10118   1.11491
  Beta virt. eigenvalues --    1.13095   1.13374   1.14423   1.14917   1.15796
  Beta virt. eigenvalues --    1.16185   1.16415   1.17172   1.19323   1.20442
  Beta virt. eigenvalues --    1.21660   1.23041   1.23127   1.23861   1.24701
  Beta virt. eigenvalues --    1.24988   1.25942   1.26827   1.27590   1.28878
  Beta virt. eigenvalues --    1.29279   1.30439   1.32374   1.32468   1.33156
  Beta virt. eigenvalues --    1.34825   1.34996   1.35376   1.37149   1.38652
  Beta virt. eigenvalues --    1.39052   1.39307   1.40638   1.41052   1.41833
  Beta virt. eigenvalues --    1.42268   1.42625   1.43834   1.45151   1.45712
  Beta virt. eigenvalues --    1.45769   1.46446   1.46681   1.47164   1.48223
  Beta virt. eigenvalues --    1.50069   1.50719   1.52153   1.52935   1.55615
  Beta virt. eigenvalues --    1.56277   1.57360   1.57455   1.58519   1.60508
  Beta virt. eigenvalues --    1.61023   1.62342   1.62893   1.64807   1.66285
  Beta virt. eigenvalues --    1.68656   1.69268   1.69764   1.71347   1.75171
  Beta virt. eigenvalues --    1.75874   1.79673   1.80986   1.82124   1.82930
  Beta virt. eigenvalues --    1.87206   1.88057   1.88818   1.89408   1.91297
  Beta virt. eigenvalues --    1.92182   1.95975   2.00223   2.01328   2.01791
  Beta virt. eigenvalues --    2.03940   2.04782   2.06663   2.07511   2.09056
  Beta virt. eigenvalues --    2.09077   2.11805   2.12346   2.13348   2.15422
  Beta virt. eigenvalues --    2.19077   2.19463   2.20135   2.20408   2.22226
  Beta virt. eigenvalues --    2.23044   2.23254   2.23692   2.25016   2.26090
  Beta virt. eigenvalues --    2.28747   2.31516   2.37288   2.38065   2.40084
  Beta virt. eigenvalues --    2.42229   2.46075   2.47449   2.48582   2.49329
  Beta virt. eigenvalues --    2.50187   2.50230   2.51864   2.54177   2.55058
  Beta virt. eigenvalues --    2.55289   2.57381   2.57445   2.60225   2.60286
  Beta virt. eigenvalues --    2.61959   2.63896   2.64414   2.65309   2.66797
  Beta virt. eigenvalues --    2.67775   2.69040   2.69922   2.72214   2.72387
  Beta virt. eigenvalues --    2.73307   2.73332   2.75162   2.76008   2.76420
  Beta virt. eigenvalues --    2.77414   2.78181   2.78903   2.80064   2.80978
  Beta virt. eigenvalues --    2.81205   2.81766   2.82739   2.83822   2.84026
  Beta virt. eigenvalues --    2.85052   2.85632   2.86706   2.88868   2.88978
  Beta virt. eigenvalues --    2.89783   2.89852   2.92157   2.92636   2.93104
  Beta virt. eigenvalues --    2.94041   2.94761   2.94891   2.95967   2.98896
  Beta virt. eigenvalues --    3.01403   3.01903   3.03108   3.03718   3.06443
  Beta virt. eigenvalues --    3.06709   3.08021   3.08547   3.09569   3.10810
  Beta virt. eigenvalues --    3.11984   3.12212   3.12526   3.13902   3.14836
  Beta virt. eigenvalues --    3.15032   3.16911   3.17251   3.18478   3.18676
  Beta virt. eigenvalues --    3.19446   3.19485   3.20034   3.20956   3.21078
  Beta virt. eigenvalues --    3.22122   3.22549   3.23486   3.23671   3.24270
  Beta virt. eigenvalues --    3.25494   3.25525   3.27241   3.28176   3.28347
  Beta virt. eigenvalues --    3.28859   3.29358   3.29793   3.31285   3.31380
  Beta virt. eigenvalues --    3.32749   3.33155   3.33487   3.33839   3.34505
  Beta virt. eigenvalues --    3.34753   3.35259   3.36156   3.38087   3.38669
  Beta virt. eigenvalues --    3.38912   3.39181   3.41666   3.43275   3.43750
  Beta virt. eigenvalues --    3.44957   3.45938   3.46323   3.47126   3.47186
  Beta virt. eigenvalues --    3.47898   3.48568   3.49254   3.49445   3.50853
  Beta virt. eigenvalues --    3.51523   3.51612   3.52831   3.52985   3.53921
  Beta virt. eigenvalues --    3.54911   3.55717   3.60119   3.60305   3.60687
  Beta virt. eigenvalues --    3.63006   3.64052   3.64406   3.64591   3.64812
  Beta virt. eigenvalues --    3.67565   3.68449   3.69568   3.71340   3.71554
  Beta virt. eigenvalues --    3.73574   3.75769   3.76344   3.77430   3.77722
  Beta virt. eigenvalues --    3.83696   3.84446   3.85067   3.86217   3.86324
  Beta virt. eigenvalues --    3.87423   3.88659   3.89679   3.92402   3.93507
  Beta virt. eigenvalues --    3.93673   3.95309   3.98873   3.99010   4.01385
  Beta virt. eigenvalues --    4.03693   4.08078   4.09297   4.09656   4.10784
  Beta virt. eigenvalues --    4.11991   4.12540   4.13219   4.15259   4.18617
  Beta virt. eigenvalues --    4.19587   4.20448   4.21887   4.22656   4.22841
  Beta virt. eigenvalues --    4.24590   4.26857   4.30855   4.31266   4.33413
  Beta virt. eigenvalues --    4.35712   4.36382   4.37201   4.39306   4.39487
  Beta virt. eigenvalues --    4.43916   4.45249   4.45608   4.46770   4.47508
  Beta virt. eigenvalues --    4.48124   4.59358   4.60418   4.61256   4.63958
  Beta virt. eigenvalues --    4.69266   4.69874   4.71696   4.72588   4.74240
  Beta virt. eigenvalues --    4.74245   4.76235   4.77476   4.78883   4.81365
  Beta virt. eigenvalues --    4.83419   4.84398   4.88771   4.89152   4.94418
  Beta virt. eigenvalues --    4.94665   4.94707   4.96068   5.04918   5.07999
  Beta virt. eigenvalues --    5.08725   5.10264   5.18033   5.18883   5.23256
  Beta virt. eigenvalues --    5.24010   5.28591   5.31296   5.39654   5.40030
  Beta virt. eigenvalues --    5.43664   5.44825   5.47725   5.48475   5.66027
  Beta virt. eigenvalues --    5.69678   5.74518   5.75892   5.91177   5.95701
  Beta virt. eigenvalues --    7.94251   7.95900   8.01037   8.02477   8.05995
  Beta virt. eigenvalues --    8.07513   8.11134   8.11451   8.17254   8.18049
  Beta virt. eigenvalues --    8.33423   8.35591  34.76363  34.77989  34.81211
  Beta virt. eigenvalues --   34.82067  34.84084  34.87040  34.97526  34.97889
  Beta virt. eigenvalues --   35.00317  35.01176  35.15292  35.18175
          Condensed to atoms (all electrons):
               1          2          3          4          5          6
     1  C    5.144612   0.011974   0.421297  -0.001828   0.000090  -0.002575
     2  C    0.011974   5.235317  -0.001623   0.423069  -0.014972  -0.034401
     3  H    0.421297  -0.001623   0.490421   0.000027  -0.000041  -0.000047
     4  H   -0.001828   0.423069   0.000027   0.473489  -0.001008   0.000777
     5  C    0.000090  -0.014972  -0.000041  -0.001008   5.092413   0.543670
     6  C   -0.002575  -0.034401  -0.000047   0.000777   0.543670   5.235909
     7  H    0.000178  -0.000611  -0.000000  -0.000043   0.422342  -0.027392
     8  H   -0.000217   0.000767   0.000011  -0.000006  -0.040742   0.423048
     9  C    0.000782   0.000230  -0.000000  -0.000490  -0.073763   0.265256
    10  H   -0.000010  -0.000269  -0.000001  -0.000032  -0.002974  -0.034377
    11  H   -0.000009  -0.000863  -0.000000   0.000007   0.007598  -0.050452
    12  C   -0.000076   0.005224   0.000002   0.000654   0.312417  -0.073452
    13  H   -0.000000   0.000018   0.000000  -0.000009  -0.032661   0.003793
    14  C    0.000099  -0.002573   0.000000  -0.000232  -0.066682   0.011748
    15  H    0.000000  -0.000048  -0.000000   0.000012   0.006348  -0.001617
    16  C   -0.000470   0.005013  -0.000001   0.000418   0.010123  -0.072962
    17  H   -0.000076  -0.001360  -0.000001  -0.000454   0.010532  -0.001570
    18  H    0.000000   0.000611   0.000000   0.000071  -0.002756   0.011198
    19  C   -0.066495   0.543822   0.006332  -0.040752   0.000935  -0.015006
    20  H    0.003224  -0.027163  -0.000098  -0.004792   0.000072  -0.000614
    21  C    0.580877  -0.073608  -0.030539   0.005443   0.000339   0.005238
    22  H   -0.023438   0.003880  -0.005270  -0.000063   0.000006   0.000018
    23  C   -0.084042   0.265490   0.004557  -0.014083   0.000865   0.000267
    24  H    0.012824  -0.050445  -0.000096  -0.003962   0.002744  -0.000874
    25  H    0.005071  -0.034394   0.000010  -0.000169   0.000163  -0.000269
    26  C    0.280094  -0.072859  -0.026402   0.003675  -0.001349   0.004996
    27  H   -0.039638   0.011149  -0.004506  -0.000105   0.000353   0.000610
    28  H   -0.035854  -0.001510   0.001088  -0.000133  -0.001522  -0.001364
               7          8          9         10         11         12
     1  C    0.000178  -0.000217   0.000782  -0.000010  -0.000009  -0.000076
     2  C   -0.000611   0.000767   0.000230  -0.000269  -0.000863   0.005224
     3  H   -0.000000   0.000011  -0.000000  -0.000001  -0.000000   0.000002
     4  H   -0.000043  -0.000006  -0.000490  -0.000032   0.000007   0.000654
     5  C    0.422342  -0.040742  -0.073763  -0.002974   0.007598   0.312417
     6  C   -0.027392   0.423048   0.265256  -0.034377  -0.050452  -0.073452
     7  H    0.479100  -0.004798   0.002992  -0.000263  -0.000034  -0.027851
     8  H   -0.004798   0.473586  -0.014112  -0.000170  -0.003965   0.005458
     9  C    0.002992  -0.014112   4.932087   0.386335   0.446644   0.036124
    10  H   -0.000263  -0.000170   0.386335   0.569388  -0.019802   0.001441
    11  H   -0.000034  -0.003965   0.446644  -0.019802   0.537548  -0.003881
    12  C   -0.027851   0.005458   0.036124   0.001441  -0.003881   5.004327
    13  H   -0.002988  -0.000065  -0.000174  -0.000057   0.000027   0.421798
    14  C    0.003181  -0.001818  -0.083993   0.005094   0.012838   0.581393
    15  H   -0.000098   0.000028   0.004557   0.000011  -0.000097  -0.030269
    16  C   -0.000570   0.003661   0.365016  -0.026785  -0.050287  -0.065629
    17  H    0.000031  -0.000133  -0.036397   0.007111  -0.007605  -0.014705
    18  H    0.000028  -0.000105  -0.045059  -0.007202  -0.001705   0.006551
    19  C    0.000072  -0.001009   0.000776   0.000163   0.002801   0.000340
    20  H    0.000005  -0.000043   0.000872   0.000047  -0.000231  -0.000065
    21  C   -0.000066   0.000658   0.000004   0.000022  -0.000428  -0.000199
    22  H   -0.000000  -0.000009  -0.000022  -0.000000  -0.000004  -0.000000
    23  C    0.000890  -0.000494  -0.000008  -0.000004   0.000009   0.000022
    24  H   -0.000236   0.000008   0.000012   0.000004  -0.000010  -0.000433
    25  H    0.000048  -0.000032  -0.000004   0.000000   0.000004   0.000022
    26  C   -0.000818   0.000418  -0.000430   0.000022   0.000011   0.000444
    27  H   -0.000015   0.000071  -0.000022   0.000001  -0.000001  -0.000049
    28  H    0.001128  -0.000471   0.000231  -0.000005   0.000029   0.000553
              13         14         15         16         17         18
     1  C   -0.000000   0.000099   0.000000  -0.000470  -0.000076   0.000000
     2  C    0.000018  -0.002573  -0.000048   0.005013  -0.001360   0.000611
     3  H    0.000000   0.000000  -0.000000  -0.000001  -0.000001   0.000000
     4  H   -0.000009  -0.000232   0.000012   0.000418  -0.000454   0.000071
     5  C   -0.032661  -0.066682   0.006348   0.010123   0.010532  -0.002756
     6  C    0.003793   0.011748  -0.001617  -0.072962  -0.001570   0.011198
     7  H   -0.002988   0.003181  -0.000098  -0.000570   0.000031   0.000028
     8  H   -0.000065  -0.001818   0.000028   0.003661  -0.000133  -0.000105
     9  C   -0.000174  -0.083993   0.004557   0.365016  -0.036397  -0.045059
    10  H   -0.000057   0.005094   0.000011  -0.026785   0.007111  -0.007202
    11  H    0.000027   0.012838  -0.000097  -0.050287  -0.007605  -0.001705
    12  C    0.421798   0.581393  -0.030269  -0.065629  -0.014705   0.006551
    13  H    0.487648  -0.023646  -0.005257   0.003629  -0.000354  -0.000090
    14  C   -0.023646   5.144222   0.420854   0.280342  -0.035798  -0.039774
    15  H   -0.005257   0.420854   0.490347  -0.026268   0.001084  -0.004523
    16  C    0.003629   0.280342  -0.026268   4.924734   0.399901   0.437087
    17  H   -0.000354  -0.035798   0.001084   0.399901   0.591198  -0.021049
    18  H   -0.000090  -0.039774  -0.004523   0.437087  -0.021049   0.538065
    19  C    0.000006   0.000081  -0.000041  -0.001290  -0.001534   0.000352
    20  H   -0.000000   0.000177  -0.000000  -0.000808   0.001128  -0.000015
    21  C   -0.000000  -0.000077   0.000002   0.000444   0.000552  -0.000049
    22  H    0.000000  -0.000000   0.000000   0.000006  -0.000005  -0.000001
    23  C   -0.000023   0.000788  -0.000000  -0.000437   0.000229  -0.000021
    24  H   -0.000003  -0.000008  -0.000000   0.000011   0.000029  -0.000001
    25  H   -0.000000  -0.000010  -0.000001   0.000022  -0.000005   0.000001
    26  C    0.000006  -0.000471  -0.000001   0.000937   0.000132  -0.000001
    27  H   -0.000001   0.000000   0.000000  -0.000001   0.000003  -0.000000
    28  H   -0.000005  -0.000076  -0.000001   0.000131  -0.000023   0.000003
              19         20         21         22         23         24
     1  C   -0.066495   0.003224   0.580877  -0.023438  -0.084042   0.012824
     2  C    0.543822  -0.027163  -0.073608   0.003880   0.265490  -0.050445
     3  H    0.006332  -0.000098  -0.030539  -0.005270   0.004557  -0.000096
     4  H   -0.040752  -0.004792   0.005443  -0.000063  -0.014083  -0.003962
     5  C    0.000935   0.000072   0.000339   0.000006   0.000865   0.002744
     6  C   -0.015006  -0.000614   0.005238   0.000018   0.000267  -0.000874
     7  H    0.000072   0.000005  -0.000066  -0.000000   0.000890  -0.000236
     8  H   -0.001009  -0.000043   0.000658  -0.000009  -0.000494   0.000008
     9  C    0.000776   0.000872   0.000004  -0.000022  -0.000008   0.000012
    10  H    0.000163   0.000047   0.000022  -0.000000  -0.000004   0.000004
    11  H    0.002801  -0.000231  -0.000428  -0.000004   0.000009  -0.000010
    12  C    0.000340  -0.000065  -0.000199  -0.000000   0.000022  -0.000433
    13  H    0.000006  -0.000000  -0.000000   0.000000  -0.000023  -0.000003
    14  C    0.000081   0.000177  -0.000077  -0.000000   0.000788  -0.000008
    15  H   -0.000041  -0.000000   0.000002   0.000000  -0.000000  -0.000000
    16  C   -0.001290  -0.000808   0.000444   0.000006  -0.000437   0.000011
    17  H   -0.001534   0.001128   0.000552  -0.000005   0.000229   0.000029
    18  H    0.000352  -0.000015  -0.000049  -0.000001  -0.000021  -0.000001
    19  C    5.093036   0.422240   0.311744  -0.033068  -0.074024   0.007595
    20  H    0.422240   0.479407  -0.028069  -0.003012   0.002982  -0.000035
    21  C    0.311744  -0.028069   5.005169   0.421920   0.036411  -0.003881
    22  H   -0.033068  -0.003012   0.421920   0.487650  -0.000180   0.000027
    23  C   -0.074024   0.002982   0.036411  -0.000180   4.932351   0.446798
    24  H    0.007595  -0.000035  -0.003881   0.000027   0.446798   0.537252
    25  H   -0.002970  -0.000263   0.001466  -0.000057   0.386282  -0.019790
    26  C    0.009965  -0.000581  -0.065589   0.003623   0.364792  -0.050309
    27  H   -0.002711   0.000028   0.006419  -0.000091  -0.044971  -0.001703
    28  H    0.010485   0.000031  -0.014587  -0.000352  -0.036551  -0.007589
              25         26         27         28
     1  C    0.005071   0.280094  -0.039638  -0.035854
     2  C   -0.034394  -0.072859   0.011149  -0.001510
     3  H    0.000010  -0.026402  -0.004506   0.001088
     4  H   -0.000169   0.003675  -0.000105  -0.000133
     5  C    0.000163  -0.001349   0.000353  -0.001522
     6  C   -0.000269   0.004996   0.000610  -0.001364
     7  H    0.000048  -0.000818  -0.000015   0.001128
     8  H   -0.000032   0.000418   0.000071  -0.000471
     9  C   -0.000004  -0.000430  -0.000022   0.000231
    10  H    0.000000   0.000022   0.000001  -0.000005
    11  H    0.000004   0.000011  -0.000001   0.000029
    12  C    0.000022   0.000444  -0.000049   0.000553
    13  H   -0.000000   0.000006  -0.000001  -0.000005
    14  C   -0.000010  -0.000471   0.000000  -0.000076
    15  H   -0.000001  -0.000001   0.000000  -0.000001
    16  C    0.000022   0.000937  -0.000001   0.000131
    17  H   -0.000005   0.000132   0.000003  -0.000023
    18  H    0.000001  -0.000001  -0.000000   0.000003
    19  C   -0.002970   0.009965  -0.002711   0.010485
    20  H   -0.000263  -0.000581   0.000028   0.000031
    21  C    0.001466  -0.065589   0.006419  -0.014587
    22  H   -0.000057   0.003623  -0.000091  -0.000352
    23  C    0.386282   0.364792  -0.044971  -0.036551
    24  H   -0.019790  -0.050309  -0.001703  -0.007589
    25  H    0.569427  -0.026775  -0.007213   0.007115
    26  C   -0.026775   4.925027   0.436979   0.400001
    27  H   -0.007213   0.436979   0.538211  -0.021058
    28  H    0.007115   0.400001  -0.021058   0.591224
          Atomic-Atomic Spin Densities.
               1          2          3          4          5          6
     1  C   -0.000001  -0.000000   0.000000   0.000000   0.000000  -0.000000
     2  C   -0.000000   0.000000   0.000000   0.000000  -0.000000  -0.000000
     3  H    0.000000   0.000000   0.000000  -0.000000  -0.000000   0.000000
     4  H    0.000000   0.000000  -0.000000  -0.000000   0.000000  -0.000000
     5  C    0.000000  -0.000000  -0.000000   0.000000  -0.000001   0.000000
     6  C   -0.000000  -0.000000   0.000000  -0.000000   0.000000   0.000000
     7  H   -0.000000   0.000000   0.000000  -0.000000   0.000000  -0.000000
     8  H    0.000000   0.000000  -0.000000  -0.000000  -0.000000  -0.000000
     9  C   -0.000000   0.000000  -0.000000  -0.000000   0.000000   0.000000
    10  H    0.000000  -0.000000  -0.000000   0.000000  -0.000000   0.000000
    11  H    0.000000  -0.000000   0.000000   0.000000   0.000000  -0.000000
    12  C   -0.000000   0.000000   0.000000  -0.000000   0.000000  -0.000000
    13  H    0.000000   0.000000   0.000000   0.000000   0.000000  -0.000000
    14  C    0.000000   0.000000  -0.000000  -0.000000   0.000000   0.000000
    15  H    0.000000  -0.000000   0.000000   0.000000  -0.000000  -0.000000
    16  C   -0.000000   0.000000   0.000000   0.000000  -0.000000  -0.000000
    17  H    0.000000  -0.000000  -0.000000   0.000000   0.000000   0.000000
    18  H   -0.000000   0.000000  -0.000000   0.000000   0.000000  -0.000000
    19  C   -0.000000  -0.000000   0.000000   0.000000  -0.000000   0.000000
    20  H   -0.000000   0.000000   0.000000   0.000000  -0.000000  -0.000000
    21  C    0.000000  -0.000000  -0.000000  -0.000000   0.000000  -0.000000
    22  H   -0.000000   0.000000  -0.000000  -0.000000   0.000000  -0.000000
    23  C   -0.000000  -0.000000   0.000000  -0.000000  -0.000000  -0.000000
    24  H   -0.000000  -0.000000  -0.000000   0.000000   0.000000   0.000000
    25  H   -0.000000  -0.000000   0.000000   0.000000  -0.000000   0.000000
    26  C    0.000000   0.000000   0.000000  -0.000000  -0.000000  -0.000000
    27  H    0.000000   0.000000  -0.000000   0.000000   0.000000  -0.000000
    28  H    0.000000  -0.000000  -0.000000   0.000000  -0.000000   0.000000
               7          8          9         10         11         12
     1  C   -0.000000   0.000000  -0.000000   0.000000   0.000000  -0.000000
     2  C    0.000000   0.000000   0.000000  -0.000000  -0.000000   0.000000
     3  H    0.000000  -0.000000  -0.000000  -0.000000   0.000000   0.000000
     4  H   -0.000000  -0.000000  -0.000000   0.000000   0.000000  -0.000000
     5  C    0.000000  -0.000000   0.000000  -0.000000   0.000000   0.000000
     6  C   -0.000000  -0.000000   0.000000   0.000000  -0.000000  -0.000000
     7  H    0.000000  -0.000000   0.000000  -0.000000  -0.000000  -0.000000
     8  H   -0.000000  -0.000000   0.000000  -0.000000  -0.000000   0.000000
     9  C    0.000000   0.000000  -0.000001  -0.000000   0.000000   0.000000
    10  H   -0.000000  -0.000000  -0.000000   0.000000  -0.000000   0.000000
    11  H   -0.000000  -0.000000   0.000000  -0.000000   0.000000  -0.000000
    12  C   -0.000000   0.000000   0.000000   0.000000  -0.000000   0.000000
    13  H    0.000000   0.000000   0.000000  -0.000000  -0.000000  -0.000000
    14  C    0.000000  -0.000000   0.000000   0.000000   0.000000  -0.000000
    15  H   -0.000000   0.000000  -0.000000  -0.000000   0.000000   0.000000
    16  C   -0.000000   0.000000   0.000000  -0.000000  -0.000000   0.000000
    17  H   -0.000000  -0.000000   0.000000   0.000000  -0.000000   0.000000
    18  H    0.000000  -0.000000   0.000000   0.000000  -0.000000  -0.000000
    19  C    0.000000  -0.000000   0.000000   0.000000  -0.000000  -0.000000
    20  H    0.000000   0.000000  -0.000000  -0.000000   0.000000   0.000000
    21  C   -0.000000   0.000000  -0.000000   0.000000   0.000000  -0.000000
    22  H    0.000000  -0.000000  -0.000000  -0.000000   0.000000   0.000000
    23  C    0.000000   0.000000  -0.000000  -0.000000   0.000000   0.000000
    24  H   -0.000000  -0.000000  -0.000000   0.000000  -0.000000  -0.000000
    25  H    0.000000  -0.000000   0.000000  -0.000000  -0.000000   0.000000
    26  C   -0.000000  -0.000000   0.000000   0.000000  -0.000000  -0.000000
    27  H   -0.000000  -0.000000  -0.000000   0.000000  -0.000000  -0.000000
    28  H    0.000000  -0.000000   0.000000   0.000000  -0.000000  -0.000000
              13         14         15         16         17         18
     1  C    0.000000   0.000000   0.000000  -0.000000   0.000000  -0.000000
     2  C    0.000000   0.000000  -0.000000   0.000000  -0.000000   0.000000
     3  H    0.000000  -0.000000   0.000000   0.000000  -0.000000  -0.000000
     4  H    0.000000  -0.000000   0.000000   0.000000   0.000000   0.000000
     5  C    0.000000   0.000000  -0.000000  -0.000000   0.000000   0.000000
     6  C   -0.000000   0.000000  -0.000000  -0.000000   0.000000  -0.000000
     7  H    0.000000   0.000000  -0.000000  -0.000000  -0.000000   0.000000
     8  H    0.000000  -0.000000   0.000000   0.000000  -0.000000  -0.000000
     9  C    0.000000   0.000000  -0.000000   0.000000   0.000000   0.000000
    10  H   -0.000000   0.000000  -0.000000  -0.000000   0.000000   0.000000
    11  H   -0.000000   0.000000   0.000000  -0.000000  -0.000000  -0.000000
    12  C   -0.000000  -0.000000   0.000000   0.000000   0.000000  -0.000000
    13  H   -0.000000   0.000000   0.000000  -0.000000  -0.000000   0.000000
    14  C    0.000000   0.000000  -0.000000  -0.000000   0.000000  -0.000000
    15  H    0.000000  -0.000000  -0.000000  -0.000000   0.000000   0.000000
    16  C   -0.000000  -0.000000  -0.000000   0.000001  -0.000000  -0.000000
    17  H   -0.000000   0.000000   0.000000  -0.000000   0.000000   0.000000
    18  H    0.000000  -0.000000   0.000000  -0.000000   0.000000  -0.000000
    19  C   -0.000000  -0.000000   0.000000   0.000000   0.000000  -0.000000
    20  H   -0.000000   0.000000  -0.000000   0.000000  -0.000000   0.000000
    21  C   -0.000000   0.000000  -0.000000   0.000000   0.000000   0.000000
    22  H    0.000000  -0.000000  -0.000000   0.000000  -0.000000   0.000000
    23  C    0.000000   0.000000   0.000000  -0.000000  -0.000000   0.000000
    24  H   -0.000000  -0.000000  -0.000000  -0.000000   0.000000   0.000000
    25  H    0.000000   0.000000   0.000000  -0.000000  -0.000000  -0.000000
    26  C   -0.000000   0.000000  -0.000000  -0.000000   0.000000   0.000000
    27  H   -0.000000   0.000000  -0.000000  -0.000000   0.000000   0.000000
    28  H    0.000000  -0.000000   0.000000  -0.000000   0.000000  -0.000000
              19         20         21         22         23         24
     1  C   -0.000000  -0.000000   0.000000  -0.000000  -0.000000  -0.000000
     2  C   -0.000000   0.000000  -0.000000   0.000000  -0.000000  -0.000000
     3  H    0.000000   0.000000  -0.000000  -0.000000   0.000000  -0.000000
     4  H    0.000000   0.000000  -0.000000  -0.000000  -0.000000   0.000000
     5  C   -0.000000  -0.000000   0.000000   0.000000  -0.000000   0.000000
     6  C    0.000000  -0.000000  -0.000000  -0.000000  -0.000000   0.000000
     7  H    0.000000   0.000000  -0.000000   0.000000   0.000000  -0.000000
     8  H   -0.000000   0.000000   0.000000  -0.000000   0.000000  -0.000000
     9  C    0.000000  -0.000000  -0.000000  -0.000000  -0.000000  -0.000000
    10  H    0.000000  -0.000000   0.000000  -0.000000  -0.000000   0.000000
    11  H   -0.000000   0.000000   0.000000   0.000000   0.000000  -0.000000
    12  C   -0.000000   0.000000  -0.000000   0.000000   0.000000  -0.000000
    13  H   -0.000000  -0.000000  -0.000000   0.000000   0.000000  -0.000000
    14  C   -0.000000   0.000000   0.000000  -0.000000   0.000000  -0.000000
[...]
     2  C   -0.000000   0.000000   0.000000   0.000000
     3  H    0.000000   0.000000  -0.000000  -0.000000
     4  H    0.000000  -0.000000   0.000000   0.000000
     5  C   -0.000000  -0.000000   0.000000  -0.000000
     6  C    0.000000  -0.000000  -0.000000   0.000000
     7  H    0.000000  -0.000000  -0.000000   0.000000
     8  H   -0.000000  -0.000000  -0.000000  -0.000000
     9  C    0.000000   0.000000  -0.000000   0.000000
    10  H   -0.000000   0.000000   0.000000   0.000000
    11  H   -0.000000  -0.000000  -0.000000  -0.000000
    12  C    0.000000   0.000000  -0.000000  -0.000000
    13  H    0.000000  -0.000000  -0.000000   0.000000
    14  C   -0.000000   0.000000   0.000000  -0.000000
    15  H    0.000000  -0.000000  -0.000000   0.000000
    16  C   -0.000000  -0.000000  -0.000000  -0.000000
    17  H   -0.000000   0.000000   0.000000   0.000000
    18  H   -0.000000   0.000000   0.000000  -0.000000
    19  C    0.000000   0.000000   0.000000  -0.000000
    20  H    0.000000   0.000000  -0.000000   0.000000
    21  C    0.000000  -0.000000   0.000000  -0.000000
    22  H    0.000000   0.000000  -0.000000   0.000000
    23  C    0.000000  -0.000000  -0.000000  -0.000000
    24  H    0.000000   0.000000   0.000000   0.000000
    25  H   -0.000000   0.000000  -0.000000  -0.000000
    26  C    0.000000  -0.000001   0.000000   0.000000
    27  H   -0.000000   0.000000   0.000000   0.000000
    28  H   -0.000000   0.000000   0.000000  -0.000000
 Mulliken charges and spin densities:
               1          2
     1  C   -0.205162  -0.000001
     2  C   -0.202004   0.000000
     3  H    0.148852   0.000000
     4  H    0.169440  -0.000000
     5  C   -0.188380  -0.000001
     6  C   -0.201745   0.000001
     7  H    0.166392   0.000000
     8  H    0.169488  -0.000000
     9  C   -0.201099  -0.000001
    10  H    0.130486   0.000000
    11  H    0.137609   0.000000
    12  C   -0.165427   0.000000
    13  H    0.152314  -0.000000
    14  C   -0.203867  -0.000000
    15  H    0.148792   0.000000
    16  C   -0.188877   0.000000
    17  H    0.111542  -0.000000
    18  H    0.132746  -0.000000
    19  C   -0.187775   0.000000
    20  H    0.166231  -0.000000
    21  C   -0.164607   0.000000
    22  H    0.152287   0.000000
    23  C   -0.199782   0.000001
    24  H    0.136187  -0.000000
    25  H    0.130543  -0.000000
    26  C   -0.187895  -0.000000
    27  H    0.132385   0.000000
    28  H    0.111326  -0.000000
 Sum of Mulliken charges =  -0.00000   0.00000
 Mulliken charges and spin densities with hydrogens summed into heavy atoms:
               1          2
     1  C   -0.056310  -0.000001
     2  C   -0.032565   0.000000
     5  C   -0.021988  -0.000001
     6  C   -0.032257   0.000001
     9  C    0.066997  -0.000000
    12  C   -0.013113   0.000000
    14  C   -0.055075  -0.000000
    16  C    0.055410   0.000000
    19  C   -0.021543  -0.000000
    21  C   -0.012320   0.000001
    23  C    0.066948   0.000000
    26  C    0.055816  -0.000000
 Electronic spatial extent (au):  <R**2>=           2369.1646
 Charge=              0.0000 electrons
 Dipole moment (field-independent basis, Debye):
    X=             -0.0020    Y=             -0.0022    Z=             -0.0002  Tot=              0.0030
 Quadrupole moment (field-independent basis, Debye-Ang):
   XX=            -70.7978   YY=            -68.0285   ZZ=            -74.6308
   XY=             -3.2115   XZ=             -4.0817   YZ=             -1.6561
 Traceless Quadrupole moment (field-independent basis, Debye-Ang):
   XX=              0.3546   YY=              3.1239   ZZ=             -3.4785
   XY=             -3.2115   XZ=             -4.0817   YZ=             -1.6561
 Octapole moment (field-independent basis, Debye-Ang**2):
  XXX=             -0.0073  YYY=             -0.0124  ZZZ=             -0.0091  XYY=              0.0008
  XXY=              0.0027  XXZ=             -0.0083  XZZ=             -0.0151  YZZ=             -0.0063
  YYZ=              0.0116  XYZ=             -0.0070
 Hexadecapole moment (field-independent basis, Debye-Ang**3):
 XXXX=          -2088.1420 YYYY=           -607.7460 ZZZZ=           -476.2763 XXXY=           -124.0077
 XXXZ=           -189.8716 YYYX=            -72.5943 YYYZ=            -12.8475 ZZZX=           -129.2755
 ZZZY=            -27.5089 XXYY=           -441.4706 XXZZ=           -444.2367 YYZZ=           -195.6736
 XXYZ=            -28.6468 YYXZ=            -45.4783 ZZXY=            -49.3864
 N-N= 6.672473091871D+02 E-N=-2.417093277460D+03  KE= 4.642795021205D+02
                          Isotropic Fermi Contact Couplings
        Atom                 a.u.       MegaHertz       Gauss      10(-4) cm-1
     1  C(13)             -0.00000      -0.00006      -0.00002      -0.00002
     2  C(13)              0.00000       0.00000       0.00000       0.00000
     3  H(1)               0.00000       0.00003       0.00001       0.00001
     4  H(1)               0.00000       0.00001       0.00000       0.00000
     5  C(13)             -0.00000      -0.00018      -0.00006      -0.00006
     6  C(13)              0.00000       0.00007       0.00003       0.00002
     7  H(1)               0.00000       0.00024       0.00009       0.00008
     8  H(1)              -0.00000      -0.00006      -0.00002      -0.00002
     9  C(13)             -0.00000      -0.00020      -0.00007      -0.00007
    10  H(1)               0.00000       0.00011       0.00004       0.00004
    11  H(1)               0.00000       0.00011       0.00004       0.00004
    12  C(13)              0.00000       0.00013       0.00005       0.00004
    13  H(1)              -0.00000      -0.00021      -0.00007      -0.00007
    14  C(13)             -0.00000      -0.00001      -0.00001      -0.00000
    15  H(1)               0.00000       0.00002       0.00001       0.00001
    16  C(13)              0.00000       0.00014       0.00005       0.00005
    17  H(1)              -0.00000      -0.00007      -0.00002      -0.00002
    18  H(1)              -0.00000      -0.00005      -0.00002      -0.00002
    19  C(13)              0.00000       0.00010       0.00004       0.00003
    20  H(1)              -0.00000      -0.00020      -0.00007      -0.00007
    21  C(13)             -0.00000      -0.00006      -0.00002      -0.00002
    22  H(1)               0.00000       0.00017       0.00006       0.00006
    23  C(13)              0.00000       0.00017       0.00006       0.00006
    24  H(1)              -0.00000      -0.00008      -0.00003      -0.00003
    25  H(1)              -0.00000      -0.00005      -0.00002      -0.00002
    26  C(13)             -0.00000      -0.00011      -0.00004      -0.00004
    27  H(1)               0.00000       0.00003       0.00001       0.00001
    28  H(1)               0.00000       0.00000       0.00000       0.00000
 --------------------------------------------------------
       Center         ----  Spin Dipole Couplings  ----
                      3XX-RR        3YY-RR        3ZZ-RR
 --------------------------------------------------------
     1   Atom       -0.000000      0.000001     -0.000000
     2   Atom        0.000000     -0.000000      0.000000
     3   Atom        0.000000      0.000000     -0.000000
     4   Atom       -0.000000     -0.000000      0.000000
     5   Atom       -0.000000     -0.000000      0.000000
     6   Atom       -0.000000     -0.000000      0.000001
     7   Atom        0.000000     -0.000000      0.000000
     8   Atom        0.000000     -0.000000     -0.000000
     9   Atom       -0.000000      0.000000     -0.000000
    10   Atom        0.000000      0.000000     -0.000000
    11   Atom       -0.000000     -0.000000      0.000000
    12   Atom        0.000000      0.000000     -0.000000
    13   Atom       -0.000000      0.000000     -0.000000
    14   Atom        0.000000      0.000000     -0.000000
    15   Atom       -0.000000      0.000000      0.000000
    16   Atom        0.000000     -0.000000      0.000000
    17   Atom        0.000000     -0.000000      0.000000
    18   Atom        0.000000      0.000000     -0.000000
    19   Atom        0.000000      0.000000     -0.000001
    20   Atom       -0.000000      0.000000     -0.000000
    21   Atom       -0.000000     -0.000001      0.000001
    22   Atom        0.000000     -0.000000      0.000000
    23   Atom        0.000000     -0.000000      0.000000
    24   Atom       -0.000000      0.000000     -0.000000
    25   Atom       -0.000000     -0.000000      0.000000
    26   Atom       -0.000000      0.000000     -0.000000
    27   Atom        0.000000     -0.000000      0.000000
    28   Atom       -0.000000      0.000000     -0.000000
 --------------------------------------------------------
                        XY            XZ            YZ
 --------------------------------------------------------
     1   Atom        0.000000     -0.000001      0.000000
     2   Atom        0.000000      0.000001      0.000000
     3   Atom       -0.000000      0.000000      0.000000
     4   Atom       -0.000000     -0.000000      0.000000
     5   Atom       -0.000000     -0.000000     -0.000000
     6   Atom       -0.000000      0.000000      0.000000
     7   Atom        0.000000      0.000000     -0.000000
     8   Atom        0.000000     -0.000000     -0.000000
     9   Atom       -0.000000      0.000000     -0.000000
    10   Atom        0.000000     -0.000000      0.000000
    11   Atom       -0.000000     -0.000000     -0.000000
    12   Atom        0.000000      0.000000     -0.000000
    13   Atom        0.000000     -0.000000     -0.000000
    14   Atom       -0.000000      0.000000     -0.000000
    15   Atom       -0.000000     -0.000000     -0.000000
    16   Atom       -0.000000     -0.000000     -0.000000
    17   Atom        0.000000      0.000000      0.000000
    18   Atom       -0.000000      0.000000     -0.000000
    19   Atom       -0.000000     -0.000000      0.000000
    20   Atom       -0.000000     -0.000000      0.000000
    21   Atom       -0.000000      0.000000      0.000000
    22   Atom        0.000000      0.000000      0.000000
    23   Atom        0.000000     -0.000000      0.000000
    24   Atom        0.000000      0.000000      0.000000
    25   Atom       -0.000000      0.000000     -0.000000
    26   Atom        0.000000      0.000000      0.000000
    27   Atom        0.000000     -0.000000      0.000000
    28   Atom       -0.000000     -0.000000     -0.000000
 --------------------------------------------------------


 ---------------------------------------------------------------------------------
              Anisotropic Spin Dipole Couplings in Principal Axis System
 ---------------------------------------------------------------------------------

       Atom             a.u.   MegaHertz   Gauss  10(-4) cm-1        Axes

              Baa    -0.0000    -0.000    -0.000    -0.000  0.7453 -0.1128  0.6571
     1 C(13)  Bbb     0.0000     0.000     0.000     0.000  0.0809  0.9936  0.0788
              Bcc     0.0000     0.000     0.000     0.000 -0.6618 -0.0056  0.7497
 
              Baa    -0.0000    -0.000    -0.000    -0.000 -0.6584  0.2403  0.7133
     2 C(13)  Bbb    -0.0000    -0.000    -0.000    -0.000 -0.0618  0.9272 -0.3693
              Bcc     0.0000     0.000     0.000     0.000  0.7501  0.2872  0.5957
 
              Baa    -0.0000    -0.000    -0.000    -0.000 -0.3919 -0.1671  0.9047
     3 H(1)   Bbb     0.0000     0.000     0.000     0.000  0.9153  0.0283  0.4017
              Bcc     0.0000     0.000     0.000     0.000 -0.0927  0.9855  0.1419
 
              Baa    -0.0000    -0.000    -0.000    -0.000 -0.2391  0.9367 -0.2560
     4 H(1)   Bbb    -0.0000    -0.000    -0.000    -0.000  0.9024  0.3117  0.2974
              Bcc     0.0000     0.000     0.000     0.000 -0.3584  0.1599  0.9198
 
              Baa    -0.0000    -0.000    -0.000    -0.000  0.8069  0.3428  0.4811
     5 C(13)  Bbb    -0.0000    -0.000    -0.000    -0.000 -0.4543  0.8806  0.1346
              Bcc     0.0000     0.000     0.000     0.000 -0.3775 -0.3272  0.8663
 
              Baa    -0.0000    -0.000    -0.000    -0.000  0.8356  0.5202 -0.1764
     6 C(13)  Bbb    -0.0000    -0.000    -0.000    -0.000 -0.5330  0.8455 -0.0313
              Bcc     0.0000     0.000     0.000     0.000  0.1329  0.1202  0.9838
 
              Baa    -0.0000    -0.000    -0.000    -0.000 -0.5142  0.8215  0.2465
     7 H(1)   Bbb     0.0000     0.000     0.000     0.000  0.7325  0.2711  0.6245
              Bcc     0.0000     0.000     0.000     0.000 -0.4461 -0.5017  0.7411
 
              Baa    -0.0000    -0.000    -0.000    -0.000 -0.1000  0.8746  0.4743
     8 H(1)   Bbb    -0.0000    -0.000    -0.000    -0.000  0.0887 -0.4670  0.8798
              Bcc     0.0000     0.000     0.000     0.000  0.9910  0.1301 -0.0308
 
              Baa    -0.0000    -0.000    -0.000    -0.000  0.7215  0.1272 -0.6807
     9 C(13)  Bbb     0.0000     0.000     0.000     0.000  0.5109  0.5658  0.6472
              Bcc     0.0000     0.000     0.000     0.000 -0.4674  0.8147 -0.3433
 
              Baa    -0.0000    -0.000    -0.000    -0.000  0.5029 -0.1374  0.8534
    10 H(1)   Bbb     0.0000     0.000     0.000     0.000  0.8484  0.2673 -0.4569
              Bcc     0.0000     0.000     0.000     0.000 -0.1653  0.9538  0.2509
 
              Baa    -0.0000    -0.000    -0.000    -0.000  0.6008  0.7968  0.0650
    11 H(1)   Bbb     0.0000     0.000     0.000     0.000 -0.3169  0.1627  0.9344
              Bcc     0.0000     0.000     0.000     0.000  0.7340 -0.5819  0.3502
 
              Baa    -0.0000    -0.000    -0.000    -0.000 -0.1853  0.1415  0.9724
    12 C(13)  Bbb     0.0000     0.000     0.000     0.000 -0.3292  0.9235 -0.1971
              Bcc     0.0000     0.000     0.000     0.000  0.9259  0.3566  0.1246
 
              Baa    -0.0000    -0.000    -0.000    -0.000 -0.2009  0.3891  0.8990
    13 H(1)   Bbb    -0.0000    -0.000    -0.000    -0.000  0.9474 -0.1563  0.2794
              Bcc     0.0000     0.000     0.000     0.000  0.2492  0.9079 -0.3372
 
              Baa    -0.0000    -0.000    -0.000    -0.000 -0.1443  0.0541  0.9881
    14 C(13)  Bbb    -0.0000    -0.000    -0.000    -0.000  0.2547  0.9669 -0.0157
              Bcc     0.0000     0.000     0.000     0.000  0.9562 -0.2494  0.1533
 
              Baa    -0.0000    -0.000    -0.000    -0.000  0.9917  0.0346  0.1236
    15 H(1)   Bbb     0.0000     0.000     0.000     0.000 -0.0632  0.9697  0.2360
              Bcc     0.0000     0.000     0.000     0.000 -0.1117 -0.2418  0.9639
 
              Baa    -0.0000    -0.000    -0.000    -0.000  0.3559  0.8801  0.3142
    16 C(13)  Bbb    -0.0000    -0.000    -0.000    -0.000  0.6570 -0.4747  0.5856
              Bcc     0.0000     0.000     0.000     0.000 -0.6646  0.0020  0.7472
 
              Baa    -0.0000    -0.000    -0.000    -0.000 -0.0494  0.9168 -0.3964
    17 H(1)   Bbb    -0.0000    -0.000    -0.000    -0.000  0.8418 -0.1754 -0.5105
              Bcc     0.0000     0.000     0.000     0.000  0.5376  0.3589  0.7631
 
              Baa    -0.0000    -0.000    -0.000    -0.000  0.6459  0.6807  0.3456
    18 H(1)   Bbb    -0.0000    -0.000    -0.000    -0.000 -0.3651 -0.1222  0.9229
              Bcc     0.0000     0.000     0.000     0.000 -0.6705  0.7223 -0.1696
 
              Baa    -0.0000    -0.000    -0.000    -0.000  0.1353 -0.0178  0.9906
    19 C(13)  Bbb     0.0000     0.000     0.000     0.000  0.8951  0.4309 -0.1145
              Bcc     0.0000     0.000     0.000     0.000 -0.4248  0.9022  0.0742
 
              Baa    -0.0000    -0.000    -0.000    -0.000  0.4229 -0.0494  0.9048
    20 H(1)   Bbb    -0.0000    -0.000    -0.000    -0.000  0.7883  0.5124 -0.3405
              Bcc     0.0000     0.000     0.000     0.000 -0.4468  0.8573  0.2557
 
              Baa    -0.0000    -0.000    -0.000    -0.000  0.3651  0.9239 -0.1144
    21 C(13)  Bbb    -0.0000    -0.000    -0.000    -0.000  0.8861 -0.3826 -0.2616
              Bcc     0.0000     0.000     0.000     0.000  0.2854  0.0058  0.9584
 
              Baa    -0.0000    -0.000    -0.000    -0.000 -0.1185  0.9709 -0.2080
    22 H(1)   Bbb    -0.0000    -0.000    -0.000    -0.000  0.8466 -0.0107 -0.5321
              Bcc     0.0000     0.000     0.000     0.000  0.5189  0.2392  0.8207
 
              Baa    -0.0000    -0.000    -0.000    -0.000 -0.4278  0.8477 -0.3135
    23 C(13)  Bbb     0.0000     0.000     0.000     0.000  0.5420  0.5182  0.6616
              Bcc     0.0000     0.000     0.000     0.000  0.7233  0.1131 -0.6812
 
              Baa    -0.0000    -0.000    -0.000    -0.000  0.6619 -0.4543  0.5962
    24 H(1)   Bbb    -0.0000    -0.000    -0.000    -0.000 -0.5441  0.2558  0.7990
              Bcc     0.0000     0.000     0.000     0.000  0.5156  0.8533  0.0779
 
              Baa    -0.0000    -0.000    -0.000    -0.000  0.6795  0.6520 -0.3364
    25 H(1)   Bbb    -0.0000    -0.000    -0.000    -0.000 -0.4387  0.7286  0.5259
              Bcc     0.0000     0.000     0.000     0.000  0.5881 -0.2098  0.7811
 
              Baa    -0.0000    -0.000    -0.000    -0.000 -0.6673 -0.0104  0.7447
    26 C(13)  Bbb     0.0000     0.000     0.000     0.000  0.6785 -0.4210  0.6020
              Bcc     0.0000     0.000     0.000     0.000  0.3073  0.9070  0.2880
 
              Baa    -0.0000    -0.000    -0.000    -0.000 -0.5404  0.8146 -0.2106
    27 H(1)   Bbb     0.0000     0.000     0.000     0.000  0.7336  0.3335 -0.5922
              Bcc     0.0000     0.000     0.000     0.000  0.4122  0.4745  0.7778
 
              Baa    -0.0000    -0.000    -0.000    -0.000  0.6319  0.5701  0.5251
    28 H(1)   Bbb     0.0000     0.000     0.000     0.000 -0.3636 -0.3802  0.8504
              Bcc     0.0000     0.000     0.000     0.000 -0.6845  0.7283  0.0329
 

 ---------------------------------------------------------------------------------

 No NMR shielding tensors so no spin-rotation constants.
 Leave Link  601 at Mon Aug  3 19:43:48 2020, MaxMem=  6442450944 cpu:               7.9 elap:               0.4
 (Enter /scratch/scicomp/CentOS/7.3.1611/Haswell/software/Gaussian/g16/l9999.exe)
 1\1\GINC-ATLAS-205\SP\UwB97XD\def2TZVP\C12H16\BOCHEN\03-Aug-2020\0\\#p
  uwb97xd guess=mix def2tzvp # scrf=(iefpcm,solvent=Cyclohexane,read) n
 osym 6d 10f\\endo-2 xp-pcm for eta=3\\0,1\C,0,-3.10656,-0.437378,0.291
 938\C,0,-0.848443,-0.283188,-1.412362\H,0,-4.00958,-0.509623,0.88693\H
 ,0,0.059937,-0.215575,-1.999027\C,0,1.250446,1.448137,0.910401\C,0,0.8
 48443,0.283188,1.412362\H,0,0.670918,2.349204,1.073365\H,0,-0.059937,0
 .215575,1.999027\C,0,1.671088,-0.961349,1.23751\H,0,2.316912,-1.067273
 ,2.119278\H,0,1.024124,-1.840049,1.224471\C,0,2.491494,1.537477,0.1388
 07\H,0,2.894509,2.517243,-0.088123\C,0,3.10656,0.437378,-0.291938\H,0,
 4.00958,0.509623,-0.88693\C,0,2.527393,-0.925952,-0.029998\H,0,1.91688
 6,-1.211409,-0.895423\H,0,3.321807,-1.671334,0.037592\C,0,-1.250446,-1
 .448137,-0.910401\H,0,-0.670918,-2.349204,-1.073365\C,0,-2.491494,-1.5
 37477,-0.138807\H,0,-2.894509,-2.517243,0.088123\C,0,-1.671088,0.96134
 9,-1.23751\H,0,-1.024124,1.840049,-1.224471\H,0,-2.316912,1.067273,-2.
 119278\C,0,-2.527393,0.925952,0.029998\H,0,-3.321807,1.671334,-0.03759
 2\H,0,-1.916886,1.211409,0.895423\\Version=ES64L-G16RevB.01\HF=-466.81
 26876\S2=0.\S2-1=0.\S2A=0.\RMSD=8.362e-09\Dipole=-0.000787,-0.0008803,
 -0.000067\Quadrupole=0.263636,2.3225172,-2.5861532,-2.3876484,-3.03463
 6,-1.2312917\PG=CI [X(C12H16)]\\@


 GETTING A SIMPLE ANSWER FROM A PROFESSOR IS LIKE
 GETTING A THIMBLE OF WATER FROM A FIRE HYDRANT.
     -- PROF. LEN SHAPIRO, NDSU
 Job cpu time:       0 days  2 hours  4 minutes 40.8 seconds.
 Elapsed time:       0 days  0 hours  5 minutes 14.9 seconds.
 File lengths (MBytes):  RWF=    662 Int=      0 D2E=      0 Chk=     25 Scr=      1
 Normal termination of Gaussian 16 at Mon Aug  3 19:43:48 2020.
