 Entering Gaussian System, Link 0=g16
 Input=meso-TS_61_2_pcm.com
 Output=meso-TS_61_2_pcm.log
 Initial command:
 /scratch/scicomp/CentOS/7.3.1611/Haswell/software/Gaussian/g16/l1.exe "/scratch/bochen/cyclohexadiene-dimerization/wb97xd-def2tzvp/xp-pcm/meso/Gau-20912.inp" -scrdir="/scratch/bochen/cyclohexadiene-dimerization/wb97xd-def2tzvp/xp-pcm/meso/"
 Entering Link 1 = /scratch/scicomp/CentOS/7.3.1611/Haswell/software/Gaussian/g16/l1.exe PID=     20913.
  
 Copyright (c) 1988-2017, Gaussian, Inc.  All Rights Reserved.
  
 This is part of the Gaussian(R) 16 program.  It is based on
 the Gaussian(R) 09 system (copyright 2009, Gaussian, Inc.),
 the Gaussian(R) 03 system (copyright 2003, Gaussian, Inc.),
 the Gaussian(R) 98 system (copyright 1998, Gaussian, Inc.),
 the Gaussian(R) 94 system (copyright 1995, Gaussian, Inc.),
 the Gaussian 92(TM) system (copyright 1992, Gaussian, Inc.),
 the Gaussian 90(TM) system (copyright 1990, Gaussian, Inc.),
 the Gaussian 88(TM) system (copyright 1988, Gaussian, Inc.),
 the Gaussian 86(TM) system (copyright 1986, Carnegie Mellon
 University), and the Gaussian 82(TM) system (copyright 1983,
 Carnegie Mellon University). Gaussian is a federally registered
 trademark of Gaussian, Inc.
  
 This software contains proprietary and confidential information,
 including trade secrets, belonging to Gaussian, Inc.
  
 This software is provided under written license and may be
 used, copied, transmitted, or stored only in accord with that
 written license.
  
 The following legend is applicable only to US Government
 contracts under FAR:
  
                    RESTRICTED RIGHTS LEGEND
  
 Use, reproduction and disclosure by the US Government is
 subject to restrictions as set forth in subparagraphs (a)
 and (c) of the Commercial Computer Software - Restricted
 Rights clause in FAR 52.227-19.
  
 Gaussian, Inc.
 340 Quinnipiac St., Bldg. 40, Wallingford CT 06492
  
  
 ---------------------------------------------------------------
 Warning -- This program may not be used in any manner that
 competes with the business of Gaussian, Inc. or will provide
 assistance to any competitor of Gaussian, Inc.  The licensee
 of this program is prohibited from giving any competitor of
 Gaussian, Inc. access to this program.  By using this program,
 the user acknowledges that Gaussian, Inc. is engaged in the
 business of creating and licensing software in the field of
 computational chemistry and represents and warrants to the
 licensee that it is not a competitor of Gaussian, Inc. and that
 it will not use this program in any manner prohibited above.
 ---------------------------------------------------------------
  

 Cite this work as:
 Gaussian 16, Revision B.01,
 M. J. Frisch, G. W. Trucks, H. B. Schlegel, G. E. Scuseria, 
 M. A. Robb, J. R. Cheeseman, G. Scalmani, V. Barone, 
 G. A. Petersson, H. Nakatsuji, X. Li, M. Caricato, A. V. Marenich, 
 J. Bloino, B. G. Janesko, R. Gomperts, B. Mennucci, H. P. Hratchian, 
 J. V. Ortiz, A. F. Izmaylov, J. L. Sonnenberg, D. Williams-Young, 
 F. Ding, F. Lipparini, F. Egidi, J. Goings, B. Peng, A. Petrone, 
 T. Henderson, D. Ranasinghe, V. G. Zakrzewski, J. Gao, N. Rega, 
 G. Zheng, W. Liang, M. Hada, M. Ehara, K. Toyota, R. Fukuda, 
 J. Hasegawa, M. Ishida, T. Nakajima, Y. Honda, O. Kitao, H. Nakai, 
 T. Vreven, K. Throssell, J. A. Montgomery, Jr., J. E. Peralta, 
 F. Ogliaro, M. J. Bearpark, J. J. Heyd, E. N. Brothers, K. N. Kudin, 
 V. N. Staroverov, T. A. Keith, R. Kobayashi, J. Normand, 
 K. Raghavachari, A. P. Rendell, J. C. Burant, S. S. Iyengar, 
 J. Tomasi, M. Cossi, J. M. Millam, M. Klene, C. Adamo, R. Cammi, 
 J. W. Ochterski, R. L. Martin, K. Morokuma, O. Farkas, 
 J. B. Foresman, and D. J. Fox, Gaussian, Inc., Wallingford CT, 2016.
 
 ******************************************
 Gaussian 16:  ES64L-G16RevB.01 20-Dec-2017
                 3-Aug-2020 
 ******************************************
 %nproc=24
 Will use up to   24 processors via shared memory.
 %mem=48GB
 ----------------------------------------------------------------------
 #p uwb97xd guess=mix def2tzvp # scrf=(iefpcm,solvent=Cyclohexane,read)
  nosym 6d 10f
 ----------------------------------------------------------------------
 1/38=1,40=2,172=1/1;
 2/12=2,15=1,17=6,18=5,40=1/2;
 3/5=44,7=101,8=22,11=2,25=1,30=1,70=2203,72=17,74=-58,116=2/1,2,3;
 4/13=-1/1;
 5/5=2,38=5,53=17/2;
 6/7=2,8=2,9=2,10=2,28=1/1;
 99/5=1,9=1/99;
 Leave Link    1 at Mon Aug  3 14:22:49 2020, MaxMem=  6442450944 cpu:               1.6 elap:               0.1
 (Enter /scratch/scicomp/CentOS/7.3.1611/Haswell/software/Gaussian/g16/l101.exe)
 -----------------------
 endo-2 xp-pcm for eta=3
 -----------------------
 Symbolic Z-matrix:
 Charge =  0 Multiplicity = 1
 6                    -3.12572  -0.44098   0.2706 
 6                    -0.76496  -0.25924  -1.28641 
 1                    -4.05851  -0.52783   0.81571 
 1                     0.17605  -0.18056  -1.81705 
 6                     1.19084   1.43106   0.82378 
 6                     0.76496   0.25924   1.28641 
 1                     0.59975   2.32807   0.96549 
 1                    -0.17605   0.18056   1.81705 
 6                     1.59488  -0.98463   1.15015 
 1                     2.15622  -1.11379   2.08453 
 1                     0.94626  -1.85741   1.06367 
 6                     2.46818   1.53245   0.11662 
 1                     2.86749   2.51668  -0.09724 
 6                     3.12572   0.44098  -0.2706 
 1                     4.05851   0.52783  -0.81571 
 6                     2.5669   -0.93549  -0.03303 
 1                     2.05986  -1.26226  -0.94921 
 1                     3.3771   -1.64953   0.12636 
 6                    -1.19084  -1.43106  -0.82378 
 1                    -0.59975  -2.32807  -0.96549 
 6                    -2.46818  -1.53245  -0.11662 
 1                    -2.86749  -2.51668   0.09724 
 6                    -1.59488   0.98463  -1.15015 
 1                    -0.94626   1.85741  -1.06367 
 1                    -2.15622   1.11379  -2.08453 
 6                    -2.5669    0.93549   0.03303 
 1                    -3.3771    1.64953  -0.12636 
 1                    -2.05986   1.26226   0.94921 
 
 ITRead=  0  0  0  0  0  0  0  0  0  0  0  0  0  0  0  0  0  0  0  0
 ITRead=  0  0  0  0  0  0  0  0
 MicOpt= -1 -1 -1 -1 -1 -1 -1 -1 -1 -1 -1 -1 -1 -1 -1 -1 -1 -1 -1 -1
 MicOpt= -1 -1 -1 -1 -1 -1 -1 -1
 NAtoms=     28 NQM=       28 NQMF=       0 NMMI=      0 NMMIF=      0
                NMic=       0 NMicF=      0.
                    Isotopes and Nuclear Properties:
 (Nuclear quadrupole moments (NQMom) in fm**2, nuclear magnetic moments (NMagM)
  in nuclear magnetons)

  Atom         1           2           3           4           5           6           7           8           9          10
 IAtWgt=          12          12           1           1          12          12           1           1          12           1
 AtmWgt=  12.0000000  12.0000000   1.0078250   1.0078250  12.0000000  12.0000000   1.0078250   1.0078250  12.0000000   1.0078250
 NucSpn=           0           0           1           1           0           0           1           1           0           1
 AtZEff=  -0.0000000  -0.0000000  -0.0000000  -0.0000000  -0.0000000  -0.0000000  -0.0000000  -0.0000000  -0.0000000  -0.0000000
 NQMom=    0.0000000   0.0000000   0.0000000   0.0000000   0.0000000   0.0000000   0.0000000   0.0000000   0.0000000   0.0000000
 NMagM=    0.0000000   0.0000000   2.7928460   2.7928460   0.0000000   0.0000000   2.7928460   2.7928460   0.0000000   2.7928460
 AtZNuc=   6.0000000   6.0000000   1.0000000   1.0000000   6.0000000   6.0000000   1.0000000   1.0000000   6.0000000   1.0000000

  Atom        11          12          13          14          15          16          17          18          19          20
 IAtWgt=           1          12           1          12           1          12           1           1          12           1
 AtmWgt=   1.0078250  12.0000000   1.0078250  12.0000000   1.0078250  12.0000000   1.0078250   1.0078250  12.0000000   1.0078250
 NucSpn=           1           0           1           0           1           0           1           1           0           1
 AtZEff=  -0.0000000  -0.0000000  -0.0000000  -0.0000000  -0.0000000  -0.0000000  -0.0000000  -0.0000000  -0.0000000  -0.0000000
 NQMom=    0.0000000   0.0000000   0.0000000   0.0000000   0.0000000   0.0000000   0.0000000   0.0000000   0.0000000   0.0000000
 NMagM=    2.7928460   0.0000000   2.7928460   0.0000000   2.7928460   0.0000000   2.7928460   2.7928460   0.0000000   2.7928460
 AtZNuc=   1.0000000   6.0000000   1.0000000   6.0000000   1.0000000   6.0000000   1.0000000   1.0000000   6.0000000   1.0000000

  Atom        21          22          23          24          25          26          27          28
 IAtWgt=          12           1          12           1           1          12           1           1
 AtmWgt=  12.0000000   1.0078250  12.0000000   1.0078250   1.0078250  12.0000000   1.0078250   1.0078250
 NucSpn=           0           1           0           1           1           0           1           1
 AtZEff=  -0.0000000  -0.0000000  -0.0000000  -0.0000000  -0.0000000  -0.0000000  -0.0000000  -0.0000000
 NQMom=    0.0000000   0.0000000   0.0000000   0.0000000   0.0000000   0.0000000   0.0000000   0.0000000
 NMagM=    0.0000000   2.7928460   0.0000000   2.7928460   2.7928460   0.0000000   2.7928460   2.7928460
 AtZNuc=   6.0000000   1.0000000   6.0000000   1.0000000   1.0000000   6.0000000   1.0000000   1.0000000
 Leave Link  101 at Mon Aug  3 14:22:49 2020, MaxMem=  6442450944 cpu:               2.4 elap:               0.1
 (Enter /scratch/scicomp/CentOS/7.3.1611/Haswell/software/Gaussian/g16/l202.exe)
                          Input orientation:                          
 ---------------------------------------------------------------------
 Center     Atomic      Atomic             Coordinates (Angstroms)
 Number     Number       Type             X           Y           Z
 ---------------------------------------------------------------------
      1          6           0       -3.125716   -0.440978    0.270604
      2          6           0       -0.764956   -0.259235   -1.286409
      3          1           0       -4.058512   -0.527829    0.815709
      4          1           0        0.176050   -0.180561   -1.817052
      5          6           0        1.190843    1.431055    0.823776
      6          6           0        0.764956    0.259235    1.286409
      7          1           0        0.599752    2.328066    0.965494
      8          1           0       -0.176050    0.180561    1.817052
      9          6           0        1.594875   -0.984626    1.150152
     10          1           0        2.156222   -1.113793    2.084526
     11          1           0        0.946262   -1.857408    1.063673
     12          6           0        2.468178    1.532445    0.116620
     13          1           0        2.867487    2.516684   -0.097237
     14          6           0        3.125716    0.440978   -0.270604
     15          1           0        4.058512    0.527829   -0.815709
     16          6           0        2.566903   -0.935493   -0.033026
     17          1           0        2.059865   -1.262257   -0.949209
     18          1           0        3.377104   -1.649532    0.126360
     19          6           0       -1.190843   -1.431055   -0.823776
     20          1           0       -0.599752   -2.328066   -0.965494
     21          6           0       -2.468178   -1.532445   -0.116620
     22          1           0       -2.867487   -2.516684    0.097237
     23          6           0       -1.594875    0.984626   -1.150152
     24          1           0       -0.946262    1.857408   -1.063673
     25          1           0       -2.156222    1.113793   -2.084526
     26          6           0       -2.566903    0.935493    0.033026
     27          1           0       -3.377104    1.649532   -0.126360
     28          1           0       -2.059865    1.262257    0.949209
 ---------------------------------------------------------------------
                    Distance matrix (angstroms):
                    1          2          3          4          5
     1  C    0.000000
     2  C    2.833815   0.000000
     3  H    1.083878   3.916447   0.000000
     4  H    3.915071   1.083173   4.998354   0.000000
     5  C    4.737424   3.336931   5.602947   3.255931   0.000000
     6  C    4.081603   3.037900   4.909875   3.189310   1.329876
     7  H    4.693569   3.691561   5.466077   3.770318   1.083560
     8  H    3.387970   3.189310   4.071611   3.668937   2.102077
     9  C    4.832508   3.468692   5.681664   3.385836   2.470886
    10  H    5.625110   4.541669   6.369943   4.473736   2.999616
    11  H    4.383633   3.317425   5.184306   3.421055   3.306261
    12  C    5.933781   3.953702   6.879763   3.453596   1.463535
    13  H    6.693396   4.723822   7.620498   4.180518   2.199543
    14  C    6.336494   4.081603   7.330197   3.387970   2.433445
    15  H    7.330197   4.909875   8.346377   4.071611   3.424508
    16  C    5.722119   3.623476   6.691985   3.077150   2.868484
    17  H    5.390055   3.016516   6.410059   2.339226   3.339552
    18  H    6.615745   4.591895   7.551278   4.022620   3.841372
    19  C    2.433445   1.329876   3.424508   2.102077   4.071674
    20  H    3.386670   2.100081   4.286789   2.436965   4.531965
    21  C    1.331765   2.427022   2.099441   3.422134   4.801574
    22  H    2.098879   3.381004   2.426991   4.287784   5.708112
    23  C    2.528709   1.501506   3.495946   2.222294   3.443242
    24  H    3.436989   2.136039   4.348279   2.445502   2.882960
    25  H    2.983935   2.111354   3.837316   2.680744   4.445416
    26  C    1.504456   2.532844   2.231323   3.491727   3.871889
    27  H    2.142664   3.436920   2.468342   4.339652   4.670828
    28  H    2.120743   2.998285   2.686414   3.838390   3.257503
                    6          7          8          9         10
     6  C    0.000000
     7  H    2.100081   0.000000
     8  H    1.083173   2.436965   0.000000
     9  C    1.501506   3.463856   2.222294   0.000000
    10  H    2.111354   3.939699   2.680744   1.097656   0.000000
    11  H    2.136039   4.200940   2.445502   1.090837   1.749030
    12  C    2.427022   2.201049   3.422134   2.857708   3.312483
    13  H    3.381004   2.511493   4.287784   3.928701   4.294922
    14  C    2.833815   3.386670   3.915071   2.528709   2.983935
    15  H    3.916447   4.286789   4.998354   3.495946   3.837316
    16  C    2.532844   3.939231   3.491727   1.532045   2.164365
    17  H    2.998285   4.323012   3.838390   2.168089   3.038894
    18  H    3.436920   4.923324   4.339652   2.160229   2.368962
    19  C    3.336931   4.531965   3.255931   3.443242   4.445416
    20  H    3.691561   5.181418   3.770318   3.331243   4.286312
    21  C    3.953702   5.048436   3.453596   4.291062   5.138617
    22  H    4.723822   6.020566   4.180518   4.834098   5.581673
    23  C    3.468692   3.331243   3.385836   4.398165   5.379334
    24  H    3.317425   2.594070   3.421055   4.408578   5.325843
    25  H    4.541669   4.286312   4.473736   5.379334   6.398461
    26  C    3.623476   3.582801   3.077150   4.717544   5.542214
    27  H    4.591895   4.179466   4.022620   5.769649   6.568233
    28  H    3.016516   2.865271   2.339226   4.294879   4.970910
                   11         12         13         14         15
    11  H    0.000000
    12  C    3.834611   0.000000
    13  H    4.916452   1.083471   0.000000
    14  C    3.436989   1.331765   2.098879   0.000000
    15  H    4.348279   2.099441   2.426991   1.083878   0.000000
    16  C    2.163135   2.474441   3.465833   1.504456   2.231323
    17  H    2.376133   3.018786   3.957083   2.120743   2.686414
    18  H    2.613572   3.309263   4.203220   2.142664   2.468342
    19  C    2.882960   4.801574   5.708112   4.737424   5.602947
    20  H    2.594070   5.048436   6.020566   4.693569   5.466077
    21  C    3.627271   5.815115   6.698145   5.933781   6.879763
    22  H    3.989151   6.698145   7.632990   6.693396   7.620498
    23  C    4.408578   4.291062   4.834098   4.832508   5.681664
    24  H    4.680503   3.627271   3.989151   4.383633   5.184306
    25  H    5.325843   5.138617   5.581673   5.625110   6.369943
    26  C    4.604873   5.071033   5.661248   5.722119   6.691985
    27  H    5.692653   5.851502   6.304579   6.615745   7.551278
    28  H    4.333845   4.611874   5.191092   5.390055   6.410059
                   16         17         18         19         20
    16  C    0.000000
    17  H    1.096929   0.000000
    18  H    1.091642   1.744118   0.000000
    19  C    3.871889   3.257503   4.670828   0.000000
    20  H    3.582801   2.865271   4.179466   1.083560   0.000000
    21  C    5.071033   4.611874   5.851502   1.463535   2.201049
    22  H    5.661248   5.191092   6.304579   2.199543   2.511493
    23  C    4.717544   4.294879   5.769649   2.470886   3.463856
    24  H    4.604873   4.333845   5.692653   3.306261   4.200940
    25  H    5.542214   4.970910   6.568233   2.999616   3.939699
    26  C    5.464514   5.215541   6.482460   2.868484   3.939231
    27  H    6.482460   6.222237   7.521105   3.841372   4.923324
    28  H    5.215541   5.191275   6.222237   3.339552   4.323012
                   21         22         23         24         25
    21  C    0.000000
    22  H    1.083471   0.000000
    23  C    2.857708   3.928701   0.000000
    24  H    3.834611   4.916452   1.090837   0.000000
    25  H    3.312483   4.294922   1.097656   1.749030   0.000000
    26  C    2.474441   3.465833   1.532045   2.163135   2.164365
    27  H    3.309263   4.203220   2.160229   2.613572   2.368962
    28  H    3.018786   3.957083   2.168089   2.376133   3.038894
                   26         27         28
    26  C    0.000000
    27  H    1.091642   0.000000
    28  H    1.096929   1.744118   0.000000
 Symmetry turned off by external request.
 Stoichiometry    C12H16
 Framework group  CI[X(C12H16)]
 Deg. of freedom    39
 Full point group                 CI      NOp   2
 Rotational constants (GHZ):           1.7262215           0.5856267           0.5325007
 Leave Link  202 at Mon Aug  3 14:22:49 2020, MaxMem=  6442450944 cpu:               0.3 elap:               0.0
 (Enter /scratch/scicomp/CentOS/7.3.1611/Haswell/software/Gaussian/g16/l301.exe)
 Standard basis: def2TZVP (6D, 10F)
 Ernie: Thresh=  0.10000D-02 Tol=  0.10000D-05 Strict=F.
   528 basis functions,   740 primitive gaussians,   528 cartesian basis functions
    44 alpha electrons       44 beta electrons
       nuclear repulsion energy       673.3961460910 Hartrees.
 IExCor= 4639 DFT=T Ex+Corr=wB97XD ExCW=0 ScaHFX=  1.000000
 ScaDFX=  1.000000  1.000000  1.000000  1.000000 ScalE2=  1.000000  1.000000
 IRadAn=      5 IRanWt=     -1 IRanGd=            0 ICorTp=0 IEmpDi=121
 HFx  wShort=  0.000000 wLong=  0.200000 cFull=  0.222036 cShort=  0.000000 cLong=  0.777964
 DFx  wShort=  0.000000 wLong=  0.200000 cFull=  0.000000 cShort=  0.000000 cLong=  1.000000
 NAtoms=   28 NActive=   28 NUniq=   28 SFac= 1.00D+00 NAtFMM=   60 NAOKFM=F Big=F
 Integral buffers will be    131072 words long.
 Raffenetti 2 integral format.
 Two-electron integral symmetry is turned off.
 R6Disp:  Grimme-D2 Dispersion energy=       -0.0217565999 Hartrees.
 Nuclear repulsion after empirical dispersion term =      673.3743894912 Hartrees.
 Using the following non-standard input for PCM:
 norep pcmdoc geomview  nodis nocav g03defaults tsare=0.075
 Warning! Using old PCM defaults because the g03defaults keyword was found.
 These settings can be overridden by following keywords.
 nsfe=28
 NVESolv=36  SolvMW=84.1595   Rsolv=2.815
 eps=2.0165 RhoS=0.7781
 --- end of non-standard input.
 Reading user-defined spheres from input:
 ISph  on   Nord    Re0     Alpha      Xe            Ye            Ze
 --- end of user-defined spheres data.
 ------------------------------------------------------------------------------
 Polarizable Continuum Model (PCM)
 =================================
 Model                : PCM.
 Atomic radii         : UA0 (Simple United Atom Topological Model).
 Polarization charges : Total charges.
 Charge compensation  : None.
 Solution method      : On-the-fly selection.
 Cavity type          : SES (Solvent Excluding Surface) (Alpha=1.000).
 Cavity algorithm     : GePol (RMin=0.200 OFac=0.890).
                        User-defined sphere list used, NSphG=   28.
                        Tesserae with average area of 0.075 Ang**2.
                        Smoothing algorithm: None.
                        Polarization charges: point-like.
                        Self-potential: constant (ISelfS= 1).
                        Self-field    : global E.n sum rule (ISelfD= 3).
 Solvent              : CycloHexane, Eps=   2.016500 Eps(inf)=   2.035188
                        RSolv=   2.815000 Ang.
 ------------------------------------------------------------------------------
 GePol: Number of generator spheres                  =      28
 GePol: Total number of spheres                      =     189
 GePol: Number of exposed spheres                    =     134 ( 70.90%)
 GePol: Number of tesserae                           =    4659
 GePol: Average area of tesserae                     =       0.05 Ang**2
 GePol: Minimum area of tessera                      =   0.10D-02 Ang**2
 GePol: Maximum area of tessera                      =    0.12497 Ang**2
 GePol: Number of small tesserae                     =       0
 GePol: Fraction of small tesserae (<1% of avg)      =       0.00%
 GePol: Total count of vertices                      =   16492
 GePol: Maximum number of vertices in a tessera      =       7
 GePol: Cavity surface area                          =    223.471 Ang**2
 GePol: Cavity volume                                =    255.188 Ang**3
 Leave Link  301 at Mon Aug  3 14:22:50 2020, MaxMem=  6442450944 cpu:               7.8 elap:               0.4
 (Enter /scratch/scicomp/CentOS/7.3.1611/Haswell/software/Gaussian/g16/l302.exe)
 NPDir=0 NMtPBC=     1 NCelOv=     1 NCel=       1 NClECP=     1 NCelD=      1
         NCelK=      1 NCelE2=     1 NClLst=     1 CellRange=     0.0.
 One-electron integrals computed using PRISM.
   1 Symmetry operations used in ECPInt.
 ECPInt:  NShTT=   19306 NPrTT=   56928 LenC2=   18467 LenP2D=   41831.
 LDataN:  DoStor=T MaxTD1= 6 Len=  172
 NBasis=   528 RedAO= T EigKep=  1.91D-05  NBF=   528
 NBsUse=   528 1.00D-06 EigRej= -1.00D+00 NBFU=   528
 Precomputing XC quadrature grid using
 IXCGrd= 4 IRadAn=           5 IRanWt=          -1 IRanGd=           0 AccXCQ= 0.00D+00.
 Generated NRdTot=       0 NPtTot=           0 NUsed=           0 NTot=          32
 NSgBfM=   525   525   525   525   525 MxSgAt=    28 MxSgA2=    28.
 Leave Link  302 at Mon Aug  3 14:22:50 2020, MaxMem=  6442450944 cpu:              12.7 elap:               0.6
 (Enter /scratch/scicomp/CentOS/7.3.1611/Haswell/software/Gaussian/g16/l303.exe)
 DipDrv:  MaxL=1.
 Leave Link  303 at Mon Aug  3 14:22:51 2020, MaxMem=  6442450944 cpu:               1.5 elap:               0.1
 (Enter /scratch/scicomp/CentOS/7.3.1611/Haswell/software/Gaussian/g16/l401.exe)
 ExpMin= 9.52D-02 ExpMax= 1.36D+04 ExpMxC= 4.63D+02 IAcc=3 IRadAn=         5 AccDes= 0.00D+00
 Harris functional with IExCor= 4639 and IRadAn=       5 diagonalized for initial guess.
 HarFok:  IExCor= 4639 AccDes= 0.00D+00 IRadAn=         5 IDoV= 1 UseB2=F ITyADJ=14
 ICtDFT=  3500011 ScaDFX=  1.000000  1.000000  1.000000  1.000000
 FoFCou: FMM=F IPFlag=           0 FMFlag=      100000 FMFlg1=           0
         NFxFlg=           0 DoJE=T BraDBF=F KetDBF=T FulRan=T
         wScrn=  0.000000 ICntrl=       500 IOpCl=  0 I1Cent=   200000004 NGrid=           0
         NMat0=    1 NMatS0=      1 NMatT0=    0 NMatD0=    1 NMtDS0=    0 NMtDT0=    0
 Symmetry not used in FoFCou.
 Harris En= -444.658930997837    
 JPrj=0 DoOrth=F DoCkMO=T.
 Mixing orbitals, IMix= 1 IMixAn=  0 NRI=1 NE=   44 Coef=  7.07106781D-01  7.07106781D-01
 Mixing orbitals, IMix= 1 IMixAn=  0 NRI=1 NE=   44 Coef= -7.07106781D-01  7.07106781D-01
 Initial guess <Sx>= 0.0000 <Sy>= 0.0000 <Sz>= 0.0000 <S**2>= 1.0000 S= 0.6180
 Leave Link  401 at Mon Aug  3 14:22:53 2020, MaxMem=  6442450944 cpu:              48.3 elap:               2.1
 (Enter /scratch/scicomp/CentOS/7.3.1611/Haswell/software/Gaussian/g16/l502.exe)
 Two-electron integral symmetry not used.
 UHF open shell SCF:
 Using DIIS extrapolation, IDIIS=  1040.
 NGot=  6442450944 LenX=  6441877030 LenY=  6441597718
 Requested convergence on RMS density matrix=1.00D-08 within 128 cycles.
 Requested convergence on MAX density matrix=1.00D-06.
 Requested convergence on             energy=1.00D-06.
 No special actions if energy rises.
 Fock matrices will be formed incrementally for  20 cycles.

 Cycle   1  Pass 1  IDiag  1:
 FoFJK:  IHMeth= 1 ICntrl=       0 DoSepK=T KAlg= 0 I1Cent=           0 FoldK=F
 IRaf=         1 NMat=       1 IRICut=       1 DoRegI=T DoRafI=F ISym2E= 0 IDoP0=0 IntGTp=1.
 FoFCou: FMM=F IPFlag=           0 FMFlag=      100000 FMFlg1=           0
         NFxFlg=           0 DoJE=T BraDBF=F KetDBF=F FulRan=T
         wScrn=  0.000000 ICntrl=       500 IOpCl=  0 I1Cent=           0 NGrid=           0
         NMat0=    1 NMatS0=      1 NMatT0=    0 NMatD0=    1 NMtDS0=    0 NMtDT0=    0
 Symmetry not used in FoFCou.
 Inv3:  Mode=1 IEnd=    65118843.
 Iteration    1 A*A^-1 deviation from unit magnitude is 3.66D-15 for   1138.
 Iteration    1 A*A^-1 deviation from orthogonality  is 2.76D-15 for   4328   3105.
 Iteration    1 A^-1*A deviation from unit magnitude is 3.55D-15 for    935.
 Iteration    1 A^-1*A deviation from orthogonality  is 3.55D-15 for   2385   1662.
 E= -466.576744751191    
 DIIS: error= 5.27D-02 at cycle   1 NSaved=   1.
 NSaved= 1 IEnMin= 1 EnMin= -466.576744751191     IErMin= 1 ErrMin= 5.27D-02
 ErrMax= 5.27D-02  0.00D+00 EMaxC= 1.00D-01 BMatC= 4.12D+00 BMatP= 4.12D+00
 IDIUse=3 WtCom= 4.73D-01 WtEn= 5.27D-01
 Coeff-Com:  0.100D+01
 Coeff-En:   0.100D+01
 Coeff:      0.100D+01
 Gap=     0.180 Goal=   None    Shift=    0.000
 Gap=     0.180 Goal=   None    Shift=    0.000
 GapD=    0.180 DampG=1.000 DampE=0.500 DampFc=0.5000 IDamp=-1.
 Damping current iteration by 5.00D-01
 RMSDP=1.64D-03 MaxDP=9.29D-02              OVMax= 3.56D-01

 Cycle   2  Pass 1  IDiag  1:
 RMSU=  7.85D-04    CP:  9.63D-01
 E= -466.690106582046     Delta-E=       -0.113361830856 Rises=F Damp=T
 DIIS: error= 2.51D-02 at cycle   2 NSaved=   2.
 NSaved= 2 IEnMin= 2 EnMin= -466.690106582046     IErMin= 2 ErrMin= 2.51D-02
 ErrMax= 2.51D-02  0.00D+00 EMaxC= 1.00D-01 BMatC= 9.37D-01 BMatP= 4.12D+00
 IDIUse=3 WtCom= 7.49D-01 WtEn= 2.51D-01
 Coeff-Com: -0.868D+00 0.187D+01
 Coeff-En:   0.000D+00 0.100D+01
 Coeff:     -0.650D+00 0.165D+01
 Gap=     0.280 Goal=   None    Shift=    0.000
 Gap=     0.280 Goal=   None    Shift=    0.000
 RMSDP=1.17D-03 MaxDP=5.19D-02 DE=-1.13D-01 OVMax= 1.39D-01

 Cycle   3  Pass 1  IDiag  1:
 RMSU=  6.12D-04    CP:  9.07D-01  2.19D+00
 E= -466.838478752903     Delta-E=       -0.148372170857 Rises=F Damp=F
 DIIS: error= 7.85D-03 at cycle   3 NSaved=   3.
 NSaved= 3 IEnMin= 3 EnMin= -466.838478752903     IErMin= 3 ErrMin= 7.85D-03
 ErrMax= 7.85D-03  0.00D+00 EMaxC= 1.00D-01 BMatC= 2.40D-02 BMatP= 9.37D-01
 IDIUse=3 WtCom= 9.21D-01 WtEn= 7.85D-02
 Coeff-Com: -0.313D+00 0.671D+00 0.642D+00
 Coeff-En:   0.000D+00 0.000D+00 0.100D+01
 Coeff:     -0.288D+00 0.619D+00 0.670D+00
 Gap=     0.302 Goal=   None    Shift=    0.000
 Gap=     0.302 Goal=   None    Shift=    0.000
 RMSDP=2.14D-04 MaxDP=1.09D-02 DE=-1.48D-01 OVMax= 6.47D-02

 Cycle   4  Pass 1  IDiag  1:
 RMSU=  1.96D-04    CP:  9.00D-01  2.29D+00  9.98D-01
 E= -466.849293883737     Delta-E=       -0.010815130834 Rises=F Damp=F
 DIIS: error= 5.14D-03 at cycle   4 NSaved=   4.
 NSaved= 4 IEnMin= 4 EnMin= -466.849293883737     IErMin= 4 ErrMin= 5.14D-03
 ErrMax= 5.14D-03  0.00D+00 EMaxC= 1.00D-01 BMatC= 2.07D-03 BMatP= 2.40D-02
 IDIUse=3 WtCom= 9.49D-01 WtEn= 5.14D-02
 Coeff-Com:  0.146D+00-0.314D+00-0.762D-01 0.124D+01
 Coeff-En:   0.000D+00 0.000D+00 0.000D+00 0.100D+01
 Coeff:      0.139D+00-0.298D+00-0.723D-01 0.123D+01
 Gap=     0.314 Goal=   None    Shift=    0.000
 Gap=     0.314 Goal=   None    Shift=    0.000
 RMSDP=2.13D-04 MaxDP=1.30D-02 DE=-1.08D-02 OVMax= 7.73D-02

 Cycle   5  Pass 1  IDiag  1:
 RMSU=  8.52D-05    CP:  8.93D-01  2.34D+00  1.22D+00  1.64D+00
 E= -466.853965884543     Delta-E=       -0.004672000806 Rises=F Damp=F
 DIIS: error= 2.29D-03 at cycle   5 NSaved=   5.
 NSaved= 5 IEnMin= 5 EnMin= -466.853965884543     IErMin= 5 ErrMin= 2.29D-03
 ErrMax= 2.29D-03  0.00D+00 EMaxC= 1.00D-01 BMatC= 8.30D-04 BMatP= 2.07D-03
 IDIUse=3 WtCom= 9.77D-01 WtEn= 2.29D-02
 Coeff-Com:  0.623D-01-0.134D+00-0.680D-01 0.353D+00 0.786D+00
 Coeff-En:   0.000D+00 0.000D+00 0.000D+00 0.000D+00 0.100D+01
 Coeff:      0.609D-01-0.131D+00-0.664D-01 0.345D+00 0.791D+00
 Gap=     0.316 Goal=   None    Shift=    0.000
 Gap=     0.316 Goal=   None    Shift=    0.000
 RMSDP=7.34D-05 MaxDP=3.15D-03 DE=-4.67D-03 OVMax= 2.73D-02

 Cycle   6  Pass 1  IDiag  1:
 RMSU=  3.15D-05    CP:  8.91D-01  2.35D+00  1.26D+00  1.91D+00  1.39D+00
 E= -466.855299334625     Delta-E=       -0.001333450082 Rises=F Damp=F
 DIIS: error= 1.67D-03 at cycle   6 NSaved=   6.
 NSaved= 6 IEnMin= 6 EnMin= -466.855299334625     IErMin= 6 ErrMin= 1.67D-03
 ErrMax= 1.67D-03  0.00D+00 EMaxC= 1.00D-01 BMatC= 5.23D-04 BMatP= 8.30D-04
 IDIUse=3 WtCom= 9.83D-01 WtEn= 1.67D-02
 Coeff-Com: -0.814D-01 0.175D+00 0.573D-01-0.607D+00 0.690D-01 0.139D+01
 Coeff-En:   0.000D+00 0.000D+00 0.000D+00 0.000D+00 0.000D+00 0.100D+01
 Coeff:     -0.801D-01 0.172D+00 0.564D-01-0.597D+00 0.679D-01 0.138D+01
 Gap=     0.312 Goal=   None    Shift=    0.000
 Gap=     0.312 Goal=   None    Shift=    0.000
 RMSDP=9.96D-05 MaxDP=4.05D-03 DE=-1.33D-03 OVMax= 3.75D-02

 Cycle   7  Pass 1  IDiag  1:
 RMSU=  3.18D-05    CP:  8.90D-01  2.35D+00  1.29D+00  2.19D+00  2.09D+00
                    CP:  2.27D+00
 E= -466.856918622533     Delta-E=       -0.001619287908 Rises=F Damp=F
 DIIS: error= 1.06D-03 at cycle   7 NSaved=   7.
 NSaved= 7 IEnMin= 7 EnMin= -466.856918622533     IErMin= 7 ErrMin= 1.06D-03
 ErrMax= 1.06D-03  0.00D+00 EMaxC= 1.00D-01 BMatC= 2.65D-04 BMatP= 5.23D-04
 IDIUse=3 WtCom= 9.89D-01 WtEn= 1.06D-02
 Coeff-Com: -0.255D-01 0.553D-01 0.429D-01-0.627D-02-0.725D+00-0.474D+00
 Coeff-Com:  0.213D+01
 Coeff-En:   0.000D+00 0.000D+00 0.000D+00 0.000D+00 0.000D+00 0.000D+00
 Coeff-En:   0.100D+01
 Coeff:     -0.252D-01 0.547D-01 0.424D-01-0.621D-02-0.718D+00-0.469D+00
 Coeff:      0.212D+01
 Gap=     0.312 Goal=   None    Shift=    0.000
 Gap=     0.312 Goal=   None    Shift=    0.000
 RMSDP=1.37D-04 MaxDP=6.55D-03 DE=-1.62D-03 OVMax= 5.14D-02

 Cycle   8  Pass 1  IDiag  1:
 RMSU=  5.55D-05    CP:  8.87D-01  2.35D+00  1.33D+00  2.50D+00  2.96D+00
                    CP:  3.00D+00  2.70D+00
 E= -466.858318806247     Delta-E=       -0.001400183714 Rises=F Damp=F
 DIIS: error= 3.67D-04 at cycle   8 NSaved=   8.
 NSaved= 8 IEnMin= 8 EnMin= -466.858318806247     IErMin= 8 ErrMin= 3.67D-04
 ErrMax= 3.67D-04  0.00D+00 EMaxC= 1.00D-01 BMatC= 6.24D-05 BMatP= 2.65D-04
 IDIUse=3 WtCom= 9.96D-01 WtEn= 3.67D-03
 Coeff-Com:  0.246D-01-0.529D-01-0.722D-02 0.262D+00-0.232D+00-0.710D+00
 Coeff-Com:  0.604D+00 0.111D+01
 Coeff-En:   0.000D+00 0.000D+00 0.000D+00 0.000D+00 0.000D+00 0.000D+00
 Coeff-En:   0.000D+00 0.100D+01
 Coeff:      0.246D-01-0.527D-01-0.720D-02 0.261D+00-0.231D+00-0.707D+00
 Coeff:      0.602D+00 0.111D+01
 Gap=     0.314 Goal=   None    Shift=    0.000
 Gap=     0.314 Goal=   None    Shift=    0.000
 RMSDP=6.22D-05 MaxDP=3.09D-03 DE=-1.40D-03 OVMax= 2.31D-02

 Cycle   9  Pass 1  IDiag  1:
 RMSU=  3.50D-05    CP:  8.86D-01  2.35D+00  1.35D+00  2.61D+00  3.00D+00
                    CP:  3.00D+00  3.00D+00  1.68D+00
 E= -466.858558336825     Delta-E=       -0.000239530578 Rises=F Damp=F
 DIIS: error= 1.20D-04 at cycle   9 NSaved=   9.
 NSaved= 9 IEnMin= 9 EnMin= -466.858558336825     IErMin= 9 ErrMin= 1.20D-04
 ErrMax= 1.20D-04  0.00D+00 EMaxC= 1.00D-01 BMatC= 1.00D-05 BMatP= 6.24D-05
 IDIUse=3 WtCom= 9.99D-01 WtEn= 1.20D-03
 Coeff-Com:  0.132D-01-0.285D-01-0.915D-02 0.944D-01 0.346D-01-0.171D+00
 Coeff-Com: -0.128D+00 0.330D+00 0.865D+00
 Coeff-En:   0.000D+00 0.000D+00 0.000D+00 0.000D+00 0.000D+00 0.000D+00
 Coeff-En:   0.000D+00 0.000D+00 0.100D+01
 Coeff:      0.132D-01-0.284D-01-0.914D-02 0.943D-01 0.345D-01-0.171D+00
 Coeff:     -0.128D+00 0.329D+00 0.865D+00
 Gap=     0.314 Goal=   None    Shift=    0.000
 Gap=     0.314 Goal=   None    Shift=    0.000
 RMSDP=1.53D-05 MaxDP=7.68D-04 DE=-2.40D-04 OVMax= 5.65D-03

 Cycle  10  Pass 1  IDiag  1:
 RMSU=  5.32D-06    CP:  8.86D-01  2.35D+00  1.35D+00  2.62D+00  3.00D+00
                    CP:  3.00D+00  3.00D+00  1.85D+00  1.29D+00
 E= -466.858576176749     Delta-E=       -0.000017839924 Rises=F Damp=F
 DIIS: error= 5.20D-05 at cycle  10 NSaved=  10.
 NSaved=10 IEnMin=10 EnMin= -466.858576176749     IErMin=10 ErrMin= 5.20D-05
 ErrMax= 5.20D-05  0.00D+00 EMaxC= 1.00D-01 BMatC= 1.60D-06 BMatP= 1.00D-05
 IDIUse=1 WtCom= 1.00D+00 WtEn= 0.00D+00
 Coeff-Com: -0.161D-02 0.349D-02-0.566D-03-0.297D-01 0.453D-01 0.937D-01
 Coeff-Com: -0.122D+00-0.179D+00 0.170D+00 0.102D+01
 Coeff:     -0.161D-02 0.349D-02-0.566D-03-0.297D-01 0.453D-01 0.937D-01
 Coeff:     -0.122D+00-0.179D+00 0.170D+00 0.102D+01
 Gap=     0.313 Goal=   None    Shift=    0.000
 Gap=     0.313 Goal=   None    Shift=    0.000
 RMSDP=6.80D-06 MaxDP=3.28D-04 DE=-1.78D-05 OVMax= 2.54D-03

 Cycle  11  Pass 1  IDiag  1:
 RMSU=  2.16D-06    CP:  8.86D-01  2.35D+00  1.35D+00  2.63D+00  3.00D+00
                    CP:  3.00D+00  3.00D+00  1.90D+00  1.42D+00  1.43D+00
 E= -466.858578634263     Delta-E=       -0.000002457515 Rises=F Damp=F
 DIIS: error= 2.08D-05 at cycle  11 NSaved=  11.
 NSaved=11 IEnMin=11 EnMin= -466.858578634263     IErMin=11 ErrMin= 2.08D-05
 ErrMax= 2.08D-05  0.00D+00 EMaxC= 1.00D-01 BMatC= 3.76D-07 BMatP= 1.60D-06
 IDIUse=1 WtCom= 1.00D+00 WtEn= 0.00D+00
 Coeff-Com: -0.160D-02 0.345D-02 0.417D-03-0.187D-01 0.145D-01 0.482D-01
 Coeff-Com: -0.333D-01-0.988D-01-0.843D-02 0.416D+00 0.678D+00
 Coeff:     -0.160D-02 0.345D-02 0.417D-03-0.187D-01 0.145D-01 0.482D-01
 Coeff:     -0.333D-01-0.988D-01-0.843D-02 0.416D+00 0.678D+00
 Gap=     0.313 Goal=   None    Shift=    0.000
 Gap=     0.313 Goal=   None    Shift=    0.000
 RMSDP=1.01D-06 MaxDP=6.04D-05 DE=-2.46D-06 OVMax= 2.85D-04

 Cycle  12  Pass 1  IDiag  1:
 RMSU=  7.31D-07    CP:  8.86D-01  2.35D+00  1.35D+00  2.63D+00  3.00D+00
                    CP:  3.00D+00  3.00D+00  1.91D+00  1.43D+00  1.47D+00
                    CP:  1.14D+00
 E= -466.858578837812     Delta-E=       -0.000000203548 Rises=F Damp=F
 DIIS: error= 1.39D-05 at cycle  12 NSaved=  12.
 NSaved=12 IEnMin=12 EnMin= -466.858578837812     IErMin=12 ErrMin= 1.39D-05
 ErrMax= 1.39D-05  0.00D+00 EMaxC= 1.00D-01 BMatC= 6.85D-08 BMatP= 3.76D-07
 IDIUse=1 WtCom= 1.00D+00 WtEn= 0.00D+00
 Coeff-Com:  0.542D-03-0.118D-02-0.408D-04 0.821D-02-0.919D-02-0.245D-01
 Coeff-Com:  0.279D-01 0.462D-01-0.349D-01-0.265D+00 0.222D-01 0.123D+01
 Coeff:      0.542D-03-0.118D-02-0.408D-04 0.821D-02-0.919D-02-0.245D-01
 Coeff:      0.279D-01 0.462D-01-0.349D-01-0.265D+00 0.222D-01 0.123D+01
 Gap=     0.313 Goal=   None    Shift=    0.000
 Gap=     0.313 Goal=   None    Shift=    0.000
 RMSDP=8.56D-07 MaxDP=3.05D-05 DE=-2.04D-07 OVMax= 1.61D-04

 Cycle  13  Pass 1  IDiag  1:
 RMSU=  4.87D-07    CP:  8.86D-01  2.35D+00  1.35D+00  2.63D+00  3.00D+00
                    CP:  3.00D+00  3.00D+00  1.91D+00  1.43D+00  1.46D+00
                    CP:  1.32D+00  1.75D+00
 E= -466.858578941785     Delta-E=       -0.000000103973 Rises=F Damp=F
 DIIS: error= 7.31D-06 at cycle  13 NSaved=  13.
 NSaved=13 IEnMin=13 EnMin= -466.858578941785     IErMin=13 ErrMin= 7.31D-06
 ErrMax= 7.31D-06  0.00D+00 EMaxC= 1.00D-01 BMatC= 1.64D-08 BMatP= 6.85D-08
 IDIUse=1 WtCom= 1.00D+00 WtEn= 0.00D+00
 Coeff-Com: -0.537D-04 0.119D-03 0.798D-04-0.320D-03-0.162D-04 0.579D-03
 Coeff-Com: -0.130D-02 0.154D-02 0.272D-02-0.549D-02-0.115D+00-0.252D+00
 Coeff-Com:  0.137D+01
 Coeff:     -0.537D-04 0.119D-03 0.798D-04-0.320D-03-0.162D-04 0.579D-03
 Coeff:     -0.130D-02 0.154D-02 0.272D-02-0.549D-02-0.115D+00-0.252D+00
 Coeff:      0.137D+01
 Gap=     0.313 Goal=   None    Shift=    0.000
 Gap=     0.313 Goal=   None    Shift=    0.000
 RMSDP=4.35D-07 MaxDP=2.43D-05 DE=-1.04D-07 OVMax= 1.05D-04

 Cycle  14  Pass 1  IDiag  1:
 RMSU=  2.79D-07    CP:  8.86D-01  2.35D+00  1.35D+00  2.63D+00  3.00D+00
                    CP:  3.00D+00  3.00D+00  1.91D+00  1.43D+00  1.47D+00
                    CP:  1.38D+00  2.01D+00  1.47D+00
 E= -466.858578977542     Delta-E=       -0.000000035757 Rises=F Damp=F
 DIIS: error= 3.83D-06 at cycle  14 NSaved=  14.
 NSaved=14 IEnMin=14 EnMin= -466.858578977542     IErMin=14 ErrMin= 3.83D-06
 ErrMax= 3.83D-06  0.00D+00 EMaxC= 1.00D-01 BMatC= 4.81D-09 BMatP= 1.64D-08
 IDIUse=1 WtCom= 1.00D+00 WtEn= 0.00D+00
 Coeff-Com: -0.199D-03 0.430D-03 0.771D-04-0.249D-02 0.228D-02 0.705D-02
 Coeff-Com: -0.787D-02-0.125D-01 0.109D-01 0.778D-01-0.282D-01-0.418D+00
 Coeff-Com:  0.143D+00 0.123D+01
 Coeff:     -0.199D-03 0.430D-03 0.771D-04-0.249D-02 0.228D-02 0.705D-02
 Coeff:     -0.787D-02-0.125D-01 0.109D-01 0.778D-01-0.282D-01-0.418D+00
 Coeff:      0.143D+00 0.123D+01
 Gap=     0.313 Goal=   None    Shift=    0.000
 Gap=     0.313 Goal=   None    Shift=    0.000
 RMSDP=3.00D-07 MaxDP=1.41D-05 DE=-3.58D-08 OVMax= 7.19D-05

 Cycle  15  Pass 1  IDiag  1:
 RMSU=  1.03D-07    CP:  8.86D-01  2.35D+00  1.35D+00  2.63D+00  3.00D+00
                    CP:  3.00D+00  3.00D+00  1.91D+00  1.43D+00  1.48D+00
                    CP:  1.39D+00  2.12D+00  1.79D+00  1.78D+00
 E= -466.858578988197     Delta-E=       -0.000000010656 Rises=F Damp=F
 DIIS: error= 1.27D-06 at cycle  15 NSaved=  15.
 NSaved=15 IEnMin=15 EnMin= -466.858578988197     IErMin=15 ErrMin= 1.27D-06
 ErrMax= 1.27D-06  0.00D+00 EMaxC= 1.00D-01 BMatC= 6.87D-10 BMatP= 4.81D-09
 IDIUse=1 WtCom= 1.00D+00 WtEn= 0.00D+00
 Coeff-Com:  0.112D-04-0.246D-04-0.287D-04-0.503D-04 0.293D-03 0.433D-03
 Coeff-Com: -0.100D-02-0.108D-02 0.267D-02 0.114D-01 0.152D-01-0.219D-01
 Coeff-Com: -0.260D+00 0.213D+00 0.104D+01
 Coeff:      0.112D-04-0.246D-04-0.287D-04-0.503D-04 0.293D-03 0.433D-03
 Coeff:     -0.100D-02-0.108D-02 0.267D-02 0.114D-01 0.152D-01-0.219D-01
 Coeff:     -0.260D+00 0.213D+00 0.104D+01
 Gap=     0.313 Goal=   None    Shift=    0.000
 Gap=     0.313 Goal=   None    Shift=    0.000
 RMSDP=1.21D-07 MaxDP=4.75D-06 DE=-1.07D-08 OVMax= 2.68D-05

 Cycle  16  Pass 1  IDiag  1:
 RMSU=  4.59D-08    CP:  8.86D-01  2.35D+00  1.35D+00  2.63D+00  3.00D+00
                    CP:  3.00D+00  3.00D+00  1.91D+00  1.43D+00  1.48D+00
                    CP:  1.39D+00  2.14D+00  1.89D+00  2.07D+00  1.44D+00
 E= -466.858578989287     Delta-E=       -0.000000001089 Rises=F Damp=F
 DIIS: error= 2.65D-07 at cycle  16 NSaved=  16.
 NSaved=16 IEnMin=16 EnMin= -466.858578989287     IErMin=16 ErrMin= 2.65D-07
 ErrMax= 2.65D-07  0.00D+00 EMaxC= 1.00D-01 BMatC= 6.53D-11 BMatP= 6.87D-10
 IDIUse=1 WtCom= 1.00D+00 WtEn= 0.00D+00
 Coeff-Com:  0.912D-05-0.198D-04-0.914D-05 0.105D-03-0.614D-04-0.241D-03
 Coeff-Com:  0.211D-03 0.475D-03-0.278D-03-0.299D-02 0.656D-02 0.276D-01
 Coeff-Com: -0.695D-01-0.615D-01 0.239D+00 0.861D+00
 Coeff:      0.912D-05-0.198D-04-0.914D-05 0.105D-03-0.614D-04-0.241D-03
 Coeff:      0.211D-03 0.475D-03-0.278D-03-0.299D-02 0.656D-02 0.276D-01
 Coeff:     -0.695D-01-0.615D-01 0.239D+00 0.861D+00
 Gap=     0.313 Goal=   None    Shift=    0.000
 Gap=     0.313 Goal=   None    Shift=    0.000
 RMSDP=2.79D-08 MaxDP=1.38D-06 DE=-1.09D-09 OVMax= 4.36D-06

 Cycle  17  Pass 1  IDiag  1:
 RMSU=  1.27D-08    CP:  8.86D-01  2.35D+00  1.35D+00  2.63D+00  3.00D+00
                    CP:  3.00D+00  3.00D+00  1.91D+00  1.43D+00  1.48D+00
                    CP:  1.39D+00  2.13D+00  1.90D+00  2.11D+00  1.55D+00
                    CP:  1.32D+00
 E= -466.858578989327     Delta-E=       -0.000000000041 Rises=F Damp=F
 DIIS: error= 7.67D-08 at cycle  17 NSaved=  17.
 NSaved=17 IEnMin=17 EnMin= -466.858578989327     IErMin=17 ErrMin= 7.67D-08
 ErrMax= 7.67D-08  0.00D+00 EMaxC= 1.00D-01 BMatC= 8.15D-12 BMatP= 6.53D-11
 IDIUse=1 WtCom= 1.00D+00 WtEn= 0.00D+00
 Coeff-Com:  0.824D-07-0.128D-06 0.878D-06 0.123D-04-0.337D-04-0.358D-04
 Coeff-Com:  0.899D-04 0.144D-03-0.365D-03-0.159D-02-0.476D-03 0.633D-02
 Coeff-Com:  0.206D-01-0.362D-01-0.914D-01 0.156D+00 0.947D+00
 Coeff:      0.824D-07-0.128D-06 0.878D-06 0.123D-04-0.337D-04-0.358D-04
 Coeff:      0.899D-04 0.144D-03-0.365D-03-0.159D-02-0.476D-03 0.633D-02
 Coeff:      0.206D-01-0.362D-01-0.914D-01 0.156D+00 0.947D+00
 Gap=     0.313 Goal=   None    Shift=    0.000
 Gap=     0.313 Goal=   None    Shift=    0.000
 RMSDP=9.89D-09 MaxDP=3.66D-07 DE=-4.07D-11 OVMax= 1.43D-06

 Error on total polarization charges =  0.01177
 SCF Done:  E(UwB97XD) =  -466.858578989     A.U. after   17 cycles
            NFock= 17  Conv=0.99D-08     -V/T= 2.0058
 <Sx>= 0.0000 <Sy>= 0.0000 <Sz>= 0.0000 <S**2>= 0.0000 S= 0.0000
 <L.S>=  0.00000000000    
 KE= 4.641597115363D+02 PE=-2.428495615112D+03 EE= 8.241029350954D+02
 --------------------------------------------------------------------
 Variational PCM results
 =======================
 <psi(f)|   H    |psi(f)>                     (a.u.) =    -466.857059
 <psi(f)|H+V(f)/2|psi(f)>                     (a.u.) =    -466.858579
 (Polarized solute)-Solvent               (kcal/mol) =      -0.95
 --------------------------------------------------------------------
 Partition over spheres:
 Sphere  on Atom  Surface  Charge   GEl     GCav    GDR
    1      C1       7.37   0.012   -0.06    0.00    0.00
    2      C2       5.00   0.007   -0.04    0.00    0.00
    3      H3       7.51  -0.010   -0.04    0.00    0.00
    4      H4       3.87  -0.005   -0.01    0.00    0.00
    5      C5       4.55   0.009   -0.06    0.00    0.00
    6      C6       4.76   0.007   -0.04    0.00    0.00
    7      H7       4.73  -0.007   -0.03    0.00    0.00
    8      H8       4.08  -0.005   -0.01    0.00    0.00
    9      C9       3.56   0.002    0.00    0.00    0.00
   10      H10      7.09  -0.007   -0.01    0.00    0.00
   11      H11      3.06  -0.003   -0.01    0.00    0.00
   12      C12      6.82   0.011   -0.07    0.00    0.00
   13      H13      7.51  -0.010   -0.03    0.00    0.00
   14      C14      7.16   0.012   -0.06    0.00    0.00
   15      H15      7.51  -0.010   -0.04    0.00    0.00
   16      C16      3.70   0.002    0.00    0.00    0.00
   17      H17      2.96  -0.003   -0.01    0.00    0.00
   18      H18      7.30  -0.008   -0.03    0.00    0.00
   19      C19      5.09   0.009   -0.06    0.00    0.00
   20      H20      4.96  -0.007   -0.03    0.00    0.00
   21      C21      7.07   0.012   -0.07    0.00    0.00
   22      H22      7.50  -0.010   -0.03    0.00    0.00
   23      C23      3.82   0.002    0.00    0.00    0.00
   24      H24      4.11  -0.004   -0.01    0.00    0.00
   25      H25      6.90  -0.007   -0.01    0.00    0.00
   26      C26      3.48   0.001    0.00    0.00    0.00
   27      H27      7.31  -0.008   -0.03    0.00    0.00
   28      H28      2.93  -0.003   -0.01    0.00    0.00
 Added spheres:    71.74   0.008   -0.15    0.00    0.00
 --------------------------------------------------------------------
 After PCM corrections, the energy is  -466.858578989     a.u.
 --------------------------------------------------------------------
 Annihilation of the first spin contaminant:
 S**2 before annihilation     0.0000,   after     0.0000
 Leave Link  502 at Mon Aug  3 14:27:49 2020, MaxMem=  6442450944 cpu:            7043.8 elap:             296.2
 (Enter /scratch/scicomp/CentOS/7.3.1611/Haswell/software/Gaussian/g16/l601.exe)
 Copying SCF densities to generalized density rwf, IOpCl= 1 IROHF=0.

 **********************************************************************

            Population analysis using the SCF Density.

 **********************************************************************

 Alpha  occ. eigenvalues --  -10.28516 -10.28515 -10.28324 -10.28322 -10.28312
 Alpha  occ. eigenvalues --  -10.28311 -10.28221 -10.28219 -10.28023 -10.28022
 Alpha  occ. eigenvalues --  -10.27653 -10.27652  -0.94198  -0.93693  -0.84265
 Alpha  occ. eigenvalues --   -0.84182  -0.83911  -0.83755  -0.71432  -0.71265
 Alpha  occ. eigenvalues --   -0.68017  -0.67977  -0.59800  -0.59655  -0.57437
 Alpha  occ. eigenvalues --   -0.56796  -0.53610  -0.52806  -0.51009  -0.50957
 Alpha  occ. eigenvalues --   -0.49969  -0.49504  -0.47388  -0.46983  -0.45189
 Alpha  occ. eigenvalues --   -0.45132  -0.41317  -0.41075  -0.39756  -0.39337
 Alpha  occ. eigenvalues --   -0.39288  -0.39069  -0.29838  -0.27734
 Alpha virt. eigenvalues --    0.03591   0.04792   0.10511   0.12244   0.13330
 Alpha virt. eigenvalues --    0.14397   0.14774   0.15580   0.15665   0.15845
 Alpha virt. eigenvalues --    0.16813   0.16886   0.17142   0.18202   0.19934
 Alpha virt. eigenvalues --    0.21026   0.21379   0.22805   0.23458   0.23583
 Alpha virt. eigenvalues --    0.24714   0.25533   0.25760   0.26826   0.28005
 Alpha virt. eigenvalues --    0.28152   0.28865   0.29247   0.29908   0.30511
 Alpha virt. eigenvalues --    0.31338   0.31638   0.32170   0.32281   0.33110
 Alpha virt. eigenvalues --    0.33556   0.34122   0.35394   0.35743   0.37239
 Alpha virt. eigenvalues --    0.37574   0.38963   0.39219   0.41146   0.41265
 Alpha virt. eigenvalues --    0.41491   0.43391   0.43932   0.45088   0.45794
 Alpha virt. eigenvalues --    0.46320   0.46341   0.47590   0.47815   0.48359
 Alpha virt. eigenvalues --    0.48381   0.48869   0.49143   0.49567   0.49847
 Alpha virt. eigenvalues --    0.50307   0.50402   0.51520   0.51875   0.52496
 Alpha virt. eigenvalues --    0.52930   0.53726   0.54184   0.54552   0.54988
 Alpha virt. eigenvalues --    0.56857   0.57426   0.57782   0.58684   0.59444
 Alpha virt. eigenvalues --    0.59836   0.60631   0.62689   0.62694   0.64254
 Alpha virt. eigenvalues --    0.65284   0.66724   0.67770   0.68244   0.68664
 Alpha virt. eigenvalues --    0.70964   0.72088   0.72486   0.73273   0.74621
 Alpha virt. eigenvalues --    0.76741   0.78144   0.78219   0.80400   0.80780
 Alpha virt. eigenvalues --    0.81649   0.82136   0.82727   0.87462   0.87853
 Alpha virt. eigenvalues --    0.88089   0.89380   0.90249   0.91426   0.92196
 Alpha virt. eigenvalues --    0.92497   0.94914   0.96122   0.98602   0.98630
 Alpha virt. eigenvalues --    1.00519   1.03539   1.04265   1.04503   1.04596
 Alpha virt. eigenvalues --    1.06496   1.07262   1.07689   1.08933   1.11462
 Alpha virt. eigenvalues --    1.12944   1.13460   1.14127   1.14760   1.15627
 Alpha virt. eigenvalues --    1.15638   1.16647   1.16924   1.18680   1.20588
 Alpha virt. eigenvalues --    1.20726   1.21676   1.23964   1.24153   1.24767
 Alpha virt. eigenvalues --    1.25218   1.25633   1.26690   1.27432   1.28474
 Alpha virt. eigenvalues --    1.28623   1.30519   1.31632   1.32480   1.32562
 Alpha virt. eigenvalues --    1.33915   1.34633   1.36603   1.37001   1.37779
 Alpha virt. eigenvalues --    1.38644   1.39850   1.40207   1.41164   1.41234
 Alpha virt. eigenvalues --    1.42687   1.42974   1.43795   1.43900   1.45114
 Alpha virt. eigenvalues --    1.45771   1.46653   1.46932   1.47562   1.47980
 Alpha virt. eigenvalues --    1.49525   1.50614   1.50689   1.53846   1.55583
 Alpha virt. eigenvalues --    1.56623   1.57859   1.58368   1.58866   1.60989
 Alpha virt. eigenvalues --    1.61429   1.62873   1.63488   1.65556   1.67745
 Alpha virt. eigenvalues --    1.68491   1.70207   1.71225   1.74117   1.76945
 Alpha virt. eigenvalues --    1.76954   1.79993   1.80213   1.83432   1.84033
 Alpha virt. eigenvalues --    1.86044   1.87757   1.89924   1.90592   1.91455
 Alpha virt. eigenvalues --    1.92832   1.96276   1.99103   2.00491   2.01237
 Alpha virt. eigenvalues --    2.03890   2.05399   2.06063   2.08022   2.08495
 Alpha virt. eigenvalues --    2.09196   2.11704   2.12940   2.12962   2.15408
 Alpha virt. eigenvalues --    2.17952   2.19727   2.20230   2.20952   2.22392
 Alpha virt. eigenvalues --    2.23059   2.24214   2.24728   2.26509   2.26534
 Alpha virt. eigenvalues --    2.29703   2.34193   2.37184   2.38076   2.40879
 Alpha virt. eigenvalues --    2.43129   2.45396   2.45701   2.48948   2.49886
 Alpha virt. eigenvalues --    2.50078   2.50323   2.53829   2.53844   2.55197
 Alpha virt. eigenvalues --    2.55370   2.57619   2.57734   2.60693   2.61480
 Alpha virt. eigenvalues --    2.62320   2.64438   2.64679   2.65113   2.66073
 Alpha virt. eigenvalues --    2.67192   2.67828   2.70588   2.72231   2.72497
 Alpha virt. eigenvalues --    2.73242   2.73256   2.74690   2.75818   2.77011
 Alpha virt. eigenvalues --    2.77528   2.78037   2.79220   2.80737   2.81150
 Alpha virt. eigenvalues --    2.81201   2.82362   2.82672   2.83736   2.84874
 Alpha virt. eigenvalues --    2.85264   2.86382   2.87276   2.87958   2.89543
 Alpha virt. eigenvalues --    2.90380   2.90528   2.92539   2.92562   2.93571
 Alpha virt. eigenvalues --    2.94722   2.95152   2.95330   2.96186   2.99891
 Alpha virt. eigenvalues --    3.01473   3.02090   3.02942   3.04400   3.06057
 Alpha virt. eigenvalues --    3.07024   3.08838   3.09444   3.09613   3.10540
 Alpha virt. eigenvalues --    3.11911   3.12923   3.13204   3.14367   3.14987
 Alpha virt. eigenvalues --    3.15062   3.16763   3.17078   3.18664   3.18965
 Alpha virt. eigenvalues --    3.19867   3.19877   3.20332   3.20854   3.21427
 Alpha virt. eigenvalues --    3.21971   3.22900   3.23258   3.23671   3.23982
 Alpha virt. eigenvalues --    3.25900   3.25968   3.26739   3.26769   3.28022
 Alpha virt. eigenvalues --    3.28334   3.29650   3.30712   3.31218   3.31366
 Alpha virt. eigenvalues --    3.32237   3.33004   3.33018   3.33463   3.34144
 Alpha virt. eigenvalues --    3.35180   3.35957   3.36168   3.37739   3.38279
 Alpha virt. eigenvalues --    3.38884   3.40822   3.42468   3.43404   3.43673
 Alpha virt. eigenvalues --    3.44954   3.45455   3.46399   3.46494   3.46864
 Alpha virt. eigenvalues --    3.48376   3.49294   3.49508   3.50143   3.50865
 Alpha virt. eigenvalues --    3.51391   3.52916   3.53228   3.54882   3.55035
 Alpha virt. eigenvalues --    3.56135   3.57178   3.57683   3.59295   3.63666
 Alpha virt. eigenvalues --    3.64708   3.65230   3.65265   3.65804   3.66852
 Alpha virt. eigenvalues --    3.68368   3.68497   3.71158   3.71843   3.73021
 Alpha virt. eigenvalues --    3.75444   3.76122   3.77707   3.79791   3.80874
 Alpha virt. eigenvalues --    3.84822   3.85432   3.85703   3.86169   3.86326
 Alpha virt. eigenvalues --    3.88313   3.91046   3.91295   3.93781   3.93914
 Alpha virt. eigenvalues --    3.95767   3.96307   4.00582   4.00861   4.02993
 Alpha virt. eigenvalues --    4.05008   4.08177   4.08610   4.08886   4.10410
 Alpha virt. eigenvalues --    4.11750   4.12900   4.13798   4.15360   4.18120
 Alpha virt. eigenvalues --    4.18467   4.19714   4.20744   4.23025   4.24307
 Alpha virt. eigenvalues --    4.24985   4.27467   4.30640   4.30932   4.33821
 Alpha virt. eigenvalues --    4.34902   4.37962   4.38493   4.38958   4.41791
 Alpha virt. eigenvalues --    4.42806   4.43730   4.46703   4.48310   4.50308
 Alpha virt. eigenvalues --    4.51765   4.58812   4.60911   4.62790   4.66445
 Alpha virt. eigenvalues --    4.67984   4.68949   4.72342   4.73657   4.75924
 Alpha virt. eigenvalues --    4.76085   4.78978   4.79145   4.81996   4.84404
 Alpha virt. eigenvalues --    4.84808   4.85211   4.89763   4.91712   4.93612
 Alpha virt. eigenvalues --    4.94114   4.96834   4.99006   5.06256   5.07854
 Alpha virt. eigenvalues --    5.12933   5.13559   5.18583   5.19244   5.22694
 Alpha virt. eigenvalues --    5.23220   5.31097   5.32393   5.40894   5.40955
 Alpha virt. eigenvalues --    5.43097   5.44433   5.49514   5.49765   5.67790
 Alpha virt. eigenvalues --    5.70708   5.75611   5.78146   5.93419   6.00761
 Alpha virt. eigenvalues --    7.93873   7.95421   8.01377   8.04537   8.05946
 Alpha virt. eigenvalues --    8.06606   8.10083   8.11486   8.17870   8.18041
 Alpha virt. eigenvalues --    8.34442   8.35948  34.76072  34.77626  34.80833
 Alpha virt. eigenvalues --   34.81797  34.86252  34.87335  34.96741  34.98064
 Alpha virt. eigenvalues --   35.00675  35.01767  35.15664  35.18788
  Beta  occ. eigenvalues --  -10.28516 -10.28515 -10.28324 -10.28322 -10.28312
  Beta  occ. eigenvalues --  -10.28311 -10.28221 -10.28219 -10.28023 -10.28022
  Beta  occ. eigenvalues --  -10.27653 -10.27652  -0.94198  -0.93693  -0.84265
  Beta  occ. eigenvalues --   -0.84182  -0.83911  -0.83755  -0.71432  -0.71265
  Beta  occ. eigenvalues --   -0.68017  -0.67977  -0.59800  -0.59655  -0.57437
  Beta  occ. eigenvalues --   -0.56796  -0.53610  -0.52806  -0.51009  -0.50957
  Beta  occ. eigenvalues --   -0.49969  -0.49504  -0.47388  -0.46983  -0.45189
  Beta  occ. eigenvalues --   -0.45132  -0.41317  -0.41075  -0.39756  -0.39337
  Beta  occ. eigenvalues --   -0.39288  -0.39069  -0.29838  -0.27734
  Beta virt. eigenvalues --    0.03591   0.04792   0.10511   0.12244   0.13330
  Beta virt. eigenvalues --    0.14397   0.14774   0.15580   0.15665   0.15845
  Beta virt. eigenvalues --    0.16813   0.16886   0.17142   0.18202   0.19934
  Beta virt. eigenvalues --    0.21026   0.21379   0.22805   0.23458   0.23583
  Beta virt. eigenvalues --    0.24714   0.25533   0.25760   0.26826   0.28005
  Beta virt. eigenvalues --    0.28152   0.28865   0.29247   0.29908   0.30511
  Beta virt. eigenvalues --    0.31338   0.31638   0.32170   0.32281   0.33110
  Beta virt. eigenvalues --    0.33556   0.34122   0.35394   0.35743   0.37239
  Beta virt. eigenvalues --    0.37574   0.38963   0.39219   0.41146   0.41265
  Beta virt. eigenvalues --    0.41491   0.43391   0.43932   0.45088   0.45794
  Beta virt. eigenvalues --    0.46320   0.46341   0.47590   0.47815   0.48359
  Beta virt. eigenvalues --    0.48381   0.48869   0.49143   0.49567   0.49847
  Beta virt. eigenvalues --    0.50307   0.50402   0.51520   0.51875   0.52496
  Beta virt. eigenvalues --    0.52930   0.53726   0.54184   0.54552   0.54988
  Beta virt. eigenvalues --    0.56857   0.57426   0.57782   0.58684   0.59444
  Beta virt. eigenvalues --    0.59836   0.60631   0.62689   0.62694   0.64254
  Beta virt. eigenvalues --    0.65284   0.66724   0.67770   0.68244   0.68664
  Beta virt. eigenvalues --    0.70964   0.72088   0.72486   0.73273   0.74621
  Beta virt. eigenvalues --    0.76741   0.78144   0.78219   0.80400   0.80780
  Beta virt. eigenvalues --    0.81649   0.82136   0.82727   0.87462   0.87853
  Beta virt. eigenvalues --    0.88089   0.89380   0.90249   0.91426   0.92196
  Beta virt. eigenvalues --    0.92497   0.94914   0.96122   0.98602   0.98630
  Beta virt. eigenvalues --    1.00519   1.03539   1.04265   1.04503   1.04596
  Beta virt. eigenvalues --    1.06496   1.07262   1.07689   1.08933   1.11462
  Beta virt. eigenvalues --    1.12944   1.13460   1.14127   1.14760   1.15627
  Beta virt. eigenvalues --    1.15638   1.16647   1.16924   1.18680   1.20588
  Beta virt. eigenvalues --    1.20726   1.21676   1.23964   1.24153   1.24767
  Beta virt. eigenvalues --    1.25218   1.25633   1.26690   1.27432   1.28474
  Beta virt. eigenvalues --    1.28623   1.30519   1.31632   1.32480   1.32562
  Beta virt. eigenvalues --    1.33915   1.34633   1.36603   1.37001   1.37779
  Beta virt. eigenvalues --    1.38644   1.39850   1.40207   1.41164   1.41234
  Beta virt. eigenvalues --    1.42687   1.42974   1.43795   1.43900   1.45114
  Beta virt. eigenvalues --    1.45771   1.46653   1.46932   1.47562   1.47980
  Beta virt. eigenvalues --    1.49525   1.50614   1.50689   1.53846   1.55583
  Beta virt. eigenvalues --    1.56623   1.57859   1.58368   1.58866   1.60989
  Beta virt. eigenvalues --    1.61429   1.62873   1.63488   1.65556   1.67745
  Beta virt. eigenvalues --    1.68491   1.70207   1.71225   1.74117   1.76945
  Beta virt. eigenvalues --    1.76954   1.79993   1.80213   1.83432   1.84033
  Beta virt. eigenvalues --    1.86044   1.87757   1.89924   1.90592   1.91455
  Beta virt. eigenvalues --    1.92832   1.96276   1.99103   2.00491   2.01237
  Beta virt. eigenvalues --    2.03890   2.05399   2.06063   2.08022   2.08495
  Beta virt. eigenvalues --    2.09196   2.11704   2.12940   2.12962   2.15408
  Beta virt. eigenvalues --    2.17952   2.19727   2.20230   2.20952   2.22392
  Beta virt. eigenvalues --    2.23059   2.24214   2.24728   2.26509   2.26534
  Beta virt. eigenvalues --    2.29703   2.34193   2.37184   2.38076   2.40879
  Beta virt. eigenvalues --    2.43129   2.45396   2.45701   2.48948   2.49886
  Beta virt. eigenvalues --    2.50078   2.50323   2.53829   2.53844   2.55197
  Beta virt. eigenvalues --    2.55370   2.57619   2.57734   2.60693   2.61480
  Beta virt. eigenvalues --    2.62320   2.64438   2.64679   2.65113   2.66073
  Beta virt. eigenvalues --    2.67192   2.67828   2.70588   2.72231   2.72497
  Beta virt. eigenvalues --    2.73242   2.73256   2.74690   2.75818   2.77011
  Beta virt. eigenvalues --    2.77528   2.78037   2.79220   2.80737   2.81150
  Beta virt. eigenvalues --    2.81201   2.82362   2.82672   2.83736   2.84874
  Beta virt. eigenvalues --    2.85264   2.86382   2.87276   2.87958   2.89543
  Beta virt. eigenvalues --    2.90380   2.90528   2.92539   2.92562   2.93571
  Beta virt. eigenvalues --    2.94722   2.95152   2.95330   2.96186   2.99891
  Beta virt. eigenvalues --    3.01473   3.02090   3.02942   3.04400   3.06057
  Beta virt. eigenvalues --    3.07024   3.08838   3.09444   3.09613   3.10540
  Beta virt. eigenvalues --    3.11911   3.12923   3.13204   3.14367   3.14987
  Beta virt. eigenvalues --    3.15062   3.16763   3.17078   3.18664   3.18965
  Beta virt. eigenvalues --    3.19867   3.19877   3.20332   3.20854   3.21427
  Beta virt. eigenvalues --    3.21971   3.22900   3.23258   3.23671   3.23982
  Beta virt. eigenvalues --    3.25900   3.25968   3.26739   3.26769   3.28022
  Beta virt. eigenvalues --    3.28334   3.29650   3.30712   3.31218   3.31366
  Beta virt. eigenvalues --    3.32237   3.33004   3.33018   3.33463   3.34144
  Beta virt. eigenvalues --    3.35180   3.35957   3.36168   3.37739   3.38279
  Beta virt. eigenvalues --    3.38884   3.40822   3.42468   3.43404   3.43673
  Beta virt. eigenvalues --    3.44954   3.45455   3.46399   3.46494   3.46864
  Beta virt. eigenvalues --    3.48376   3.49294   3.49508   3.50143   3.50865
  Beta virt. eigenvalues --    3.51391   3.52916   3.53228   3.54882   3.55035
  Beta virt. eigenvalues --    3.56135   3.57178   3.57683   3.59295   3.63666
  Beta virt. eigenvalues --    3.64708   3.65230   3.65265   3.65804   3.66852
  Beta virt. eigenvalues --    3.68368   3.68497   3.71158   3.71843   3.73021
  Beta virt. eigenvalues --    3.75444   3.76122   3.77707   3.79791   3.80874
  Beta virt. eigenvalues --    3.84822   3.85432   3.85703   3.86169   3.86326
  Beta virt. eigenvalues --    3.88313   3.91046   3.91295   3.93781   3.93914
  Beta virt. eigenvalues --    3.95767   3.96307   4.00582   4.00861   4.02993
  Beta virt. eigenvalues --    4.05008   4.08177   4.08610   4.08886   4.10410
  Beta virt. eigenvalues --    4.11750   4.12900   4.13798   4.15360   4.18120
  Beta virt. eigenvalues --    4.18467   4.19714   4.20744   4.23025   4.24307
  Beta virt. eigenvalues --    4.24985   4.27467   4.30640   4.30932   4.33821
  Beta virt. eigenvalues --    4.34902   4.37962   4.38493   4.38958   4.41791
  Beta virt. eigenvalues --    4.42806   4.43730   4.46703   4.48310   4.50308
  Beta virt. eigenvalues --    4.51765   4.58812   4.60911   4.62790   4.66445
  Beta virt. eigenvalues --    4.67984   4.68949   4.72342   4.73657   4.75924
  Beta virt. eigenvalues --    4.76085   4.78978   4.79145   4.81996   4.84404
  Beta virt. eigenvalues --    4.84808   4.85211   4.89763   4.91712   4.93612
  Beta virt. eigenvalues --    4.94114   4.96834   4.99006   5.06256   5.07854
  Beta virt. eigenvalues --    5.12933   5.13559   5.18583   5.19244   5.22694
  Beta virt. eigenvalues --    5.23220   5.31097   5.32393   5.40894   5.40955
  Beta virt. eigenvalues --    5.43097   5.44433   5.49514   5.49765   5.67790
  Beta virt. eigenvalues --    5.70708   5.75611   5.78146   5.93419   6.00761
  Beta virt. eigenvalues --    7.93873   7.95421   8.01377   8.04537   8.05946
  Beta virt. eigenvalues --    8.06606   8.10083   8.11486   8.17870   8.18041
  Beta virt. eigenvalues --    8.34442   8.35948  34.76072  34.77626  34.80833
  Beta virt. eigenvalues --   34.81797  34.86252  34.87335  34.96741  34.98064
  Beta virt. eigenvalues --   35.00675  35.01767  35.15664  35.18788
          Condensed to atoms (all electrons):
               1          2          3          4          5          6
     1  C    5.120889   0.007622   0.424031  -0.001776   0.000545  -0.003895
     2  C    0.007622   5.273808  -0.002205   0.424726  -0.025514  -0.051259
     3  H    0.424031  -0.002205   0.497925   0.000036  -0.000045  -0.000011
     4  H   -0.001776   0.424726   0.000036   0.477518  -0.002735   0.003042
     5  C    0.000545  -0.025514  -0.000045  -0.002735   5.124297   0.538124
     6  C   -0.003895  -0.051259  -0.000011   0.003042   0.538124   5.273937
     7  H    0.000275  -0.001206   0.000000  -0.000092   0.424627  -0.028568
     8  H   -0.001063   0.003039  -0.000011   0.000012  -0.042429   0.424735
     9  C    0.001498  -0.000564  -0.000004  -0.001035  -0.067867   0.253244
    10  H   -0.000030  -0.000058  -0.000001  -0.000080  -0.004138  -0.034113
    11  H    0.000098  -0.002780   0.000001   0.000065   0.007158  -0.053301
    12  C   -0.000123   0.007665   0.000002   0.001581   0.304567  -0.076812
    13  H   -0.000001   0.000007   0.000000   0.000011  -0.039135   0.005354
    14  C    0.000130  -0.003892  -0.000000  -0.001062  -0.061119   0.007630
    15  H   -0.000000  -0.000011  -0.000000  -0.000011   0.007592  -0.002204
    16  C   -0.000575   0.009740  -0.000000   0.000358   0.000881  -0.070702
    17  H   -0.000059  -0.000914  -0.000001  -0.001087   0.010519  -0.001027
    18  H    0.000002   0.000552   0.000000   0.000145  -0.002448   0.011066
    19  C   -0.061118   0.538154   0.007592  -0.042405  -0.004135  -0.025519
    20  H    0.003980  -0.028493  -0.000114  -0.005488   0.000269  -0.001206
    21  C    0.600010  -0.076815  -0.033586   0.005685   0.000687   0.007673
    22  H   -0.028381   0.005362  -0.006523  -0.000077   0.000018   0.000007
    23  C   -0.088033   0.253221   0.005651  -0.015796   0.004286  -0.000566
    24  H    0.012648  -0.053296  -0.000133  -0.004098   0.001669  -0.002780
    25  H    0.005185  -0.034193  -0.000028  -0.000055   0.000416  -0.000058
    26  C    0.288820  -0.070680  -0.031611   0.004075  -0.003258   0.009737
    27  H   -0.036158   0.011068  -0.004536  -0.000133   0.000320   0.000553
    28  H   -0.034435  -0.001043   0.001467  -0.000150  -0.003489  -0.000920
               7          8          9         10         11         12
     1  C    0.000275  -0.001063   0.001498  -0.000030   0.000098  -0.000123
     2  C   -0.001206   0.003039  -0.000564  -0.000058  -0.002780   0.007665
     3  H    0.000000  -0.000011  -0.000004  -0.000001   0.000001   0.000002
     4  H   -0.000092   0.000012  -0.001035  -0.000080   0.000065   0.001581
     5  C    0.424627  -0.042429  -0.067867  -0.004138   0.007158   0.304567
     6  C   -0.028568   0.424735   0.253244  -0.034113  -0.053301  -0.076812
     7  H    0.485227  -0.005483   0.003669  -0.000306  -0.000061  -0.032137
     8  H   -0.005483   0.477323  -0.015752  -0.000052  -0.004099   0.005681
     9  C    0.003669  -0.015752   4.940213   0.380583   0.450174   0.035286
    10  H   -0.000306  -0.000052   0.380583   0.580530  -0.022244   0.001850
    11  H   -0.000061  -0.004099   0.450174  -0.022244   0.542139  -0.003652
    12  C   -0.032137   0.005681   0.035286   0.001850  -0.003652   4.991371
    13  H   -0.003538  -0.000077  -0.000569  -0.000050   0.000037   0.426968
    14  C    0.003978  -0.001776  -0.088043   0.005179   0.012650   0.600020
    15  H   -0.000114   0.000036   0.005651  -0.000028  -0.000133  -0.033596
    16  C   -0.000837   0.004073   0.369257  -0.024473  -0.051442  -0.062944
    17  H    0.000018  -0.000149  -0.034417   0.007578  -0.009039  -0.015712
    18  H    0.000039  -0.000133  -0.042229  -0.009064  -0.000975   0.005598
    19  C    0.000269  -0.002733   0.004280   0.000415   0.001674   0.000690
    20  H    0.000009  -0.000092   0.002030   0.000155  -0.000686  -0.000147
    21  C   -0.000148   0.001583  -0.000716   0.000009  -0.000174  -0.000208
    22  H   -0.000001   0.000011  -0.000054  -0.000001   0.000009   0.000000
    23  C    0.002029  -0.001034   0.000610  -0.000021   0.000111  -0.000715
    24  H   -0.000684   0.000065   0.000111  -0.000001  -0.000017  -0.000172
    25  H    0.000155  -0.000080  -0.000021   0.000002  -0.000001   0.000009
    26  C   -0.001527   0.000356  -0.000826   0.000070  -0.000097   0.000643
    27  H   -0.000023   0.000145  -0.000027   0.000001  -0.000002  -0.000048
    28  H    0.001655  -0.001088   0.000396  -0.000013   0.000018   0.000530
              13         14         15         16         17         18
     1  C   -0.000001   0.000130  -0.000000  -0.000575  -0.000059   0.000002
     2  C    0.000007  -0.003892  -0.000011   0.009740  -0.000914   0.000552
     3  H    0.000000  -0.000000  -0.000000  -0.000000  -0.000001   0.000000
     4  H    0.000011  -0.001062  -0.000011   0.000358  -0.001087   0.000145
     5  C   -0.039135  -0.061119   0.007592   0.000881   0.010519  -0.002448
     6  C    0.005354   0.007630  -0.002204  -0.070702  -0.001027   0.011066
     7  H   -0.003538   0.003978  -0.000114  -0.000837   0.000018   0.000039
     8  H   -0.000077  -0.001776   0.000036   0.004073  -0.000149  -0.000133
     9  C   -0.000569  -0.088043   0.005651   0.369257  -0.034417  -0.042229
    10  H   -0.000050   0.005179  -0.000028  -0.024473   0.007578  -0.009064
    11  H    0.000037   0.012650  -0.000133  -0.051442  -0.009039  -0.000975
    12  C    0.426968   0.600020  -0.033596  -0.062944  -0.015712   0.005598
    13  H    0.495683  -0.028406  -0.006523   0.005179  -0.000412  -0.000137
    14  C   -0.028406   5.120899   0.424033   0.288823  -0.034461  -0.036142
    15  H   -0.006523   0.424033   0.497926  -0.031603   0.001467  -0.004535
    16  C    0.005179   0.288823  -0.031603   4.916889   0.397467   0.428921
    17  H   -0.000412  -0.034461   0.001467   0.397467   0.593479  -0.022731
    18  H   -0.000137  -0.036142  -0.004535   0.428921  -0.022731   0.546503
    19  C    0.000018   0.000545  -0.000045  -0.003259  -0.003495   0.000321
    20  H   -0.000001   0.000275   0.000000  -0.001528   0.001654  -0.000023
    21  C    0.000000  -0.000123   0.000002   0.000643   0.000530  -0.000048
    22  H    0.000000  -0.000001   0.000000   0.000013  -0.000002  -0.000001
    23  C   -0.000054   0.001496  -0.000004  -0.000825   0.000397  -0.000027
    24  H    0.000009   0.000098   0.000001  -0.000096   0.000018  -0.000002
    25  H   -0.000001  -0.000030  -0.000001   0.000070  -0.000013   0.000001
    26  C    0.000013  -0.000575  -0.000000   0.000903   0.000111  -0.000003
    27  H   -0.000001   0.000002   0.000000  -0.000003   0.000002  -0.000000
    28  H   -0.000002  -0.000059  -0.000001   0.000111  -0.000026   0.000002
              19         20         21         22         23         24
     1  C   -0.061118   0.003980   0.600010  -0.028381  -0.088033   0.012648
     2  C    0.538154  -0.028493  -0.076815   0.005362   0.253221  -0.053296
     3  H    0.007592  -0.000114  -0.033586  -0.006523   0.005651  -0.000133
     4  H   -0.042405  -0.005488   0.005685  -0.000077  -0.015796  -0.004098
     5  C   -0.004135   0.000269   0.000687   0.000018   0.004286   0.001669
     6  C   -0.025519  -0.001206   0.007673   0.000007  -0.000566  -0.002780
     7  H    0.000269   0.000009  -0.000148  -0.000001   0.002029  -0.000684
     8  H   -0.002733  -0.000092   0.001583   0.000011  -0.001034   0.000065
     9  C    0.004280   0.002030  -0.000716  -0.000054   0.000610   0.000111
    10  H    0.000415   0.000155   0.000009  -0.000001  -0.000021  -0.000001
    11  H    0.001674  -0.000686  -0.000174   0.000009   0.000111  -0.000017
    12  C    0.000690  -0.000147  -0.000208   0.000000  -0.000715  -0.000172
    13  H    0.000018  -0.000001   0.000000   0.000000  -0.000054   0.000009
    14  C    0.000545   0.000275  -0.000123  -0.000001   0.001496   0.000098
    15  H   -0.000045   0.000000   0.000002   0.000000  -0.000004   0.000001
    16  C   -0.003259  -0.001528   0.000643   0.000013  -0.000825  -0.000096
    17  H   -0.003495   0.001654   0.000530  -0.000002   0.000397   0.000018
    18  H    0.000321  -0.000023  -0.000048  -0.000001  -0.000027  -0.000002
    19  C    5.124293   0.424581   0.304533  -0.039162  -0.067876   0.007157
    20  H    0.424581   0.485203  -0.032161  -0.003537   0.003669  -0.000061
    21  C    0.304533  -0.032161   4.991433   0.426964   0.035279  -0.003650
    22  H   -0.039162  -0.003537   0.426964   0.495693  -0.000569   0.000037
    23  C   -0.067876   0.003669   0.035279  -0.000569   4.940302   0.450177
    24  H    0.007157  -0.000061  -0.003650   0.000037   0.450177   0.542087
    25  H   -0.004102  -0.000306   0.001836  -0.000050   0.380646  -0.022226
    26  C    0.000874  -0.000838  -0.062950   0.005180   0.369230  -0.051434
    27  H   -0.002451   0.000039   0.005605  -0.000137  -0.042235  -0.000976
    28  H    0.010532   0.000019  -0.015723  -0.000413  -0.034402  -0.009037
              25         26         27         28
     1  C    0.005185   0.288820  -0.036158  -0.034435
     2  C   -0.034193  -0.070680   0.011068  -0.001043
     3  H   -0.000028  -0.031611  -0.004536   0.001467
     4  H   -0.000055   0.004075  -0.000133  -0.000150
     5  C    0.000416  -0.003258   0.000320  -0.003489
     6  C   -0.000058   0.009737   0.000553  -0.000920
     7  H    0.000155  -0.001527  -0.000023   0.001655
     8  H   -0.000080   0.000356   0.000145  -0.001088
     9  C   -0.000021  -0.000826  -0.000027   0.000396
    10  H    0.000002   0.000070   0.000001  -0.000013
    11  H   -0.000001  -0.000097  -0.000002   0.000018
    12  C    0.000009   0.000643  -0.000048   0.000530
    13  H   -0.000001   0.000013  -0.000001  -0.000002
    14  C   -0.000030  -0.000575   0.000002  -0.000059
    15  H   -0.000001  -0.000000   0.000000  -0.000001
    16  C    0.000070   0.000903  -0.000003   0.000111
    17  H   -0.000013   0.000111   0.000002  -0.000026
    18  H    0.000001  -0.000003  -0.000000   0.000002
    19  C   -0.004102   0.000874  -0.002451   0.010532
    20  H   -0.000306  -0.000838   0.000039   0.000019
    21  C    0.001836  -0.062950   0.005605  -0.015723
    22  H   -0.000050   0.005180  -0.000137  -0.000413
    23  C    0.380646   0.369230  -0.042235  -0.034402
    24  H   -0.022226  -0.051434  -0.000976  -0.009037
    25  H    0.580552  -0.024500  -0.009063   0.007578
    26  C   -0.024500   4.916933   0.428937   0.397454
    27  H   -0.009063   0.428937   0.546484  -0.022728
    28  H    0.007578   0.397454  -0.022728   0.593445
          Atomic-Atomic Spin Densities.
               1          2          3          4          5          6
     1  C    0.000001   0.000000  -0.000000  -0.000000   0.000000   0.000000
     2  C    0.000000  -0.000001  -0.000000  -0.000000   0.000000   0.000000
     3  H   -0.000000  -0.000000  -0.000000   0.000000   0.000000  -0.000000
     4  H   -0.000000  -0.000000   0.000000  -0.000000   0.000000   0.000000
     5  C    0.000000   0.000000   0.000000   0.000000   0.000000  -0.000000
     6  C    0.000000   0.000000  -0.000000   0.000000  -0.000000   0.000000
     7  H   -0.000000  -0.000000  -0.000000   0.000000   0.000000   0.000000
     8  H   -0.000000  -0.000000   0.000000   0.000000   0.000000   0.000000
     9  C    0.000000  -0.000000   0.000000   0.000000   0.000000  -0.000000
    10  H    0.000000   0.000000   0.000000  -0.000000   0.000000  -0.000000
    11  H   -0.000000   0.000000  -0.000000  -0.000000  -0.000000   0.000000
    12  C    0.000000  -0.000000  -0.000000   0.000000  -0.000000  -0.000000
    13  H   -0.000000  -0.000000  -0.000000  -0.000000  -0.000000   0.000000
    14  C    0.000000  -0.000000   0.000000   0.000000   0.000000  -0.000000
    15  H   -0.000000   0.000000   0.000000  -0.000000   0.000000   0.000000
    16  C    0.000000  -0.000000  -0.000000  -0.000000   0.000000   0.000000
    17  H    0.000000   0.000000   0.000000  -0.000000  -0.000000   0.000000
    18  H   -0.000000  -0.000000   0.000000  -0.000000   0.000000  -0.000000
    19  C   -0.000000   0.000000  -0.000000  -0.000000   0.000000  -0.000000
    20  H    0.000000  -0.000000  -0.000000  -0.000000   0.000000   0.000000
    21  C   -0.000000   0.000000   0.000000   0.000000  -0.000000   0.000000
    22  H    0.000000  -0.000000   0.000000   0.000000  -0.000000   0.000000
    23  C    0.000000   0.000000  -0.000000   0.000000   0.000000   0.000000
    24  H    0.000000  -0.000000  -0.000000  -0.000000  -0.000000  -0.000000
    25  H    0.000000   0.000000  -0.000000  -0.000000   0.000000  -0.000000
    26  C   -0.000000  -0.000000   0.000000   0.000000  -0.000000   0.000000
    27  H   -0.000000   0.000000   0.000000  -0.000000  -0.000000  -0.000000
    28  H   -0.000000  -0.000000   0.000000  -0.000000   0.000000  -0.000000
               7          8          9         10         11         12
     1  C   -0.000000  -0.000000   0.000000   0.000000  -0.000000   0.000000
     2  C   -0.000000  -0.000000  -0.000000   0.000000   0.000000  -0.000000
     3  H   -0.000000   0.000000   0.000000   0.000000  -0.000000  -0.000000
     4  H    0.000000   0.000000   0.000000  -0.000000  -0.000000   0.000000
     5  C    0.000000   0.000000   0.000000   0.000000  -0.000000  -0.000000
     6  C    0.000000   0.000000  -0.000000  -0.000000   0.000000  -0.000000
     7  H   -0.000001   0.000000  -0.000000   0.000000   0.000000   0.000000
     8  H    0.000000   0.000000  -0.000000   0.000000  -0.000000  -0.000000
     9  C   -0.000000  -0.000000   0.000002   0.000000  -0.000000   0.000000
    10  H    0.000000   0.000000   0.000000  -0.000000   0.000000  -0.000000
    11  H    0.000000  -0.000000  -0.000000   0.000000  -0.000000   0.000000
    12  C    0.000000  -0.000000   0.000000  -0.000000   0.000000  -0.000000
    13  H   -0.000000  -0.000000  -0.000000   0.000000   0.000000   0.000000
    14  C   -0.000000   0.000000  -0.000000  -0.000000  -0.000000   0.000000
    15  H    0.000000  -0.000000   0.000000   0.000000   0.000000  -0.000000
    16  C    0.000000  -0.000000  -0.000000   0.000000   0.000000  -0.000000
    17  H    0.000000   0.000000  -0.000000  -0.000000   0.000000  -0.000000
    18  H   -0.000000   0.000000  -0.000000  -0.000000   0.000000   0.000000
    19  C   -0.000000  -0.000000  -0.000000   0.000000   0.000000   0.000000
    20  H   -0.000000  -0.000000  -0.000000   0.000000  -0.000000  -0.000000
    21  C    0.000000  -0.000000   0.000000  -0.000000  -0.000000   0.000000
    22  H    0.000000   0.000000   0.000000  -0.000000  -0.000000  -0.000000
    23  C    0.000000  -0.000000   0.000000  -0.000000  -0.000000  -0.000000
    24  H    0.000000   0.000000   0.000000  -0.000000   0.000000   0.000000
    25  H   -0.000000   0.000000   0.000000   0.000000   0.000000   0.000000
    26  C    0.000000   0.000000  -0.000000  -0.000000   0.000000   0.000000
    27  H    0.000000   0.000000   0.000000  -0.000000   0.000000   0.000000
    28  H   -0.000000   0.000000  -0.000000  -0.000000   0.000000   0.000000
              13         14         15         16         17         18
     1  C   -0.000000   0.000000  -0.000000   0.000000   0.000000  -0.000000
     2  C   -0.000000  -0.000000   0.000000  -0.000000   0.000000  -0.000000
     3  H   -0.000000   0.000000   0.000000  -0.000000   0.000000   0.000000
     4  H   -0.000000   0.000000  -0.000000  -0.000000  -0.000000  -0.000000
     5  C   -0.000000   0.000000   0.000000   0.000000  -0.000000   0.000000
     6  C    0.000000  -0.000000   0.000000   0.000000   0.000000  -0.000000
     7  H   -0.000000  -0.000000   0.000000   0.000000   0.000000  -0.000000
     8  H   -0.000000   0.000000  -0.000000  -0.000000   0.000000   0.000000
     9  C   -0.000000  -0.000000   0.000000  -0.000000  -0.000000  -0.000000
    10  H    0.000000  -0.000000   0.000000   0.000000  -0.000000  -0.000000
    11  H    0.000000  -0.000000   0.000000   0.000000   0.000000   0.000000
    12  C    0.000000   0.000000  -0.000000  -0.000000  -0.000000   0.000000
    13  H    0.000000  -0.000000  -0.000000   0.000000   0.000000  -0.000000
    14  C   -0.000000  -0.000001   0.000000   0.000000   0.000000   0.000000
    15  H   -0.000000   0.000000   0.000000  -0.000000  -0.000000  -0.000000
    16  C    0.000000   0.000000  -0.000000  -0.000001   0.000000   0.000000
    17  H    0.000000   0.000000  -0.000000   0.000000  -0.000000  -0.000000
    18  H   -0.000000   0.000000  -0.000000   0.000000  -0.000000   0.000000
    19  C    0.000000  -0.000000  -0.000000   0.000000  -0.000000   0.000000
    20  H   -0.000000   0.000000   0.000000  -0.000000   0.000000  -0.000000
    21  C    0.000000  -0.000000   0.000000  -0.000000  -0.000000  -0.000000
    22  H    0.000000   0.000000   0.000000  -0.000000   0.000000  -0.000000
    23  C   -0.000000  -0.000000  -0.000000   0.000000   0.000000  -0.000000
    24  H    0.000000   0.000000   0.000000   0.000000  -0.000000  -0.000000
    25  H   -0.000000  -0.000000  -0.000000   0.000000   0.000000   0.000000
    26  C    0.000000  -0.000000   0.000000   0.000000  -0.000000  -0.000000
    27  H    0.000000   0.000000  -0.000000   0.000000  -0.000000  -0.000000
    28  H   -0.000000  -0.000000  -0.000000   0.000000  -0.000000   0.000000
              19         20         21         22         23         24
     1  C   -0.000000   0.000000  -0.000000   0.000000   0.000000   0.000000
     2  C    0.000000  -0.000000   0.000000  -0.000000   0.000000  -0.000000
     3  H   -0.000000  -0.000000   0.000000   0.000000  -0.000000  -0.000000
     4  H   -0.000000  -0.000000   0.000000   0.000000   0.000000  -0.000000
     5  C    0.000000   0.000000  -0.000000  -0.000000   0.000000  -0.000000
     6  C   -0.000000   0.000000   0.000000   0.000000   0.000000  -0.000000
     7  H   -0.000000  -0.000000   0.000000   0.000000   0.000000   0.000000
     8  H   -0.000000  -0.000000  -0.000000   0.000000  -0.000000   0.000000
     9  C   -0.000000  -0.000000   0.000000   0.000000   0.000000   0.000000
    10  H    0.000000   0.000000  -0.000000  -0.000000  -0.000000  -0.000000
    11  H    0.000000  -0.000000  -0.000000  -0.000000  -0.000000   0.000000
    12  C    0.000000  -0.000000   0.000000  -0.000000  -0.000000   0.000000
    13  H    0.000000  -0.000000   0.000000   0.000000  -0.000000   0.000000
    14  C   -0.000000   0.000000  -0.000000   0.000000  -0.000000   0.000000
    15  H   -0.000000   0.000000   0.000000   0.000000  -0.000000   0.000000
    16  C    0.000000  -0.000000  -0.000000  -0.000000   0.000000   0.000000
    17  H   -0.000000   0.000000  -0.000000   0.000000   0.000000  -0.000000
    18  H    0.000000  -0.000000  -0.000000  -0.000000  -0.000000  -0.000000
    19  C    0.000000  -0.000000   0.000000   0.000000  -0.000000   0.000000
[...]
     2  C    0.000000  -0.000000   0.000000  -0.000000
     3  H   -0.000000   0.000000   0.000000   0.000000
     4  H   -0.000000   0.000000  -0.000000  -0.000000
     5  C    0.000000  -0.000000  -0.000000   0.000000
     6  C   -0.000000   0.000000  -0.000000  -0.000000
     7  H   -0.000000   0.000000   0.000000  -0.000000
     8  H    0.000000   0.000000   0.000000   0.000000
     9  C    0.000000  -0.000000   0.000000  -0.000000
    10  H    0.000000  -0.000000  -0.000000  -0.000000
    11  H    0.000000   0.000000   0.000000   0.000000
    12  C    0.000000   0.000000   0.000000   0.000000
    13  H   -0.000000   0.000000   0.000000  -0.000000
    14  C   -0.000000  -0.000000   0.000000  -0.000000
    15  H   -0.000000   0.000000  -0.000000  -0.000000
    16  C    0.000000   0.000000   0.000000   0.000000
    17  H    0.000000  -0.000000  -0.000000  -0.000000
    18  H    0.000000  -0.000000  -0.000000   0.000000
    19  C   -0.000000  -0.000000  -0.000000   0.000000
    20  H   -0.000000  -0.000000   0.000000  -0.000000
    21  C    0.000000   0.000000  -0.000000   0.000000
    22  H   -0.000000  -0.000000   0.000000  -0.000000
    23  C   -0.000000   0.000000   0.000000   0.000000
    24  H   -0.000000  -0.000000  -0.000000  -0.000000
    25  H    0.000000  -0.000000  -0.000000   0.000000
    26  C   -0.000000   0.000001  -0.000000  -0.000000
    27  H   -0.000000  -0.000000  -0.000000   0.000000
    28  H    0.000000  -0.000000   0.000000   0.000000
 Mulliken charges and spin densities:
               1          2
     1  C   -0.210086   0.000001
     2  C   -0.182040  -0.000000
     3  H    0.142103  -0.000000
     4  H    0.158828  -0.000000
     5  C   -0.169663   0.000000
     6  C   -0.182159  -0.000000
     7  H    0.152775  -0.000000
     8  H    0.158993   0.000000
     9  C   -0.194880   0.000001
    10  H    0.118298  -0.000000
    11  H    0.134571  -0.000000
    12  C   -0.156194  -0.000000
    13  H    0.145630   0.000000
    14  C   -0.210070  -0.000001
    15  H    0.142101   0.000000
    16  C   -0.175039  -0.000000
    17  H    0.110306  -0.000000
    18  H    0.125347   0.000000
    19  C   -0.169626  -0.000000
    20  H    0.152799   0.000000
    21  C   -0.156170  -0.000000
    22  H    0.145616  -0.000000
    23  C   -0.194949  -0.000001
    24  H    0.134587   0.000000
    25  H    0.118278   0.000000
    26  C   -0.175037   0.000000
    27  H    0.125363  -0.000000
    28  H    0.110319   0.000000
 Sum of Mulliken charges =  -0.00000  -0.00000
 Mulliken charges and spin densities with hydrogens summed into heavy atoms:
               1          2
     1  C   -0.067983   0.000001
     2  C   -0.023212  -0.000000
     5  C   -0.016888   0.000000
     6  C   -0.023166   0.000000
     9  C    0.057989   0.000001
    12  C   -0.010564   0.000000
    14  C   -0.067969  -0.000001
    16  C    0.060614  -0.000000
    19  C   -0.016828   0.000000
    21  C   -0.010554  -0.000001
    23  C    0.057915  -0.000001
    26  C    0.060646   0.000000
 Electronic spatial extent (au):  <R**2>=           2320.6404
 Charge=             -0.0000 electrons
 Dipole moment (field-independent basis, Debye):
    X=             -0.0002    Y=              0.0002    Z=              0.0002  Tot=              0.0003
 Quadrupole moment (field-independent basis, Debye-Ang):
   XX=            -72.5390   YY=            -69.7894   ZZ=            -76.7490
   XY=             -3.2781   XZ=             -3.8688   YZ=             -1.7304
 Traceless Quadrupole moment (field-independent basis, Debye-Ang):
   XX=              0.4868   YY=              3.2364   ZZ=             -3.7232
   XY=             -3.2781   XZ=             -3.8688   YZ=             -1.7304
 Octapole moment (field-independent basis, Debye-Ang**2):
  XXX=             -0.0067  YYY=              0.0028  ZZZ=              0.0015  XYY=              0.0011
  XXY=             -0.0005  XXZ=              0.0008  XZZ=              0.0001  YZZ=             -0.0007
  YYZ=             -0.0006  XYZ=             -0.0009
 Hexadecapole moment (field-independent basis, Debye-Ang**3):
 XXXX=          -2114.3765 YYYY=           -629.5795 ZZZZ=           -433.7600 XXXY=           -117.8428
 XXXZ=           -162.8720 YYYX=            -68.3929 YYYZ=             -7.9289 ZZZX=           -107.2935
 ZZZY=            -20.4929 XXYY=           -453.2127 XXZZ=           -444.5588 YYZZ=           -192.4111
 XXYZ=            -25.5814 YYXZ=            -38.6490 ZZXY=            -47.2079
 N-N= 6.733743894912D+02 E-N=-2.428495609470D+03  KE= 4.641597115363D+02
                          Isotropic Fermi Contact Couplings
        Atom                 a.u.       MegaHertz       Gauss      10(-4) cm-1
     1  C(13)              0.00000       0.00006       0.00002       0.00002
     2  C(13)              0.00000       0.00007       0.00002       0.00002
     3  H(1)              -0.00000      -0.00003      -0.00001      -0.00001
     4  H(1)              -0.00000      -0.00009      -0.00003      -0.00003
     5  C(13)              0.00000       0.00019       0.00007       0.00006
     6  C(13)             -0.00000      -0.00010      -0.00003      -0.00003
     7  H(1)              -0.00000      -0.00029      -0.00010      -0.00010
     8  H(1)               0.00000       0.00011       0.00004       0.00004
     9  C(13)              0.00000       0.00033       0.00012       0.00011
    10  H(1)              -0.00000      -0.00016      -0.00006      -0.00005
    11  H(1)              -0.00000      -0.00019      -0.00007      -0.00006
    12  C(13)             -0.00000      -0.00013      -0.00005      -0.00004
    13  H(1)               0.00000       0.00023       0.00008       0.00008
    14  C(13)             -0.00000      -0.00002      -0.00001      -0.00001
    15  H(1)               0.00000       0.00001       0.00000       0.00000
    16  C(13)             -0.00000      -0.00014      -0.00005      -0.00005
    17  H(1)               0.00000       0.00003       0.00001       0.00001
    18  H(1)               0.00000       0.00003       0.00001       0.00001
    19  C(13)             -0.00000      -0.00016      -0.00006      -0.00005
    20  H(1)               0.00000       0.00028       0.00010       0.00009
    21  C(13)              0.00000       0.00010       0.00003       0.00003
    22  H(1)              -0.00000      -0.00021      -0.00008      -0.00007
    23  C(13)             -0.00000      -0.00032      -0.00011      -0.00011
    24  H(1)               0.00000       0.00018       0.00006       0.00006
    25  H(1)               0.00000       0.00014       0.00005       0.00005
    26  C(13)              0.00000       0.00013       0.00004       0.00004
    27  H(1)              -0.00000      -0.00002      -0.00001      -0.00001
    28  H(1)              -0.00000      -0.00000      -0.00000      -0.00000
 --------------------------------------------------------
       Center         ----  Spin Dipole Couplings  ----
                      3XX-RR        3YY-RR        3ZZ-RR
 --------------------------------------------------------
     1   Atom        0.000000     -0.000001      0.000000
     2   Atom       -0.000000      0.000000     -0.000000
     3   Atom        0.000000     -0.000000      0.000000
     4   Atom        0.000000      0.000000     -0.000000
     5   Atom        0.000000      0.000000     -0.000001
     6   Atom        0.000000     -0.000000     -0.000000
     7   Atom       -0.000000      0.000000     -0.000000
     8   Atom       -0.000000     -0.000000      0.000000
     9   Atom        0.000000     -0.000000      0.000000
    10   Atom       -0.000000     -0.000000      0.000000
    11   Atom       -0.000000      0.000000     -0.000000
    12   Atom       -0.000000     -0.000001      0.000001
    13   Atom        0.000000     -0.000000      0.000000
    14   Atom       -0.000000      0.000000      0.000000
    15   Atom        0.000000      0.000000     -0.000000
    16   Atom       -0.000000      0.000000     -0.000000
    17   Atom       -0.000000      0.000000      0.000000
    18   Atom        0.000000     -0.000000      0.000000
    19   Atom       -0.000000     -0.000001      0.000001
    20   Atom        0.000000     -0.000000      0.000000
    21   Atom        0.000000      0.000001     -0.000001
    22   Atom       -0.000000      0.000000     -0.000000
    23   Atom       -0.000000      0.000000     -0.000000
    24   Atom        0.000000     -0.000000      0.000000
    25   Atom        0.000000      0.000000     -0.000000
    26   Atom        0.000000     -0.000000      0.000000
    27   Atom       -0.000000      0.000000     -0.000000
    28   Atom        0.000000      0.000000     -0.000000
 --------------------------------------------------------
                        XY            XZ            YZ
 --------------------------------------------------------
     1   Atom       -0.000000      0.000001     -0.000000
     2   Atom       -0.000000     -0.000001     -0.000000
     3   Atom        0.000000     -0.000000     -0.000000
     4   Atom        0.000000      0.000000     -0.000000
     5   Atom       -0.000000      0.000000      0.000000
     6   Atom        0.000000      0.000000     -0.000000
     7   Atom       -0.000000     -0.000000      0.000000
     8   Atom       -0.000000     -0.000000      0.000000
     9   Atom        0.000000     -0.000000      0.000000
    10   Atom       -0.000000      0.000000     -0.000000
    11   Atom        0.000000      0.000000      0.000000
    12   Atom       -0.000000      0.000000      0.000000
    13   Atom       -0.000000      0.000000      0.000000
    14   Atom        0.000000     -0.000001      0.000000
    15   Atom       -0.000000      0.000000      0.000000
    16   Atom        0.000000      0.000000      0.000000
    17   Atom       -0.000000     -0.000000     -0.000000
    18   Atom        0.000000     -0.000000      0.000000
    19   Atom        0.000000      0.000000      0.000000
    20   Atom        0.000000      0.000000     -0.000000
    21   Atom        0.000000     -0.000000     -0.000000
    22   Atom        0.000000     -0.000000     -0.000000
    23   Atom       -0.000000      0.000000     -0.000000
    24   Atom       -0.000000     -0.000000     -0.000000
    25   Atom        0.000000     -0.000000      0.000000
    26   Atom       -0.000000     -0.000000     -0.000000
    27   Atom       -0.000000      0.000000     -0.000000
    28   Atom        0.000000      0.000000      0.000000
 --------------------------------------------------------


 ---------------------------------------------------------------------------------
              Anisotropic Spin Dipole Couplings in Principal Axis System
 ---------------------------------------------------------------------------------

       Atom             a.u.   MegaHertz   Gauss  10(-4) cm-1        Axes

              Baa    -0.0000    -0.000    -0.000    -0.000 -0.6656  0.2154  0.7146
     1 C(13)  Bbb    -0.0000    -0.000    -0.000    -0.000  0.2384  0.9686 -0.0699
              Bcc     0.0000     0.000     0.000     0.000  0.7072 -0.1238  0.6961
 
              Baa    -0.0000    -0.000    -0.000    -0.000  0.6816  0.1546  0.7152
     2 C(13)  Bbb     0.0000     0.000     0.000     0.000  0.2684  0.8565 -0.4409
              Bcc     0.0000     0.000     0.000     0.000  0.6807 -0.4925 -0.5423
 
              Baa    -0.0000    -0.000    -0.000    -0.000 -0.0829  0.9845  0.1545
     3 H(1)   Bbb    -0.0000    -0.000    -0.000    -0.000  0.8738 -0.0027  0.4863
              Bcc     0.0000     0.000     0.000     0.000 -0.4791 -0.1753  0.8600
 
              Baa    -0.0000    -0.000    -0.000    -0.000 -0.2708  0.2047  0.9406
     4 H(1)   Bbb     0.0000     0.000     0.000     0.000  0.7954 -0.5027  0.3384
              Bcc     0.0000     0.000     0.000     0.000  0.5422  0.8398 -0.0267
 
              Baa    -0.0000    -0.000    -0.000    -0.000 -0.0645 -0.0484  0.9967
     5 C(13)  Bbb     0.0000     0.000     0.000     0.000  0.7310  0.6777  0.0802
              Bcc     0.0000     0.000     0.000     0.000 -0.6793  0.7338 -0.0083
 
              Baa    -0.0000    -0.000    -0.000    -0.000 -0.5819  0.4580  0.6720
     6 C(13)  Bbb    -0.0000    -0.000    -0.000    -0.000  0.1737  0.8773 -0.4474
              Bcc     0.0000     0.000     0.000     0.000  0.7945  0.1436  0.5901
 
              Baa    -0.0000    -0.000    -0.000    -0.000  0.5572  0.0576  0.8284
     7 H(1)   Bbb    -0.0000    -0.000    -0.000    -0.000  0.6809  0.5393 -0.4955
              Bcc     0.0000     0.000     0.000     0.000 -0.4753  0.8402  0.2612
 
              Baa    -0.0000    -0.000    -0.000    -0.000  0.9513  0.3017  0.0634
     8 H(1)   Bbb    -0.0000    -0.000    -0.000    -0.000 -0.2679  0.9108 -0.3141
              Bcc     0.0000     0.000     0.000     0.000 -0.1526  0.2818  0.9473
 
              Baa    -0.0000    -0.000    -0.000    -0.000 -0.3844  0.8612 -0.3324
     9 C(13)  Bbb     0.0000     0.000     0.000     0.000 -0.0541  0.3385  0.9394
              Bcc     0.0000     0.000     0.000     0.000  0.9216  0.3791 -0.0835
 
              Baa    -0.0000    -0.000    -0.000    -0.000  0.6829  0.6973 -0.2178
    10 H(1)   Bbb    -0.0000    -0.000    -0.000    -0.000 -0.5657  0.6934  0.4463
              Bcc     0.0000     0.000     0.000     0.000  0.4623 -0.1815  0.8680
 
              Baa    -0.0000    -0.000    -0.000    -0.000  0.6290 -0.5183  0.5795
    11 H(1)   Bbb    -0.0000    -0.000    -0.000    -0.000 -0.5215  0.2716  0.8089
              Bcc     0.0000     0.000     0.000     0.000  0.5766  0.8110  0.0995
 
              Baa    -0.0000    -0.000    -0.000    -0.000  0.3197  0.9361 -0.1466
    12 C(13)  Bbb    -0.0000    -0.000    -0.000    -0.000  0.9385 -0.3341 -0.0871
              Bcc     0.0000     0.000     0.000     0.000  0.1305  0.1097  0.9854
 
              Baa    -0.0000    -0.000    -0.000    -0.000  0.2539  0.9404 -0.2263
    13 H(1)   Bbb     0.0000     0.000     0.000     0.000  0.9415 -0.2938 -0.1648
              Bcc     0.0000     0.000     0.000     0.000  0.2215  0.1713  0.9600
 
              Baa    -0.0000    -0.000    -0.000    -0.000  0.7824 -0.1647  0.6006
    14 C(13)  Bbb     0.0000     0.000     0.000     0.000  0.2451  0.9680 -0.0537
              Bcc     0.0000     0.000     0.000     0.000 -0.5726  0.1893  0.7977
 
              Baa    -0.0000    -0.000    -0.000    -0.000 -0.3693 -0.1903  0.9096
    15 H(1)   Bbb     0.0000     0.000     0.000     0.000  0.9287 -0.0391  0.3688
              Bcc     0.0000     0.000     0.000     0.000 -0.0346  0.9809  0.1912
 
              Baa    -0.0000    -0.000    -0.000    -0.000 -0.6925 -0.0205  0.7211
    16 C(13)  Bbb     0.0000     0.000     0.000     0.000  0.6525 -0.4440  0.6141
              Bcc     0.0000     0.000     0.000     0.000  0.3076  0.8958  0.3208
 
              Baa    -0.0000    -0.000    -0.000    -0.000  0.6063  0.6095  0.5108
    17 H(1)   Bbb     0.0000     0.000     0.000     0.000  0.7878 -0.3727 -0.4903
              Bcc     0.0000     0.000     0.000     0.000  0.1085 -0.6997  0.7061
 
              Baa    -0.0000    -0.000    -0.000    -0.000 -0.5746  0.7624 -0.2976
    18 H(1)   Bbb     0.0000     0.000     0.000     0.000 -0.5688 -0.1105  0.8150
              Bcc     0.0000     0.000     0.000     0.000  0.5885  0.6376  0.4971
 
              Baa    -0.0000    -0.000    -0.000    -0.000 -0.5684  0.8221  0.0326
    19 C(13)  Bbb    -0.0000    -0.000    -0.000    -0.000  0.8123  0.5671 -0.1363
              Bcc     0.0000     0.000     0.000     0.000  0.1305  0.0509  0.9901
 
              Baa    -0.0000    -0.000    -0.000    -0.000 -0.4467  0.8552  0.2629
    20 H(1)   Bbb     0.0000     0.000     0.000     0.000  0.6943  0.5166 -0.5011
              Bcc     0.0000     0.000     0.000     0.000  0.5643  0.0413  0.8245
 
              Baa    -0.0000    -0.000    -0.000    -0.000  0.2323  0.0732  0.9699
    21 C(13)  Bbb     0.0000     0.000     0.000     0.000  0.9355 -0.2897 -0.2022
              Bcc     0.0000     0.000     0.000     0.000  0.2662  0.9543 -0.1358
 
              Baa    -0.0000    -0.000    -0.000    -0.000  0.3391  0.1332  0.9313
    22 H(1)   Bbb     0.0000     0.000     0.000     0.000  0.9310 -0.1893 -0.3120
              Bcc     0.0000     0.000     0.000     0.000  0.1347  0.9728 -0.1883
 
              Baa    -0.0000    -0.000    -0.000    -0.000  0.9198  0.3921 -0.0120
    23 C(13)  Bbb    -0.0000    -0.000    -0.000    -0.000 -0.1170  0.3034  0.9457
              Bcc     0.0000     0.000     0.000     0.000 -0.3745  0.8684 -0.3249
 
              Baa    -0.0000    -0.000    -0.000    -0.000  0.5549  0.8258  0.1003
    24 H(1)   Bbb     0.0000     0.000     0.000     0.000 -0.6069  0.3194  0.7278
              Bcc     0.0000     0.000     0.000     0.000  0.5690 -0.4647  0.6785
 
              Baa    -0.0000    -0.000    -0.000    -0.000  0.4811 -0.1968  0.8543
    25 H(1)   Bbb     0.0000     0.000     0.000     0.000 -0.4896  0.7480  0.4481
              Bcc     0.0000     0.000     0.000     0.000  0.7272  0.6338 -0.2635
 
              Baa    -0.0000    -0.000    -0.000    -0.000  0.2916  0.9047  0.3106
    26 C(13)  Bbb    -0.0000    -0.000    -0.000    -0.000  0.6605 -0.4254  0.6187
              Bcc     0.0000     0.000     0.000     0.000 -0.6919 -0.0247  0.7216
 
              Baa    -0.0000    -0.000    -0.000    -0.000  0.5328  0.5850  0.6115
    27 H(1)   Bbb    -0.0000    -0.000    -0.000    -0.000 -0.6665 -0.1553  0.7292
              Bcc     0.0000     0.000     0.000     0.000 -0.5216  0.7960 -0.3072
 
              Baa    -0.0000    -0.000    -0.000    -0.000 -0.3717  0.7208 -0.5850
    28 H(1)   Bbb    -0.0000    -0.000    -0.000    -0.000  0.6998 -0.1965 -0.6868
              Bcc     0.0000     0.000     0.000     0.000  0.6100  0.6647  0.4313
 

 ---------------------------------------------------------------------------------

 No NMR shielding tensors so no spin-rotation constants.
 Leave Link  601 at Mon Aug  3 14:27:50 2020, MaxMem=  6442450944 cpu:               7.9 elap:               0.4
 (Enter /scratch/scicomp/CentOS/7.3.1611/Haswell/software/Gaussian/g16/l9999.exe)
 1\1\GINC-ATLAS-205\SP\UwB97XD\def2TZVP\C12H16\BOCHEN\03-Aug-2020\0\\#p
  uwb97xd guess=mix def2tzvp # scrf=(iefpcm,solvent=Cyclohexane,read) n
 osym 6d 10f\\endo-2 xp-pcm for eta=3\\0,1\C,0,-3.125716,-0.440978,0.27
 0604\C,0,-0.764956,-0.259235,-1.286409\H,0,-4.058512,-0.527829,0.81570
 9\H,0,0.17605,-0.180561,-1.817052\C,0,1.190843,1.431055,0.823776\C,0,0
 .764956,0.259235,1.286409\H,0,0.599752,2.328066,0.965494\H,0,-0.17605,
 0.180561,1.817052\C,0,1.594875,-0.984626,1.150152\H,0,2.156222,-1.1137
 93,2.084526\H,0,0.946262,-1.857408,1.063673\C,0,2.468178,1.532445,0.11
 662\H,0,2.867487,2.516684,-0.097237\C,0,3.125716,0.440978,-0.270604\H,
 0,4.058512,0.527829,-0.815709\C,0,2.566903,-0.935493,-0.033026\H,0,2.0
 59865,-1.262257,-0.949209\H,0,3.377104,-1.649532,0.12636\C,0,-1.190843
 ,-1.431055,-0.823776\H,0,-0.599752,-2.328066,-0.965494\C,0,-2.468178,-
 1.532445,-0.11662\H,0,-2.867487,-2.516684,0.097237\C,0,-1.594875,0.984
 626,-1.150152\H,0,-0.946262,1.857408,-1.063673\H,0,-2.156222,1.113793,
 -2.084526\C,0,-2.566903,0.935493,0.033026\H,0,-3.377104,1.649532,-0.12
 636\H,0,-2.059865,1.262257,0.949209\\Version=ES64L-G16RevB.01\HF=-466.
 858579\S2=0.\S2-1=0.\S2A=0.\RMSD=9.893e-09\Dipole=-0.0000665,0.000085,
 0.0000651\Quadrupole=0.3619532,2.406172,-2.7681252,-2.4371699,-2.87638
 46,-1.2865141\PG=CI [X(C12H16)]\\@


 In the race for quality, there is no finish line.
                               -- David T. Kearns
 Job cpu time:       0 days  1 hours 58 minutes 48.3 seconds.
 Elapsed time:       0 days  0 hours  5 minutes  0.1 seconds.
 File lengths (MBytes):  RWF=    632 Int=      0 D2E=      0 Chk=     23 Scr=      1
 Normal termination of Gaussian 16 at Mon Aug  3 14:27:50 2020.
