 Entering Gaussian System, Link 0=g16
 Input=meso-TS_88_2_xp-Vc.com
 Output=meso-TS_88_2_xp-Vc.log
 Initial command:
 /scratch/scicomp/CentOS/7.3.1611/Haswell/software/Gaussian/g16/l1.exe "/scratch/bochen/cyclohexadiene-dimerization/wb97xd-def2tzvp/xp-pcm/meso/Gau-69073.inp" -scrdir="/scratch/bochen/cyclohexadiene-dimerization/wb97xd-def2tzvp/xp-pcm/meso/"
 Entering Link 1 = /scratch/scicomp/CentOS/7.3.1611/Haswell/software/Gaussian/g16/l1.exe PID=     69074.
  
 Copyright (c) 1988-2017, Gaussian, Inc.  All Rights Reserved.
  
 This is part of the Gaussian(R) 16 program.  It is based on
 the Gaussian(R) 09 system (copyright 2009, Gaussian, Inc.),
 the Gaussian(R) 03 system (copyright 2003, Gaussian, Inc.),
 the Gaussian(R) 98 system (copyright 1998, Gaussian, Inc.),
 the Gaussian(R) 94 system (copyright 1995, Gaussian, Inc.),
 the Gaussian 92(TM) system (copyright 1992, Gaussian, Inc.),
 the Gaussian 90(TM) system (copyright 1990, Gaussian, Inc.),
 the Gaussian 88(TM) system (copyright 1988, Gaussian, Inc.),
 the Gaussian 86(TM) system (copyright 1986, Carnegie Mellon
 University), and the Gaussian 82(TM) system (copyright 1983,
 Carnegie Mellon University). Gaussian is a federally registered
 trademark of Gaussian, Inc.
  
 This software contains proprietary and confidential information,
 including trade secrets, belonging to Gaussian, Inc.
  
 This software is provided under written license and may be
 used, copied, transmitted, or stored only in accord with that
 written license.
  
 The following legend is applicable only to US Government
 contracts under FAR:
  
                    RESTRICTED RIGHTS LEGEND
  
 Use, reproduction and disclosure by the US Government is
 subject to restrictions as set forth in subparagraphs (a)
 and (c) of the Commercial Computer Software - Restricted
 Rights clause in FAR 52.227-19.
  
 Gaussian, Inc.
 340 Quinnipiac St., Bldg. 40, Wallingford CT 06492
  
  
 ---------------------------------------------------------------
 Warning -- This program may not be used in any manner that
 competes with the business of Gaussian, Inc. or will provide
 assistance to any competitor of Gaussian, Inc.  The licensee
 of this program is prohibited from giving any competitor of
 Gaussian, Inc. access to this program.  By using this program,
 the user acknowledges that Gaussian, Inc. is engaged in the
 business of creating and licensing software in the field of
 computational chemistry and represents and warrants to the
 licensee that it is not a competitor of Gaussian, Inc. and that
 it will not use this program in any manner prohibited above.
 ---------------------------------------------------------------
  

 Cite this work as:
 Gaussian 16, Revision B.01,
 M. J. Frisch, G. W. Trucks, H. B. Schlegel, G. E. Scuseria, 
 M. A. Robb, J. R. Cheeseman, G. Scalmani, V. Barone, 
 G. A. Petersson, H. Nakatsuji, X. Li, M. Caricato, A. V. Marenich, 
 J. Bloino, B. G. Janesko, R. Gomperts, B. Mennucci, H. P. Hratchian, 
 J. V. Ortiz, A. F. Izmaylov, J. L. Sonnenberg, D. Williams-Young, 
 F. Ding, F. Lipparini, F. Egidi, J. Goings, B. Peng, A. Petrone, 
 T. Henderson, D. Ranasinghe, V. G. Zakrzewski, J. Gao, N. Rega, 
 G. Zheng, W. Liang, M. Hada, M. Ehara, K. Toyota, R. Fukuda, 
 J. Hasegawa, M. Ishida, T. Nakajima, Y. Honda, O. Kitao, H. Nakai, 
 T. Vreven, K. Throssell, J. A. Montgomery, Jr., J. E. Peralta, 
 F. Ogliaro, M. J. Bearpark, J. J. Heyd, E. N. Brothers, K. N. Kudin, 
 V. N. Staroverov, T. A. Keith, R. Kobayashi, J. Normand, 
 K. Raghavachari, A. P. Rendell, J. C. Burant, S. S. Iyengar, 
 J. Tomasi, M. Cossi, J. M. Millam, M. Klene, C. Adamo, R. Cammi, 
 J. W. Ochterski, R. L. Martin, K. Morokuma, O. Farkas, 
 J. B. Foresman, and D. J. Fox, Gaussian, Inc., Wallingford CT, 2016.
 
 ******************************************
 Gaussian 16:  ES64L-G16RevB.01 20-Dec-2017
                 3-Aug-2020 
 ******************************************
 %chk=meso-TS_88_2_xp-12.chk
 %nproc=24
 Will use up to   24 processors via shared memory.
 %mem=48GB
 ----------------------------------------------------------------------
 #p uwb97xd guess=mix def2tzvp # scrf=(iefpcm,solvent=Cyclohexane,read)
  nosym guess=only pop=none
 ----------------------------------------------------------------------
 1/38=1,40=2,172=1/1;
 2/12=2,15=1,17=6,18=5,40=1/2;
 3/5=44,7=101,11=2,25=1,30=1,70=2203,72=17,74=-58,89=1,116=2/1,2;
 4/13=-1/1;
 99/5=2/99;
 Leave Link    1 at Mon Aug  3 17:17:21 2020, MaxMem=  6442450944 cpu:               2.2 elap:               0.1
 (Enter /scratch/scicomp/CentOS/7.3.1611/Haswell/software/Gaussian/g16/l101.exe)
 -----------------------
 endo-2 xp-pcm for eta=3
 -----------------------
 Symbolic Z-matrix:
 Charge =  0 Multiplicity = 1
 6                    -3.10074  -0.43673   0.29582 
 6                    -0.85798  -0.28632  -1.42891 
 1                    -3.99899  -0.5072    0.89819 
 1                     0.04492  -0.22043  -2.02422 
 6                     1.25679   1.45045   0.9223 
 6                     0.85798   0.28632   1.42891 
 1                     0.67993   2.35239   1.08982 
 1                    -0.04492   0.22043   2.02422 
 6                     1.67802  -0.95902   1.24721 
 1                     2.33356  -1.06405   2.12193 
 1                     1.03075  -1.83759   1.24221 
 6                     2.49165   1.53793   0.14061 
 1                     2.89475   2.51704  -0.08896 
 6                     3.10074   0.43673  -0.29582 
 1                     3.99899   0.5072   -0.89819 
 6                     2.52005  -0.9251   -0.0297 
 1                     1.89813  -1.20658  -0.88823 
 1                     3.31245  -1.67345   0.02771 
 6                    -1.25679  -1.45045  -0.9223 
 1                    -0.67993  -2.35239  -1.08982 
 6                    -2.49165  -1.53793  -0.14061 
 1                    -2.89475  -2.51704   0.08896 
 6                    -1.67802   0.95902  -1.24721 
 1                    -1.03075   1.83759  -1.24221 
 1                    -2.33356   1.06405  -2.12193 
 6                    -2.52005   0.9251    0.0297 
 1                    -3.31245   1.67345  -0.02771 
 1                    -1.89813   1.20658   0.88823 
 
 ITRead=  0  0  0  0  0  0  0  0  0  0  0  0  0  0  0  0  0  0  0  0
 ITRead=  0  0  0  0  0  0  0  0
 MicOpt= -1 -1 -1 -1 -1 -1 -1 -1 -1 -1 -1 -1 -1 -1 -1 -1 -1 -1 -1 -1
 MicOpt= -1 -1 -1 -1 -1 -1 -1 -1
 NAtoms=     28 NQM=       28 NQMF=       0 NMMI=      0 NMMIF=      0
                NMic=       0 NMicF=      0.
                    Isotopes and Nuclear Properties:
 (Nuclear quadrupole moments (NQMom) in fm**2, nuclear magnetic moments (NMagM)
  in nuclear magnetons)

  Atom         1           2           3           4           5           6           7           8           9          10
 IAtWgt=          12          12           1           1          12          12           1           1          12           1
 AtmWgt=  12.0000000  12.0000000   1.0078250   1.0078250  12.0000000  12.0000000   1.0078250   1.0078250  12.0000000   1.0078250
 NucSpn=           0           0           1           1           0           0           1           1           0           1
 AtZEff=  -0.0000000  -0.0000000  -0.0000000  -0.0000000  -0.0000000  -0.0000000  -0.0000000  -0.0000000  -0.0000000  -0.0000000
 NQMom=    0.0000000   0.0000000   0.0000000   0.0000000   0.0000000   0.0000000   0.0000000   0.0000000   0.0000000   0.0000000
 NMagM=    0.0000000   0.0000000   2.7928460   2.7928460   0.0000000   0.0000000   2.7928460   2.7928460   0.0000000   2.7928460
 AtZNuc=   6.0000000   6.0000000   1.0000000   1.0000000   6.0000000   6.0000000   1.0000000   1.0000000   6.0000000   1.0000000

  Atom        11          12          13          14          15          16          17          18          19          20
 IAtWgt=           1          12           1          12           1          12           1           1          12           1
 AtmWgt=   1.0078250  12.0000000   1.0078250  12.0000000   1.0078250  12.0000000   1.0078250   1.0078250  12.0000000   1.0078250
 NucSpn=           1           0           1           0           1           0           1           1           0           1
 AtZEff=  -0.0000000  -0.0000000  -0.0000000  -0.0000000  -0.0000000  -0.0000000  -0.0000000  -0.0000000  -0.0000000  -0.0000000
 NQMom=    0.0000000   0.0000000   0.0000000   0.0000000   0.0000000   0.0000000   0.0000000   0.0000000   0.0000000   0.0000000
 NMagM=    2.7928460   0.0000000   2.7928460   0.0000000   2.7928460   0.0000000   2.7928460   2.7928460   0.0000000   2.7928460
 AtZNuc=   1.0000000   6.0000000   1.0000000   6.0000000   1.0000000   6.0000000   1.0000000   1.0000000   6.0000000   1.0000000

  Atom        21          22          23          24          25          26          27          28
 IAtWgt=          12           1          12           1           1          12           1           1
 AtmWgt=  12.0000000   1.0078250  12.0000000   1.0078250   1.0078250  12.0000000   1.0078250   1.0078250
 NucSpn=           0           1           0           1           1           0           1           1
 AtZEff=  -0.0000000  -0.0000000  -0.0000000  -0.0000000  -0.0000000  -0.0000000  -0.0000000  -0.0000000
 NQMom=    0.0000000   0.0000000   0.0000000   0.0000000   0.0000000   0.0000000   0.0000000   0.0000000
 NMagM=    0.0000000   2.7928460   0.0000000   2.7928460   2.7928460   0.0000000   2.7928460   2.7928460
 AtZNuc=   6.0000000   1.0000000   6.0000000   1.0000000   1.0000000   6.0000000   1.0000000   1.0000000
 Leave Link  101 at Mon Aug  3 17:17:21 2020, MaxMem=  6442450944 cpu:               2.4 elap:               0.1
 (Enter /scratch/scicomp/CentOS/7.3.1611/Haswell/software/Gaussian/g16/l202.exe)
                          Input orientation:                          
 ---------------------------------------------------------------------
 Center     Atomic      Atomic             Coordinates (Angstroms)
 Number     Number       Type             X           Y           Z
 ---------------------------------------------------------------------
      1          6           0       -3.100740   -0.436725    0.295815
      2          6           0       -0.857979   -0.286324   -1.428905
      3          1           0       -3.998989   -0.507198    0.898194
      4          1           0        0.044923   -0.220426   -2.024218
      5          6           0        1.256794    1.450448    0.922302
      6          6           0        0.857979    0.286324    1.428905
      7          1           0        0.679926    2.352386    1.089821
      8          1           0       -0.044923    0.220426    2.024218
      9          6           0        1.678016   -0.959021    1.247210
     10          1           0        2.333558   -1.064055    2.121932
     11          1           0        1.030749   -1.837588    1.242211
     12          6           0        2.491654    1.537925    0.140607
     13          1           0        2.894748    2.517041   -0.088961
     14          6           0        3.100740    0.436725   -0.295815
     15          1           0        3.998989    0.507198   -0.898194
     16          6           0        2.520053   -0.925099   -0.029697
     17          1           0        1.898127   -1.206584   -0.888225
     18          1           0        3.312455   -1.673451    0.027707
     19          6           0       -1.256794   -1.450448   -0.922302
     20          1           0       -0.679926   -2.352386   -1.089821
     21          6           0       -2.491654   -1.537925   -0.140607
     22          1           0       -2.894748   -2.517041    0.088961
     23          6           0       -1.678016    0.959021   -1.247210
     24          1           0       -1.030749    1.837588   -1.242211
     25          1           0       -2.333558    1.064055   -2.121932
     26          6           0       -2.520053    0.925099    0.029697
     27          1           0       -3.312455    1.673451   -0.027707
     28          1           0       -1.898127    1.206584    0.888225
 ---------------------------------------------------------------------
                    Distance matrix (angstroms):
                    1          2          3          4          5
     1  C    0.000000
     2  C    2.833241   0.000000
     3  H    1.083826   3.915370   0.000000
     4  H    3.914656   1.083500   4.997595   0.000000
     5  C    4.789782   3.607883   5.608584   3.597559   0.000000
     6  C    4.180688   3.382235   4.949896   3.583562   1.330746
     7  H    4.764769   3.958778   5.486911   4.088989   1.083666
     8  H    3.571728   3.583562   4.175165   4.073359   2.102770
     9  C    4.900455   3.747717   5.705641   3.730249   2.467496
    10  H    5.767135   4.837274   6.473699   4.810418   2.986848
    11  H    4.463999   3.620576   5.214072   3.775795   3.311287
    12  C    5.932807   4.124475   6.847256   3.710089   1.464096
    13  H    6.694674   4.872090   7.592372   4.400051   2.200720
    14  C    6.290572   4.180688   7.261047   3.571728   2.431374
    15  H    7.261047   4.949896   8.259762   4.175165   3.423968
    16  C    5.651352   3.711727   6.597995   3.255909   2.854006
    17  H    5.194546   2.955560   6.201323   2.386913   3.278587
    18  H    6.536853   4.630158   7.454871   4.122917   3.845099
    19  C    2.431374   1.330746   3.423968   2.102770   4.258625
    20  H    3.383797   2.101260   4.286386   2.437982   4.718164
    21  C    1.331950   2.427985   2.100849   3.423159   4.910296
    22  H    2.100699   3.380598   2.431805   4.287380   5.802648
    23  C    2.520551   1.502118   3.484175   2.227859   3.682580
    24  H    3.438442   2.139090   4.346240   2.450312   3.172987
    25  H    2.947272   2.116871   3.789942   2.704924   4.723059
    26  C    1.504188   2.521419   2.234505   3.479928   3.916288
    27  H    2.145305   3.439262   2.466547   4.341061   4.672289
    28  H    2.120776   2.946146   2.711230   3.780757   3.164515
                    6          7          8          9         10
     6  C    0.000000
     7  H    2.101260   0.000000
     8  H    1.083500   2.437982   0.000000
     9  C    1.502118   3.462134   2.227859   0.000000
    10  H    2.116871   3.933424   2.704924   1.098138   0.000000
    11  H    2.139090   4.207396   2.450312   1.091265   1.752020
    12  C    2.427985   2.201525   3.423159   2.849792   3.274285
    13  H    3.380598   2.514374   4.287380   3.917754   4.245849
    14  C    2.833241   3.383797   3.914656   2.520551   2.947272
    15  H    3.915370   4.286386   4.997595   3.484175   3.789942
    16  C    2.521419   3.921900   3.479928   1.529924   2.164162
    17  H    2.946146   4.250053   3.780757   2.160976   3.044825
    18  H    3.439262   4.926019   4.341061   2.160784   2.390686
    19  C    3.607883   4.718164   3.597559   3.682580   4.723059
    20  H    3.958778   5.360496   4.088989   3.600426   4.588708
    21  C    4.124475   5.167920   3.710089   4.432529   5.350356
    22  H    4.872090   6.123017   4.400051   4.967810   5.794767
    23  C    3.747717   3.600426   3.730249   4.600431   5.615753
    24  H    3.620576   2.937652   3.775795   4.621217   5.572751
    25  H    4.837274   4.588708   4.810418   5.615753   6.657417
    26  C    3.711727   3.660721   3.255909   4.759835   5.647276
    27  H    4.630158   4.201063   4.122917   5.784473   6.632673
    28  H    2.955560   2.828402   2.386913   4.196131   4.958326
                   11         12         13         14         15
    11  H    0.000000
    12  C    3.839513   0.000000
    13  H    4.920295   1.083446   0.000000
    14  C    3.438442   1.331950   2.100699   0.000000
    15  H    4.346240   2.100849   2.431805   1.083826   0.000000
    16  C    2.160651   2.469068   3.462981   1.504188   2.234505
    17  H    2.385219   2.990502   3.936681   2.120776   2.711230
    18  H    2.590008   3.316534   4.212875   2.145305   2.466547
    19  C    3.172987   4.910296   5.802648   4.789782   5.608584
    20  H    2.937652   5.167920   6.123017   4.764769   5.486911
    21  C    3.795959   5.862874   6.742310   5.932807   6.847256
    22  H    4.147429   6.742310   7.674106   6.694674   7.592372
    23  C    4.621217   4.432529   4.967810   4.900455   5.705641
    24  H    4.891732   3.795959   4.147429   4.463999   5.214072
    25  H    5.572751   5.350356   5.794767   5.767135   6.473699
    26  C    4.659488   5.050254   5.645213   5.651352   6.597995
    27  H    5.727435   5.808130   6.264564   6.536853   7.454871
    28  H    4.239175   4.465299   5.063975   5.194546   6.201323
                   16         17         18         19         20
    16  C    0.000000
    17  H    1.096857   0.000000
    18  H    1.091433   1.748491   0.000000
    19  C    3.916288   3.164515   4.672289   0.000000
    20  H    3.660721   2.828402   4.201063   1.083666   0.000000
    21  C    5.050254   4.465299   5.808130   1.464096   2.201525
    22  H    5.645213   5.063975   6.264564   2.200720   2.514374
    23  C    4.759835   4.196131   5.784473   2.467496   3.462134
    24  H    4.659488   4.239175   5.727435   3.311287   4.207396
    25  H    5.647276   4.958326   6.632673   2.986848   3.933424
    26  C    5.369304   4.990688   6.385187   2.854006   3.921900
    27  H    6.385187   6.015418   7.422551   3.845099   4.926019
    28  H    4.990688   4.836393   6.015418   3.278587   4.250053
                   21         22         23         24         25
    21  C    0.000000
    22  H    1.083446   0.000000
    23  C    2.849792   3.917754   0.000000
    24  H    3.839513   4.920295   1.091265   0.000000
    25  H    3.274285   4.245849   1.098138   1.752020   0.000000
    26  C    2.469068   3.462981   1.529924   2.160651   2.164162
    27  H    3.316534   4.212875   2.160784   2.590008   2.390686
    28  H    2.990502   3.936681   2.160976   2.385219   3.044825
                   26         27         28
    26  C    0.000000
    27  H    1.091433   0.000000
    28  H    1.096857   1.748491   0.000000
 Symmetry turned off by external request.
 Stoichiometry    C12H16
 Framework group  CI[X(C12H16)]
 Deg. of freedom    39
 Full point group                 CI      NOp   2
 Rotational constants (GHZ):           1.6353234           0.5653914           0.5259215
 Leave Link  202 at Mon Aug  3 17:17:21 2020, MaxMem=  6442450944 cpu:               0.3 elap:               0.0
 (Enter /scratch/scicomp/CentOS/7.3.1611/Haswell/software/Gaussian/g16/l301.exe)
 Standard basis: def2TZVP (5D, 7F)
 Ernie: Thresh=  0.10000D-02 Tol=  0.10000D-05 Strict=F.
   468 basis functions,   740 primitive gaussians,   528 cartesian basis functions
    44 alpha electrons       44 beta electrons
       nuclear repulsion energy       666.6918323575 Hartrees.
 IExCor= 4639 DFT=T Ex+Corr=wB97XD ExCW=0 ScaHFX=  1.000000
 ScaDFX=  1.000000  1.000000  1.000000  1.000000 ScalE2=  1.000000  1.000000
 IRadAn=      5 IRanWt=     -1 IRanGd=            0 ICorTp=0 IEmpDi=121
 HFx  wShort=  0.000000 wLong=  0.200000 cFull=  0.222036 cShort=  0.000000 cLong=  0.777964
 DFx  wShort=  0.000000 wLong=  0.200000 cFull=  0.000000 cShort=  0.000000 cLong=  1.000000
 NAtoms=   28 NActive=   28 NUniq=   28 SFac= 1.00D+00 NAtFMM=   60 NAOKFM=F Big=F
 Integral buffers will be    131072 words long.
 Raffenetti 2 integral format.
 Two-electron integral symmetry is turned off.
 R6Disp:  Grimme-D2 Dispersion energy=       -0.0204319638 Hartrees.
 Nuclear repulsion after empirical dispersion term =      666.6714003937 Hartrees.
 Using the following non-standard input for PCM:
 qrep pcmdoc geomview  nodis nocav g03defaults tsare=0.075
 Warning! Using old PCM defaults because the g03defaults keyword was found.
 These settings can be overridden by following keywords.
 nsfe=28
 NVESolv=36  SolvMW=84.1595   Rsolv=2.815
 eps=2.0165 RhoS=0.7781
 --- end of non-standard input.
 Reading user-defined spheres from input:
 ISph  on   Nord    Re0     Alpha      Xe            Ye            Ze
 --- end of user-defined spheres data.
 ------------------------------------------------------------------------------
 Polarizable Continuum Model (PCM)
 =================================
 Model                : PCM.
 Atomic radii         : UA0 (Simple United Atom Topological Model).
 Polarization charges : Total charges.
 Charge compensation  : None.
 Solution method      : On-the-fly selection.
 Cavity type          : SES (Solvent Excluding Surface) (Alpha=1.000).
 Cavity algorithm     : GePol (RMin=0.200 OFac=0.890).
                        User-defined sphere list used, NSphG=   28.
                        Tesserae with average area of 0.075 Ang**2.
                        Smoothing algorithm: None.
                        Polarization charges: point-like.
                        Self-potential: constant (ISelfS= 1).
                        Self-field    : global E.n sum rule (ISelfD= 3).
 Solvent              : CycloHexane, Eps=   2.016500 Eps(inf)=   2.035188
                        RSolv=   2.815000 Ang.
 ------------------------------------------------------------------------------
 GePol: Number of generator spheres                  =      28
 GePol: Total number of spheres                      =     206
 GePol: Number of exposed spheres                    =     140 ( 67.96%)
 GePol: Number of tesserae                           =    4789
 GePol: Average area of tesserae                     =       0.05 Ang**2
 GePol: Minimum area of tessera                      =   0.10D-02 Ang**2
 GePol: Maximum area of tessera                      =    0.12443 Ang**2
 GePol: Number of small tesserae                     =       0
 GePol: Fraction of small tesserae (<1% of avg)      =       0.00%
 GePol: Total count of vertices                      =   16946
 GePol: Maximum number of vertices in a tessera      =       7
 GePol: Cavity surface area                          =    226.431 Ang**2
 GePol: Cavity volume                                =    260.287 Ang**3
 Leave Link  301 at Mon Aug  3 17:17:22 2020, MaxMem=  6442450944 cpu:               8.6 elap:               0.4
 (Enter /scratch/scicomp/CentOS/7.3.1611/Haswell/software/Gaussian/g16/l302.exe)
 NPDir=0 NMtPBC=     1 NCelOv=     1 NCel=       1 NClECP=     1 NCelD=      1
         NCelK=      1 NCelE2=     1 NClLst=     1 CellRange=     0.0.
 One-electron integrals computed using PRISM.
   1 Symmetry operations used in ECPInt.
 ECPInt:  NShTT=   19306 NPrTT=   56928 LenC2=   18446 LenP2D=   41568.
 LDataN:  DoStor=T MaxTD1= 6 Len=  172
 NBasis=   468 RedAO= T EigKep=  2.85D-05  NBF=   468
 NBsUse=   468 1.00D-06 EigRej= -1.00D+00 NBFU=   468
 Precomputing XC quadrature grid using
 IXCGrd= 4 IRadAn=           5 IRanWt=          -1 IRanGd=           0 AccXCQ= 0.00D+00.
 Generated NRdTot=       0 NPtTot=           0 NUsed=           0 NTot=          32
 NSgBfM=   526   526   526   526   526 MxSgAt=    28 MxSgA2=    28.
 Leave Link  302 at Mon Aug  3 17:17:22 2020, MaxMem=  6442450944 cpu:              11.7 elap:               0.5
 (Enter /scratch/scicomp/CentOS/7.3.1611/Haswell/software/Gaussian/g16/l401.exe)
 ExpMin= 9.52D-02 ExpMax= 1.36D+04 ExpMxC= 4.63D+02 IAcc=3 IRadAn=         5 AccDes= 0.00D+00
 Harris functional with IExCor= 4639 and IRadAn=       5 diagonalized for initial guess.
 HarFok:  IExCor= 4639 AccDes= 0.00D+00 IRadAn=         5 IDoV= 1 UseB2=F ITyADJ=14
 ICtDFT=  3500011 ScaDFX=  1.000000  1.000000  1.000000  1.000000
 FoFCou: FMM=F IPFlag=           0 FMFlag=      100000 FMFlg1=           0
         NFxFlg=           0 DoJE=T BraDBF=F KetDBF=T FulRan=T
         wScrn=  0.000000 ICntrl=       500 IOpCl=  0 I1Cent=   200000004 NGrid=           0
         NMat0=    1 NMatS0=      1 NMatT0=    0 NMatD0=    1 NMtDS0=    0 NMtDT0=    0
 Symmetry not used in FoFCou.
 Harris En= -444.639339410587    
 JPrj=0 DoOrth=F DoCkMO=T.
 Mixing orbitals, IMix= 1 IMixAn=  0 NRI=1 NE=   44 Coef=  7.07106781D-01  7.07106781D-01
 Mixing orbitals, IMix= 1 IMixAn=  0 NRI=1 NE=   44 Coef= -7.07106781D-01  7.07106781D-01
 Initial guess <Sx>= 0.0000 <Sy>= 0.0000 <Sz>= 0.0000 <S**2>= 1.0000 S= 0.6180
 Leave Link  401 at Mon Aug  3 17:17:25 2020, MaxMem=  6442450944 cpu:              46.7 elap:               2.0
 (Enter /scratch/scicomp/CentOS/7.3.1611/Haswell/software/Gaussian/g16/l9999.exe)

 This type of calculation cannot be archived.


 THERE IS MORE TO LIFE THAN INCREASING ITS SPEED.

                                       -- GANDHI
 Job cpu time:       0 days  0 hours  1 minutes 12.9 seconds.
 Elapsed time:       0 days  0 hours  0 minutes  3.3 seconds.
 File lengths (MBytes):  RWF=    417 Int=      0 D2E=      0 Chk=      1 Scr=      1
 Normal termination of Gaussian 16 at Mon Aug  3 17:17:25 2020.
 Initial command:
 /scratch/scicomp/CentOS/7.3.1611/Haswell/software/Gaussian/g16/l1.exe "/scratch/bochen/cyclohexadiene-dimerization/wb97xd-def2tzvp/xp-pcm/meso/Gau-69073.inp" -scrdir="/scratch/bochen/cyclohexadiene-dimerization/wb97xd-def2tzvp/xp-pcm/meso/"
 Entering Link 1 = /scratch/scicomp/CentOS/7.3.1611/Haswell/software/Gaussian/g16/l1.exe PID=     69237.
  
 Copyright (c) 1988-2017, Gaussian, Inc.  All Rights Reserved.
  
 This is part of the Gaussian(R) 16 program.  It is based on
 the Gaussian(R) 09 system (copyright 2009, Gaussian, Inc.),
 the Gaussian(R) 03 system (copyright 2003, Gaussian, Inc.),
 the Gaussian(R) 98 system (copyright 1998, Gaussian, Inc.),
 the Gaussian(R) 94 system (copyright 1995, Gaussian, Inc.),
 the Gaussian 92(TM) system (copyright 1992, Gaussian, Inc.),
 the Gaussian 90(TM) system (copyright 1990, Gaussian, Inc.),
 the Gaussian 88(TM) system (copyright 1988, Gaussian, Inc.),
 the Gaussian 86(TM) system (copyright 1986, Carnegie Mellon
 University), and the Gaussian 82(TM) system (copyright 1983,
 Carnegie Mellon University). Gaussian is a federally registered
 trademark of Gaussian, Inc.
  
 This software contains proprietary and confidential information,
 including trade secrets, belonging to Gaussian, Inc.
  
 This software is provided under written license and may be
 used, copied, transmitted, or stored only in accord with that
 written license.
  
 The following legend is applicable only to US Government
 contracts under FAR:
  
                    RESTRICTED RIGHTS LEGEND
  
 Use, reproduction and disclosure by the US Government is
 subject to restrictions as set forth in subparagraphs (a)
 and (c) of the Commercial Computer Software - Restricted
 Rights clause in FAR 52.227-19.
  
 Gaussian, Inc.
 340 Quinnipiac St., Bldg. 40, Wallingford CT 06492
  
  
 ---------------------------------------------------------------
 Warning -- This program may not be used in any manner that
 competes with the business of Gaussian, Inc. or will provide
 assistance to any competitor of Gaussian, Inc.  The licensee
 of this program is prohibited from giving any competitor of
 Gaussian, Inc. access to this program.  By using this program,
 the user acknowledges that Gaussian, Inc. is engaged in the
 business of creating and licensing software in the field of
 computational chemistry and represents and warrants to the
 licensee that it is not a competitor of Gaussian, Inc. and that
 it will not use this program in any manner prohibited above.
 ---------------------------------------------------------------
  

 Cite this work as:
 Gaussian 16, Revision B.01,
 M. J. Frisch, G. W. Trucks, H. B. Schlegel, G. E. Scuseria, 
 M. A. Robb, J. R. Cheeseman, G. Scalmani, V. Barone, 
 G. A. Petersson, H. Nakatsuji, X. Li, M. Caricato, A. V. Marenich, 
 J. Bloino, B. G. Janesko, R. Gomperts, B. Mennucci, H. P. Hratchian, 
 J. V. Ortiz, A. F. Izmaylov, J. L. Sonnenberg, D. Williams-Young, 
 F. Ding, F. Lipparini, F. Egidi, J. Goings, B. Peng, A. Petrone, 
 T. Henderson, D. Ranasinghe, V. G. Zakrzewski, J. Gao, N. Rega, 
 G. Zheng, W. Liang, M. Hada, M. Ehara, K. Toyota, R. Fukuda, 
 J. Hasegawa, M. Ishida, T. Nakajima, Y. Honda, O. Kitao, H. Nakai, 
 T. Vreven, K. Throssell, J. A. Montgomery, Jr., J. E. Peralta, 
 F. Ogliaro, M. J. Bearpark, J. J. Heyd, E. N. Brothers, K. N. Kudin, 
 V. N. Staroverov, T. A. Keith, R. Kobayashi, J. Normand, 
 K. Raghavachari, A. P. Rendell, J. C. Burant, S. S. Iyengar, 
 J. Tomasi, M. Cossi, J. M. Millam, M. Klene, C. Adamo, R. Cammi, 
 J. W. Ochterski, R. L. Martin, K. Morokuma, O. Farkas, 
 J. B. Foresman, and D. J. Fox, Gaussian, Inc., Wallingford CT, 2016.
 
 ******************************************
 Gaussian 16:  ES64L-G16RevB.01 20-Dec-2017
                 3-Aug-2020 
 ******************************************
 %chk=meso-TS_88_2_xp-115.chk
 %nproc=24
 Will use up to   24 processors via shared memory.
 %mem=48GB
 ----------------------------------------------------------------------
 #p uwb97xd guess=mix def2tzvp # scrf=(iefpcm,solvent=Cyclohexane,read)
  nosym guess=only pop=none
 ----------------------------------------------------------------------
 1/38=1,40=2,172=1/1;
 2/12=2,15=1,17=6,18=5,40=1/2;
 3/5=44,7=101,11=2,25=1,30=1,70=2203,72=17,74=-58,89=1,116=2/1,2;
 4/13=-1/1;
 99/5=2/99;
 Leave Link    1 at Mon Aug  3 17:17:25 2020, MaxMem=  6442450944 cpu:               1.6 elap:               0.1
 (Enter /scratch/scicomp/CentOS/7.3.1611/Haswell/software/Gaussian/g16/l101.exe)
 -----------------------
 endo-2 xp-pcm for eta=3
 -----------------------
 Symbolic Z-matrix:
 Charge =  0 Multiplicity = 1
 6                    -3.10074  -0.43673   0.29582 
 6                    -0.85798  -0.28632  -1.42891 
 1                    -3.99899  -0.5072    0.89819 
 1                     0.04492  -0.22043  -2.02422 
 6                     1.25679   1.45045   0.9223 
 6                     0.85798   0.28632   1.42891 
 1                     0.67993   2.35239   1.08982 
 1                    -0.04492   0.22043   2.02422 
 6                     1.67802  -0.95902   1.24721 
 1                     2.33356  -1.06405   2.12193 
 1                     1.03075  -1.83759   1.24221 
 6                     2.49165   1.53793   0.14061 
 1                     2.89475   2.51704  -0.08896 
 6                     3.10074   0.43673  -0.29582 
 1                     3.99899   0.5072   -0.89819 
 6                     2.52005  -0.9251   -0.0297 
 1                     1.89813  -1.20658  -0.88823 
 1                     3.31245  -1.67345   0.02771 
 6                    -1.25679  -1.45045  -0.9223 
 1                    -0.67993  -2.35239  -1.08982 
 6                    -2.49165  -1.53793  -0.14061 
 1                    -2.89475  -2.51704   0.08896 
 6                    -1.67802   0.95902  -1.24721 
 1                    -1.03075   1.83759  -1.24221 
 1                    -2.33356   1.06405  -2.12193 
 6                    -2.52005   0.9251    0.0297 
 1                    -3.31245   1.67345  -0.02771 
 1                    -1.89813   1.20658   0.88823 
 
 ITRead=  0  0  0  0  0  0  0  0  0  0  0  0  0  0  0  0  0  0  0  0
 ITRead=  0  0  0  0  0  0  0  0
 MicOpt= -1 -1 -1 -1 -1 -1 -1 -1 -1 -1 -1 -1 -1 -1 -1 -1 -1 -1 -1 -1
 MicOpt= -1 -1 -1 -1 -1 -1 -1 -1
 NAtoms=     28 NQM=       28 NQMF=       0 NMMI=      0 NMMIF=      0
                NMic=       0 NMicF=      0.
                    Isotopes and Nuclear Properties:
 (Nuclear quadrupole moments (NQMom) in fm**2, nuclear magnetic moments (NMagM)
  in nuclear magnetons)

  Atom         1           2           3           4           5           6           7           8           9          10
 IAtWgt=          12          12           1           1          12          12           1           1          12           1
 AtmWgt=  12.0000000  12.0000000   1.0078250   1.0078250  12.0000000  12.0000000   1.0078250   1.0078250  12.0000000   1.0078250
 NucSpn=           0           0           1           1           0           0           1           1           0           1
 AtZEff=  -0.0000000  -0.0000000  -0.0000000  -0.0000000  -0.0000000  -0.0000000  -0.0000000  -0.0000000  -0.0000000  -0.0000000
 NQMom=    0.0000000   0.0000000   0.0000000   0.0000000   0.0000000   0.0000000   0.0000000   0.0000000   0.0000000   0.0000000
 NMagM=    0.0000000   0.0000000   2.7928460   2.7928460   0.0000000   0.0000000   2.7928460   2.7928460   0.0000000   2.7928460
 AtZNuc=   6.0000000   6.0000000   1.0000000   1.0000000   6.0000000   6.0000000   1.0000000   1.0000000   6.0000000   1.0000000

  Atom        11          12          13          14          15          16          17          18          19          20
 IAtWgt=           1          12           1          12           1          12           1           1          12           1
 AtmWgt=   1.0078250  12.0000000   1.0078250  12.0000000   1.0078250  12.0000000   1.0078250   1.0078250  12.0000000   1.0078250
 NucSpn=           1           0           1           0           1           0           1           1           0           1
 AtZEff=  -0.0000000  -0.0000000  -0.0000000  -0.0000000  -0.0000000  -0.0000000  -0.0000000  -0.0000000  -0.0000000  -0.0000000
 NQMom=    0.0000000   0.0000000   0.0000000   0.0000000   0.0000000   0.0000000   0.0000000   0.0000000   0.0000000   0.0000000
 NMagM=    2.7928460   0.0000000   2.7928460   0.0000000   2.7928460   0.0000000   2.7928460   2.7928460   0.0000000   2.7928460
 AtZNuc=   1.0000000   6.0000000   1.0000000   6.0000000   1.0000000   6.0000000   1.0000000   1.0000000   6.0000000   1.0000000

  Atom        21          22          23          24          25          26          27          28
 IAtWgt=          12           1          12           1           1          12           1           1
 AtmWgt=  12.0000000   1.0078250  12.0000000   1.0078250   1.0078250  12.0000000   1.0078250   1.0078250
 NucSpn=           0           1           0           1           1           0           1           1
 AtZEff=  -0.0000000  -0.0000000  -0.0000000  -0.0000000  -0.0000000  -0.0000000  -0.0000000  -0.0000000
 NQMom=    0.0000000   0.0000000   0.0000000   0.0000000   0.0000000   0.0000000   0.0000000   0.0000000
 NMagM=    0.0000000   2.7928460   0.0000000   2.7928460   2.7928460   0.0000000   2.7928460   2.7928460
 AtZNuc=   6.0000000   1.0000000   6.0000000   1.0000000   1.0000000   6.0000000   1.0000000   1.0000000
 Leave Link  101 at Mon Aug  3 17:17:25 2020, MaxMem=  6442450944 cpu:               2.4 elap:               0.1
 (Enter /scratch/scicomp/CentOS/7.3.1611/Haswell/software/Gaussian/g16/l202.exe)
                          Input orientation:                          
 ---------------------------------------------------------------------
 Center     Atomic      Atomic             Coordinates (Angstroms)
 Number     Number       Type             X           Y           Z
 ---------------------------------------------------------------------
      1          6           0       -3.100740   -0.436725    0.295815
      2          6           0       -0.857979   -0.286324   -1.428905
      3          1           0       -3.998989   -0.507198    0.898194
      4          1           0        0.044923   -0.220426   -2.024218
      5          6           0        1.256794    1.450448    0.922302
      6          6           0        0.857979    0.286324    1.428905
      7          1           0        0.679926    2.352386    1.089821
      8          1           0       -0.044923    0.220426    2.024218
      9          6           0        1.678016   -0.959021    1.247210
     10          1           0        2.333558   -1.064055    2.121932
     11          1           0        1.030749   -1.837588    1.242211
     12          6           0        2.491654    1.537925    0.140607
     13          1           0        2.894748    2.517041   -0.088961
     14          6           0        3.100740    0.436725   -0.295815
     15          1           0        3.998989    0.507198   -0.898194
     16          6           0        2.520053   -0.925099   -0.029697
     17          1           0        1.898127   -1.206584   -0.888225
     18          1           0        3.312455   -1.673451    0.027707
     19          6           0       -1.256794   -1.450448   -0.922302
     20          1           0       -0.679926   -2.352386   -1.089821
     21          6           0       -2.491654   -1.537925   -0.140607
     22          1           0       -2.894748   -2.517041    0.088961
     23          6           0       -1.678016    0.959021   -1.247210
     24          1           0       -1.030749    1.837588   -1.242211
     25          1           0       -2.333558    1.064055   -2.121932
     26          6           0       -2.520053    0.925099    0.029697
     27          1           0       -3.312455    1.673451   -0.027707
     28          1           0       -1.898127    1.206584    0.888225
 ---------------------------------------------------------------------
                    Distance matrix (angstroms):
                    1          2          3          4          5
     1  C    0.000000
     2  C    2.833241   0.000000
     3  H    1.083826   3.915370   0.000000
     4  H    3.914656   1.083500   4.997595   0.000000
     5  C    4.789782   3.607883   5.608584   3.597559   0.000000
     6  C    4.180688   3.382235   4.949896   3.583562   1.330746
     7  H    4.764769   3.958778   5.486911   4.088989   1.083666
     8  H    3.571728   3.583562   4.175165   4.073359   2.102770
     9  C    4.900455   3.747717   5.705641   3.730249   2.467496
    10  H    5.767135   4.837274   6.473699   4.810418   2.986848
    11  H    4.463999   3.620576   5.214072   3.775795   3.311287
    12  C    5.932807   4.124475   6.847256   3.710089   1.464096
    13  H    6.694674   4.872090   7.592372   4.400051   2.200720
    14  C    6.290572   4.180688   7.261047   3.571728   2.431374
    15  H    7.261047   4.949896   8.259762   4.175165   3.423968
    16  C    5.651352   3.711727   6.597995   3.255909   2.854006
    17  H    5.194546   2.955560   6.201323   2.386913   3.278587
    18  H    6.536853   4.630158   7.454871   4.122917   3.845099
    19  C    2.431374   1.330746   3.423968   2.102770   4.258625
    20  H    3.383797   2.101260   4.286386   2.437982   4.718164
    21  C    1.331950   2.427985   2.100849   3.423159   4.910296
    22  H    2.100699   3.380598   2.431805   4.287380   5.802648
    23  C    2.520551   1.502118   3.484175   2.227859   3.682580
    24  H    3.438442   2.139090   4.346240   2.450312   3.172987
    25  H    2.947272   2.116871   3.789942   2.704924   4.723059
    26  C    1.504188   2.521419   2.234505   3.479928   3.916288
    27  H    2.145305   3.439262   2.466547   4.341061   4.672289
    28  H    2.120776   2.946146   2.711230   3.780757   3.164515
                    6          7          8          9         10
     6  C    0.000000
     7  H    2.101260   0.000000
     8  H    1.083500   2.437982   0.000000
     9  C    1.502118   3.462134   2.227859   0.000000
    10  H    2.116871   3.933424   2.704924   1.098138   0.000000
    11  H    2.139090   4.207396   2.450312   1.091265   1.752020
    12  C    2.427985   2.201525   3.423159   2.849792   3.274285
    13  H    3.380598   2.514374   4.287380   3.917754   4.245849
    14  C    2.833241   3.383797   3.914656   2.520551   2.947272
    15  H    3.915370   4.286386   4.997595   3.484175   3.789942
    16  C    2.521419   3.921900   3.479928   1.529924   2.164162
    17  H    2.946146   4.250053   3.780757   2.160976   3.044825
    18  H    3.439262   4.926019   4.341061   2.160784   2.390686
    19  C    3.607883   4.718164   3.597559   3.682580   4.723059
    20  H    3.958778   5.360496   4.088989   3.600426   4.588708
    21  C    4.124475   5.167920   3.710089   4.432529   5.350356
    22  H    4.872090   6.123017   4.400051   4.967810   5.794767
    23  C    3.747717   3.600426   3.730249   4.600431   5.615753
    24  H    3.620576   2.937652   3.775795   4.621217   5.572751
    25  H    4.837274   4.588708   4.810418   5.615753   6.657417
    26  C    3.711727   3.660721   3.255909   4.759835   5.647276
    27  H    4.630158   4.201063   4.122917   5.784473   6.632673
    28  H    2.955560   2.828402   2.386913   4.196131   4.958326
                   11         12         13         14         15
    11  H    0.000000
    12  C    3.839513   0.000000
    13  H    4.920295   1.083446   0.000000
    14  C    3.438442   1.331950   2.100699   0.000000
    15  H    4.346240   2.100849   2.431805   1.083826   0.000000
    16  C    2.160651   2.469068   3.462981   1.504188   2.234505
    17  H    2.385219   2.990502   3.936681   2.120776   2.711230
    18  H    2.590008   3.316534   4.212875   2.145305   2.466547
    19  C    3.172987   4.910296   5.802648   4.789782   5.608584
    20  H    2.937652   5.167920   6.123017   4.764769   5.486911
    21  C    3.795959   5.862874   6.742310   5.932807   6.847256
    22  H    4.147429   6.742310   7.674106   6.694674   7.592372
    23  C    4.621217   4.432529   4.967810   4.900455   5.705641
    24  H    4.891732   3.795959   4.147429   4.463999   5.214072
    25  H    5.572751   5.350356   5.794767   5.767135   6.473699
    26  C    4.659488   5.050254   5.645213   5.651352   6.597995
    27  H    5.727435   5.808130   6.264564   6.536853   7.454871
    28  H    4.239175   4.465299   5.063975   5.194546   6.201323
                   16         17         18         19         20
    16  C    0.000000
    17  H    1.096857   0.000000
    18  H    1.091433   1.748491   0.000000
    19  C    3.916288   3.164515   4.672289   0.000000
    20  H    3.660721   2.828402   4.201063   1.083666   0.000000
    21  C    5.050254   4.465299   5.808130   1.464096   2.201525
    22  H    5.645213   5.063975   6.264564   2.200720   2.514374
    23  C    4.759835   4.196131   5.784473   2.467496   3.462134
    24  H    4.659488   4.239175   5.727435   3.311287   4.207396
    25  H    5.647276   4.958326   6.632673   2.986848   3.933424
    26  C    5.369304   4.990688   6.385187   2.854006   3.921900
    27  H    6.385187   6.015418   7.422551   3.845099   4.926019
    28  H    4.990688   4.836393   6.015418   3.278587   4.250053
                   21         22         23         24         25
    21  C    0.000000
    22  H    1.083446   0.000000
    23  C    2.849792   3.917754   0.000000
    24  H    3.839513   4.920295   1.091265   0.000000
    25  H    3.274285   4.245849   1.098138   1.752020   0.000000
    26  C    2.469068   3.462981   1.529924   2.160651   2.164162
    27  H    3.316534   4.212875   2.160784   2.590008   2.390686
    28  H    2.990502   3.936681   2.160976   2.385219   3.044825
                   26         27         28
    26  C    0.000000
    27  H    1.091433   0.000000
    28  H    1.096857   1.748491   0.000000
 Symmetry turned off by external request.
 Stoichiometry    C12H16
 Framework group  CI[X(C12H16)]
 Deg. of freedom    39
 Full point group                 CI      NOp   2
 Rotational constants (GHZ):           1.6353234           0.5653914           0.5259215
 Leave Link  202 at Mon Aug  3 17:17:25 2020, MaxMem=  6442450944 cpu:               0.3 elap:               0.0
 (Enter /scratch/scicomp/CentOS/7.3.1611/Haswell/software/Gaussian/g16/l301.exe)
 Standard basis: def2TZVP (5D, 7F)
 Ernie: Thresh=  0.10000D-02 Tol=  0.10000D-05 Strict=F.
   468 basis functions,   740 primitive gaussians,   528 cartesian basis functions
    44 alpha electrons       44 beta electrons
       nuclear repulsion energy       666.6918323575 Hartrees.
 IExCor= 4639 DFT=T Ex+Corr=wB97XD ExCW=0 ScaHFX=  1.000000
 ScaDFX=  1.000000  1.000000  1.000000  1.000000 ScalE2=  1.000000  1.000000
 IRadAn=      5 IRanWt=     -1 IRanGd=            0 ICorTp=0 IEmpDi=121
 HFx  wShort=  0.000000 wLong=  0.200000 cFull=  0.222036 cShort=  0.000000 cLong=  0.777964
 DFx  wShort=  0.000000 wLong=  0.200000 cFull=  0.000000 cShort=  0.000000 cLong=  1.000000
 NAtoms=   28 NActive=   28 NUniq=   28 SFac= 1.00D+00 NAtFMM=   60 NAOKFM=F Big=F
 Integral buffers will be    131072 words long.
 Raffenetti 2 integral format.
 Two-electron integral symmetry is turned off.
 R6Disp:  Grimme-D2 Dispersion energy=       -0.0204319638 Hartrees.
 Nuclear repulsion after empirical dispersion term =      666.6714003937 Hartrees.
 Using the following non-standard input for PCM:
 qrep pcmdoc geomview  nodis nocav g03defaults tsare=0.075
 Warning! Using old PCM defaults because the g03defaults keyword was found.
 These settings can be overridden by following keywords.
 nsfe=28
 NVESolv=36  SolvMW=84.1595   Rsolv=2.815
 eps=2.0165 RhoS=0.7781
 --- end of non-standard input.
 Reading user-defined spheres from input:
 ISph  on   Nord    Re0     Alpha      Xe            Ye            Ze
 --- end of user-defined spheres data.
 ------------------------------------------------------------------------------
 Polarizable Continuum Model (PCM)
 =================================
 Model                : PCM.
 Atomic radii         : UA0 (Simple United Atom Topological Model).
 Polarization charges : Total charges.
 Charge compensation  : None.
 Solution method      : On-the-fly selection.
 Cavity type          : SES (Solvent Excluding Surface) (Alpha=1.000).
 Cavity algorithm     : GePol (RMin=0.200 OFac=0.890).
                        User-defined sphere list used, NSphG=   28.
                        Tesserae with average area of 0.075 Ang**2.
                        Smoothing algorithm: None.
                        Polarization charges: point-like.
                        Self-potential: constant (ISelfS= 1).
                        Self-field    : global E.n sum rule (ISelfD= 3).
 Solvent              : CycloHexane, Eps=   2.016500 Eps(inf)=   2.035188
                        RSolv=   2.815000 Ang.
 ------------------------------------------------------------------------------
 GePol: Number of generator spheres                  =      28
 GePol: Total number of spheres                      =     249
 GePol: Number of exposed spheres                    =     172 ( 69.08%)
 GePol: Number of tesserae                           =    4914
 GePol: Average area of tesserae                     =       0.04 Ang**2
 GePol: Minimum area of tessera                      =   0.10D-02 Ang**2
 GePol: Maximum area of tessera                      =    0.11221 Ang**2
 GePol: Number of small tesserae                     =       0
 GePol: Fraction of small tesserae (<1% of avg)      =       0.00%
 GePol: Total count of vertices                      =   17523
 GePol: Maximum number of vertices in a tessera      =       7
 GePol: Cavity surface area                          =    218.905 Ang**2
 GePol: Cavity volume                                =    245.308 Ang**3
 Leave Link  301 at Mon Aug  3 17:17:26 2020, MaxMem=  6442450944 cpu:               9.2 elap:               0.4
 (Enter /scratch/scicomp/CentOS/7.3.1611/Haswell/software/Gaussian/g16/l302.exe)
 NPDir=0 NMtPBC=     1 NCelOv=     1 NCel=       1 NClECP=     1 NCelD=      1
         NCelK=      1 NCelE2=     1 NClLst=     1 CellRange=     0.0.
 One-electron integrals computed using PRISM.
   1 Symmetry operations used in ECPInt.
 ECPInt:  NShTT=   19306 NPrTT=   56928 LenC2=   18446 LenP2D=   41568.
 LDataN:  DoStor=T MaxTD1= 6 Len=  172
 NBasis=   468 RedAO= T EigKep=  2.85D-05  NBF=   468
 NBsUse=   468 1.00D-06 EigRej= -1.00D+00 NBFU=   468
 Precomputing XC quadrature grid using
 IXCGrd= 4 IRadAn=           5 IRanWt=          -1 IRanGd=           0 AccXCQ= 0.00D+00.
 Generated NRdTot=       0 NPtTot=           0 NUsed=           0 NTot=          32
 NSgBfM=   526   526   526   526   526 MxSgAt=    28 MxSgA2=    28.
 Leave Link  302 at Mon Aug  3 17:17:26 2020, MaxMem=  6442450944 cpu:              11.7 elap:               0.5
 (Enter /scratch/scicomp/CentOS/7.3.1611/Haswell/software/Gaussian/g16/l401.exe)
 ExpMin= 9.52D-02 ExpMax= 1.36D+04 ExpMxC= 4.63D+02 IAcc=3 IRadAn=         5 AccDes= 0.00D+00
 Harris functional with IExCor= 4639 and IRadAn=       5 diagonalized for initial guess.
 HarFok:  IExCor= 4639 AccDes= 0.00D+00 IRadAn=         5 IDoV= 1 UseB2=F ITyADJ=14
 ICtDFT=  3500011 ScaDFX=  1.000000  1.000000  1.000000  1.000000
 FoFCou: FMM=F IPFlag=           0 FMFlag=      100000 FMFlg1=           0
         NFxFlg=           0 DoJE=T BraDBF=F KetDBF=T FulRan=T
         wScrn=  0.000000 ICntrl=       500 IOpCl=  0 I1Cent=   200000004 NGrid=           0
         NMat0=    1 NMatS0=      1 NMatT0=    0 NMatD0=    1 NMtDS0=    0 NMtDT0=    0
 Symmetry not used in FoFCou.
 Harris En= -444.639339410587    
 JPrj=0 DoOrth=F DoCkMO=T.
 Mixing orbitals, IMix= 1 IMixAn=  0 NRI=1 NE=   44 Coef=  7.07106781D-01  7.07106781D-01
 Mixing orbitals, IMix= 1 IMixAn=  0 NRI=1 NE=   44 Coef= -7.07106781D-01  7.07106781D-01
 Initial guess <Sx>= 0.0000 <Sy>= 0.0000 <Sz>= 0.0000 <S**2>= 1.0000 S= 0.6180
 Leave Link  401 at Mon Aug  3 17:17:28 2020, MaxMem=  6442450944 cpu:              46.5 elap:               2.0
 (Enter /scratch/scicomp/CentOS/7.3.1611/Haswell/software/Gaussian/g16/l9999.exe)

 This type of calculation cannot be archived.


 It takes a long time to grow an old friend.
                            -- John Leonard
 Job cpu time:       0 days  0 hours  1 minutes 12.8 seconds.
 Elapsed time:       0 days  0 hours  0 minutes  3.3 seconds.
 File lengths (MBytes):  RWF=    437 Int=      0 D2E=      0 Chk=      1 Scr=      1
 Normal termination of Gaussian 16 at Mon Aug  3 17:17:28 2020.
 Initial command:
 /scratch/scicomp/CentOS/7.3.1611/Haswell/software/Gaussian/g16/l1.exe "/scratch/bochen/cyclohexadiene-dimerization/wb97xd-def2tzvp/xp-pcm/meso/Gau-69073.inp" -scrdir="/scratch/bochen/cyclohexadiene-dimerization/wb97xd-def2tzvp/xp-pcm/meso/"
 Entering Link 1 = /scratch/scicomp/CentOS/7.3.1611/Haswell/software/Gaussian/g16/l1.exe PID=     69399.
  
 Copyright (c) 1988-2017, Gaussian, Inc.  All Rights Reserved.
  
 This is part of the Gaussian(R) 16 program.  It is based on
 the Gaussian(R) 09 system (copyright 2009, Gaussian, Inc.),
 the Gaussian(R) 03 system (copyright 2003, Gaussian, Inc.),
 the Gaussian(R) 98 system (copyright 1998, Gaussian, Inc.),
 the Gaussian(R) 94 system (copyright 1995, Gaussian, Inc.),
 the Gaussian 92(TM) system (copyright 1992, Gaussian, Inc.),
 the Gaussian 90(TM) system (copyright 1990, Gaussian, Inc.),
 the Gaussian 88(TM) system (copyright 1988, Gaussian, Inc.),
 the Gaussian 86(TM) system (copyright 1986, Carnegie Mellon
 University), and the Gaussian 82(TM) system (copyright 1983,
 Carnegie Mellon University). Gaussian is a federally registered
 trademark of Gaussian, Inc.
  
 This software contains proprietary and confidential information,
 including trade secrets, belonging to Gaussian, Inc.
  
 This software is provided under written license and may be
 used, copied, transmitted, or stored only in accord with that
 written license.
  
 The following legend is applicable only to US Government
 contracts under FAR:
  
                    RESTRICTED RIGHTS LEGEND
  
 Use, reproduction and disclosure by the US Government is
 subject to restrictions as set forth in subparagraphs (a)
 and (c) of the Commercial Computer Software - Restricted
 Rights clause in FAR 52.227-19.
  
 Gaussian, Inc.
 340 Quinnipiac St., Bldg. 40, Wallingford CT 06492
  
  
 ---------------------------------------------------------------
 Warning -- This program may not be used in any manner that
 competes with the business of Gaussian, Inc. or will provide
 assistance to any competitor of Gaussian, Inc.  The licensee
 of this program is prohibited from giving any competitor of
 Gaussian, Inc. access to this program.  By using this program,
 the user acknowledges that Gaussian, Inc. is engaged in the
 business of creating and licensing software in the field of
 computational chemistry and represents and warrants to the
 licensee that it is not a competitor of Gaussian, Inc. and that
 it will not use this program in any manner prohibited above.
 ---------------------------------------------------------------
  

 Cite this work as:
 Gaussian 16, Revision B.01,
 M. J. Frisch, G. W. Trucks, H. B. Schlegel, G. E. Scuseria, 
 M. A. Robb, J. R. Cheeseman, G. Scalmani, V. Barone, 
 G. A. Petersson, H. Nakatsuji, X. Li, M. Caricato, A. V. Marenich, 
 J. Bloino, B. G. Janesko, R. Gomperts, B. Mennucci, H. P. Hratchian, 
 J. V. Ortiz, A. F. Izmaylov, J. L. Sonnenberg, D. Williams-Young, 
 F. Ding, F. Lipparini, F. Egidi, J. Goings, B. Peng, A. Petrone, 
 T. Henderson, D. Ranasinghe, V. G. Zakrzewski, J. Gao, N. Rega, 
 G. Zheng, W. Liang, M. Hada, M. Ehara, K. Toyota, R. Fukuda, 
 J. Hasegawa, M. Ishida, T. Nakajima, Y. Honda, O. Kitao, H. Nakai, 
 T. Vreven, K. Throssell, J. A. Montgomery, Jr., J. E. Peralta, 
 F. Ogliaro, M. J. Bearpark, J. J. Heyd, E. N. Brothers, K. N. Kudin, 
 V. N. Staroverov, T. A. Keith, R. Kobayashi, J. Normand, 
 K. Raghavachari, A. P. Rendell, J. C. Burant, S. S. Iyengar, 
 J. Tomasi, M. Cossi, J. M. Millam, M. Klene, C. Adamo, R. Cammi, 
 J. W. Ochterski, R. L. Martin, K. Morokuma, O. Farkas, 
 J. B. Foresman, and D. J. Fox, Gaussian, Inc., Wallingford CT, 2016.
 
 ******************************************
 Gaussian 16:  ES64L-G16RevB.01 20-Dec-2017
                 3-Aug-2020 
 ******************************************
 %chk=meso-TS_88_2_xp-110.chk
 %nproc=24
 Will use up to   24 processors via shared memory.
 %mem=48GB
 ----------------------------------------------------------------------
 #p uwb97xd guess=mix def2tzvp # scrf=(iefpcm,solvent=Cyclohexane,read)
  nosym guess=only pop=none
 ----------------------------------------------------------------------
 1/38=1,40=2,172=1/1;
 2/12=2,15=1,17=6,18=5,40=1/2;
 3/5=44,7=101,11=2,25=1,30=1,70=2203,72=17,74=-58,89=1,116=2/1,2;
 4/13=-1/1;
 99/5=2/99;
 Leave Link    1 at Mon Aug  3 17:17:29 2020, MaxMem=  6442450944 cpu:               2.6 elap:               0.1
 (Enter /scratch/scicomp/CentOS/7.3.1611/Haswell/software/Gaussian/g16/l101.exe)
 -----------------------
 endo-2 xp-pcm for eta=3
 -----------------------
 Symbolic Z-matrix:
 Charge =  0 Multiplicity = 1
 6                    -3.10074  -0.43673   0.29582 
 6                    -0.85798  -0.28632  -1.42891 
 1                    -3.99899  -0.5072    0.89819 
 1                     0.04492  -0.22043  -2.02422 
 6                     1.25679   1.45045   0.9223 
 6                     0.85798   0.28632   1.42891 
 1                     0.67993   2.35239   1.08982 
 1                    -0.04492   0.22043   2.02422 
 6                     1.67802  -0.95902   1.24721 
 1                     2.33356  -1.06405   2.12193 
 1                     1.03075  -1.83759   1.24221 
 6                     2.49165   1.53793   0.14061 
 1                     2.89475   2.51704  -0.08896 
 6                     3.10074   0.43673  -0.29582 
 1                     3.99899   0.5072   -0.89819 
 6                     2.52005  -0.9251   -0.0297 
 1                     1.89813  -1.20658  -0.88823 
 1                     3.31245  -1.67345   0.02771 
 6                    -1.25679  -1.45045  -0.9223 
 1                    -0.67993  -2.35239  -1.08982 
 6                    -2.49165  -1.53793  -0.14061 
 1                    -2.89475  -2.51704   0.08896 
 6                    -1.67802   0.95902  -1.24721 
 1                    -1.03075   1.83759  -1.24221 
 1                    -2.33356   1.06405  -2.12193 
 6                    -2.52005   0.9251    0.0297 
 1                    -3.31245   1.67345  -0.02771 
 1                    -1.89813   1.20658   0.88823 
 
 ITRead=  0  0  0  0  0  0  0  0  0  0  0  0  0  0  0  0  0  0  0  0
 ITRead=  0  0  0  0  0  0  0  0
 MicOpt= -1 -1 -1 -1 -1 -1 -1 -1 -1 -1 -1 -1 -1 -1 -1 -1 -1 -1 -1 -1
 MicOpt= -1 -1 -1 -1 -1 -1 -1 -1
 NAtoms=     28 NQM=       28 NQMF=       0 NMMI=      0 NMMIF=      0
                NMic=       0 NMicF=      0.
                    Isotopes and Nuclear Properties:
 (Nuclear quadrupole moments (NQMom) in fm**2, nuclear magnetic moments (NMagM)
  in nuclear magnetons)

  Atom         1           2           3           4           5           6           7           8           9          10
 IAtWgt=          12          12           1           1          12          12           1           1          12           1
 AtmWgt=  12.0000000  12.0000000   1.0078250   1.0078250  12.0000000  12.0000000   1.0078250   1.0078250  12.0000000   1.0078250
 NucSpn=           0           0           1           1           0           0           1           1           0           1
 AtZEff=  -0.0000000  -0.0000000  -0.0000000  -0.0000000  -0.0000000  -0.0000000  -0.0000000  -0.0000000  -0.0000000  -0.0000000
 NQMom=    0.0000000   0.0000000   0.0000000   0.0000000   0.0000000   0.0000000   0.0000000   0.0000000   0.0000000   0.0000000
 NMagM=    0.0000000   0.0000000   2.7928460   2.7928460   0.0000000   0.0000000   2.7928460   2.7928460   0.0000000   2.7928460
 AtZNuc=   6.0000000   6.0000000   1.0000000   1.0000000   6.0000000   6.0000000   1.0000000   1.0000000   6.0000000   1.0000000

  Atom        11          12          13          14          15          16          17          18          19          20
 IAtWgt=           1          12           1          12           1          12           1           1          12           1
 AtmWgt=   1.0078250  12.0000000   1.0078250  12.0000000   1.0078250  12.0000000   1.0078250   1.0078250  12.0000000   1.0078250
 NucSpn=           1           0           1           0           1           0           1           1           0           1
 AtZEff=  -0.0000000  -0.0000000  -0.0000000  -0.0000000  -0.0000000  -0.0000000  -0.0000000  -0.0000000  -0.0000000  -0.0000000
 NQMom=    0.0000000   0.0000000   0.0000000   0.0000000   0.0000000   0.0000000   0.0000000   0.0000000   0.0000000   0.0000000
 NMagM=    2.7928460   0.0000000   2.7928460   0.0000000   2.7928460   0.0000000   2.7928460   2.7928460   0.0000000   2.7928460
 AtZNuc=   1.0000000   6.0000000   1.0000000   6.0000000   1.0000000   6.0000000   1.0000000   1.0000000   6.0000000   1.0000000

  Atom        21          22          23          24          25          26          27          28
 IAtWgt=          12           1          12           1           1          12           1           1
 AtmWgt=  12.0000000   1.0078250  12.0000000   1.0078250   1.0078250  12.0000000   1.0078250   1.0078250
 NucSpn=           0           1           0           1           1           0           1           1
 AtZEff=  -0.0000000  -0.0000000  -0.0000000  -0.0000000  -0.0000000  -0.0000000  -0.0000000  -0.0000000
 NQMom=    0.0000000   0.0000000   0.0000000   0.0000000   0.0000000   0.0000000   0.0000000   0.0000000
 NMagM=    0.0000000   2.7928460   0.0000000   2.7928460   2.7928460   0.0000000   2.7928460   2.7928460
 AtZNuc=   6.0000000   1.0000000   6.0000000   1.0000000   1.0000000   6.0000000   1.0000000   1.0000000
 Leave Link  101 at Mon Aug  3 17:17:29 2020, MaxMem=  6442450944 cpu:               2.4 elap:               0.1
 (Enter /scratch/scicomp/CentOS/7.3.1611/Haswell/software/Gaussian/g16/l202.exe)
                          Input orientation:                          
 ---------------------------------------------------------------------
 Center     Atomic      Atomic             Coordinates (Angstroms)
 Number     Number       Type             X           Y           Z
 ---------------------------------------------------------------------
      1          6           0       -3.100740   -0.436725    0.295815
      2          6           0       -0.857979   -0.286324   -1.428905
      3          1           0       -3.998989   -0.507198    0.898194
      4          1           0        0.044923   -0.220426   -2.024218
      5          6           0        1.256794    1.450448    0.922302
      6          6           0        0.857979    0.286324    1.428905
      7          1           0        0.679926    2.352386    1.089821
      8          1           0       -0.044923    0.220426    2.024218
      9          6           0        1.678016   -0.959021    1.247210
     10          1           0        2.333558   -1.064055    2.121932
     11          1           0        1.030749   -1.837588    1.242211
     12          6           0        2.491654    1.537925    0.140607
     13          1           0        2.894748    2.517041   -0.088961
     14          6           0        3.100740    0.436725   -0.295815
     15          1           0        3.998989    0.507198   -0.898194
     16          6           0        2.520053   -0.925099   -0.029697
     17          1           0        1.898127   -1.206584   -0.888225
     18          1           0        3.312455   -1.673451    0.027707
     19          6           0       -1.256794   -1.450448   -0.922302
     20          1           0       -0.679926   -2.352386   -1.089821
     21          6           0       -2.491654   -1.537925   -0.140607
     22          1           0       -2.894748   -2.517041    0.088961
     23          6           0       -1.678016    0.959021   -1.247210
     24          1           0       -1.030749    1.837588   -1.242211
     25          1           0       -2.333558    1.064055   -2.121932
     26          6           0       -2.520053    0.925099    0.029697
     27          1           0       -3.312455    1.673451   -0.027707
     28          1           0       -1.898127    1.206584    0.888225
 ---------------------------------------------------------------------
                    Distance matrix (angstroms):
                    1          2          3          4          5
     1  C    0.000000
     2  C    2.833241   0.000000
     3  H    1.083826   3.915370   0.000000
     4  H    3.914656   1.083500   4.997595   0.000000
     5  C    4.789782   3.607883   5.608584   3.597559   0.000000
     6  C    4.180688   3.382235   4.949896   3.583562   1.330746
     7  H    4.764769   3.958778   5.486911   4.088989   1.083666
     8  H    3.571728   3.583562   4.175165   4.073359   2.102770
     9  C    4.900455   3.747717   5.705641   3.730249   2.467496
    10  H    5.767135   4.837274   6.473699   4.810418   2.986848
    11  H    4.463999   3.620576   5.214072   3.775795   3.311287
    12  C    5.932807   4.124475   6.847256   3.710089   1.464096
    13  H    6.694674   4.872090   7.592372   4.400051   2.200720
    14  C    6.290572   4.180688   7.261047   3.571728   2.431374
    15  H    7.261047   4.949896   8.259762   4.175165   3.423968
    16  C    5.651352   3.711727   6.597995   3.255909   2.854006
    17  H    5.194546   2.955560   6.201323   2.386913   3.278587
    18  H    6.536853   4.630158   7.454871   4.122917   3.845099
    19  C    2.431374   1.330746   3.423968   2.102770   4.258625
    20  H    3.383797   2.101260   4.286386   2.437982   4.718164
    21  C    1.331950   2.427985   2.100849   3.423159   4.910296
    22  H    2.100699   3.380598   2.431805   4.287380   5.802648
    23  C    2.520551   1.502118   3.484175   2.227859   3.682580
    24  H    3.438442   2.139090   4.346240   2.450312   3.172987
    25  H    2.947272   2.116871   3.789942   2.704924   4.723059
    26  C    1.504188   2.521419   2.234505   3.479928   3.916288
    27  H    2.145305   3.439262   2.466547   4.341061   4.672289
    28  H    2.120776   2.946146   2.711230   3.780757   3.164515
                    6          7          8          9         10
     6  C    0.000000
     7  H    2.101260   0.000000
     8  H    1.083500   2.437982   0.000000
     9  C    1.502118   3.462134   2.227859   0.000000
    10  H    2.116871   3.933424   2.704924   1.098138   0.000000
    11  H    2.139090   4.207396   2.450312   1.091265   1.752020
    12  C    2.427985   2.201525   3.423159   2.849792   3.274285
    13  H    3.380598   2.514374   4.287380   3.917754   4.245849
    14  C    2.833241   3.383797   3.914656   2.520551   2.947272
    15  H    3.915370   4.286386   4.997595   3.484175   3.789942
    16  C    2.521419   3.921900   3.479928   1.529924   2.164162
    17  H    2.946146   4.250053   3.780757   2.160976   3.044825
    18  H    3.439262   4.926019   4.341061   2.160784   2.390686
    19  C    3.607883   4.718164   3.597559   3.682580   4.723059
    20  H    3.958778   5.360496   4.088989   3.600426   4.588708
    21  C    4.124475   5.167920   3.710089   4.432529   5.350356
    22  H    4.872090   6.123017   4.400051   4.967810   5.794767
    23  C    3.747717   3.600426   3.730249   4.600431   5.615753
    24  H    3.620576   2.937652   3.775795   4.621217   5.572751
    25  H    4.837274   4.588708   4.810418   5.615753   6.657417
    26  C    3.711727   3.660721   3.255909   4.759835   5.647276
    27  H    4.630158   4.201063   4.122917   5.784473   6.632673
    28  H    2.955560   2.828402   2.386913   4.196131   4.958326
                   11         12         13         14         15
    11  H    0.000000
    12  C    3.839513   0.000000
    13  H    4.920295   1.083446   0.000000
    14  C    3.438442   1.331950   2.100699   0.000000
    15  H    4.346240   2.100849   2.431805   1.083826   0.000000
    16  C    2.160651   2.469068   3.462981   1.504188   2.234505
    17  H    2.385219   2.990502   3.936681   2.120776   2.711230
    18  H    2.590008   3.316534   4.212875   2.145305   2.466547
    19  C    3.172987   4.910296   5.802648   4.789782   5.608584
    20  H    2.937652   5.167920   6.123017   4.764769   5.486911
    21  C    3.795959   5.862874   6.742310   5.932807   6.847256
    22  H    4.147429   6.742310   7.674106   6.694674   7.592372
    23  C    4.621217   4.432529   4.967810   4.900455   5.705641
    24  H    4.891732   3.795959   4.147429   4.463999   5.214072
    25  H    5.572751   5.350356   5.794767   5.767135   6.473699
    26  C    4.659488   5.050254   5.645213   5.651352   6.597995
    27  H    5.727435   5.808130   6.264564   6.536853   7.454871
    28  H    4.239175   4.465299   5.063975   5.194546   6.201323
                   16         17         18         19         20
    16  C    0.000000
    17  H    1.096857   0.000000
    18  H    1.091433   1.748491   0.000000
    19  C    3.916288   3.164515   4.672289   0.000000
    20  H    3.660721   2.828402   4.201063   1.083666   0.000000
    21  C    5.050254   4.465299   5.808130   1.464096   2.201525
    22  H    5.645213   5.063975   6.264564   2.200720   2.514374
    23  C    4.759835   4.196131   5.784473   2.467496   3.462134
    24  H    4.659488   4.239175   5.727435   3.311287   4.207396
    25  H    5.647276   4.958326   6.632673   2.986848   3.933424
    26  C    5.369304   4.990688   6.385187   2.854006   3.921900
    27  H    6.385187   6.015418   7.422551   3.845099   4.926019
    28  H    4.990688   4.836393   6.015418   3.278587   4.250053
                   21         22         23         24         25
    21  C    0.000000
    22  H    1.083446   0.000000
    23  C    2.849792   3.917754   0.000000
    24  H    3.839513   4.920295   1.091265   0.000000
    25  H    3.274285   4.245849   1.098138   1.752020   0.000000
    26  C    2.469068   3.462981   1.529924   2.160651   2.164162
    27  H    3.316534   4.212875   2.160784   2.590008   2.390686
    28  H    2.990502   3.936681   2.160976   2.385219   3.044825
                   26         27         28
    26  C    0.000000
    27  H    1.091433   0.000000
    28  H    1.096857   1.748491   0.000000
 Symmetry turned off by external request.
 Stoichiometry    C12H16
 Framework group  CI[X(C12H16)]
 Deg. of freedom    39
 Full point group                 CI      NOp   2
 Rotational constants (GHZ):           1.6353234           0.5653914           0.5259215
 Leave Link  202 at Mon Aug  3 17:17:29 2020, MaxMem=  6442450944 cpu:               0.3 elap:               0.0
 (Enter /scratch/scicomp/CentOS/7.3.1611/Haswell/software/Gaussian/g16/l301.exe)
 Standard basis: def2TZVP (5D, 7F)
 Ernie: Thresh=  0.10000D-02 Tol=  0.10000D-05 Strict=F.
   468 basis functions,   740 primitive gaussians,   528 cartesian basis functions
    44 alpha electrons       44 beta electrons
       nuclear repulsion energy       666.6918323575 Hartrees.
 IExCor= 4639 DFT=T Ex+Corr=wB97XD ExCW=0 ScaHFX=  1.000000
 ScaDFX=  1.000000  1.000000  1.000000  1.000000 ScalE2=  1.000000  1.000000
 IRadAn=      5 IRanWt=     -1 IRanGd=            0 ICorTp=0 IEmpDi=121
 HFx  wShort=  0.000000 wLong=  0.200000 cFull=  0.222036 cShort=  0.000000 cLong=  0.777964
 DFx  wShort=  0.000000 wLong=  0.200000 cFull=  0.000000 cShort=  0.000000 cLong=  1.000000
 NAtoms=   28 NActive=   28 NUniq=   28 SFac= 1.00D+00 NAtFMM=   60 NAOKFM=F Big=F
 Integral buffers will be    131072 words long.
 Raffenetti 2 integral format.
 Two-electron integral symmetry is turned off.
 R6Disp:  Grimme-D2 Dispersion energy=       -0.0204319638 Hartrees.
 Nuclear repulsion after empirical dispersion term =      666.6714003937 Hartrees.
 Using the following non-standard input for PCM:
 qrep pcmdoc geomview  nodis nocav g03defaults tsare=0.075
 Warning! Using old PCM defaults because the g03defaults keyword was found.
 These settings can be overridden by following keywords.
 nsfe=28
 NVESolv=36  SolvMW=84.1595   Rsolv=2.815
 eps=2.0165 RhoS=0.7781
 --- end of non-standard input.
 Reading user-defined spheres from input:
 ISph  on   Nord    Re0     Alpha      Xe            Ye            Ze
 --- end of user-defined spheres data.
 ------------------------------------------------------------------------------
 Polarizable Continuum Model (PCM)
 =================================
 Model                : PCM.
 Atomic radii         : UA0 (Simple United Atom Topological Model).
 Polarization charges : Total charges.
 Charge compensation  : None.
 Solution method      : On-the-fly selection.
 Cavity type          : SES (Solvent Excluding Surface) (Alpha=1.000).
 Cavity algorithm     : GePol (RMin=0.200 OFac=0.890).
                        User-defined sphere list used, NSphG=   28.
                        Tesserae with average area of 0.075 Ang**2.
                        Smoothing algorithm: None.
                        Polarization charges: point-like.
                        Self-potential: constant (ISelfS= 1).
                        Self-field    : global E.n sum rule (ISelfD= 3).
 Solvent              : CycloHexane, Eps=   2.016500 Eps(inf)=   2.035188
                        RSolv=   2.815000 Ang.
 ------------------------------------------------------------------------------
 GePol: Number of generator spheres                  =      28
 GePol: Total number of spheres                      =     290
 GePol: Number of exposed spheres                    =     187 ( 64.48%)
 GePol: Number of tesserae                           =    4776
 GePol: Average area of tesserae                     =       0.04 Ang**2
 GePol: Minimum area of tessera                      =   0.10D-02 Ang**2
 GePol: Maximum area of tessera                      =    0.12100 Ang**2
 GePol: Number of small tesserae                     =       0
 GePol: Fraction of small tesserae (<1% of avg)      =       0.00%
 GePol: Total count of vertices                      =   17213
 GePol: Maximum number of vertices in a tessera      =       7
 GePol: Cavity surface area                          =    211.447 Ang**2
 GePol: Cavity volume                                =    231.219 Ang**3
 Leave Link  301 at Mon Aug  3 17:17:29 2020, MaxMem=  6442450944 cpu:               9.3 elap:               0.4
 (Enter /scratch/scicomp/CentOS/7.3.1611/Haswell/software/Gaussian/g16/l302.exe)
 NPDir=0 NMtPBC=     1 NCelOv=     1 NCel=       1 NClECP=     1 NCelD=      1
         NCelK=      1 NCelE2=     1 NClLst=     1 CellRange=     0.0.
 One-electron integrals computed using PRISM.
   1 Symmetry operations used in ECPInt.
 ECPInt:  NShTT=   19306 NPrTT=   56928 LenC2=   18446 LenP2D=   41568.
 LDataN:  DoStor=T MaxTD1= 6 Len=  172
 NBasis=   468 RedAO= T EigKep=  2.85D-05  NBF=   468
 NBsUse=   468 1.00D-06 EigRej= -1.00D+00 NBFU=   468
 Precomputing XC quadrature grid using
 IXCGrd= 4 IRadAn=           5 IRanWt=          -1 IRanGd=           0 AccXCQ= 0.00D+00.
 Generated NRdTot=       0 NPtTot=           0 NUsed=           0 NTot=          32
 NSgBfM=   526   526   526   526   526 MxSgAt=    28 MxSgA2=    28.
 Leave Link  302 at Mon Aug  3 17:17:30 2020, MaxMem=  6442450944 cpu:              11.8 elap:               0.5
 (Enter /scratch/scicomp/CentOS/7.3.1611/Haswell/software/Gaussian/g16/l401.exe)
 ExpMin= 9.52D-02 ExpMax= 1.36D+04 ExpMxC= 4.63D+02 IAcc=3 IRadAn=         5 AccDes= 0.00D+00
 Harris functional with IExCor= 4639 and IRadAn=       5 diagonalized for initial guess.
 HarFok:  IExCor= 4639 AccDes= 0.00D+00 IRadAn=         5 IDoV= 1 UseB2=F ITyADJ=14
 ICtDFT=  3500011 ScaDFX=  1.000000  1.000000  1.000000  1.000000
 FoFCou: FMM=F IPFlag=           0 FMFlag=      100000 FMFlg1=           0
         NFxFlg=           0 DoJE=T BraDBF=F KetDBF=T FulRan=T
         wScrn=  0.000000 ICntrl=       500 IOpCl=  0 I1Cent=   200000004 NGrid=           0
         NMat0=    1 NMatS0=      1 NMatT0=    0 NMatD0=    1 NMtDS0=    0 NMtDT0=    0
 Symmetry not used in FoFCou.
 Harris En= -444.639339410587    
 JPrj=0 DoOrth=F DoCkMO=T.
 Mixing orbitals, IMix= 1 IMixAn=  0 NRI=1 NE=   44 Coef=  7.07106781D-01  7.07106781D-01
 Mixing orbitals, IMix= 1 IMixAn=  0 NRI=1 NE=   44 Coef= -7.07106781D-01  7.07106781D-01
 Initial guess <Sx>= 0.0000 <Sy>= 0.0000 <Sz>= 0.0000 <S**2>= 1.0000 S= 0.6180
 Leave Link  401 at Mon Aug  3 17:17:32 2020, MaxMem=  6442450944 cpu:              46.5 elap:               2.0
 (Enter /scratch/scicomp/CentOS/7.3.1611/Haswell/software/Gaussian/g16/l9999.exe)

 This type of calculation cannot be archived.


 HEAVEN'S NET CASTS WIDE.
 THOUGH ITS MESHES ARE COARSE, NOTHING SLIPS THROUGH.

                                          -- LAO-TSU
 Job cpu time:       0 days  0 hours  1 minutes 13.9 seconds.
 Elapsed time:       0 days  0 hours  0 minutes  3.4 seconds.
 File lengths (MBytes):  RWF=    415 Int=      0 D2E=      0 Chk=      1 Scr=      1
 Normal termination of Gaussian 16 at Mon Aug  3 17:17:32 2020.
 Initial command:
 /scratch/scicomp/CentOS/7.3.1611/Haswell/software/Gaussian/g16/l1.exe "/scratch/bochen/cyclohexadiene-dimerization/wb97xd-def2tzvp/xp-pcm/meso/Gau-69073.inp" -scrdir="/scratch/bochen/cyclohexadiene-dimerization/wb97xd-def2tzvp/xp-pcm/meso/"
 Entering Link 1 = /scratch/scicomp/CentOS/7.3.1611/Haswell/software/Gaussian/g16/l1.exe PID=     69673.
  
 Copyright (c) 1988-2017, Gaussian, Inc.  All Rights Reserved.
  
 This is part of the Gaussian(R) 16 program.  It is based on
 the Gaussian(R) 09 system (copyright 2009, Gaussian, Inc.),
 the Gaussian(R) 03 system (copyright 2003, Gaussian, Inc.),
 the Gaussian(R) 98 system (copyright 1998, Gaussian, Inc.),
 the Gaussian(R) 94 system (copyright 1995, Gaussian, Inc.),
 the Gaussian 92(TM) system (copyright 1992, Gaussian, Inc.),
 the Gaussian 90(TM) system (copyright 1990, Gaussian, Inc.),
 the Gaussian 88(TM) system (copyright 1988, Gaussian, Inc.),
 the Gaussian 86(TM) system (copyright 1986, Carnegie Mellon
 University), and the Gaussian 82(TM) system (copyright 1983,
 Carnegie Mellon University). Gaussian is a federally registered
 trademark of Gaussian, Inc.
  
 This software contains proprietary and confidential information,
 including trade secrets, belonging to Gaussian, Inc.
  
 This software is provided under written license and may be
 used, copied, transmitted, or stored only in accord with that
 written license.
  
 The following legend is applicable only to US Government
 contracts under FAR:
  
                    RESTRICTED RIGHTS LEGEND
  
 Use, reproduction and disclosure by the US Government is
 subject to restrictions as set forth in subparagraphs (a)
 and (c) of the Commercial Computer Software - Restricted
 Rights clause in FAR 52.227-19.
  
 Gaussian, Inc.
 340 Quinnipiac St., Bldg. 40, Wallingford CT 06492
  
  
 ---------------------------------------------------------------
 Warning -- This program may not be used in any manner that
 competes with the business of Gaussian, Inc. or will provide
 assistance to any competitor of Gaussian, Inc.  The licensee
 of this program is prohibited from giving any competitor of
 Gaussian, Inc. access to this program.  By using this program,
 the user acknowledges that Gaussian, Inc. is engaged in the
 business of creating and licensing software in the field of
 computational chemistry and represents and warrants to the
 licensee that it is not a competitor of Gaussian, Inc. and that
 it will not use this program in any manner prohibited above.
 ---------------------------------------------------------------
  

 Cite this work as:
 Gaussian 16, Revision B.01,
 M. J. Frisch, G. W. Trucks, H. B. Schlegel, G. E. Scuseria, 
 M. A. Robb, J. R. Cheeseman, G. Scalmani, V. Barone, 
 G. A. Petersson, H. Nakatsuji, X. Li, M. Caricato, A. V. Marenich, 
 J. Bloino, B. G. Janesko, R. Gomperts, B. Mennucci, H. P. Hratchian, 
 J. V. Ortiz, A. F. Izmaylov, J. L. Sonnenberg, D. Williams-Young, 
 F. Ding, F. Lipparini, F. Egidi, J. Goings, B. Peng, A. Petrone, 
 T. Henderson, D. Ranasinghe, V. G. Zakrzewski, J. Gao, N. Rega, 
 G. Zheng, W. Liang, M. Hada, M. Ehara, K. Toyota, R. Fukuda, 
 J. Hasegawa, M. Ishida, T. Nakajima, Y. Honda, O. Kitao, H. Nakai, 
 T. Vreven, K. Throssell, J. A. Montgomery, Jr., J. E. Peralta, 
 F. Ogliaro, M. J. Bearpark, J. J. Heyd, E. N. Brothers, K. N. Kudin, 
 V. N. Staroverov, T. A. Keith, R. Kobayashi, J. Normand, 
 K. Raghavachari, A. P. Rendell, J. C. Burant, S. S. Iyengar, 
 J. Tomasi, M. Cossi, J. M. Millam, M. Klene, C. Adamo, R. Cammi, 
 J. W. Ochterski, R. L. Martin, K. Morokuma, O. Farkas, 
 J. B. Foresman, and D. J. Fox, Gaussian, Inc., Wallingford CT, 2016.
 
 ******************************************
 Gaussian 16:  ES64L-G16RevB.01 20-Dec-2017
                 3-Aug-2020 
 ******************************************
 %chk=meso-TS_88_2_xp-105.chk
 %nproc=24
 Will use up to   24 processors via shared memory.
 %mem=48GB
 ----------------------------------------------------------------------
 #p uwb97xd guess=mix def2tzvp # scrf=(iefpcm,solvent=Cyclohexane,read)
  nosym guess=only pop=none
 ----------------------------------------------------------------------
 1/38=1,40=2,172=1/1;
 2/12=2,15=1,17=6,18=5,40=1/2;
 3/5=44,7=101,11=2,25=1,30=1,70=2203,72=17,74=-58,89=1,116=2/1,2;
 4/13=-1/1;
 99/5=2/99;
 Leave Link    1 at Mon Aug  3 17:17:32 2020, MaxMem=  6442450944 cpu:               1.5 elap:               0.1
 (Enter /scratch/scicomp/CentOS/7.3.1611/Haswell/software/Gaussian/g16/l101.exe)
 -----------------------
 endo-2 xp-pcm for eta=3
 -----------------------
 Symbolic Z-matrix:
 Charge =  0 Multiplicity = 1
 6                    -3.10074  -0.43673   0.29582 
 6                    -0.85798  -0.28632  -1.42891 
 1                    -3.99899  -0.5072    0.89819 
 1                     0.04492  -0.22043  -2.02422 
 6                     1.25679   1.45045   0.9223 
 6                     0.85798   0.28632   1.42891 
 1                     0.67993   2.35239   1.08982 
 1                    -0.04492   0.22043   2.02422 
 6                     1.67802  -0.95902   1.24721 
 1                     2.33356  -1.06405   2.12193 
 1                     1.03075  -1.83759   1.24221 
 6                     2.49165   1.53793   0.14061 
 1                     2.89475   2.51704  -0.08896 
 6                     3.10074   0.43673  -0.29582 
 1                     3.99899   0.5072   -0.89819 
 6                     2.52005  -0.9251   -0.0297 
 1                     1.89813  -1.20658  -0.88823 
 1                     3.31245  -1.67345   0.02771 
 6                    -1.25679  -1.45045  -0.9223 
 1                    -0.67993  -2.35239  -1.08982 
 6                    -2.49165  -1.53793  -0.14061 
 1                    -2.89475  -2.51704   0.08896 
 6                    -1.67802   0.95902  -1.24721 
[...]
 1                    -3.99899  -0.5072    0.89819 
 1                     0.04492  -0.22043  -2.02422 
 6                     1.25679   1.45045   0.9223 
 6                     0.85798   0.28632   1.42891 
 1                     0.67993   2.35239   1.08982 
 1                    -0.04492   0.22043   2.02422 
 6                     1.67802  -0.95902   1.24721 
 1                     2.33356  -1.06405   2.12193 
 1                     1.03075  -1.83759   1.24221 
 6                     2.49165   1.53793   0.14061 
 1                     2.89475   2.51704  -0.08896 
 6                     3.10074   0.43673  -0.29582 
 1                     3.99899   0.5072   -0.89819 
 6                     2.52005  -0.9251   -0.0297 
 1                     1.89813  -1.20658  -0.88823 
 1                     3.31245  -1.67345   0.02771 
 6                    -1.25679  -1.45045  -0.9223 
 1                    -0.67993  -2.35239  -1.08982 
 6                    -2.49165  -1.53793  -0.14061 
 1                    -2.89475  -2.51704   0.08896 
 6                    -1.67802   0.95902  -1.24721 
 1                    -1.03075   1.83759  -1.24221 
 1                    -2.33356   1.06405  -2.12193 
 6                    -2.52005   0.9251    0.0297 
 1                    -3.31245   1.67345  -0.02771 
 1                    -1.89813   1.20658   0.88823 
 
 ITRead=  0  0  0  0  0  0  0  0  0  0  0  0  0  0  0  0  0  0  0  0
 ITRead=  0  0  0  0  0  0  0  0
 MicOpt= -1 -1 -1 -1 -1 -1 -1 -1 -1 -1 -1 -1 -1 -1 -1 -1 -1 -1 -1 -1
 MicOpt= -1 -1 -1 -1 -1 -1 -1 -1
 NAtoms=     28 NQM=       28 NQMF=       0 NMMI=      0 NMMIF=      0
                NMic=       0 NMicF=      0.
                    Isotopes and Nuclear Properties:
 (Nuclear quadrupole moments (NQMom) in fm**2, nuclear magnetic moments (NMagM)
  in nuclear magnetons)

  Atom         1           2           3           4           5           6           7           8           9          10
 IAtWgt=          12          12           1           1          12          12           1           1          12           1
 AtmWgt=  12.0000000  12.0000000   1.0078250   1.0078250  12.0000000  12.0000000   1.0078250   1.0078250  12.0000000   1.0078250
 NucSpn=           0           0           1           1           0           0           1           1           0           1
 AtZEff=  -0.0000000  -0.0000000  -0.0000000  -0.0000000  -0.0000000  -0.0000000  -0.0000000  -0.0000000  -0.0000000  -0.0000000
 NQMom=    0.0000000   0.0000000   0.0000000   0.0000000   0.0000000   0.0000000   0.0000000   0.0000000   0.0000000   0.0000000
 NMagM=    0.0000000   0.0000000   2.7928460   2.7928460   0.0000000   0.0000000   2.7928460   2.7928460   0.0000000   2.7928460
 AtZNuc=   6.0000000   6.0000000   1.0000000   1.0000000   6.0000000   6.0000000   1.0000000   1.0000000   6.0000000   1.0000000

  Atom        11          12          13          14          15          16          17          18          19          20
 IAtWgt=           1          12           1          12           1          12           1           1          12           1
 AtmWgt=   1.0078250  12.0000000   1.0078250  12.0000000   1.0078250  12.0000000   1.0078250   1.0078250  12.0000000   1.0078250
 NucSpn=           1           0           1           0           1           0           1           1           0           1
 AtZEff=  -0.0000000  -0.0000000  -0.0000000  -0.0000000  -0.0000000  -0.0000000  -0.0000000  -0.0000000  -0.0000000  -0.0000000
 NQMom=    0.0000000   0.0000000   0.0000000   0.0000000   0.0000000   0.0000000   0.0000000   0.0000000   0.0000000   0.0000000
 NMagM=    2.7928460   0.0000000   2.7928460   0.0000000   2.7928460   0.0000000   2.7928460   2.7928460   0.0000000   2.7928460
 AtZNuc=   1.0000000   6.0000000   1.0000000   6.0000000   1.0000000   6.0000000   1.0000000   1.0000000   6.0000000   1.0000000

  Atom        21          22          23          24          25          26          27          28
 IAtWgt=          12           1          12           1           1          12           1           1
 AtmWgt=  12.0000000   1.0078250  12.0000000   1.0078250   1.0078250  12.0000000   1.0078250   1.0078250
 NucSpn=           0           1           0           1           1           0           1           1
 AtZEff=  -0.0000000  -0.0000000  -0.0000000  -0.0000000  -0.0000000  -0.0000000  -0.0000000  -0.0000000
 NQMom=    0.0000000   0.0000000   0.0000000   0.0000000   0.0000000   0.0000000   0.0000000   0.0000000
 NMagM=    0.0000000   2.7928460   0.0000000   2.7928460   2.7928460   0.0000000   2.7928460   2.7928460
 AtZNuc=   6.0000000   1.0000000   6.0000000   1.0000000   1.0000000   6.0000000   1.0000000   1.0000000
 Leave Link  101 at Mon Aug  3 17:17:44 2020, MaxMem=  6442450944 cpu:               2.4 elap:               0.1
 (Enter /scratch/scicomp/CentOS/7.3.1611/Haswell/software/Gaussian/g16/l202.exe)
                          Input orientation:                          
 ---------------------------------------------------------------------
 Center     Atomic      Atomic             Coordinates (Angstroms)
 Number     Number       Type             X           Y           Z
 ---------------------------------------------------------------------
      1          6           0       -3.100740   -0.436725    0.295815
      2          6           0       -0.857979   -0.286324   -1.428905
      3          1           0       -3.998989   -0.507198    0.898194
      4          1           0        0.044923   -0.220426   -2.024218
      5          6           0        1.256794    1.450448    0.922302
      6          6           0        0.857979    0.286324    1.428905
      7          1           0        0.679926    2.352386    1.089821
      8          1           0       -0.044923    0.220426    2.024218
      9          6           0        1.678016   -0.959021    1.247210
     10          1           0        2.333558   -1.064055    2.121932
     11          1           0        1.030749   -1.837588    1.242211
     12          6           0        2.491654    1.537925    0.140607
     13          1           0        2.894748    2.517041   -0.088961
     14          6           0        3.100740    0.436725   -0.295815
     15          1           0        3.998989    0.507198   -0.898194
     16          6           0        2.520053   -0.925099   -0.029697
     17          1           0        1.898127   -1.206584   -0.888225
     18          1           0        3.312455   -1.673451    0.027707
     19          6           0       -1.256794   -1.450448   -0.922302
     20          1           0       -0.679926   -2.352386   -1.089821
     21          6           0       -2.491654   -1.537925   -0.140607
     22          1           0       -2.894748   -2.517041    0.088961
     23          6           0       -1.678016    0.959021   -1.247210
     24          1           0       -1.030749    1.837588   -1.242211
     25          1           0       -2.333558    1.064055   -2.121932
     26          6           0       -2.520053    0.925099    0.029697
     27          1           0       -3.312455    1.673451   -0.027707
     28          1           0       -1.898127    1.206584    0.888225
 ---------------------------------------------------------------------
                    Distance matrix (angstroms):
                    1          2          3          4          5
     1  C    0.000000
     2  C    2.833241   0.000000
     3  H    1.083826   3.915370   0.000000
     4  H    3.914656   1.083500   4.997595   0.000000
     5  C    4.789782   3.607883   5.608584   3.597559   0.000000
     6  C    4.180688   3.382235   4.949896   3.583562   1.330746
     7  H    4.764769   3.958778   5.486911   4.088989   1.083666
     8  H    3.571728   3.583562   4.175165   4.073359   2.102770
     9  C    4.900455   3.747717   5.705641   3.730249   2.467496
    10  H    5.767135   4.837274   6.473699   4.810418   2.986848
    11  H    4.463999   3.620576   5.214072   3.775795   3.311287
    12  C    5.932807   4.124475   6.847256   3.710089   1.464096
    13  H    6.694674   4.872090   7.592372   4.400051   2.200720
    14  C    6.290572   4.180688   7.261047   3.571728   2.431374
    15  H    7.261047   4.949896   8.259762   4.175165   3.423968
    16  C    5.651352   3.711727   6.597995   3.255909   2.854006
    17  H    5.194546   2.955560   6.201323   2.386913   3.278587
    18  H    6.536853   4.630158   7.454871   4.122917   3.845099
    19  C    2.431374   1.330746   3.423968   2.102770   4.258625
    20  H    3.383797   2.101260   4.286386   2.437982   4.718164
    21  C    1.331950   2.427985   2.100849   3.423159   4.910296
    22  H    2.100699   3.380598   2.431805   4.287380   5.802648
    23  C    2.520551   1.502118   3.484175   2.227859   3.682580
    24  H    3.438442   2.139090   4.346240   2.450312   3.172987
    25  H    2.947272   2.116871   3.789942   2.704924   4.723059
    26  C    1.504188   2.521419   2.234505   3.479928   3.916288
    27  H    2.145305   3.439262   2.466547   4.341061   4.672289
    28  H    2.120776   2.946146   2.711230   3.780757   3.164515
                    6          7          8          9         10
     6  C    0.000000
     7  H    2.101260   0.000000
     8  H    1.083500   2.437982   0.000000
     9  C    1.502118   3.462134   2.227859   0.000000
    10  H    2.116871   3.933424   2.704924   1.098138   0.000000
    11  H    2.139090   4.207396   2.450312   1.091265   1.752020
    12  C    2.427985   2.201525   3.423159   2.849792   3.274285
    13  H    3.380598   2.514374   4.287380   3.917754   4.245849
    14  C    2.833241   3.383797   3.914656   2.520551   2.947272
    15  H    3.915370   4.286386   4.997595   3.484175   3.789942
    16  C    2.521419   3.921900   3.479928   1.529924   2.164162
    17  H    2.946146   4.250053   3.780757   2.160976   3.044825
    18  H    3.439262   4.926019   4.341061   2.160784   2.390686
    19  C    3.607883   4.718164   3.597559   3.682580   4.723059
    20  H    3.958778   5.360496   4.088989   3.600426   4.588708
    21  C    4.124475   5.167920   3.710089   4.432529   5.350356
    22  H    4.872090   6.123017   4.400051   4.967810   5.794767
    23  C    3.747717   3.600426   3.730249   4.600431   5.615753
    24  H    3.620576   2.937652   3.775795   4.621217   5.572751
    25  H    4.837274   4.588708   4.810418   5.615753   6.657417
    26  C    3.711727   3.660721   3.255909   4.759835   5.647276
    27  H    4.630158   4.201063   4.122917   5.784473   6.632673
    28  H    2.955560   2.828402   2.386913   4.196131   4.958326
                   11         12         13         14         15
    11  H    0.000000
    12  C    3.839513   0.000000
    13  H    4.920295   1.083446   0.000000
    14  C    3.438442   1.331950   2.100699   0.000000
    15  H    4.346240   2.100849   2.431805   1.083826   0.000000
    16  C    2.160651   2.469068   3.462981   1.504188   2.234505
    17  H    2.385219   2.990502   3.936681   2.120776   2.711230
    18  H    2.590008   3.316534   4.212875   2.145305   2.466547
    19  C    3.172987   4.910296   5.802648   4.789782   5.608584
    20  H    2.937652   5.167920   6.123017   4.764769   5.486911
    21  C    3.795959   5.862874   6.742310   5.932807   6.847256
    22  H    4.147429   6.742310   7.674106   6.694674   7.592372
    23  C    4.621217   4.432529   4.967810   4.900455   5.705641
    24  H    4.891732   3.795959   4.147429   4.463999   5.214072
    25  H    5.572751   5.350356   5.794767   5.767135   6.473699
    26  C    4.659488   5.050254   5.645213   5.651352   6.597995
    27  H    5.727435   5.808130   6.264564   6.536853   7.454871
    28  H    4.239175   4.465299   5.063975   5.194546   6.201323
                   16         17         18         19         20
    16  C    0.000000
    17  H    1.096857   0.000000
    18  H    1.091433   1.748491   0.000000
    19  C    3.916288   3.164515   4.672289   0.000000
    20  H    3.660721   2.828402   4.201063   1.083666   0.000000
    21  C    5.050254   4.465299   5.808130   1.464096   2.201525
    22  H    5.645213   5.063975   6.264564   2.200720   2.514374
    23  C    4.759835   4.196131   5.784473   2.467496   3.462134
    24  H    4.659488   4.239175   5.727435   3.311287   4.207396
    25  H    5.647276   4.958326   6.632673   2.986848   3.933424
    26  C    5.369304   4.990688   6.385187   2.854006   3.921900
    27  H    6.385187   6.015418   7.422551   3.845099   4.926019
    28  H    4.990688   4.836393   6.015418   3.278587   4.250053
                   21         22         23         24         25
    21  C    0.000000
    22  H    1.083446   0.000000
    23  C    2.849792   3.917754   0.000000
    24  H    3.839513   4.920295   1.091265   0.000000
    25  H    3.274285   4.245849   1.098138   1.752020   0.000000
    26  C    2.469068   3.462981   1.529924   2.160651   2.164162
    27  H    3.316534   4.212875   2.160784   2.590008   2.390686
    28  H    2.990502   3.936681   2.160976   2.385219   3.044825
                   26         27         28
    26  C    0.000000
    27  H    1.091433   0.000000
    28  H    1.096857   1.748491   0.000000
 Symmetry turned off by external request.
 Stoichiometry    C12H16
 Framework group  CI[X(C12H16)]
 Deg. of freedom    39
 Full point group                 CI      NOp   2
 Rotational constants (GHZ):           1.6353234           0.5653914           0.5259215
 Leave Link  202 at Mon Aug  3 17:17:44 2020, MaxMem=  6442450944 cpu:               0.3 elap:               0.0
 (Enter /scratch/scicomp/CentOS/7.3.1611/Haswell/software/Gaussian/g16/l301.exe)
 Standard basis: def2TZVP (5D, 7F)
 Ernie: Thresh=  0.10000D-02 Tol=  0.10000D-05 Strict=F.
   468 basis functions,   740 primitive gaussians,   528 cartesian basis functions
    44 alpha electrons       44 beta electrons
       nuclear repulsion energy       666.6918323575 Hartrees.
 IExCor= 4639 DFT=T Ex+Corr=wB97XD ExCW=0 ScaHFX=  1.000000
 ScaDFX=  1.000000  1.000000  1.000000  1.000000 ScalE2=  1.000000  1.000000
 IRadAn=      5 IRanWt=     -1 IRanGd=            0 ICorTp=0 IEmpDi=121
 HFx  wShort=  0.000000 wLong=  0.200000 cFull=  0.222036 cShort=  0.000000 cLong=  0.777964
 DFx  wShort=  0.000000 wLong=  0.200000 cFull=  0.000000 cShort=  0.000000 cLong=  1.000000
 NAtoms=   28 NActive=   28 NUniq=   28 SFac= 1.00D+00 NAtFMM=   60 NAOKFM=F Big=F
 Integral buffers will be    131072 words long.
 Raffenetti 2 integral format.
 Two-electron integral symmetry is turned off.
 R6Disp:  Grimme-D2 Dispersion energy=       -0.0204319638 Hartrees.
 Nuclear repulsion after empirical dispersion term =      666.6714003937 Hartrees.
 Using the following non-standard input for PCM:
 qrep pcmdoc geomview  nodis nocav g03defaults tsare=0.075
 Warning! Using old PCM defaults because the g03defaults keyword was found.
 These settings can be overridden by following keywords.
 nsfe=28
 NVESolv=36  SolvMW=84.1595   Rsolv=2.815
 eps=2.0165 RhoS=0.7781
 --- end of non-standard input.
 Reading user-defined spheres from input:
 ISph  on   Nord    Re0     Alpha      Xe            Ye            Ze
 --- end of user-defined spheres data.
 ------------------------------------------------------------------------------
 Polarizable Continuum Model (PCM)
 =================================
 Model                : PCM.
 Atomic radii         : UA0 (Simple United Atom Topological Model).
 Polarization charges : Total charges.
 Charge compensation  : None.
 Solution method      : On-the-fly selection.
 Cavity type          : SES (Solvent Excluding Surface) (Alpha=1.000).
 Cavity algorithm     : GePol (RMin=0.200 OFac=0.890).
                        User-defined sphere list used, NSphG=   28.
                        Tesserae with average area of 0.075 Ang**2.
                        Smoothing algorithm: None.
                        Polarization charges: point-like.
                        Self-potential: constant (ISelfS= 1).
                        Self-field    : global E.n sum rule (ISelfD= 3).
 Solvent              : CycloHexane, Eps=   2.016500 Eps(inf)=   2.035188
                        RSolv=   2.815000 Ang.
 ------------------------------------------------------------------------------
 GePol: Number of generator spheres                  =      28
 GePol: Total number of spheres                      =     516
 GePol: Number of exposed spheres                    =     319 ( 61.82%)
 GePol: Number of tesserae                           =    4823
 GePol: Average area of tesserae                     =       0.04 Ang**2
 GePol: Minimum area of tessera                      =   0.10D-02 Ang**2
 GePol: Maximum area of tessera                      =    0.12513 Ang**2
 GePol: Number of small tesserae                     =       0
 GePol: Fraction of small tesserae (<1% of avg)      =       0.00%
 GePol: Total count of vertices                      =   18210
 GePol: Maximum number of vertices in a tessera      =       8
 GePol: Cavity surface area                          =    190.378 Ang**2
 GePol: Cavity volume                                =    191.119 Ang**3
 Leave Link  301 at Mon Aug  3 17:17:45 2020, MaxMem=  6442450944 cpu:              12.9 elap:               0.6
 (Enter /scratch/scicomp/CentOS/7.3.1611/Haswell/software/Gaussian/g16/l302.exe)
 NPDir=0 NMtPBC=     1 NCelOv=     1 NCel=       1 NClECP=     1 NCelD=      1
         NCelK=      1 NCelE2=     1 NClLst=     1 CellRange=     0.0.
 One-electron integrals computed using PRISM.
   1 Symmetry operations used in ECPInt.
 ECPInt:  NShTT=   19306 NPrTT=   56928 LenC2=   18446 LenP2D=   41568.
 LDataN:  DoStor=T MaxTD1= 6 Len=  172
 NBasis=   468 RedAO= T EigKep=  2.85D-05  NBF=   468
 NBsUse=   468 1.00D-06 EigRej= -1.00D+00 NBFU=   468
 Precomputing XC quadrature grid using
 IXCGrd= 4 IRadAn=           5 IRanWt=          -1 IRanGd=           0 AccXCQ= 0.00D+00.
 Generated NRdTot=       0 NPtTot=           0 NUsed=           0 NTot=          32
 NSgBfM=   526   526   526   526   526 MxSgAt=    28 MxSgA2=    28.
 Leave Link  302 at Mon Aug  3 17:17:45 2020, MaxMem=  6442450944 cpu:              12.6 elap:               0.6
 (Enter /scratch/scicomp/CentOS/7.3.1611/Haswell/software/Gaussian/g16/l401.exe)
 ExpMin= 9.52D-02 ExpMax= 1.36D+04 ExpMxC= 4.63D+02 IAcc=3 IRadAn=         5 AccDes= 0.00D+00
 Harris functional with IExCor= 4639 and IRadAn=       5 diagonalized for initial guess.
 HarFok:  IExCor= 4639 AccDes= 0.00D+00 IRadAn=         5 IDoV= 1 UseB2=F ITyADJ=14
 ICtDFT=  3500011 ScaDFX=  1.000000  1.000000  1.000000  1.000000
 FoFCou: FMM=F IPFlag=           0 FMFlag=      100000 FMFlg1=           0
         NFxFlg=           0 DoJE=T BraDBF=F KetDBF=T FulRan=T
         wScrn=  0.000000 ICntrl=       500 IOpCl=  0 I1Cent=   200000004 NGrid=           0
         NMat0=    1 NMatS0=      1 NMatT0=    0 NMatD0=    1 NMtDS0=    0 NMtDT0=    0
 Symmetry not used in FoFCou.
 Harris En= -444.639339410587    
 JPrj=0 DoOrth=F DoCkMO=T.
 Mixing orbitals, IMix= 1 IMixAn=  0 NRI=1 NE=   44 Coef=  7.07106781D-01  7.07106781D-01
 Mixing orbitals, IMix= 1 IMixAn=  0 NRI=1 NE=   44 Coef= -7.07106781D-01  7.07106781D-01
 Initial guess <Sx>= 0.0000 <Sy>= 0.0000 <Sz>= 0.0000 <S**2>= 1.0000 S= 0.6180
 Leave Link  401 at Mon Aug  3 17:17:47 2020, MaxMem=  6442450944 cpu:              46.3 elap:               2.0
 (Enter /scratch/scicomp/CentOS/7.3.1611/Haswell/software/Gaussian/g16/l9999.exe)

 This type of calculation cannot be archived.


 ... THIS SEEMS PLAINLY ABSURD; BUT WHOEVER WISHES TO BECOME A 
 PHILOSOPHER MUST LEARN NOT TO BE FRIGHTENED BY ABSURDITIES.

                          -- BERTRAND RUSSELL
 Job cpu time:       0 days  0 hours  1 minutes 17.2 seconds.
 Elapsed time:       0 days  0 hours  0 minutes  3.5 seconds.
 File lengths (MBytes):  RWF=    425 Int=      0 D2E=      0 Chk=      1 Scr=      1
 Normal termination of Gaussian 16 at Mon Aug  3 17:17:48 2020.
