 Entering Gaussian System, Link 0=g16
 Input=meso-TS_16_1_xp-Ger.com
 Output=meso-TS_16_1_xp-Ger.log
 Initial command:
 /scratch/scicomp/CentOS/7.3.1611/Haswell/software/Gaussian/g16/l1.exe "/scratch/bochen/cyclohexadiene-dimerization/wb97xd-def2tzvp/xp-pcm/meso/Gau-7854.inp" -scrdir="/scratch/bochen/cyclohexadiene-dimerization/wb97xd-def2tzvp/xp-pcm/meso/"
 Entering Link 1 = /scratch/scicomp/CentOS/7.3.1611/Haswell/software/Gaussian/g16/l1.exe PID=      7855.
  
 Copyright (c) 1988-2017, Gaussian, Inc.  All Rights Reserved.
  
 This is part of the Gaussian(R) 16 program.  It is based on
 the Gaussian(R) 09 system (copyright 2009, Gaussian, Inc.),
 the Gaussian(R) 03 system (copyright 2003, Gaussian, Inc.),
 the Gaussian(R) 98 system (copyright 1998, Gaussian, Inc.),
 the Gaussian(R) 94 system (copyright 1995, Gaussian, Inc.),
 the Gaussian 92(TM) system (copyright 1992, Gaussian, Inc.),
 the Gaussian 90(TM) system (copyright 1990, Gaussian, Inc.),
 the Gaussian 88(TM) system (copyright 1988, Gaussian, Inc.),
 the Gaussian 86(TM) system (copyright 1986, Carnegie Mellon
 University), and the Gaussian 82(TM) system (copyright 1983,
 Carnegie Mellon University). Gaussian is a federally registered
 trademark of Gaussian, Inc.
  
 This software contains proprietary and confidential information,
 including trade secrets, belonging to Gaussian, Inc.
  
 This software is provided under written license and may be
 used, copied, transmitted, or stored only in accord with that
 written license.
  
 The following legend is applicable only to US Government
 contracts under FAR:
  
                    RESTRICTED RIGHTS LEGEND
  
 Use, reproduction and disclosure by the US Government is
 subject to restrictions as set forth in subparagraphs (a)
 and (c) of the Commercial Computer Software - Restricted
 Rights clause in FAR 52.227-19.
  
 Gaussian, Inc.
 340 Quinnipiac St., Bldg. 40, Wallingford CT 06492
  
  
 ---------------------------------------------------------------
 Warning -- This program may not be used in any manner that
 competes with the business of Gaussian, Inc. or will provide
 assistance to any competitor of Gaussian, Inc.  The licensee
 of this program is prohibited from giving any competitor of
 Gaussian, Inc. access to this program.  By using this program,
 the user acknowledges that Gaussian, Inc. is engaged in the
 business of creating and licensing software in the field of
 computational chemistry and represents and warrants to the
 licensee that it is not a competitor of Gaussian, Inc. and that
 it will not use this program in any manner prohibited above.
 ---------------------------------------------------------------
  

 Cite this work as:
 Gaussian 16, Revision B.01,
 M. J. Frisch, G. W. Trucks, H. B. Schlegel, G. E. Scuseria, 
 M. A. Robb, J. R. Cheeseman, G. Scalmani, V. Barone, 
 G. A. Petersson, H. Nakatsuji, X. Li, M. Caricato, A. V. Marenich, 
 J. Bloino, B. G. Janesko, R. Gomperts, B. Mennucci, H. P. Hratchian, 
 J. V. Ortiz, A. F. Izmaylov, J. L. Sonnenberg, D. Williams-Young, 
 F. Ding, F. Lipparini, F. Egidi, J. Goings, B. Peng, A. Petrone, 
 T. Henderson, D. Ranasinghe, V. G. Zakrzewski, J. Gao, N. Rega, 
 G. Zheng, W. Liang, M. Hada, M. Ehara, K. Toyota, R. Fukuda, 
 J. Hasegawa, M. Ishida, T. Nakajima, Y. Honda, O. Kitao, H. Nakai, 
 T. Vreven, K. Throssell, J. A. Montgomery, Jr., J. E. Peralta, 
 F. Ogliaro, M. J. Bearpark, J. J. Heyd, E. N. Brothers, K. N. Kudin, 
 V. N. Staroverov, T. A. Keith, R. Kobayashi, J. Normand, 
 K. Raghavachari, A. P. Rendell, J. C. Burant, S. S. Iyengar, 
 J. Tomasi, M. Cossi, J. M. Millam, M. Klene, C. Adamo, R. Cammi, 
 J. W. Ochterski, R. L. Martin, K. Morokuma, O. Farkas, 
 J. B. Foresman, and D. J. Fox, Gaussian, Inc., Wallingford CT, 2016.
 
 ******************************************
 Gaussian 16:  ES64L-G16RevB.01 20-Dec-2017
                 4-Aug-2020 
 ******************************************
 %chk=meso-TS_16_1_xp-12.chk
 %nproc=24
 Will use up to   24 processors via shared memory.
 %mem=48GB
 ----------------------------------------------------------------------
 #p uwb97xd guess=mix def2tzvp # scrf=(iefpcm,solvent=Cyclohexane,read)
  nosym 6d 10f
 ----------------------------------------------------------------------
 1/38=1,40=2,172=1/1;
 2/12=2,15=1,17=6,18=5,40=1/2;
 3/5=44,7=101,8=22,11=2,25=1,30=1,70=2203,72=17,74=-58,116=2/1,2,3;
 4/13=-1/1;
 5/5=2,38=5,53=17/2;
 6/7=2,8=2,9=2,10=2,28=1/1;
 99/5=1,9=1/99;
 Leave Link    1 at Tue Aug  4 18:12:03 2020, MaxMem=  6442450944 cpu:               2.3 elap:               0.1
 (Enter /scratch/scicomp/CentOS/7.3.1611/Haswell/software/Gaussian/g16/l101.exe)
 -----------------------
 endo-2 xp-pcm for eta=3
 -----------------------
 Symbolic Z-matrix:
 Charge =  0 Multiplicity = 1
 6                    -3.1195   -0.42494   0.24862 
 6                    -0.42425  -0.12187  -0.71477 
 1                    -4.08782  -0.54642   0.71845 
 1                     0.3294   -0.10766  -1.5049 
 6                     1.11572   1.43358   0.66368 
 6                     0.42425   0.12187   0.71477 
 1                     0.57207   2.33357   0.92248 
 1                    -0.3294    0.10766   1.5049 
 6                     1.44947  -0.99636   0.97346 
 1                     1.86081  -0.86876   1.97862 
 1                     0.95495  -1.96903   0.95371 
 6                     2.39442   1.53076   0.12703 
 1                     2.83084   2.51382  -0.01222 
 6                     3.1195    0.42494  -0.24862 
 1                     4.08782   0.54642  -0.71845 
 6                     2.59287  -0.96028  -0.04245 
 1                     2.24915  -1.36226  -1.00503 
 1                     3.40075  -1.62512   0.27493 
 6                    -1.11572  -1.43358  -0.66368 
 1                    -0.57207  -2.33357  -0.92248 
 6                    -2.39442  -1.53076  -0.12703 
 1                    -2.83084  -2.51382   0.01222 
 6                    -1.44947   0.99636  -0.97346 
 1                    -0.95495   1.96903  -0.95371 
 1                    -1.86081   0.86876  -1.97862 
 6                    -2.59287   0.96028   0.04245 
 1                    -3.40075   1.62512  -0.27493 
 1                    -2.24915   1.36226   1.00503 
 
 ITRead=  0  0  0  0  0  0  0  0  0  0  0  0  0  0  0  0  0  0  0  0
 ITRead=  0  0  0  0  0  0  0  0
 MicOpt= -1 -1 -1 -1 -1 -1 -1 -1 -1 -1 -1 -1 -1 -1 -1 -1 -1 -1 -1 -1
 MicOpt= -1 -1 -1 -1 -1 -1 -1 -1
 NAtoms=     28 NQM=       28 NQMF=       0 NMMI=      0 NMMIF=      0
                NMic=       0 NMicF=      0.
                    Isotopes and Nuclear Properties:
 (Nuclear quadrupole moments (NQMom) in fm**2, nuclear magnetic moments (NMagM)
  in nuclear magnetons)

  Atom         1           2           3           4           5           6           7           8           9          10
 IAtWgt=          12          12           1           1          12          12           1           1          12           1
 AtmWgt=  12.0000000  12.0000000   1.0078250   1.0078250  12.0000000  12.0000000   1.0078250   1.0078250  12.0000000   1.0078250
 NucSpn=           0           0           1           1           0           0           1           1           0           1
 AtZEff=  -0.0000000  -0.0000000  -0.0000000  -0.0000000  -0.0000000  -0.0000000  -0.0000000  -0.0000000  -0.0000000  -0.0000000
 NQMom=    0.0000000   0.0000000   0.0000000   0.0000000   0.0000000   0.0000000   0.0000000   0.0000000   0.0000000   0.0000000
 NMagM=    0.0000000   0.0000000   2.7928460   2.7928460   0.0000000   0.0000000   2.7928460   2.7928460   0.0000000   2.7928460
 AtZNuc=   6.0000000   6.0000000   1.0000000   1.0000000   6.0000000   6.0000000   1.0000000   1.0000000   6.0000000   1.0000000

  Atom        11          12          13          14          15          16          17          18          19          20
 IAtWgt=           1          12           1          12           1          12           1           1          12           1
 AtmWgt=   1.0078250  12.0000000   1.0078250  12.0000000   1.0078250  12.0000000   1.0078250   1.0078250  12.0000000   1.0078250
 NucSpn=           1           0           1           0           1           0           1           1           0           1
 AtZEff=  -0.0000000  -0.0000000  -0.0000000  -0.0000000  -0.0000000  -0.0000000  -0.0000000  -0.0000000  -0.0000000  -0.0000000
 NQMom=    0.0000000   0.0000000   0.0000000   0.0000000   0.0000000   0.0000000   0.0000000   0.0000000   0.0000000   0.0000000
 NMagM=    2.7928460   0.0000000   2.7928460   0.0000000   2.7928460   0.0000000   2.7928460   2.7928460   0.0000000   2.7928460
 AtZNuc=   1.0000000   6.0000000   1.0000000   6.0000000   1.0000000   6.0000000   1.0000000   1.0000000   6.0000000   1.0000000

  Atom        21          22          23          24          25          26          27          28
 IAtWgt=          12           1          12           1           1          12           1           1
 AtmWgt=  12.0000000   1.0078250  12.0000000   1.0078250   1.0078250  12.0000000   1.0078250   1.0078250
 NucSpn=           0           1           0           1           1           0           1           1
 AtZEff=  -0.0000000  -0.0000000  -0.0000000  -0.0000000  -0.0000000  -0.0000000  -0.0000000  -0.0000000
 NQMom=    0.0000000   0.0000000   0.0000000   0.0000000   0.0000000   0.0000000   0.0000000   0.0000000
 NMagM=    0.0000000   2.7928460   0.0000000   2.7928460   2.7928460   0.0000000   2.7928460   2.7928460
 AtZNuc=   6.0000000   1.0000000   6.0000000   1.0000000   1.0000000   6.0000000   1.0000000   1.0000000
 Leave Link  101 at Tue Aug  4 18:12:03 2020, MaxMem=  6442450944 cpu:               2.4 elap:               0.1
 (Enter /scratch/scicomp/CentOS/7.3.1611/Haswell/software/Gaussian/g16/l202.exe)
                          Input orientation:                          
 ---------------------------------------------------------------------
 Center     Atomic      Atomic             Coordinates (Angstroms)
 Number     Number       Type             X           Y           Z
 ---------------------------------------------------------------------
      1          6           0       -3.119495   -0.424944    0.248623
      2          6           0       -0.424245   -0.121866   -0.714774
      3          1           0       -4.087821   -0.546420    0.718451
      4          1           0        0.329403   -0.107658   -1.504901
      5          6           0        1.115717    1.433579    0.663678
      6          6           0        0.424245    0.121866    0.714774
      7          1           0        0.572069    2.333570    0.922475
      8          1           0       -0.329403    0.107658    1.504901
      9          6           0        1.449468   -0.996358    0.973459
     10          1           0        1.860814   -0.868763    1.978620
     11          1           0        0.954950   -1.969025    0.953713
     12          6           0        2.394417    1.530763    0.127030
     13          1           0        2.830840    2.513824   -0.012217
     14          6           0        3.119495    0.424944   -0.248623
     15          1           0        4.087821    0.546420   -0.718451
     16          6           0        2.592866   -0.960276   -0.042448
     17          1           0        2.249153   -1.362262   -1.005025
     18          1           0        3.400748   -1.625122    0.274929
     19          6           0       -1.115717   -1.433580   -0.663678
     20          1           0       -0.572069   -2.333570   -0.922475
     21          6           0       -2.394417   -1.530763   -0.127030
     22          1           0       -2.830840   -2.513824    0.012217
     23          6           0       -1.449468    0.996358   -0.973459
     24          1           0       -0.954950    1.969025   -0.953713
     25          1           0       -1.860814    0.868763   -1.978620
     26          6           0       -2.592866    0.960276    0.042448
     27          1           0       -3.400748    1.625122   -0.274929
     28          1           0       -2.249153    1.362262    1.005025
 ---------------------------------------------------------------------
                    Distance matrix (angstroms):
                    1          2          3          4          5
     1  C    0.000000
     2  C    2.878257   0.000000
     3  H    1.083120   3.956788   0.000000
     4  H    3.882063   1.092011   4.964642   0.000000
     5  C    4.643641   2.586701   5.567783   2.774245   0.000000
     6  C    3.615853   1.680163   4.561289   2.233525   1.483690
     7  H    4.657373   3.114866   5.481838   3.451179   1.082826
     8  H    3.105884   2.233525   3.895129   3.088575   2.134032
     9  C    4.661258   2.669395   5.561389   2.861224   2.472235
    10  H    5.290874   3.610225   6.089186   3.880647   2.754092
    11  H    4.413892   2.845703   5.244873   3.146550   3.418725
    12  C    5.851735   3.374118   6.832560   3.100307   1.390147
    13  H    6.641602   4.246884   7.600450   3.918860   2.136682
    14  C    6.316214   3.615853   7.336497   3.105884   2.421727
    15  H    7.336497   4.561289   8.372581   3.895129   3.395693
    16  C    5.744769   3.202798   6.736603   2.826480   2.900194
    17  H    5.592189   2.961399   6.617644   2.347200   3.447604
    18  H    6.629833   4.227276   7.578851   3.860525   3.837726
    19  C    2.421728   1.483691   3.395694   2.134033   3.868045
    20  H    3.391711   2.226348   4.271657   2.471145   4.422207
    21  C    1.374660   2.492391   2.133398   3.367930   4.661929
    22  H    2.121940   3.470112   2.439149   4.251872   5.619760
    23  C    2.510493   1.538969   3.493369   2.160015   3.074338
    24  H    3.444119   2.170384   4.351836   2.503195   2.681477
    25  H    2.866804   2.154619   3.773128   2.444352   4.020012
    26  C    1.496222   2.539160   2.227555   3.474828   3.789925
    27  H    2.134474   3.479224   2.484848   4.292946   4.616939
    28  H    2.126910   2.913869   2.665688   3.887074   3.382891
                    6          7          8          9         10
     6  C    0.000000
     7  H    2.226348   0.000000
     8  H    1.092011   2.471145   0.000000
     9  C    1.538969   3.443958   2.160015   0.000000
    10  H    2.154619   3.609881   2.444352   1.093542   0.000000
    11  H    2.170384   4.319710   2.503195   1.091338   1.755449
    12  C    2.492391   2.144338   3.367930   2.827669   3.077473
    13  H    3.470112   2.451160   4.251872   3.898862   4.043053
    14  C    2.878257   3.391711   3.882063   2.510493   2.866804
    15  H    3.956788   4.271657   4.964642   3.493369   3.773128
    16  C    2.539160   3.982979   3.474828   1.529944   2.151509
    17  H    2.913869   4.492999   3.887074   2.165128   3.049014
    18  H    3.479224   4.908358   4.292946   2.165821   2.417858
    19  C    2.586702   4.422208   2.774246   3.074338   4.020012
    20  H    3.114866   5.147338   3.451179   3.077225   4.059671
    21  C    3.374118   4.983429   3.100307   4.033871   4.793641
    22  H    4.246884   5.992127   3.918860   4.641953   5.346455
    23  C    2.669395   3.077225   2.861224   4.020602   4.811592
    24  H    2.845703   2.446377   3.146550   4.276531   4.957837
    25  H    3.610225   4.059671   3.880647   4.811592   5.703443
    26  C    3.202798   3.560505   2.826480   4.586465   5.189356
    27  H    4.227276   4.209388   3.860525   5.652895   6.243555
    28  H    2.961399   2.984886   2.347200   4.386785   4.776734
                   11         12         13         14         15
    11  H    0.000000
    12  C    3.873498   0.000000
    13  H    4.954586   1.084557   0.000000
    14  C    3.444119   1.374660   2.121940   0.000000
    15  H    4.351836   2.133398   2.439149   1.083120   0.000000
    16  C    2.166259   2.504672   3.482372   1.496222   2.227555
    17  H    2.424825   3.110023   4.043275   2.126910   2.665688
    18  H    2.561434   3.315748   4.187854   2.134474   2.484848
    19  C    2.681477   4.661930   5.619761   4.643641   5.567783
    20  H    2.446377   4.983429   5.992127   4.657373   5.481838
    21  C    3.546595   5.689501   6.608720   5.851735   6.832560
    22  H    3.938963   6.608720   7.571820   6.641602   7.600450
    23  C    4.276531   4.033871   4.641953   4.661258   5.561389
    24  H    4.774330   3.546595   3.938963   4.413892   5.244873
    25  H    4.957837   4.793641   5.346455   5.290874   6.089186
    26  C    4.690225   5.020518   5.642082   5.744769   6.736603
    27  H    5.779235   5.809855   6.300119   6.629833   7.578851
    28  H    4.622378   4.728849   5.307279   5.592189   6.617644
                   16         17         18         19         20
    16  C    0.000000
    17  H    1.098310   0.000000
    18  H    1.093353   1.741709   0.000000
    19  C    3.789925   3.382891   4.616939   0.000000
    20  H    3.560505   2.984886   4.209388   1.082825   0.000000
    21  C    5.020518   4.728849   5.809855   1.390147   2.144338
    22  H    5.642082   5.307279   6.300119   2.136682   2.451160
    23  C    4.586465   4.386785   5.652895   2.472236   3.443958
    24  H    4.690225   4.622378   5.779235   3.418726   4.319710
    25  H    5.189356   4.776734   6.243555   2.754092   3.609881
    26  C    5.530601   5.471429   6.531595   2.900195   3.982979
    27  H    6.531595   6.432642   7.558226   3.837727   4.908358
    28  H    5.471429   5.630106   6.432642   3.447605   4.492999
                   21         22         23         24         25
    21  C    0.000000
    22  H    1.084557   0.000000
    23  C    2.827669   3.898862   0.000000
    24  H    3.873498   4.954586   1.091338   0.000000
    25  H    3.077473   4.043053   1.093542   1.755449   0.000000
    26  C    2.504672   3.482372   1.529944   2.166259   2.151509
    27  H    3.315748   4.187854   2.165821   2.561434   2.417858
    28  H    3.110023   4.043275   2.165128   2.424825   3.049014
                   26         27         28
    26  C    0.000000
    27  H    1.093353   0.000000
    28  H    1.098310   1.741709   0.000000
 Symmetry turned off by external request.
 Stoichiometry    C12H16
 Framework group  CI[X(C12H16)]
 Deg. of freedom    39
 Full point group                 CI      NOp   2
 Rotational constants (GHZ):           1.9815100           0.6443917           0.5539421
 Leave Link  202 at Tue Aug  4 18:12:03 2020, MaxMem=  6442450944 cpu:               0.3 elap:               0.1
 (Enter /scratch/scicomp/CentOS/7.3.1611/Haswell/software/Gaussian/g16/l301.exe)
 Standard basis: def2TZVP (6D, 10F)
 Ernie: Thresh=  0.10000D-02 Tol=  0.10000D-05 Strict=F.
   528 basis functions,   740 primitive gaussians,   528 cartesian basis functions
    44 alpha electrons       44 beta electrons
       nuclear repulsion energy       694.2658438604 Hartrees.
 IExCor= 4639 DFT=T Ex+Corr=wB97XD ExCW=0 ScaHFX=  1.000000
 ScaDFX=  1.000000  1.000000  1.000000  1.000000 ScalE2=  1.000000  1.000000
 IRadAn=      5 IRanWt=     -1 IRanGd=            0 ICorTp=0 IEmpDi=121
 HFx  wShort=  0.000000 wLong=  0.200000 cFull=  0.222036 cShort=  0.000000 cLong=  0.777964
 DFx  wShort=  0.000000 wLong=  0.200000 cFull=  0.000000 cShort=  0.000000 cLong=  1.000000
 NAtoms=   28 NActive=   28 NUniq=   28 SFac= 1.00D+00 NAtFMM=   60 NAOKFM=F Big=F
 Integral buffers will be    131072 words long.
 Raffenetti 2 integral format.
 Two-electron integral symmetry is turned off.
 R6Disp:  Grimme-D2 Dispersion energy=       -0.0228620695 Hartrees.
 Nuclear repulsion after empirical dispersion term =      694.2429817908 Hartrees.
 Using the following non-standard input for PCM:
 qrep pcmdoc geomview  nodis nocav g03defaults tsare=0.075
 Warning! Using old PCM defaults because the g03defaults keyword was found.
 These settings can be overridden by following keywords.
 nsfe=28
 NVESolv=36  SolvMW=84.1595   Rsolv=2.815
 eps=2.0165 RhoS=0.778099999999998
 --- end of non-standard input.
 Reading user-defined spheres from input:
 ISph  on   Nord    Re0     Alpha      Xe            Ye            Ze
 --- end of user-defined spheres data.
 ------------------------------------------------------------------------------
 Polarizable Continuum Model (PCM)
 =================================
 Model                : PCM.
 Atomic radii         : UA0 (Simple United Atom Topological Model).
 Polarization charges : Total charges.
 Charge compensation  : None.
 Solution method      : On-the-fly selection.
 Cavity type          : SES (Solvent Excluding Surface) (Alpha=1.000).
 Cavity algorithm     : GePol (RMin=0.200 OFac=0.890).
                        User-defined sphere list used, NSphG=   28.
                        Tesserae with average area of 0.075 Ang**2.
                        Smoothing algorithm: None.
                        Polarization charges: point-like.
                        Self-potential: constant (ISelfS= 1).
                        Self-field    : global E.n sum rule (ISelfD= 3).
 Solvent              : CycloHexane, Eps=   2.016500 Eps(inf)=   2.035188
                        RSolv=   2.815000 Ang.
 ------------------------------------------------------------------------------
 GePol: Number of generator spheres                  =      28
 GePol: Total number of spheres                      =     161
 GePol: Number of exposed spheres                    =     121 ( 75.16%)
 GePol: Number of tesserae                           =    4581
 GePol: Average area of tesserae                     =       0.05 Ang**2
 GePol: Minimum area of tessera                      =   0.10D-02 Ang**2
 GePol: Maximum area of tessera                      =    0.12524 Ang**2
 GePol: Number of small tesserae                     =       0
 GePol: Fraction of small tesserae (<1% of avg)      =       0.00%
 GePol: Total count of vertices                      =   16137
 GePol: Maximum number of vertices in a tessera      =       7
 GePol: Cavity surface area                          =    218.816 Ang**2
 GePol: Cavity volume                                =    245.283 Ang**3
 Leave Link  301 at Tue Aug  4 18:12:04 2020, MaxMem=  6442450944 cpu:               7.7 elap:               0.4
 (Enter /scratch/scicomp/CentOS/7.3.1611/Haswell/software/Gaussian/g16/l302.exe)
 NPDir=0 NMtPBC=     1 NCelOv=     1 NCel=       1 NClECP=     1 NCelD=      1
         NCelK=      1 NCelE2=     1 NClLst=     1 CellRange=     0.0.
 One-electron integrals computed using PRISM.
   1 Symmetry operations used in ECPInt.
 ECPInt:  NShTT=   19306 NPrTT=   56928 LenC2=   18534 LenP2D=   42298.
 LDataN:  DoStor=T MaxTD1= 6 Len=  172
 NBasis=   528 RedAO= T EigKep=  2.66D-05  NBF=   528
 NBsUse=   528 1.00D-06 EigRej= -1.00D+00 NBFU=   528
 Precomputing XC quadrature grid using
 IXCGrd= 4 IRadAn=           5 IRanWt=          -1 IRanGd=           0 AccXCQ= 0.00D+00.
 Generated NRdTot=       0 NPtTot=           0 NUsed=           0 NTot=          32
 NSgBfM=   526   526   526   526   526 MxSgAt=    28 MxSgA2=    28.
 Leave Link  302 at Tue Aug  4 18:12:04 2020, MaxMem=  6442450944 cpu:              13.3 elap:               0.6
 (Enter /scratch/scicomp/CentOS/7.3.1611/Haswell/software/Gaussian/g16/l303.exe)
 DipDrv:  MaxL=1.
 Leave Link  303 at Tue Aug  4 18:12:04 2020, MaxMem=  6442450944 cpu:               1.6 elap:               0.1
 (Enter /scratch/scicomp/CentOS/7.3.1611/Haswell/software/Gaussian/g16/l401.exe)
 ExpMin= 9.52D-02 ExpMax= 1.36D+04 ExpMxC= 4.63D+02 IAcc=3 IRadAn=         5 AccDes= 0.00D+00
 Harris functional with IExCor= 4639 and IRadAn=       5 diagonalized for initial guess.
 HarFok:  IExCor= 4639 AccDes= 0.00D+00 IRadAn=         5 IDoV= 1 UseB2=F ITyADJ=14
 ICtDFT=  3500011 ScaDFX=  1.000000  1.000000  1.000000  1.000000
 FoFCou: FMM=F IPFlag=           0 FMFlag=      100000 FMFlg1=           0
         NFxFlg=           0 DoJE=T BraDBF=F KetDBF=T FulRan=T
         wScrn=  0.000000 ICntrl=       500 IOpCl=  0 I1Cent=   200000004 NGrid=           0
         NMat0=    1 NMatS0=      1 NMatT0=    0 NMatD0=    1 NMtDS0=    0 NMtDT0=    0
 Symmetry not used in FoFCou.
 Harris En= -444.608809851819    
 JPrj=0 DoOrth=F DoCkMO=T.
 Mixing orbitals, IMix= 1 IMixAn=  0 NRI=1 NE=   44 Coef=  7.07106781D-01  7.07106781D-01
 Mixing orbitals, IMix= 1 IMixAn=  0 NRI=1 NE=   44 Coef= -7.07106781D-01  7.07106781D-01
 Initial guess <Sx>= 0.0000 <Sy>= 0.0000 <Sz>= 0.0000 <S**2>= 1.0000 S= 0.6180
 Leave Link  401 at Tue Aug  4 18:12:07 2020, MaxMem=  6442450944 cpu:              50.0 elap:               2.2
 (Enter /scratch/scicomp/CentOS/7.3.1611/Haswell/software/Gaussian/g16/l502.exe)
 Two-electron integral symmetry not used.
 UHF open shell SCF:
 Using DIIS extrapolation, IDIIS=  1040.
 NGot=  6442450944 LenX=  6441877030 LenY=  6441597718
 Requested convergence on RMS density matrix=1.00D-08 within 128 cycles.
 Requested convergence on MAX density matrix=1.00D-06.
 Requested convergence on             energy=1.00D-06.
 No special actions if energy rises.
 Fock matrices will be formed incrementally for  20 cycles.

 Cycle   1  Pass 1  IDiag  1:
 FoFJK:  IHMeth= 1 ICntrl=       0 DoSepK=T KAlg= 0 I1Cent=           0 FoldK=F
 IRaf=         1 NMat=       1 IRICut=       1 DoRegI=T DoRafI=F ISym2E= 0 IDoP0=0 IntGTp=1.
 FoFCou: FMM=F IPFlag=           0 FMFlag=      100000 FMFlg1=           0
         NFxFlg=           0 DoJE=T BraDBF=F KetDBF=F FulRan=T
         wScrn=  0.000000 ICntrl=       500 IOpCl=  0 I1Cent=           0 NGrid=           0
         NMat0=    1 NMatS0=      1 NMatT0=    0 NMatD0=    1 NMtDS0=    0 NMtDT0=    0
 Symmetry not used in FoFCou.
 Inv3:  Mode=1 IEnd=    62956683.
 Iteration    1 A*A^-1 deviation from unit magnitude is 4.22D-15 for   3413.
 Iteration    1 A*A^-1 deviation from orthogonality  is 1.89D-15 for   2437   1091.
 Iteration    1 A^-1*A deviation from unit magnitude is 3.33D-15 for   1134.
 Iteration    1 A^-1*A deviation from orthogonality  is 1.80D-15 for   4273   2442.
 E= -466.679645210158    
 DIIS: error= 6.20D-02 at cycle   1 NSaved=   1.
 NSaved= 1 IEnMin= 1 EnMin= -466.679645210158     IErMin= 1 ErrMin= 6.20D-02
 ErrMax= 6.20D-02  0.00D+00 EMaxC= 1.00D-01 BMatC= 4.11D+00 BMatP= 4.11D+00
 IDIUse=3 WtCom= 3.80D-01 WtEn= 6.20D-01
 Coeff-Com:  0.100D+01
 Coeff-En:   0.100D+01
 Coeff:      0.100D+01
 Gap=     0.231 Goal=   None    Shift=    0.000
 Gap=     0.231 Goal=   None    Shift=    0.000
 GapD=    0.231 DampG=1.000 DampE=0.500 DampFc=0.5000 IDamp=-1.
 Damping current iteration by 5.00D-01
 RMSDP=1.43D-03 MaxDP=9.25D-02              OVMax= 6.29D-02

 Cycle   2  Pass 1  IDiag  1:
 RMSU=  6.99D-04    CP:  9.76D-01
 E= -466.749896156196     Delta-E=       -0.070250946039 Rises=F Damp=T
 DIIS: error= 2.93D-02 at cycle   2 NSaved=   2.
 NSaved= 2 IEnMin= 2 EnMin= -466.749896156196     IErMin= 2 ErrMin= 2.93D-02
 ErrMax= 2.93D-02  0.00D+00 EMaxC= 1.00D-01 BMatC= 9.20D-01 BMatP= 4.11D+00
 IDIUse=3 WtCom= 7.07D-01 WtEn= 2.93D-01
 Coeff-Com: -0.863D+00 0.186D+01
 Coeff-En:   0.000D+00 0.100D+01
 Coeff:     -0.610D+00 0.161D+01
 Gap=     0.240 Goal=   None    Shift=    0.000
 Gap=     0.239 Goal=   None    Shift=    0.000
 RMSDP=8.79D-04 MaxDP=4.89D-02 DE=-7.03D-02 OVMax= 3.08D-02

 Cycle   3  Pass 1  IDiag  1:
 RMSU=  4.06D-04    CP:  9.48D-01  2.09D+00
 E= -466.818895814385     Delta-E=       -0.068999658188 Rises=F Damp=F
 DIIS: error= 2.47D-03 at cycle   3 NSaved=   3.
 NSaved= 3 IEnMin= 3 EnMin= -466.818895814385     IErMin= 3 ErrMin= 2.47D-03
 ErrMax= 2.47D-03  0.00D+00 EMaxC= 1.00D-01 BMatC= 1.63D-02 BMatP= 9.20D-01
 IDIUse=3 WtCom= 9.75D-01 WtEn= 2.47D-02
 Coeff-Com: -0.303D+00 0.656D+00 0.647D+00
 Coeff-En:   0.000D+00 0.000D+00 0.100D+01
 Coeff:     -0.296D+00 0.640D+00 0.656D+00
 Gap=     0.244 Goal=   None    Shift=    0.000
 Gap=     0.244 Goal=   None    Shift=    0.000
 RMSDP=1.05D-04 MaxDP=4.76D-03 DE=-6.90D-02 OVMax= 1.26D-02

 Cycle   4  Pass 1  IDiag  1:
 RMSU=  8.73D-05    CP:  9.46D-01  2.16D+00  9.21D-01
 E= -466.823127108545     Delta-E=       -0.004231294160 Rises=F Damp=F
 DIIS: error= 9.34D-04 at cycle   4 NSaved=   4.
 NSaved= 4 IEnMin= 4 EnMin= -466.823127108545     IErMin= 4 ErrMin= 9.34D-04
 ErrMax= 9.34D-04  0.00D+00 EMaxC= 1.00D-01 BMatC= 5.43D-04 BMatP= 1.63D-02
 IDIUse=3 WtCom= 9.91D-01 WtEn= 9.34D-03
 Coeff-Com:  0.117D+00-0.253D+00-0.148D+00 0.128D+01
 Coeff-En:   0.000D+00 0.000D+00 0.000D+00 0.100D+01
 Coeff:      0.116D+00-0.251D+00-0.146D+00 0.128D+01
 Gap=     0.249 Goal=   None    Shift=    0.000
 Gap=     0.249 Goal=   None    Shift=    0.000
 RMSDP=7.93D-05 MaxDP=4.69D-03 DE=-4.23D-03 OVMax= 1.24D-02

 Cycle   5  Pass 1  IDiag  1:
 RMSU=  3.24D-05    CP:  9.44D-01  2.20D+00  1.05D+00  1.46D+00
 E= -466.823778899965     Delta-E=       -0.000651791420 Rises=F Damp=F
 DIIS: error= 4.63D-04 at cycle   5 NSaved=   5.
 NSaved= 5 IEnMin= 5 EnMin= -466.823778899965     IErMin= 5 ErrMin= 4.63D-04
 ErrMax= 4.63D-04  0.00D+00 EMaxC= 1.00D-01 BMatC= 1.15D-04 BMatP= 5.43D-04
 IDIUse=3 WtCom= 9.95D-01 WtEn= 4.63D-03
 Coeff-Com:  0.289D-01-0.631D-01-0.662D-01-0.699D-01 0.117D+01
 Coeff-En:   0.000D+00 0.000D+00 0.000D+00 0.000D+00 0.100D+01
 Coeff:      0.288D-01-0.628D-01-0.659D-01-0.695D-01 0.117D+01
 Gap=     0.251 Goal=   None    Shift=    0.000
 Gap=     0.251 Goal=   None    Shift=    0.000
 RMSDP=2.98D-05 MaxDP=1.61D-03 DE=-6.52D-04 OVMax= 6.63D-03

 Cycle   6  Pass 1  IDiag  1:
 RMSU=  1.30D-05    CP:  9.44D-01  2.20D+00  1.08D+00  1.63D+00  1.57D+00
 E= -466.823920080893     Delta-E=       -0.000141180928 Rises=F Damp=F
 DIIS: error= 2.07D-04 at cycle   6 NSaved=   6.
 NSaved= 6 IEnMin= 6 EnMin= -466.823920080893     IErMin= 6 ErrMin= 2.07D-04
 ErrMax= 2.07D-04  0.00D+00 EMaxC= 1.00D-01 BMatC= 3.92D-05 BMatP= 1.15D-04
 IDIUse=3 WtCom= 9.98D-01 WtEn= 2.07D-03
 Coeff-Com: -0.236D-01 0.507D-01 0.177D-01-0.410D+00 0.452D+00 0.914D+00
 Coeff-En:   0.000D+00 0.000D+00 0.000D+00 0.000D+00 0.000D+00 0.100D+01
 Coeff:     -0.235D-01 0.506D-01 0.177D-01-0.409D+00 0.451D+00 0.914D+00
 Gap=     0.252 Goal=   None    Shift=    0.000
 Gap=     0.252 Goal=   None    Shift=    0.000
 RMSDP=1.43D-05 MaxDP=1.06D-03 DE=-1.41D-04 OVMax= 3.96D-03

 Cycle   7  Pass 1  IDiag  1:
 RMSU=  7.10D-06    CP:  9.44D-01  2.20D+00  1.08D+00  1.69D+00  1.89D+00
                    CP:  1.31D+00
 E= -466.823953144864     Delta-E=       -0.000033063971 Rises=F Damp=F
 DIIS: error= 6.67D-05 at cycle   7 NSaved=   7.
 NSaved= 7 IEnMin= 7 EnMin= -466.823953144864     IErMin= 7 ErrMin= 6.67D-05
 ErrMax= 6.67D-05  0.00D+00 EMaxC= 1.00D-01 BMatC= 2.85D-06 BMatP= 3.92D-05
 IDIUse=1 WtCom= 1.00D+00 WtEn= 0.00D+00
 Coeff-Com: -0.807D-02 0.175D-01 0.109D-01-0.703D-01-0.526D-01 0.175D+00
 Coeff-Com:  0.928D+00
 Coeff:     -0.807D-02 0.175D-01 0.109D-01-0.703D-01-0.526D-01 0.175D+00
 Coeff:      0.928D+00
 Gap=     0.253 Goal=   None    Shift=    0.000
 Gap=     0.253 Goal=   None    Shift=    0.000
 RMSDP=4.90D-06 MaxDP=3.39D-04 DE=-3.31D-05 OVMax= 1.04D-03

 Cycle   8  Pass 1  IDiag  1:
 RMSU=  2.33D-06    CP:  9.44D-01  2.20D+00  1.08D+00  1.69D+00  1.95D+00
                    CP:  1.52D+00  1.22D+00
 E= -466.823955627239     Delta-E=       -0.000002482375 Rises=F Damp=F
 DIIS: error= 3.43D-05 at cycle   8 NSaved=   8.
 NSaved= 8 IEnMin= 8 EnMin= -466.823955627239     IErMin= 8 ErrMin= 3.43D-05
 ErrMax= 3.43D-05  0.00D+00 EMaxC= 1.00D-01 BMatC= 5.13D-07 BMatP= 2.85D-06
 IDIUse=1 WtCom= 1.00D+00 WtEn= 0.00D+00
 Coeff-Com:  0.906D-03-0.194D-02 0.818D-03 0.378D-01-0.815D-01-0.813D-01
 Coeff-Com:  0.269D+00 0.856D+00
 Coeff:      0.906D-03-0.194D-02 0.818D-03 0.378D-01-0.815D-01-0.813D-01
 Coeff:      0.269D+00 0.856D+00
 Gap=     0.253 Goal=   None    Shift=    0.000
 Gap=     0.253 Goal=   None    Shift=    0.000
 RMSDP=2.06D-06 MaxDP=1.16D-04 DE=-2.48D-06 OVMax= 4.78D-04

 Cycle   9  Pass 1  IDiag  1:
 RMSU=  1.01D-06    CP:  9.44D-01  2.20D+00  1.08D+00  1.68D+00  1.95D+00
                    CP:  1.57D+00  1.39D+00  1.28D+00
 E= -466.823955995396     Delta-E=       -0.000000368156 Rises=F Damp=F
 DIIS: error= 1.52D-05 at cycle   9 NSaved=   9.
 NSaved= 9 IEnMin= 9 EnMin= -466.823955995396     IErMin= 9 ErrMin= 1.52D-05
 ErrMax= 1.52D-05  0.00D+00 EMaxC= 1.00D-01 BMatC= 6.98D-08 BMatP= 5.13D-07
 IDIUse=1 WtCom= 1.00D+00 WtEn= 0.00D+00
 Coeff-Com:  0.147D-02-0.319D-02-0.139D-02 0.213D-01-0.170D-01-0.493D-01
 Coeff-Com: -0.464D-01 0.262D+00 0.832D+00
 Coeff:      0.147D-02-0.319D-02-0.139D-02 0.213D-01-0.170D-01-0.493D-01
 Coeff:     -0.464D-01 0.262D+00 0.832D+00
 Gap=     0.253 Goal=   None    Shift=    0.000
 Gap=     0.253 Goal=   None    Shift=    0.000
 RMSDP=8.19D-07 MaxDP=4.77D-05 DE=-3.68D-07 OVMax= 1.96D-04

 Cycle  10  Pass 1  IDiag  1:
 RMSU=  3.11D-07    CP:  9.44D-01  2.20D+00  1.07D+00  1.68D+00  1.94D+00
                    CP:  1.58D+00  1.44D+00  1.48D+00  1.27D+00
 E= -466.823956046056     Delta-E=       -0.000000050660 Rises=F Damp=F
 DIIS: error= 5.56D-06 at cycle  10 NSaved=  10.
 NSaved=10 IEnMin=10 EnMin= -466.823956046056     IErMin=10 ErrMin= 5.56D-06
 ErrMax= 5.56D-06  0.00D+00 EMaxC= 1.00D-01 BMatC= 6.15D-09 BMatP= 6.98D-08
 IDIUse=1 WtCom= 1.00D+00 WtEn= 0.00D+00
 Coeff-Com: -0.106D-03 0.229D-03-0.103D-03-0.447D-02 0.931D-02 0.939D-02
 Coeff-Com: -0.305D-01-0.985D-01 0.135D-01 0.110D+01
 Coeff:     -0.106D-03 0.229D-03-0.103D-03-0.447D-02 0.931D-02 0.939D-02
 Coeff:     -0.305D-01-0.985D-01 0.135D-01 0.110D+01
 Gap=     0.253 Goal=   None    Shift=    0.000
 Gap=     0.253 Goal=   None    Shift=    0.000
 RMSDP=4.13D-07 MaxDP=3.27D-05 DE=-5.07D-08 OVMax= 9.32D-05

 Cycle  11  Pass 1  IDiag  1:
 RMSU=  1.24D-07    CP:  9.44D-01  2.20D+00  1.07D+00  1.68D+00  1.94D+00
                    CP:  1.58D+00  1.46D+00  1.57D+00  1.51D+00  1.41D+00
 E= -466.823956053068     Delta-E=       -0.000000007013 Rises=F Damp=F
 DIIS: error= 1.50D-06 at cycle  11 NSaved=  11.
 NSaved=11 IEnMin=11 EnMin= -466.823956053068     IErMin=11 ErrMin= 1.50D-06
 ErrMax= 1.50D-06  0.00D+00 EMaxC= 1.00D-01 BMatC= 1.65D-09 BMatP= 6.15D-09
 IDIUse=1 WtCom= 1.00D+00 WtEn= 0.00D+00
 Coeff-Com: -0.254D-03 0.551D-03 0.155D-03-0.487D-02 0.603D-02 0.110D-01
 Coeff-Com: -0.429D-02-0.751D-01-0.116D+00 0.423D+00 0.759D+00
 Coeff:     -0.254D-03 0.551D-03 0.155D-03-0.487D-02 0.603D-02 0.110D-01
 Coeff:     -0.429D-02-0.751D-01-0.116D+00 0.423D+00 0.759D+00
 Gap=     0.253 Goal=   None    Shift=    0.000
 Gap=     0.253 Goal=   None    Shift=    0.000
 RMSDP=1.24D-07 MaxDP=1.01D-05 DE=-7.01D-09 OVMax= 2.57D-05

 Cycle  12  Pass 1  IDiag  1:
 RMSU=  4.76D-08    CP:  9.44D-01  2.20D+00  1.07D+00  1.68D+00  1.94D+00
                    CP:  1.58D+00  1.46D+00  1.59D+00  1.57D+00  1.59D+00
                    CP:  1.31D+00
 E= -466.823956054007     Delta-E=       -0.000000000938 Rises=F Damp=F
 DIIS: error= 3.62D-07 at cycle  12 NSaved=  12.
 NSaved=12 IEnMin=12 EnMin= -466.823956054007     IErMin=12 ErrMin= 3.62D-07
 ErrMax= 3.62D-07  0.00D+00 EMaxC= 1.00D-01 BMatC= 1.24D-10 BMatP= 1.65D-09
 IDIUse=1 WtCom= 1.00D+00 WtEn= 0.00D+00
 Coeff-Com: -0.232D-05 0.457D-05 0.202D-04 0.235D-03-0.760D-03-0.384D-03
 Coeff-Com:  0.334D-02 0.753D-02-0.782D-02-0.106D+00 0.549D-01 0.105D+01
 Coeff:     -0.232D-05 0.457D-05 0.202D-04 0.235D-03-0.760D-03-0.384D-03
 Coeff:      0.334D-02 0.753D-02-0.782D-02-0.106D+00 0.549D-01 0.105D+01
 Gap=     0.253 Goal=   None    Shift=    0.000
 Gap=     0.253 Goal=   None    Shift=    0.000
 RMSDP=4.97D-08 MaxDP=3.45D-06 DE=-9.38D-10 OVMax= 8.66D-06

 Cycle  13  Pass 1  IDiag  1:
 RMSU=  1.73D-08    CP:  9.44D-01  2.20D+00  1.07D+00  1.68D+00  1.94D+00
                    CP:  1.57D+00  1.46D+00  1.59D+00  1.58D+00  1.66D+00
                    CP:  1.57D+00  1.35D+00
 E= -466.823956054132     Delta-E=       -0.000000000125 Rises=F Damp=F
 DIIS: error= 1.39D-07 at cycle  13 NSaved=  13.
 NSaved=13 IEnMin=13 EnMin= -466.823956054132     IErMin=13 ErrMin= 1.39D-07
 ErrMax= 1.39D-07  0.00D+00 EMaxC= 1.00D-01 BMatC= 2.80D-11 BMatP= 1.24D-10
 IDIUse=1 WtCom= 1.00D+00 WtEn= 0.00D+00
 Coeff-Com:  0.400D-04-0.865D-04-0.191D-04 0.824D-03-0.116D-02-0.180D-02
 Coeff-Com:  0.170D-02 0.137D-01 0.165D-01-0.958D-01-0.110D+00 0.257D+00
 Coeff-Com:  0.919D+00
 Coeff:      0.400D-04-0.865D-04-0.191D-04 0.824D-03-0.116D-02-0.180D-02
 Coeff:      0.170D-02 0.137D-01 0.165D-01-0.958D-01-0.110D+00 0.257D+00
 Coeff:      0.919D+00
 Gap=     0.253 Goal=   None    Shift=    0.000
 Gap=     0.253 Goal=   None    Shift=    0.000
 RMSDP=1.85D-08 MaxDP=9.33D-07 DE=-1.25D-10 OVMax= 3.10D-06

 Cycle  14  Pass 1  IDiag  1:
 RMSU=  6.96D-09    CP:  9.44D-01  2.20D+00  1.07D+00  1.68D+00  1.94D+00
                    CP:  1.57D+00  1.46D+00  1.58D+00  1.59D+00  1.67D+00
                    CP:  1.66D+00  1.54D+00  1.27D+00
 E= -466.823956054156     Delta-E=       -0.000000000024 Rises=F Damp=F
 DIIS: error= 6.71D-08 at cycle  14 NSaved=  14.
 NSaved=14 IEnMin=14 EnMin= -466.823956054156     IErMin=14 ErrMin= 6.71D-08
 ErrMax= 6.71D-08  0.00D+00 EMaxC= 1.00D-01 BMatC= 4.76D-12 BMatP= 2.80D-11
 IDIUse=1 WtCom= 1.00D+00 WtEn= 0.00D+00
 Coeff-Com:  0.792D-05-0.171D-04-0.477D-05 0.137D-03-0.140D-03-0.326D-03
 Coeff-Com: -0.874D-04 0.174D-02 0.518D-02-0.596D-02-0.321D-01-0.946D-01
 Coeff-Com:  0.212D+00 0.914D+00
 Coeff:      0.792D-05-0.171D-04-0.477D-05 0.137D-03-0.140D-03-0.326D-03
 Coeff:     -0.874D-04 0.174D-02 0.518D-02-0.596D-02-0.321D-01-0.946D-01
 Coeff:      0.212D+00 0.914D+00
 Gap=     0.253 Goal=   None    Shift=    0.000
 Gap=     0.253 Goal=   None    Shift=    0.000
 RMSDP=5.61D-09 MaxDP=2.41D-07 DE=-2.38D-11 OVMax= 1.30D-06

 Error on total polarization charges =  0.01104
 SCF Done:  E(UwB97XD) =  -466.823956054     A.U. after   14 cycles
            NFock= 14  Conv=0.56D-08     -V/T= 2.0061
 <Sx>= 0.0000 <Sy>= 0.0000 <Sz>= 0.0000 <S**2>= 1.0407 S= 0.6361
 <L.S>=  0.00000000000    
 KE= 4.639749732639D+02 PE=-2.470179529808D+03 EE= 8.451376186995D+02
 --------------------------------------------------------------------
 Variational PCM results
 =======================
 <psi(f)|   H    |psi(f)>                     (a.u.) =    -466.831684
 <psi(f)|H+V(f)/2|psi(f)>                     (a.u.) =    -466.832913
 Total free energy in solution:
 - with all non electrostatic terms           (a.u.) =    -466.823956
 --------------------------------------------------------------------
 (Polarized solute)-Solvent               (kcal/mol) =      -0.77
 --------------------------------------------------------------------
 Quantum repulsion energy                 (kcal/mol) =       5.62
 Total non electrostatic                  (kcal/mol) =       5.62
 --------------------------------------------------------------------
 Partition over spheres:
 Sphere  on Atom  Surface  Charge   GEl     GCav    GDR
    1               7.78   0.011   -0.04    0.00    0.00
    2               0.20   0.000   -0.00    0.00    0.00
    3               7.51  -0.010   -0.04    0.00    0.00
    4               3.82  -0.004   -0.01    0.00    0.00
    5               4.35   0.007   -0.04    0.00    0.00
    6               0.18  -0.000   -0.00    0.00    0.00
    7               5.48  -0.008   -0.03    0.00    0.00
    8               3.65  -0.004   -0.01    0.00    0.00
    9               3.38   0.002   -0.00    0.00    0.00
   10               5.96  -0.005   -0.01    0.00    0.00
   11               4.99  -0.004   -0.01    0.00    0.00
   12               6.86   0.011   -0.06    0.00    0.00
   13               7.51  -0.010   -0.03    0.00    0.00
   14               7.24   0.010   -0.04    0.00    0.00
   15               7.51  -0.010   -0.04    0.00    0.00
   16               3.75   0.002    0.00    0.00    0.00
   17               4.86  -0.004   -0.02    0.00    0.00
   18               7.46  -0.008   -0.03    0.00    0.00
   19               4.80   0.008   -0.04    0.00    0.00
   20               5.17  -0.007   -0.03    0.00    0.00
   21               6.68   0.011   -0.06    0.00    0.00
   22               7.51  -0.010   -0.03    0.00    0.00
   23               3.04   0.002   -0.00    0.00    0.00
   24               4.15  -0.003   -0.01    0.00    0.00
   25               7.14  -0.006   -0.01    0.00    0.00
   26               3.75   0.002    0.00    0.00    0.00
   27               7.46  -0.008   -0.03    0.00    0.00
   28               4.63  -0.005   -0.02    0.00    0.00
 Added spheres:    72.00   0.027   -0.17    0.00    0.00
 --------------------------------------------------------------------
 After PCM corrections, the energy is  -466.823956054     a.u.
 --------------------------------------------------------------------
 Annihilation of the first spin contaminant:
 S**2 before annihilation     1.0407,   after     0.5292
 Leave Link  502 at Tue Aug  4 18:16:38 2020, MaxMem=  6442450944 cpu:            6454.7 elap:             271.6
 (Enter /scratch/scicomp/CentOS/7.3.1611/Haswell/software/Gaussian/g16/l601.exe)
 Copying SCF densities to generalized density rwf, IOpCl= 1 IROHF=0.

 **********************************************************************

            Population analysis using the SCF Density.

 **********************************************************************

 Alpha  occ. eigenvalues --  -10.29448 -10.29294 -10.28619 -10.28369 -10.28233
 Alpha  occ. eigenvalues --  -10.28190 -10.27991 -10.27919 -10.27755 -10.27732
 Alpha  occ. eigenvalues --  -10.27672 -10.27641  -0.94950  -0.92554  -0.85328
 Alpha  occ. eigenvalues --   -0.84362  -0.83409  -0.81048  -0.70981  -0.70378
 Alpha  occ. eigenvalues --   -0.69147  -0.67456  -0.59837  -0.59006  -0.58491
 Alpha  occ. eigenvalues --   -0.56131  -0.53383  -0.52527  -0.50573  -0.48990
 Alpha  occ. eigenvalues --   -0.48678  -0.48159  -0.47963  -0.47138  -0.46070
 Alpha  occ. eigenvalues --   -0.44593  -0.41339  -0.40704  -0.39838  -0.39044
 Alpha  occ. eigenvalues --   -0.37837  -0.37004  -0.34168  -0.24968
 Alpha virt. eigenvalues --    0.00316   0.10579   0.11457   0.13408   0.14059
 Alpha virt. eigenvalues --    0.14736   0.15603   0.16420   0.17058   0.17332
 Alpha virt. eigenvalues --    0.17876   0.18122   0.19406   0.20960   0.21244
 Alpha virt. eigenvalues --    0.22265   0.22944   0.23318   0.24184   0.24785
 Alpha virt. eigenvalues --    0.25723   0.25970   0.26944   0.27223   0.27503
 Alpha virt. eigenvalues --    0.29155   0.29552   0.30230   0.31203   0.32097
 Alpha virt. eigenvalues --    0.32174   0.32591   0.32817   0.33102   0.34414
 Alpha virt. eigenvalues --    0.34649   0.36142   0.36696   0.37331   0.37839
 Alpha virt. eigenvalues --    0.38509   0.38970   0.41589   0.41839   0.42441
 Alpha virt. eigenvalues --    0.44009   0.44448   0.45853   0.46131   0.46634
 Alpha virt. eigenvalues --    0.47052   0.47325   0.48406   0.49047   0.49182
 Alpha virt. eigenvalues --    0.49400   0.49836   0.50017   0.50684   0.51183
 Alpha virt. eigenvalues --    0.51638   0.51814   0.51968   0.53000   0.53526
 Alpha virt. eigenvalues --    0.53631   0.54639   0.54828   0.55548   0.56124
 Alpha virt. eigenvalues --    0.56636   0.57225   0.58141   0.58718   0.58992
 Alpha virt. eigenvalues --    0.59188   0.61374   0.61891   0.64381   0.66086
 Alpha virt. eigenvalues --    0.66887   0.67879   0.68188   0.69461   0.69886
 Alpha virt. eigenvalues --    0.71010   0.71903   0.75190   0.75615   0.75804
 Alpha virt. eigenvalues --    0.79350   0.79419   0.80213   0.81973   0.82461
 Alpha virt. eigenvalues --    0.83498   0.84603   0.87252   0.87668   0.88667
 Alpha virt. eigenvalues --    0.90196   0.90838   0.92316   0.94225   0.95205
 Alpha virt. eigenvalues --    0.96534   0.97927   0.97982   0.99340   0.99907
 Alpha virt. eigenvalues --    1.01971   1.02120   1.04262   1.05065   1.05868
 Alpha virt. eigenvalues --    1.07325   1.08942   1.10067   1.10507   1.10804
 Alpha virt. eigenvalues --    1.12150   1.14473   1.15975   1.17155   1.17655
 Alpha virt. eigenvalues --    1.18746   1.19252   1.19822   1.20035   1.20964
 Alpha virt. eigenvalues --    1.22050   1.23769   1.25298   1.26040   1.26897
 Alpha virt. eigenvalues --    1.27202   1.28230   1.28934   1.29604   1.29696
 Alpha virt. eigenvalues --    1.30675   1.31235   1.33510   1.33899   1.34973
 Alpha virt. eigenvalues --    1.35562   1.36733   1.37076   1.38442   1.38961
 Alpha virt. eigenvalues --    1.39263   1.39534   1.40364   1.41409   1.42349
 Alpha virt. eigenvalues --    1.43267   1.43286   1.44611   1.45478   1.46403
 Alpha virt. eigenvalues --    1.46777   1.47863   1.47992   1.50493   1.50931
 Alpha virt. eigenvalues --    1.51966   1.54137   1.54249   1.57530   1.57829
 Alpha virt. eigenvalues --    1.59396   1.60543   1.61656   1.62389   1.63645
 Alpha virt. eigenvalues --    1.67173   1.67410   1.68574   1.69554   1.70176
 Alpha virt. eigenvalues --    1.73782   1.74210   1.77065   1.78140   1.78723
 Alpha virt. eigenvalues --    1.80669   1.81452   1.83495   1.85212   1.87652
 Alpha virt. eigenvalues --    1.88722   1.90950   1.91881   1.92346   1.94587
 Alpha virt. eigenvalues --    1.97174   1.98704   2.01882   2.05196   2.07116
 Alpha virt. eigenvalues --    2.07844   2.08180   2.08738   2.11910   2.12405
 Alpha virt. eigenvalues --    2.13531   2.13939   2.16632   2.18214   2.18472
 Alpha virt. eigenvalues --    2.19214   2.19842   2.20673   2.22368   2.24174
 Alpha virt. eigenvalues --    2.26228   2.27040   2.29044   2.31975   2.32579
 Alpha virt. eigenvalues --    2.35224   2.36768   2.37622   2.40245   2.42430
 Alpha virt. eigenvalues --    2.45879   2.46648   2.47003   2.48750   2.50378
 Alpha virt. eigenvalues --    2.51003   2.54389   2.55450   2.56342   2.57578
 Alpha virt. eigenvalues --    2.57816   2.60622   2.60957   2.63143   2.63375
 Alpha virt. eigenvalues --    2.64602   2.64993   2.67293   2.67872   2.68628
 Alpha virt. eigenvalues --    2.69361   2.70971   2.72202   2.73022   2.73232
 Alpha virt. eigenvalues --    2.74312   2.75070   2.76300   2.77856   2.80152
 Alpha virt. eigenvalues --    2.80355   2.82108   2.82209   2.82424   2.82844
 Alpha virt. eigenvalues --    2.83677   2.85475   2.86654   2.86723   2.87751
 Alpha virt. eigenvalues --    2.88032   2.88382   2.89629   2.90202   2.90952
 Alpha virt. eigenvalues --    2.93477   2.93857   2.94516   2.95907   2.96915
 Alpha virt. eigenvalues --    2.99108   3.00620   3.01130   3.02598   3.03804
 Alpha virt. eigenvalues --    3.06369   3.06443   3.06838   3.07538   3.08173
 Alpha virt. eigenvalues --    3.10144   3.10471   3.11239   3.12312   3.12679
 Alpha virt. eigenvalues --    3.13010   3.14215   3.15382   3.15646   3.16209
 Alpha virt. eigenvalues --    3.16437   3.17006   3.17328   3.19533   3.20224
 Alpha virt. eigenvalues --    3.20895   3.21200   3.21815   3.23014   3.23950
 Alpha virt. eigenvalues --    3.24727   3.25163   3.25666   3.25840   3.26532
 Alpha virt. eigenvalues --    3.27421   3.28235   3.29252   3.31402   3.31614
 Alpha virt. eigenvalues --    3.32340   3.32727   3.33029   3.34700   3.35544
 Alpha virt. eigenvalues --    3.36361   3.36962   3.38328   3.38364   3.39865
 Alpha virt. eigenvalues --    3.40074   3.41196   3.41403   3.42242   3.43065
 Alpha virt. eigenvalues --    3.43912   3.44597   3.46246   3.46609   3.49032
 Alpha virt. eigenvalues --    3.49563   3.50495   3.51153   3.51389   3.52037
 Alpha virt. eigenvalues --    3.53084   3.54394   3.55162   3.56216   3.57058
 Alpha virt. eigenvalues --    3.57786   3.58411   3.59298   3.60592   3.61762
 Alpha virt. eigenvalues --    3.63043   3.63121   3.63553   3.65305   3.65548
 Alpha virt. eigenvalues --    3.67866   3.69633   3.71745   3.72643   3.72969
 Alpha virt. eigenvalues --    3.73929   3.78198   3.78701   3.79600   3.81105
 Alpha virt. eigenvalues --    3.82985   3.83277   3.83693   3.84624   3.85098
 Alpha virt. eigenvalues --    3.88499   3.89818   3.90499   3.92098   3.94598
 Alpha virt. eigenvalues --    3.95587   3.96218   3.96246   3.98659   4.02594
 Alpha virt. eigenvalues --    4.04359   4.05696   4.07778   4.09467   4.09569
 Alpha virt. eigenvalues --    4.11249   4.12689   4.13302   4.15490   4.17403
 Alpha virt. eigenvalues --    4.18613   4.20608   4.21916   4.23742   4.24782
 Alpha virt. eigenvalues --    4.24986   4.26852   4.28060   4.28613   4.29192
 Alpha virt. eigenvalues --    4.29632   4.35470   4.38848   4.39451   4.39794
 Alpha virt. eigenvalues --    4.41377   4.42763   4.44227   4.46142   4.49634
 Alpha virt. eigenvalues --    4.52453   4.54428   4.55938   4.57144   4.57411
 Alpha virt. eigenvalues --    4.58442   4.62270   4.63443   4.64054   4.68038
 Alpha virt. eigenvalues --    4.69053   4.69621   4.73212   4.74457   4.77351
 Alpha virt. eigenvalues --    4.79917   4.81692   4.84096   4.88819   4.89191
 Alpha virt. eigenvalues --    4.91822   4.91945   4.94968   4.96174   4.98073
 Alpha virt. eigenvalues --    5.01322   5.06105   5.07117   5.11384   5.13100
 Alpha virt. eigenvalues --    5.19951   5.22282   5.25244   5.25846   5.28885
 Alpha virt. eigenvalues --    5.32726   5.35765   5.37229   5.38305   5.40227
 Alpha virt. eigenvalues --    5.41282   5.45170   5.51505   5.53184   5.55798
 Alpha virt. eigenvalues --    5.62729   5.72056   5.73731   5.80567   5.81681
 Alpha virt. eigenvalues --    7.94421   7.95296   8.02912   8.04821   8.08240
 Alpha virt. eigenvalues --    8.10798   8.11759   8.16012   8.16650   8.22968
 Alpha virt. eigenvalues --    8.33302   8.36849  34.75324  34.75932  34.81936
 Alpha virt. eigenvalues --   34.82696  34.86172  34.88879  34.98668  35.00366
 Alpha virt. eigenvalues --   35.01527  35.04289  35.16912  35.22952
  Beta  occ. eigenvalues --  -10.29449 -10.29293 -10.28620 -10.28369 -10.28235
  Beta  occ. eigenvalues --  -10.28187 -10.27991 -10.27919 -10.27752 -10.27735
  Beta  occ. eigenvalues --  -10.27673 -10.27641  -0.94949  -0.92555  -0.85328
  Beta  occ. eigenvalues --   -0.84362  -0.83410  -0.81048  -0.70982  -0.70377
  Beta  occ. eigenvalues --   -0.69148  -0.67456  -0.59837  -0.59006  -0.58491
  Beta  occ. eigenvalues --   -0.56131  -0.53382  -0.52528  -0.50573  -0.48990
  Beta  occ. eigenvalues --   -0.48678  -0.48159  -0.47963  -0.47138  -0.46070
  Beta  occ. eigenvalues --   -0.44593  -0.41340  -0.40704  -0.39838  -0.39045
  Beta  occ. eigenvalues --   -0.37837  -0.37004  -0.34168  -0.24968
  Beta virt. eigenvalues --    0.00315   0.10579   0.11454   0.13408   0.14054
  Beta virt. eigenvalues --    0.14738   0.15605   0.16420   0.17059   0.17333
  Beta virt. eigenvalues --    0.17877   0.18120   0.19407   0.20960   0.21245
  Beta virt. eigenvalues --    0.22268   0.22942   0.23317   0.24184   0.24785
  Beta virt. eigenvalues --    0.25723   0.25971   0.26944   0.27223   0.27503
  Beta virt. eigenvalues --    0.29154   0.29552   0.30230   0.31203   0.32097
  Beta virt. eigenvalues --    0.32174   0.32591   0.32817   0.33103   0.34415
  Beta virt. eigenvalues --    0.34649   0.36144   0.36695   0.37331   0.37839
  Beta virt. eigenvalues --    0.38508   0.38969   0.41593   0.41834   0.42441
  Beta virt. eigenvalues --    0.44009   0.44449   0.45852   0.46131   0.46633
  Beta virt. eigenvalues --    0.47052   0.47325   0.48406   0.49047   0.49182
  Beta virt. eigenvalues --    0.49400   0.49837   0.50017   0.50684   0.51184
  Beta virt. eigenvalues --    0.51640   0.51811   0.51969   0.53000   0.53527
  Beta virt. eigenvalues --    0.53630   0.54640   0.54828   0.55547   0.56124
  Beta virt. eigenvalues --    0.56636   0.57225   0.58141   0.58718   0.58992
  Beta virt. eigenvalues --    0.59187   0.61374   0.61891   0.64382   0.66086
  Beta virt. eigenvalues --    0.66887   0.67879   0.68188   0.69461   0.69886
  Beta virt. eigenvalues --    0.71010   0.71903   0.75190   0.75615   0.75804
  Beta virt. eigenvalues --    0.79349   0.79421   0.80213   0.81973   0.82461
  Beta virt. eigenvalues --    0.83498   0.84604   0.87252   0.87668   0.88666
  Beta virt. eigenvalues --    0.90197   0.90837   0.92316   0.94225   0.95205
  Beta virt. eigenvalues --    0.96534   0.97927   0.97982   0.99340   0.99907
  Beta virt. eigenvalues --    1.01969   1.02123   1.04261   1.05066   1.05868
  Beta virt. eigenvalues --    1.07326   1.08941   1.10068   1.10507   1.10803
  Beta virt. eigenvalues --    1.12150   1.14473   1.15975   1.17156   1.17654
  Beta virt. eigenvalues --    1.18746   1.19252   1.19822   1.20035   1.20964
  Beta virt. eigenvalues --    1.22050   1.23768   1.25298   1.26040   1.26897
  Beta virt. eigenvalues --    1.27202   1.28230   1.28933   1.29603   1.29697
  Beta virt. eigenvalues --    1.30674   1.31235   1.33510   1.33898   1.34974
  Beta virt. eigenvalues --    1.35562   1.36733   1.37076   1.38442   1.38962
  Beta virt. eigenvalues --    1.39263   1.39534   1.40363   1.41409   1.42349
  Beta virt. eigenvalues --    1.43266   1.43287   1.44612   1.45479   1.46403
  Beta virt. eigenvalues --    1.46777   1.47863   1.47992   1.50492   1.50931
  Beta virt. eigenvalues --    1.51966   1.54137   1.54250   1.57530   1.57829
  Beta virt. eigenvalues --    1.59396   1.60543   1.61656   1.62389   1.63645
  Beta virt. eigenvalues --    1.67173   1.67410   1.68573   1.69554   1.70176
  Beta virt. eigenvalues --    1.73782   1.74210   1.77064   1.78140   1.78723
  Beta virt. eigenvalues --    1.80669   1.81452   1.83495   1.85212   1.87652
  Beta virt. eigenvalues --    1.88722   1.90949   1.91881   1.92346   1.94587
  Beta virt. eigenvalues --    1.97174   1.98704   2.01882   2.05196   2.07116
  Beta virt. eigenvalues --    2.07844   2.08180   2.08738   2.11910   2.12405
  Beta virt. eigenvalues --    2.13531   2.13939   2.16632   2.18215   2.18472
  Beta virt. eigenvalues --    2.19213   2.19842   2.20672   2.22368   2.24174
  Beta virt. eigenvalues --    2.26228   2.27040   2.29044   2.31975   2.32579
  Beta virt. eigenvalues --    2.35224   2.36768   2.37622   2.40245   2.42430
  Beta virt. eigenvalues --    2.45879   2.46648   2.47003   2.48750   2.50378
  Beta virt. eigenvalues --    2.51003   2.54389   2.55450   2.56342   2.57578
  Beta virt. eigenvalues --    2.57816   2.60622   2.60957   2.63143   2.63375
  Beta virt. eigenvalues --    2.64602   2.64993   2.67293   2.67872   2.68628
  Beta virt. eigenvalues --    2.69361   2.70971   2.72202   2.73022   2.73232
  Beta virt. eigenvalues --    2.74312   2.75070   2.76300   2.77856   2.80151
  Beta virt. eigenvalues --    2.80355   2.82108   2.82209   2.82424   2.82844
  Beta virt. eigenvalues --    2.83677   2.85475   2.86654   2.86723   2.87751
  Beta virt. eigenvalues --    2.88032   2.88382   2.89629   2.90202   2.90952
  Beta virt. eigenvalues --    2.93477   2.93857   2.94516   2.95907   2.96915
  Beta virt. eigenvalues --    2.99108   3.00620   3.01130   3.02598   3.03804
  Beta virt. eigenvalues --    3.06369   3.06443   3.06838   3.07538   3.08173
  Beta virt. eigenvalues --    3.10144   3.10470   3.11239   3.12311   3.12679
  Beta virt. eigenvalues --    3.13010   3.14215   3.15382   3.15646   3.16209
  Beta virt. eigenvalues --    3.16438   3.17006   3.17328   3.19533   3.20224
  Beta virt. eigenvalues --    3.20895   3.21200   3.21815   3.23015   3.23949
  Beta virt. eigenvalues --    3.24728   3.25163   3.25665   3.25841   3.26532
  Beta virt. eigenvalues --    3.27421   3.28235   3.29252   3.31402   3.31614
  Beta virt. eigenvalues --    3.32340   3.32726   3.33030   3.34700   3.35544
  Beta virt. eigenvalues --    3.36361   3.36962   3.38328   3.38363   3.39865
  Beta virt. eigenvalues --    3.40074   3.41196   3.41403   3.42242   3.43065
  Beta virt. eigenvalues --    3.43912   3.44597   3.46246   3.46609   3.49032
  Beta virt. eigenvalues --    3.49563   3.50495   3.51153   3.51389   3.52037
  Beta virt. eigenvalues --    3.53084   3.54394   3.55161   3.56217   3.57058
  Beta virt. eigenvalues --    3.57787   3.58411   3.59298   3.60592   3.61762
  Beta virt. eigenvalues --    3.63043   3.63122   3.63553   3.65305   3.65548
  Beta virt. eigenvalues --    3.67866   3.69633   3.71745   3.72643   3.72969
  Beta virt. eigenvalues --    3.73929   3.78198   3.78701   3.79600   3.81105
  Beta virt. eigenvalues --    3.82985   3.83277   3.83693   3.84624   3.85097
  Beta virt. eigenvalues --    3.88499   3.89818   3.90499   3.92098   3.94598
  Beta virt. eigenvalues --    3.95587   3.96218   3.96246   3.98659   4.02594
  Beta virt. eigenvalues --    4.04359   4.05696   4.07777   4.09467   4.09569
  Beta virt. eigenvalues --    4.11249   4.12689   4.13302   4.15490   4.17403
  Beta virt. eigenvalues --    4.18613   4.20608   4.21916   4.23742   4.24782
  Beta virt. eigenvalues --    4.24986   4.26852   4.28060   4.28613   4.29192
  Beta virt. eigenvalues --    4.29632   4.35470   4.38848   4.39451   4.39794
  Beta virt. eigenvalues --    4.41377   4.42762   4.44227   4.46142   4.49634
  Beta virt. eigenvalues --    4.52453   4.54428   4.55938   4.57144   4.57411
  Beta virt. eigenvalues --    4.58442   4.62270   4.63443   4.64054   4.68038
  Beta virt. eigenvalues --    4.69053   4.69622   4.73212   4.74457   4.77351
  Beta virt. eigenvalues --    4.79917   4.81692   4.84096   4.88820   4.89191
  Beta virt. eigenvalues --    4.91823   4.91944   4.94968   4.96174   4.98073
  Beta virt. eigenvalues --    5.01322   5.06106   5.07117   5.11384   5.13100
  Beta virt. eigenvalues --    5.19951   5.22282   5.25243   5.25846   5.28885
  Beta virt. eigenvalues --    5.32726   5.35765   5.37229   5.38305   5.40227
  Beta virt. eigenvalues --    5.41282   5.45170   5.51505   5.53183   5.55798
  Beta virt. eigenvalues --    5.62729   5.72056   5.73731   5.80566   5.81682
  Beta virt. eigenvalues --    7.94420   7.95296   8.02913   8.04820   8.08240
  Beta virt. eigenvalues --    8.10797   8.11759   8.16012   8.16650   8.22968
  Beta virt. eigenvalues --    8.33302   8.36849  34.75324  34.75932  34.81936
  Beta virt. eigenvalues --   34.82695  34.86172  34.88879  34.98668  35.00366
  Beta virt. eigenvalues --   35.01527  35.04289  35.16912  35.22952
          Condensed to atoms (all electrons):
               1          2          3          4          5          6
     1  C    5.264962   0.025196   0.428589  -0.003035   0.001731  -0.011592
     2  C    0.025196   5.344043  -0.001622   0.429583  -0.107481   0.269924
     3  H    0.428589  -0.001622   0.484865   0.000036   0.000000   0.000161
     4  H   -0.003035   0.429583   0.000036   0.519382  -0.002005  -0.012500
     5  C    0.001731  -0.107481   0.000000  -0.002005   5.337691   0.257155
     6  C   -0.011592   0.269924   0.000161  -0.012500   0.257155   5.344646
     7  H    0.000023  -0.000599   0.000003   0.000277   0.430508  -0.030858
     8  H   -0.001352  -0.012562  -0.000093   0.001171  -0.048370   0.429692
     9  C    0.002101  -0.065874  -0.000003  -0.008944  -0.046434   0.237072
    10  H   -0.000029   0.006801  -0.000001  -0.000240  -0.001864  -0.045227
    11  H   -0.000281  -0.006088   0.000003   0.000920   0.011702  -0.051781
    12  C   -0.000197   0.011954  -0.000001   0.003246   0.419782  -0.066418
    13  H   -0.000000  -0.000199   0.000000  -0.000032  -0.025649   0.003224
    14  C    0.000067  -0.011523  -0.000000  -0.001323  -0.054276   0.025222
    15  H   -0.000000   0.000161  -0.000000  -0.000092   0.003828  -0.001626
    16  C   -0.000326   0.022886   0.000000   0.001541  -0.002009  -0.077555
    17  H    0.000044   0.002864  -0.000000  -0.003607   0.005893  -0.013519
    18  H    0.000001  -0.000391   0.000000   0.000392  -0.002095   0.012581
    19  C   -0.054237   0.257151   0.003840  -0.048480   0.009632  -0.107725
    20  H    0.004092  -0.031251  -0.000126  -0.005219  -0.000506  -0.000629
    21  C    0.450257  -0.066347  -0.032256   0.006477  -0.000790   0.012110
    22  H   -0.026370   0.003236  -0.004590  -0.000114   0.000044  -0.000196
    23  C   -0.094492   0.237743   0.004918  -0.021968   0.018724  -0.065909
    24  H    0.013250  -0.051946  -0.000035  -0.003276   0.005082  -0.006139
    25  H   -0.001391  -0.044750  -0.000143  -0.004835  -0.000188   0.006785
    26  C    0.272061  -0.077790  -0.027102   0.008886  -0.011408   0.023022
    27  H   -0.032657   0.012574  -0.004081  -0.000139   0.000118  -0.000395
    28  H   -0.040948  -0.013458   0.000170  -0.000168  -0.000995   0.002933
               7          8          9         10         11         12
     1  C    0.000023  -0.001352   0.002101  -0.000029  -0.000281  -0.000197
     2  C   -0.000599  -0.012562  -0.065874   0.006801  -0.006088   0.011954
     3  H    0.000003  -0.000093  -0.000003  -0.000001   0.000003  -0.000001
     4  H    0.000277   0.001171  -0.008944  -0.000240   0.000920   0.003246
     5  C    0.430508  -0.048370  -0.046434  -0.001864   0.011702   0.419782
     6  C   -0.030858   0.429692   0.237072  -0.045227  -0.051781  -0.066418
     7  H    0.474033  -0.005213   0.003139   0.000189  -0.000031  -0.032455
     8  H   -0.005213   0.519619  -0.022218  -0.004840  -0.003274   0.006470
     9  C    0.003139  -0.022218   5.047165   0.416661   0.453964   0.030293
    10  H    0.000189  -0.004840   0.416661   0.544524  -0.014370   0.001185
    11  H   -0.000031  -0.003274   0.453964  -0.014370   0.520540  -0.005433
    12  C   -0.032455   0.006470   0.030293   0.001185  -0.005433   5.011368
    13  H   -0.004142  -0.000115   0.000509  -0.000121   0.000027   0.417225
    14  C    0.004095  -0.003038  -0.094312  -0.001255   0.013210   0.450063
    15  H   -0.000125   0.000036   0.004913  -0.000143  -0.000035  -0.032252
    16  C   -0.001218   0.008911   0.320954  -0.025879  -0.055937  -0.046081
    17  H   -0.000016  -0.000169  -0.027264   0.004594  -0.004004  -0.005539
    18  H    0.000050  -0.000139  -0.041873  -0.005695  -0.002724   0.004538
    19  C   -0.000508  -0.002134   0.018931  -0.000180   0.004964  -0.000824
    20  H    0.000002   0.000275   0.003036   0.000269  -0.003230  -0.000039
    21  C   -0.000038   0.003341  -0.004532  -0.000041   0.000032   0.000151
    22  H   -0.000001  -0.000031  -0.000062  -0.000002  -0.000016   0.000000
    23  C    0.003006  -0.008916   0.008795  -0.000203   0.000021  -0.004559
    24  H   -0.003229   0.000918   0.000024  -0.000016  -0.000006   0.000027
    25  H    0.000267  -0.000239  -0.000201   0.000013  -0.000016  -0.000041
    26  C   -0.001037   0.001556  -0.002075   0.000053   0.000038   0.001346
    27  H   -0.000026   0.000393   0.000027  -0.000001  -0.000003  -0.000007
    28  H    0.001975  -0.003607   0.000868   0.000008   0.000010  -0.000007
              13         14         15         16         17         18
     1  C   -0.000000   0.000067  -0.000000  -0.000326   0.000044   0.000001
     2  C   -0.000199  -0.011523   0.000161   0.022886   0.002864  -0.000391
     3  H    0.000000  -0.000000  -0.000000   0.000000  -0.000000   0.000000
     4  H   -0.000032  -0.001323  -0.000092   0.001541  -0.003607   0.000392
     5  C   -0.025649  -0.054276   0.003828  -0.002009   0.005893  -0.002095
     6  C    0.003224   0.025222  -0.001626  -0.077555  -0.013519   0.012581
     7  H   -0.004142   0.004095  -0.000125  -0.001218  -0.000016   0.000050
     8  H   -0.000115  -0.003038   0.000036   0.008911  -0.000169  -0.000139
     9  C    0.000509  -0.094312   0.004913   0.320954  -0.027264  -0.041873
    10  H   -0.000121  -0.001255  -0.000143  -0.025879   0.004594  -0.005695
    11  H    0.000027   0.013210  -0.000035  -0.055937  -0.004004  -0.002724
    12  C    0.417225   0.450063  -0.032252  -0.046081  -0.005539   0.004538
    13  H    0.491843  -0.026322  -0.004592   0.003492  -0.000333  -0.000112
    14  C   -0.026322   5.265215   0.428638   0.272117  -0.040973  -0.032714
    15  H   -0.004592   0.428638   0.484818  -0.027074   0.000161  -0.004073
    16  C    0.003492   0.272117  -0.027074   4.983835   0.406086   0.423437
    17  H   -0.000333  -0.040973   0.000161   0.406086   0.574459  -0.022112
    18  H   -0.000112  -0.032714  -0.004073   0.423437  -0.022112   0.539746
    19  C    0.000044   0.001735   0.000001  -0.011456  -0.000952   0.000118
    20  H   -0.000001   0.000023   0.000003  -0.001040   0.002010  -0.000027
    21  C    0.000000  -0.000197  -0.000001   0.001353  -0.000000  -0.000008
    22  H    0.000000  -0.000000   0.000000   0.000003  -0.000005  -0.000001
    23  C   -0.000062   0.002099  -0.000003  -0.002078   0.000867   0.000028
    24  H   -0.000016  -0.000283   0.000003   0.000039   0.000010  -0.000003
    25  H   -0.000002  -0.000029  -0.000001   0.000052   0.000008  -0.000001
    26  C    0.000003  -0.000325   0.000000   0.000469  -0.000059  -0.000001
    27  H   -0.000001   0.000001   0.000000  -0.000001   0.000001  -0.000000
    28  H   -0.000005   0.000044  -0.000000  -0.000060  -0.000002   0.000001
              19         20         21         22         23         24
     1  C   -0.054237   0.004092   0.450257  -0.026370  -0.094492   0.013250
     2  C    0.257151  -0.031251  -0.066347   0.003236   0.237743  -0.051946
     3  H    0.003840  -0.000126  -0.032256  -0.004590   0.004918  -0.000035
     4  H   -0.048480  -0.005219   0.006477  -0.000114  -0.021968  -0.003276
     5  C    0.009632  -0.000506  -0.000790   0.000044   0.018724   0.005082
     6  C   -0.107725  -0.000629   0.012110  -0.000196  -0.065909  -0.006139
     7  H   -0.000508   0.000002  -0.000038  -0.000001   0.003006  -0.003229
     8  H   -0.002134   0.000275   0.003341  -0.000031  -0.008916   0.000918
     9  C    0.018931   0.003036  -0.004532  -0.000062   0.008795   0.000024
    10  H   -0.000180   0.000269  -0.000041  -0.000002  -0.000203  -0.000016
    11  H    0.004964  -0.003230   0.000032  -0.000016   0.000021  -0.000006
    12  C   -0.000824  -0.000039   0.000151   0.000000  -0.004559   0.000027
    13  H    0.000044  -0.000001   0.000000   0.000000  -0.000062  -0.000016
    14  C    0.001735   0.000023  -0.000197  -0.000000   0.002099  -0.000283
    15  H    0.000001   0.000003  -0.000001   0.000000  -0.000003   0.000003
    16  C   -0.011456  -0.001040   0.001353   0.000003  -0.002078   0.000039
    17  H   -0.000952   0.002010  -0.000000  -0.000005   0.000867   0.000010
    18  H    0.000118  -0.000027  -0.000008  -0.000001   0.000028  -0.000003
    19  C    5.336929   0.430350   0.419978  -0.025606  -0.046526   0.011740
    20  H    0.430350   0.474607  -0.032036  -0.004151   0.003143  -0.000032
    21  C    0.419978  -0.032036   5.011381   0.417230   0.030363  -0.005459
    22  H   -0.025606  -0.004151   0.417230   0.491868   0.000512   0.000027
    23  C   -0.046526   0.003143   0.030363   0.000512   5.045768   0.454041
    24  H    0.011740  -0.000032  -0.005459   0.000027   0.454041   0.521090
    25  H   -0.002030   0.000188   0.001304  -0.000120   0.416182  -0.014537
    26  C   -0.002106  -0.001204  -0.045951   0.003486   0.321466  -0.056033
    27  H   -0.002102   0.000050   0.004575  -0.000112  -0.041807  -0.002711
    28  H    0.005901  -0.000016  -0.005639  -0.000332  -0.027203  -0.004017
              25         26         27         28
     1  C   -0.001391   0.272061  -0.032657  -0.040948
     2  C   -0.044750  -0.077790   0.012574  -0.013458
     3  H   -0.000143  -0.027102  -0.004081   0.000170
     4  H   -0.004835   0.008886  -0.000139  -0.000168
     5  C   -0.000188  -0.011408   0.000118  -0.000995
     6  C    0.006785   0.023022  -0.000395   0.002933
     7  H    0.000267  -0.001037  -0.000026   0.001975
     8  H   -0.000239   0.001556   0.000393  -0.003607
     9  C   -0.000201  -0.002075   0.000027   0.000868
    10  H    0.000013   0.000053  -0.000001   0.000008
    11  H   -0.000016   0.000038  -0.000003   0.000010
    12  C   -0.000041   0.001346  -0.000007  -0.000007
    13  H   -0.000002   0.000003  -0.000001  -0.000005
    14  C   -0.000029  -0.000325   0.000001   0.000044
    15  H   -0.000001   0.000000   0.000000  -0.000000
    16  C    0.000052   0.000469  -0.000001  -0.000060
    17  H    0.000008  -0.000059   0.000001  -0.000002
    18  H   -0.000001  -0.000001  -0.000000   0.000001
    19  C   -0.002030  -0.002106  -0.002102   0.005901
    20  H    0.000188  -0.001204   0.000050  -0.000016
    21  C    0.001304  -0.045951   0.004575  -0.005639
    22  H   -0.000120   0.003486  -0.000112  -0.000332
    23  C    0.416182   0.321466  -0.041807  -0.027203
    24  H   -0.014537  -0.056033  -0.002711  -0.004017
    25  H    0.544583  -0.025526  -0.005714   0.004581
    26  C   -0.025526   4.983411   0.423276   0.406370
    27  H   -0.005714   0.423276   0.539945  -0.022139
    28  H    0.004581   0.406370  -0.022139   0.573792
          Atomic-Atomic Spin Densities.
               1          2          3          4          5          6
     1  C   -0.679490  -0.006225   0.001032  -0.000075   0.000376  -0.004464
     2  C   -0.006225   0.112624  -0.000167  -0.001709  -0.049831  -0.000016
     3  H    0.001032  -0.000167   0.024162   0.000001   0.000004   0.000033
     4  H   -0.000075  -0.001709   0.000001  -0.010736   0.002001   0.007837
     5  C    0.000376  -0.049831   0.000004   0.002001   0.773918  -0.041614
     6  C   -0.004464  -0.000016   0.000033   0.007837  -0.041614  -0.112784
     7  H    0.000003   0.000603   0.000000  -0.000003  -0.002975   0.000617
     8  H    0.001456  -0.007863   0.000007   0.000001   0.000232   0.001706
     9  C    0.000035  -0.010949   0.000000  -0.001139  -0.003738   0.010810
    10  H   -0.000022   0.000366  -0.000000  -0.000003  -0.001544   0.000127
    11  H    0.000211   0.000891  -0.000000  -0.000007  -0.000005   0.001376
    12  C    0.000053   0.007681  -0.000000  -0.001242  -0.010731   0.010086
    13  H    0.000000   0.000160  -0.000000  -0.000019  -0.001772   0.000478
    14  C    0.000000   0.004475  -0.000000  -0.001461  -0.057896   0.006289
    15  H    0.000000  -0.000033   0.000000  -0.000007  -0.000338   0.000167
    16  C    0.000015  -0.001069   0.000000   0.001076   0.006421  -0.003762
    17  H   -0.000006  -0.002475   0.000000   0.000352   0.004484  -0.004058
    18  H    0.000000   0.000197  -0.000000  -0.000035  -0.000296   0.001090
    19  C    0.057810   0.041824   0.000339  -0.000237  -0.000021   0.049855
    20  H    0.000270  -0.000617  -0.000005  -0.000284  -0.000063  -0.000590
    21  C   -0.008156  -0.010242  -0.000442   0.001067   0.000567  -0.007717
    22  H    0.000891  -0.000482  -0.000237   0.000023   0.000007  -0.000160
    23  C   -0.002537  -0.010610   0.000282  -0.004253   0.000174   0.010988
    24  H   -0.000124  -0.001392  -0.000004   0.000205   0.001318  -0.000901
    25  H    0.000325  -0.000126   0.000001   0.000112  -0.000153  -0.000364
    26  C    0.032232   0.003656  -0.000919  -0.000111  -0.000274   0.001066
    27  H    0.007336  -0.001087  -0.000205   0.000044   0.000019  -0.000195
    28  H    0.020837   0.004051   0.000094  -0.000196   0.000031   0.002454
               7          8          9         10         11         12
     1  C    0.000003   0.001456   0.000035  -0.000022   0.000211   0.000053
     2  C    0.000603  -0.007863  -0.010949   0.000366   0.000891   0.007681
     3  H    0.000000   0.000007   0.000000  -0.000000  -0.000000  -0.000000
     4  H   -0.000003   0.000001  -0.001139  -0.000003  -0.000007  -0.001242
     5  C   -0.002975   0.000232  -0.003738  -0.001544  -0.000005  -0.010731
     6  C    0.000617   0.001706   0.010810   0.000127   0.001376   0.010086
     7  H   -0.025435   0.000281  -0.000362  -0.000019   0.000006   0.001922
     8  H    0.000281   0.010752   0.004263  -0.000114  -0.000204  -0.001064
     9  C   -0.000362   0.004263   0.007046  -0.000837  -0.001234  -0.002650
    10  H   -0.000019  -0.000114  -0.000837   0.000108   0.000463   0.000978
    11  H    0.000006  -0.000204  -0.001234   0.000463  -0.000444  -0.000048
    12  C    0.001922  -0.001064  -0.002650   0.000978  -0.000048  -0.244296
    13  H    0.000269  -0.000023  -0.000136   0.000015  -0.000000   0.001973
    14  C   -0.000274   0.000076   0.002458  -0.000328   0.000122   0.008222
    15  H    0.000005  -0.000001  -0.000284  -0.000001   0.000004   0.000443
    16  C    0.000049   0.000110   0.007248   0.000315  -0.000035   0.003818
    17  H   -0.000024   0.000197  -0.001364   0.000208  -0.000479  -0.000764
    18  H    0.000002  -0.000045   0.002240  -0.000455   0.000254   0.000760
    19  C    0.000064  -0.002000  -0.000306   0.000150  -0.001268  -0.000538
    20  H   -0.000000   0.000003   0.000221   0.000013  -0.000175   0.000025
    21  C   -0.000025   0.001253  -0.000398  -0.000023   0.000108  -0.000002
    22  H   -0.000000   0.000019  -0.000011   0.000000   0.000009  -0.000000
    23  C   -0.000222   0.001138  -0.000014  -0.000002  -0.000157   0.000427
    24  H    0.000173   0.000008   0.000159  -0.000001  -0.000000  -0.000113
    25  H   -0.000013   0.000003   0.000002   0.000000   0.000001   0.000023
    26  C    0.000145  -0.001074  -0.000086   0.000008  -0.000029  -0.000164
    27  H    0.000005   0.000034   0.000010  -0.000000   0.000001   0.000005
    28  H   -0.000090  -0.000349  -0.000125   0.000003  -0.000031  -0.000100
              13         14         15         16         17         18
     1  C    0.000000   0.000000   0.000000   0.000015  -0.000006   0.000000
     2  C    0.000160   0.004475  -0.000033  -0.001069  -0.002475   0.000197
     3  H   -0.000000  -0.000000   0.000000   0.000000   0.000000  -0.000000
     4  H   -0.000019  -0.001461  -0.000007   0.001076   0.000352  -0.000035
     5  C   -0.001772  -0.057896  -0.000338   0.006421   0.004484  -0.000296
     6  C    0.000478   0.006289   0.000167  -0.003762  -0.004058   0.001090
     7  H    0.000269  -0.000274   0.000005   0.000049  -0.000024   0.000002
     8  H   -0.000023   0.000076  -0.000001   0.000110   0.000197  -0.000045
     9  C   -0.000136   0.002458  -0.000284   0.007248  -0.001364   0.002240
    10  H    0.000015  -0.000328  -0.000001   0.000315   0.000208  -0.000455
    11  H   -0.000000   0.000122   0.000004  -0.000035  -0.000479   0.000254
    12  C    0.001973   0.008222   0.000443   0.003818  -0.000764   0.000760
    13  H    0.008839  -0.000884   0.000236   0.000092  -0.000052   0.000020
    14  C   -0.000884   0.679410  -0.001035  -0.032058  -0.020869  -0.007354
    15  H    0.000236  -0.001035  -0.024164   0.000923  -0.000091   0.000203
    16  C    0.000092  -0.032058   0.000923  -0.035876   0.011409   0.004965
    17  H   -0.000052  -0.020869  -0.000091   0.011409   0.054200  -0.008446
    18  H    0.000020  -0.007354   0.000203   0.004965  -0.008446   0.020802
    19  C   -0.000007  -0.000391  -0.000004   0.000310  -0.000031  -0.000020
    20  H    0.000000  -0.000004  -0.000000  -0.000144   0.000094  -0.000006
    21  C    0.000000  -0.000053   0.000000   0.000161   0.000104  -0.000005
    22  H   -0.000000  -0.000000   0.000000   0.000002   0.000001  -0.000000
    23  C    0.000012  -0.000037  -0.000000   0.000094   0.000123  -0.000009
    24  H   -0.000010  -0.000213   0.000000   0.000029   0.000031  -0.000001
    25  H   -0.000000   0.000022   0.000000  -0.000008  -0.000003   0.000000
    26  C   -0.000002  -0.000015  -0.000000  -0.000000   0.000006  -0.000000
    27  H    0.000000  -0.000000   0.000000   0.000000   0.000000   0.000000
    28  H   -0.000001   0.000006  -0.000000  -0.000005  -0.000000  -0.000000
              19         20         21         22         23         24
     1  C    0.057810   0.000270  -0.008156   0.000891  -0.002537  -0.000124
     2  C    0.041824  -0.000617  -0.010242  -0.000482  -0.010610  -0.001392
     3  H    0.000339  -0.000005  -0.000442  -0.000237   0.000282  -0.000004
     4  H   -0.000237  -0.000284   0.001067   0.000023  -0.004253   0.000205
     5  C   -0.000021  -0.000063   0.000567   0.000007   0.000174   0.001318
     6  C    0.049855  -0.000590  -0.007717  -0.000160   0.010988  -0.000901
     7  H    0.000064  -0.000000  -0.000025  -0.000000  -0.000222   0.000173
     8  H   -0.002000   0.000003   0.001253   0.000019   0.001138   0.000008
     9  C   -0.000306   0.000221  -0.000398  -0.000011  -0.000014   0.000159
    10  H    0.000150   0.000013  -0.000023   0.000000  -0.000002  -0.000001
    11  H   -0.001268  -0.000175   0.000108   0.000009  -0.000157  -0.000000
    12  C   -0.000538   0.000025  -0.000002  -0.000000   0.000427  -0.000113
    13  H   -0.000007   0.000000   0.000000  -0.000000   0.000012  -0.000010
    14  C   -0.000391  -0.000004  -0.000053  -0.000000  -0.000037  -0.000213
    15  H   -0.000004  -0.000000   0.000000   0.000000  -0.000000   0.000000
    16  C    0.000310  -0.000144   0.000161   0.000002   0.000094   0.000029
    17  H   -0.000031   0.000094   0.000104   0.000001   0.000123   0.000031
    18  H   -0.000020  -0.000006  -0.000005  -0.000000  -0.000009  -0.000001
    19  C   -0.774088   0.002917   0.010915   0.001784   0.003602   0.000007
    20  H    0.002917   0.025466  -0.001879  -0.000267   0.000353  -0.000006
    21  C    0.010915  -0.001879   0.244145  -0.001986   0.002743   0.000049
    22  H    0.001784  -0.000267  -0.001986  -0.008843   0.000138   0.000000
    23  C    0.003602   0.000353   0.002743   0.000138  -0.007178   0.001226
    24  H    0.000007  -0.000006   0.000049   0.000000   0.001226   0.000448
    25  H    0.001544   0.000019  -0.000976  -0.000015   0.000840  -0.000463
    26  C   -0.006385  -0.000046  -0.003879  -0.000094  -0.007124   0.000039
    27  H    0.000300  -0.000002  -0.000766  -0.000020  -0.002236  -0.000254
    28  H   -0.004486   0.000024   0.000784   0.000052   0.001352   0.000478
              25         26         27         28
     1  C    0.000325   0.032232   0.007336   0.020837
     2  C   -0.000126   0.003656  -0.001087   0.004051
     3  H    0.000001  -0.000919  -0.000205   0.000094
     4  H    0.000112  -0.000111   0.000044  -0.000196
     5  C   -0.000153  -0.000274   0.000019   0.000031
     6  C   -0.000364   0.001066  -0.000195   0.002454
     7  H   -0.000013   0.000145   0.000005  -0.000090
     8  H    0.000003  -0.001074   0.000034  -0.000349
     9  C    0.000002  -0.000086   0.000010  -0.000125
    10  H    0.000000   0.000008  -0.000000   0.000003
    11  H    0.000001  -0.000029   0.000001  -0.000031
    12  C    0.000023  -0.000164   0.000005  -0.000100
    13  H   -0.000000  -0.000002   0.000000  -0.000001
    14  C    0.000022  -0.000015  -0.000000   0.000006
    15  H    0.000000  -0.000000   0.000000  -0.000000
    16  C   -0.000008  -0.000000   0.000000  -0.000005
    17  H   -0.000003   0.000006   0.000000  -0.000000
    18  H    0.000000  -0.000000   0.000000  -0.000000
    19  C    0.001544  -0.006385   0.000300  -0.004486
    20  H    0.000019  -0.000046  -0.000002   0.000024
    21  C   -0.000976  -0.003879  -0.000766   0.000784
    22  H   -0.000015  -0.000094  -0.000020   0.000052
    23  C    0.000840  -0.007124  -0.002236   0.001352
    24  H   -0.000463   0.000039  -0.000254   0.000478
    25  H   -0.000107  -0.000317   0.000455  -0.000209
    26  C   -0.000317   0.035702  -0.004934  -0.011470
    27  H    0.000455  -0.004934  -0.020794   0.008423
    28  H   -0.000209  -0.011470   0.008423  -0.054057
 Mulliken charges and spin densities:
               1          2
     1  C   -0.195465  -0.578217
     2  C   -0.132237   0.071633
     3  H    0.147469   0.023976
     4  H    0.144063  -0.008799
     5  C   -0.197820   0.618301
     6  C   -0.132457  -0.071646
     7  H    0.161927  -0.025297
     8  H    0.143926   0.008805
     9  C   -0.234660   0.010858
    10  H    0.125812  -0.000594
    11  H    0.141796  -0.000670
    12  C   -0.163798  -0.225297
    13  H    0.145336   0.009190
    14  C   -0.195961   0.578207
    15  H    0.147458  -0.023977
    16  C   -0.194463  -0.035921
    17  H    0.121557   0.032546
    18  H    0.131076   0.013864
    19  C   -0.196448  -0.618362
    20  H    0.161457   0.025317
    21  C   -0.165256   0.225344
    22  H    0.145302  -0.009190
    23  C   -0.233950  -0.010888
    24  H    0.141486   0.000687
    25  H    0.125797   0.000594
    26  C   -0.194825   0.035931
    27  H    0.130936  -0.013861
    28  H    0.121943  -0.032532
 Sum of Mulliken charges =  -0.00000   0.00000
[...]
     2  C    0.000288   0.004322  -0.001510   0.005736
     3  H   -0.000000  -0.000795  -0.000191   0.000084
     4  H    0.000120  -0.000059   0.000042  -0.000192
     5  C   -0.000106  -0.000842   0.000005   0.000335
     6  C   -0.000334   0.000403  -0.000065   0.001036
     7  H   -0.000012   0.000198   0.000006  -0.000122
     8  H    0.000006  -0.000962   0.000016  -0.000041
     9  C   -0.000010  -0.000107   0.000012  -0.000153
    10  H    0.000000   0.000003  -0.000000   0.000003
    11  H    0.000001  -0.000008   0.000001  -0.000020
    12  C    0.000023  -0.000109   0.000003  -0.000068
    13  H   -0.000000  -0.000001   0.000000  -0.000001
    14  C    0.000016  -0.000000  -0.000000   0.000001
    15  H    0.000000  -0.000000   0.000000  -0.000000
    16  C   -0.000003  -0.000001  -0.000000   0.000003
    17  H   -0.000003  -0.000003   0.000000  -0.000000
    18  H    0.000000   0.000000  -0.000000  -0.000000
    19  C    0.001310  -0.005159   0.000446  -0.004893
    20  H    0.000013  -0.000078  -0.000005   0.000034
    21  C   -0.000933  -0.003818  -0.000735   0.000894
    22  H   -0.000011  -0.000120  -0.000019   0.000050
    23  C    0.000060  -0.008672  -0.001455  -0.000230
    24  H   -0.000394  -0.000136  -0.000250   0.000490
    25  H    0.000026   0.000056   0.000405  -0.000199
    26  C    0.000056   0.038155  -0.005376  -0.009524
    27  H    0.000405  -0.005376  -0.020381   0.008121
    28  H   -0.000199  -0.009524   0.008121  -0.053671
 Mulliken charges and spin densities:
               1          2
     1  C   -0.192725  -0.575897
     2  C   -0.161014   0.072211
     3  H    0.150598   0.023572
     4  H    0.157945  -0.008947
     5  C   -0.204947   0.616207
     6  C   -0.162101  -0.072176
     7  H    0.167889  -0.024855
     8  H    0.157611   0.008949
     9  C   -0.253278   0.010339
    10  H    0.135040  -0.000533
    11  H    0.148353  -0.000343
    12  C   -0.161715  -0.223465
    13  H    0.147981   0.009037
    14  C   -0.192615   0.575800
    15  H    0.150551  -0.023566
    16  C   -0.195422  -0.034840
    17  H    0.126365   0.032677
    18  H    0.135598   0.013854
    19  C   -0.206839  -0.616169
    20  H    0.168664   0.024820
    21  C   -0.160786   0.223540
    22  H    0.148033  -0.009037
    23  C   -0.250123  -0.010347
    24  H    0.148634   0.000344
    25  H    0.134193   0.000534
    26  C   -0.197557   0.034856
    27  H    0.135893  -0.013856
    28  H    0.125773  -0.032709
 Sum of Mulliken charges =  -0.00000   0.00000
 Mulliken charges and spin densities with hydrogens summed into heavy atoms:
               1          2
     1  C   -0.042127  -0.552325
     2  C   -0.003069   0.063264
     5  C   -0.037057   0.591352
     6  C   -0.004489  -0.063227
     9  C    0.030115   0.009463
    12  C   -0.013735  -0.214428
    14  C   -0.042064   0.552234
    16  C    0.066541   0.011690
    19  C   -0.038175  -0.591349
    21  C   -0.012753   0.214503
    23  C    0.032704  -0.009468
    26  C    0.064109  -0.011710
 Electronic spatial extent (au):  <R**2>=           2174.1924
 Charge=             -0.0000 electrons
 Dipole moment (field-independent basis, Debye):
    X=             -0.0001    Y=             -0.0035    Z=             -0.0056  Tot=              0.0066
 Quadrupole moment (field-independent basis, Debye-Ang):
   XX=            -69.9171   YY=            -69.5488   ZZ=            -74.8568
   XY=             -2.5647   XZ=             -2.9371   YZ=             -0.2224
 Traceless Quadrupole moment (field-independent basis, Debye-Ang):
   XX=              1.5238   YY=              1.8921   ZZ=             -3.4159
   XY=             -2.5647   XZ=             -2.9371   YZ=             -0.2224
 Octapole moment (field-independent basis, Debye-Ang**2):
  XXX=             -0.0365  YYY=             -0.0288  ZZZ=             -0.0246  XYY=              0.0091
  XXY=             -0.0072  XXZ=             -0.0290  XZZ=             -0.0037  YZZ=             -0.0025
  YYZ=             -0.0093  XYZ=              0.0125
 Hexadecapole moment (field-independent basis, Debye-Ang**3):
 XXXX=          -1952.2484 YYYY=           -621.0082 ZZZZ=           -286.7633 XXXY=            -86.9365
 XXXZ=           -111.7280 YYYX=            -58.0904 YYYZ=              1.4393 ZZZX=            -59.9742
 ZZZY=             -6.6479 XXYY=           -427.5178 XXZZ=           -403.9768 YYZZ=           -165.8453
 XXYZ=            -19.9821 YYXZ=            -23.4818 ZZXY=            -40.2018
 N-N= 6.942429817908D+02 E-N=-2.470858362012D+03  KE= 4.640861935199D+02
                          Isotropic Fermi Contact Couplings
        Atom                 a.u.       MegaHertz       Gauss      10(-4) cm-1
     1  C(13)             -0.04460     -25.06724      -8.94461      -8.36153
     2  C(13)              0.06092      34.24483      12.21941      11.42285
     3  H(1)               0.00884      19.76167       7.05146       6.59178
     4  H(1)              -0.00455     -10.16508      -3.62715      -3.39071
     5  C(13)              0.04862      27.33023       9.75210       9.11638
     6  C(13)             -0.06094     -34.25524     -12.22312     -11.42632
     7  H(1)              -0.00947     -21.15915      -7.55011      -7.05793
     8  H(1)               0.00455      10.16597       3.62747       3.39100
     9  C(13)              0.00416       2.33577       0.83346       0.77913
    10  H(1)              -0.00048      -1.06829      -0.38119      -0.35634
    11  H(1)              -0.00033      -0.74470      -0.26573      -0.24840
    12  C(13)             -0.04328     -24.32566      -8.68000      -8.11417
    13  H(1)               0.00309       6.90275       2.46307       2.30251
    14  C(13)              0.04459      25.06170       8.94264       8.35968
    15  H(1)              -0.00884     -19.75752      -7.04997      -6.59040
    16  C(13)             -0.01830     -10.28759      -3.67087      -3.43157
    17  H(1)               0.01580      35.30134      12.59640      11.77526
    18  H(1)               0.00660      14.75731       5.26578       4.92251
    19  C(13)             -0.04859     -27.31454      -9.74651      -9.11115
    20  H(1)               0.00947      21.15621       7.54906       7.05695
    21  C(13)              0.04328      24.32594       8.68010       8.11426
    22  H(1)              -0.00309      -6.90423      -2.46360      -2.30300
    23  C(13)             -0.00415      -2.33504      -0.83320      -0.77888
    24  H(1)               0.00033       0.74480       0.26576       0.24844
    25  H(1)               0.00048       1.06921       0.38152       0.35665
    26  C(13)              0.01831      10.29116       3.67214       3.43276
    27  H(1)              -0.00660     -14.75648      -5.26548      -4.92223
    28  H(1)              -0.01579     -35.30013     -12.59596     -11.77486
 --------------------------------------------------------
       Center         ----  Spin Dipole Couplings  ----
                      3XX-RR        3YY-RR        3ZZ-RR
 --------------------------------------------------------
     1   Atom        0.134075      0.345450     -0.479525
     2   Atom       -0.006717     -0.032234      0.038951
     3   Atom       -0.034030      0.043806     -0.009777
     4   Atom       -0.002391     -0.005512      0.007904
     5   Atom       -0.238913     -0.357320      0.596233
     6   Atom        0.006709      0.032236     -0.038945
     7   Atom       -0.018611      0.017031      0.001580
     8   Atom        0.002391      0.005514     -0.007905
     9   Atom       -0.001111      0.008191     -0.007080
    10   Atom       -0.004238      0.003647      0.000591
    11   Atom       -0.005774      0.007024     -0.001249
    12   Atom        0.072433      0.101159     -0.173592
    13   Atom        0.007049     -0.001956     -0.005093
    14   Atom       -0.134012     -0.345379      0.479391
    15   Atom        0.034022     -0.043799      0.009777
    16   Atom       -0.005157      0.002557      0.002601
    17   Atom       -0.008300      0.009005     -0.000705
    18   Atom       -0.006259      0.010525     -0.004266
    19   Atom        0.238831      0.357221     -0.596052
    20   Atom        0.018612     -0.017023     -0.001589
    21   Atom       -0.072441     -0.101186      0.173627
    22   Atom       -0.007048      0.001957      0.005092
    23   Atom        0.001110     -0.008190      0.007080
    24   Atom        0.005775     -0.007024      0.001249
    25   Atom        0.004238     -0.003647     -0.000591
    26   Atom        0.005155     -0.002574     -0.002581
    27   Atom        0.006261     -0.010527      0.004267
    28   Atom        0.008297     -0.009010      0.000712
 --------------------------------------------------------
                        XY            XZ            YZ
 --------------------------------------------------------
     1   Atom        0.002007     -0.402750      0.007699
     2   Atom        0.009074      0.045735      0.021289
     3   Atom       -0.008243      0.017844      0.004862
     4   Atom       -0.005132      0.004626      0.008780
     5   Atom       -0.043786      0.350276     -0.086945
     6   Atom       -0.009073     -0.045736     -0.021286
     7   Atom       -0.043648      0.004116      0.014382
     8   Atom        0.005135     -0.004626     -0.008781
     9   Atom       -0.013440     -0.012394      0.002838
    10   Atom       -0.001120     -0.003517     -0.005583
    11   Atom        0.004651     -0.008123     -0.000051
    12   Atom       -0.008650     -0.129365      0.022837
    13   Atom       -0.007538     -0.007763      0.003203
    14   Atom       -0.002013      0.402693     -0.007707
    15   Atom        0.008239     -0.017842     -0.004860
    16   Atom        0.001970      0.006549     -0.000500
    17   Atom        0.004488      0.001740      0.005293
    18   Atom       -0.002532     -0.000809     -0.002622
    19   Atom        0.043805     -0.350215      0.086987
    20   Atom        0.043634     -0.004110     -0.014388
    21   Atom        0.008648      0.129389     -0.022847
    22   Atom        0.007542      0.007764     -0.003205
    23   Atom        0.013439      0.012395     -0.002838
    24   Atom       -0.004652      0.008125      0.000051
    25   Atom        0.001120      0.003518      0.005583
    26   Atom       -0.001966     -0.006533      0.000510
    27   Atom        0.002530      0.000809      0.002623
    28   Atom       -0.004490     -0.001739     -0.005291
 --------------------------------------------------------


 ---------------------------------------------------------------------------------
              Anisotropic Spin Dipole Couplings in Principal Axis System
 ---------------------------------------------------------------------------------

       Atom             a.u.   MegaHertz   Gauss  10(-4) cm-1        Axes

              Baa    -0.6791   -91.126   -32.516   -30.396  0.4438 -0.0076  0.8961
     1 C(13)  Bbb     0.3334    44.733    15.962    14.921  0.8887  0.1320 -0.4391
              Bcc     0.3457    46.393    16.554    15.475 -0.1150  0.9912  0.0654
 
              Baa    -0.0397    -5.328    -1.901    -1.777  0.4094  0.7922 -0.4525
     2 C(13)  Bbb    -0.0325    -4.367    -1.558    -1.457  0.7579 -0.5714 -0.3147
              Bcc     0.0723     9.695     3.460     3.234  0.5079  0.2141  0.8344
 
              Baa    -0.0445   -23.750    -8.474    -7.922  0.8781  0.1076 -0.4662
     3 H(1)   Bbb    -0.0003    -0.178    -0.063    -0.059  0.4698 -0.0095  0.8827
              Bcc     0.0448    23.927     8.538     7.981 -0.0906  0.9941  0.0589
 
              Baa    -0.0138    -7.354    -2.624    -2.453  0.5083  0.7550 -0.4141
     4 H(1)   Bbb     0.0013     0.676     0.241     0.226  0.8492 -0.5194  0.0953
              Bcc     0.0125     6.678     2.383     2.228  0.1432  0.4001  0.9052
 
              Baa    -0.3775   -50.658   -18.076   -16.898  0.6923  0.6970 -0.1868
     5 C(13)  Bbb    -0.3548   -47.606   -16.987   -15.880 -0.6357  0.7116  0.2992
              Bcc     0.7323    98.264    35.063    32.777  0.3415 -0.0884  0.9357
 
              Baa    -0.0722    -9.695    -3.459    -3.234  0.5079  0.2141  0.8344
     6 C(13)  Bbb     0.0325     4.367     1.558     1.457  0.7580 -0.5713 -0.3148
              Bcc     0.0397     5.328     1.901     1.777  0.4093  0.7923 -0.4524
 
              Baa    -0.0505   -26.942    -9.613    -8.987  0.7977  0.5621 -0.2183
     7 H(1)   Bbb     0.0021     1.117     0.399     0.373  0.2968 -0.0509  0.9536
              Bcc     0.0484    25.825     9.215     8.614 -0.5249  0.8255  0.2074
 
              Baa    -0.0125    -6.679    -2.383    -2.228  0.1431  0.4001  0.9052
     8 H(1)   Bbb    -0.0013    -0.677    -0.242    -0.226  0.8492 -0.5194  0.0953
              Bcc     0.0138     7.356     2.625     2.454  0.5083  0.7551 -0.4141
 
              Baa    -0.0186    -2.495    -0.890    -0.832  0.6874  0.2737  0.6727
     9 C(13)  Bbb    -0.0026    -0.354    -0.126    -0.118 -0.3842 -0.6491  0.6566
              Bcc     0.0212     2.848     1.016     0.950 -0.6163  0.7098  0.3410
 
              Baa    -0.0075    -3.999    -1.427    -1.334  0.7389  0.3598  0.5697
    10 H(1)   Bbb    -0.0005    -0.293    -0.105    -0.098  0.6648 -0.5269 -0.5295
              Bcc     0.0080     4.292     1.532     1.432  0.1097  0.7700 -0.6285
 
              Baa    -0.0126    -6.748    -2.408    -2.251  0.8003 -0.1877  0.5695
    11 H(1)   Bbb     0.0032     1.705     0.608     0.569 -0.4143  0.5134  0.7515
              Bcc     0.0095     5.043     1.799     1.682  0.4335  0.8373 -0.3331
 
              Baa    -0.2300   -30.868   -11.014   -10.296  0.3914 -0.0531  0.9187
    12 C(13)  Bbb     0.0937    12.576     4.487     4.195  0.4267  0.8950 -0.1301
              Bcc     0.1363    18.292     6.527     6.101  0.8153 -0.4429 -0.3730
 
              Baa    -0.0089    -4.763    -1.700    -1.589  0.4782  0.1172  0.8704
    13 H(1)   Bbb    -0.0059    -3.146    -1.122    -1.049  0.3362  0.8911 -0.3048
              Bcc     0.0148     7.909     2.822     2.638  0.8113 -0.4383 -0.3868
 
              Baa    -0.3457   -46.383   -16.551   -15.472 -0.1148  0.9912  0.0653
    14 C(13)  Bbb    -0.3333   -44.724   -15.959   -14.918  0.8887  0.1319 -0.4391
              Bcc     0.6789    91.107    32.509    30.390  0.4439 -0.0076  0.8961
 
              Baa    -0.0448   -23.923    -8.536    -7.980 -0.0905  0.9942  0.0589
    15 H(1)   Bbb     0.0003     0.177     0.063     0.059  0.4698 -0.0095  0.8827
              Bcc     0.0445    23.745     8.473     7.921  0.8781  0.1076 -0.4662
 
              Baa    -0.0092    -1.237    -0.441    -0.413  0.8598 -0.1644 -0.4835
    16 C(13)  Bbb     0.0028     0.376     0.134     0.125  0.0680  0.9752 -0.2106
              Bcc     0.0064     0.861     0.307     0.287  0.5061  0.1482  0.8496
 
              Baa    -0.0094    -5.027    -1.794    -1.677  0.9737 -0.2196 -0.0610
    17 H(1)   Bbb    -0.0030    -1.614    -0.576    -0.539 -0.0311 -0.3928  0.9191
              Bcc     0.0124     6.641     2.370     2.215  0.2258  0.8930  0.3893
 
              Baa    -0.0072    -3.830    -1.366    -1.277  0.8889  0.1889  0.4173
    18 H(1)   Bbb    -0.0041    -2.197    -0.784    -0.733 -0.4381  0.0845  0.8949
              Bcc     0.0113     6.026     2.150     2.010 -0.1338  0.9783 -0.1579
 
              Baa    -0.7321   -98.240   -35.054   -32.769  0.3415 -0.0885  0.9357
    19 C(13)  Bbb     0.3547    47.594    16.983    15.876 -0.6357  0.7116  0.2993
              Bcc     0.3774    50.646    18.072    16.894  0.6923  0.6970 -0.1868
 
              Baa    -0.0484   -25.817    -9.212    -8.612 -0.5249  0.8255  0.2077
    20 H(1)   Bbb    -0.0021    -1.119    -0.399    -0.373  0.2969 -0.0511  0.9535
              Bcc     0.0505    26.936     9.611     8.985  0.7977  0.5621 -0.2183
 
              Baa    -0.1363   -18.295    -6.528    -6.103  0.8152 -0.4430 -0.3730
    21 C(13)  Bbb    -0.0937   -12.579    -4.489    -4.196  0.4268  0.8949 -0.1301
              Bcc     0.2301    30.874    11.017    10.298  0.3914 -0.0531  0.9187
 
              Baa    -0.0148    -7.910    -2.823    -2.639  0.8113 -0.4385 -0.3868
    22 H(1)   Bbb     0.0059     3.147     1.123     1.050  0.3361  0.8910 -0.3052
              Bcc     0.0089     4.763     1.700     1.589  0.4784  0.1176  0.8702
 
              Baa    -0.0212    -2.848    -1.016    -0.950 -0.6164  0.7098  0.3411
    23 C(13)  Bbb     0.0026     0.353     0.126     0.118 -0.3841 -0.6491  0.6566
              Bcc     0.0186     2.495     0.890     0.832  0.6874  0.2737  0.6727
 
              Baa    -0.0095    -5.044    -1.800    -1.682  0.4335  0.8373 -0.3331
    24 H(1)   Bbb    -0.0032    -1.705    -0.608    -0.569 -0.4143  0.5135  0.7515
              Bcc     0.0126     6.749     2.408     2.251  0.8003 -0.1878  0.5695
 
              Baa    -0.0080    -4.292    -1.532    -1.432  0.1098  0.7700 -0.6285
    25 H(1)   Bbb     0.0005     0.293     0.105     0.098  0.6648 -0.5270 -0.5295
              Bcc     0.0075     3.999     1.427     1.334  0.7389  0.3597  0.5697
 
              Baa    -0.0064    -0.857    -0.306    -0.286  0.5062  0.1474  0.8497
    26 C(13)  Bbb    -0.0028    -0.379    -0.135    -0.126  0.0685  0.9753 -0.2099
              Bcc     0.0092     1.235     0.441     0.412  0.8597 -0.1644 -0.4836
 
              Baa    -0.0113    -6.027    -2.151    -2.010 -0.1337  0.9784 -0.1579
    27 H(1)   Bbb     0.0041     2.198     0.784     0.733 -0.4380  0.0846  0.8950
              Bcc     0.0072     3.830     1.367     1.277  0.8890  0.1888  0.4172
 
              Baa    -0.0124    -6.642    -2.370    -2.216  0.2259  0.8932  0.3889
    28 H(1)   Bbb     0.0030     1.616     0.577     0.539 -0.0311 -0.3924  0.9193
              Bcc     0.0094     5.026     1.793     1.676  0.9737 -0.2198 -0.0609
 

 ---------------------------------------------------------------------------------

 No NMR shielding tensors so no spin-rotation constants.
 Leave Link  601 at Tue Aug  4 18:44:17 2020, MaxMem=  6442450944 cpu:               8.5 elap:               0.4
 (Enter /scratch/scicomp/CentOS/7.3.1611/Haswell/software/Gaussian/g16/l9999.exe)
 1\1\GINC-ATLAS-205\SP\UwB97XD\def2TZVP\C12H16\BOCHEN\04-Aug-2020\0\\#p
  uwb97xd guess=mix def2tzvp # scrf=(iefpcm,solvent=Cyclohexane,read) n
 osym 6d 10f\\endo-2 xp-pcm for eta=3\\0,1\C,0,-3.119495,-0.424944,0.24
 8623\C,0,-0.424245,-0.121866,-0.714774\H,0,-4.087821,-0.54642,0.718451
 \H,0,0.329403,-0.107658,-1.504901\C,0,1.115717,1.433579,0.663678\C,0,0
 .424245,0.121866,0.714774\H,0,0.572069,2.33357,0.922475\H,0,-0.329403,
 0.107658,1.504901\C,0,1.449468,-0.996358,0.973459\H,0,1.860814,-0.8687
 63,1.97862\H,0,0.95495,-1.969025,0.953713\C,0,2.394417,1.530763,0.1270
 3\H,0,2.83084,2.513824,-0.012217\C,0,3.119495,0.424944,-0.248623\H,0,4
 .087821,0.54642,-0.718451\C,0,2.592866,-0.960276,-0.042448\H,0,2.24915
 3,-1.362262,-1.005025\H,0,3.400748,-1.625122,0.274929\C,0,-1.115717,-1
 .43358,-0.663678\H,0,-0.572069,-2.33357,-0.922475\C,0,-2.394417,-1.530
 763,-0.12703\H,0,-2.83084,-2.513824,0.012217\C,0,-1.449468,0.996358,-0
 .973459\H,0,-0.95495,1.969025,-0.953713\H,0,-1.860814,0.868763,-1.9786
 2\C,0,-2.592866,0.960276,0.042448\H,0,-3.400748,1.625122,-0.274929\H,0
 ,-2.249153,1.362262,1.005025\\Version=ES64L-G16RevB.01\HF=-466.7859044
 \S2=1.041477\S2-1=0.\S2A=0.533624\RMSD=3.119e-09\Dipole=-0.0000513,-0.
 0013917,-0.0022147\Quadrupole=1.132925,1.4067091,-2.5396341,-1.9068041
 ,-2.183697,-0.1653271\PG=CI [X(C12H16)]\\@


 I LOVE THOSE WHO LONG FOR THE IMPOSSIBLE.

                                 -- GOETHE
 Job cpu time:       0 days  1 hours 48 minutes 24.1 seconds.
 Elapsed time:       0 days  0 hours  4 minutes 34.1 seconds.
 File lengths (MBytes):  RWF=    634 Int=      0 D2E=      0 Chk=     24 Scr=      1
 Normal termination of Gaussian 16 at Tue Aug  4 18:44:17 2020.
