 Entering Gaussian System, Link 0=g16
 Input=meso-TS_22_1_pcm.com
 Output=meso-TS_22_1_pcm.log
 Initial command:
 /scratch/scicomp/CentOS/7.3.1611/Haswell/software/Gaussian/g16/l1.exe "/scratch/bochen/cyclohexadiene-dimerization/wb97xd-def2tzvp/xp-pcm/meso/Gau-60703.inp" -scrdir="/scratch/bochen/cyclohexadiene-dimerization/wb97xd-def2tzvp/xp-pcm/meso/"
 Entering Link 1 = /scratch/scicomp/CentOS/7.3.1611/Haswell/software/Gaussian/g16/l1.exe PID=     60704.
  
 Copyright (c) 1988-2017, Gaussian, Inc.  All Rights Reserved.
  
 This is part of the Gaussian(R) 16 program.  It is based on
 the Gaussian(R) 09 system (copyright 2009, Gaussian, Inc.),
 the Gaussian(R) 03 system (copyright 2003, Gaussian, Inc.),
 the Gaussian(R) 98 system (copyright 1998, Gaussian, Inc.),
 the Gaussian(R) 94 system (copyright 1995, Gaussian, Inc.),
 the Gaussian 92(TM) system (copyright 1992, Gaussian, Inc.),
 the Gaussian 90(TM) system (copyright 1990, Gaussian, Inc.),
 the Gaussian 88(TM) system (copyright 1988, Gaussian, Inc.),
 the Gaussian 86(TM) system (copyright 1986, Carnegie Mellon
 University), and the Gaussian 82(TM) system (copyright 1983,
 Carnegie Mellon University). Gaussian is a federally registered
 trademark of Gaussian, Inc.
  
 This software contains proprietary and confidential information,
 including trade secrets, belonging to Gaussian, Inc.
  
 This software is provided under written license and may be
 used, copied, transmitted, or stored only in accord with that
 written license.
  
 The following legend is applicable only to US Government
 contracts under FAR:
  
                    RESTRICTED RIGHTS LEGEND
  
 Use, reproduction and disclosure by the US Government is
 subject to restrictions as set forth in subparagraphs (a)
 and (c) of the Commercial Computer Software - Restricted
 Rights clause in FAR 52.227-19.
  
 Gaussian, Inc.
 340 Quinnipiac St., Bldg. 40, Wallingford CT 06492
  
  
 ---------------------------------------------------------------
 Warning -- This program may not be used in any manner that
 competes with the business of Gaussian, Inc. or will provide
 assistance to any competitor of Gaussian, Inc.  The licensee
 of this program is prohibited from giving any competitor of
 Gaussian, Inc. access to this program.  By using this program,
 the user acknowledges that Gaussian, Inc. is engaged in the
 business of creating and licensing software in the field of
 computational chemistry and represents and warrants to the
 licensee that it is not a competitor of Gaussian, Inc. and that
 it will not use this program in any manner prohibited above.
 ---------------------------------------------------------------
  

 Cite this work as:
 Gaussian 16, Revision B.01,
 M. J. Frisch, G. W. Trucks, H. B. Schlegel, G. E. Scuseria, 
 M. A. Robb, J. R. Cheeseman, G. Scalmani, V. Barone, 
 G. A. Petersson, H. Nakatsuji, X. Li, M. Caricato, A. V. Marenich, 
 J. Bloino, B. G. Janesko, R. Gomperts, B. Mennucci, H. P. Hratchian, 
 J. V. Ortiz, A. F. Izmaylov, J. L. Sonnenberg, D. Williams-Young, 
 F. Ding, F. Lipparini, F. Egidi, J. Goings, B. Peng, A. Petrone, 
 T. Henderson, D. Ranasinghe, V. G. Zakrzewski, J. Gao, N. Rega, 
 G. Zheng, W. Liang, M. Hada, M. Ehara, K. Toyota, R. Fukuda, 
 J. Hasegawa, M. Ishida, T. Nakajima, Y. Honda, O. Kitao, H. Nakai, 
 T. Vreven, K. Throssell, J. A. Montgomery, Jr., J. E. Peralta, 
 F. Ogliaro, M. J. Bearpark, J. J. Heyd, E. N. Brothers, K. N. Kudin, 
 V. N. Staroverov, T. A. Keith, R. Kobayashi, J. Normand, 
 K. Raghavachari, A. P. Rendell, J. C. Burant, S. S. Iyengar, 
 J. Tomasi, M. Cossi, J. M. Millam, M. Klene, C. Adamo, R. Cammi, 
 J. W. Ochterski, R. L. Martin, K. Morokuma, O. Farkas, 
 J. B. Foresman, and D. J. Fox, Gaussian, Inc., Wallingford CT, 2016.
 
 ******************************************
 Gaussian 16:  ES64L-G16RevB.01 20-Dec-2017
                 3-Aug-2020 
 ******************************************
 %nproc=24
 Will use up to   24 processors via shared memory.
 %mem=48GB
 ----------------------------------------------------------------------
 #p uwb97xd guess=mix def2tzvp # scrf=(iefpcm,solvent=Cyclohexane,read)
  nosym 6d 10f
 ----------------------------------------------------------------------
 1/38=1,40=2,172=1/1;
 2/12=2,15=1,17=6,18=5,40=1/2;
 3/5=44,7=101,8=22,11=2,25=1,30=1,70=2203,72=17,74=-58,116=2/1,2,3;
 4/13=-1/1;
 5/5=2,38=5,53=17/2;
 6/7=2,8=2,9=2,10=2,28=1/1;
 99/5=1,9=1/99;
 Leave Link    1 at Mon Aug  3 16:58:01 2020, MaxMem=  6442450944 cpu:               1.6 elap:               0.1
 (Enter /scratch/scicomp/CentOS/7.3.1611/Haswell/software/Gaussian/g16/l101.exe)
 -----------------------
 endo-2 xp-pcm for eta=3
 -----------------------
 Symbolic Z-matrix:
 Charge =  0 Multiplicity = 1
 6                    -3.11855  -0.4235    0.24822 
 6                    -0.40234  -0.11658  -0.67286 
 1                    -4.09357  -0.54605   0.70357 
 1                     0.33363  -0.10803  -1.48117 
 6                     1.10768   1.43412   0.64379 
 6                     0.40234   0.11658   0.67286 
 1                     0.5759    2.33046   0.93732 
 1                    -0.33363   0.10803   1.48117 
 6                     1.43359  -0.98985   0.95388 
 1                     1.83168  -0.82905   1.95916 
 1                     0.95387  -1.97005   0.95435 
 6                     2.39222   1.5308    0.13382 
 1                     2.84055   2.51247   0.02505 
 6                     3.11855   0.4235   -0.24822 
 1                     4.09357   0.54605  -0.70357 
 6                     2.59067  -0.96146  -0.04561 
 1                     2.26347  -1.372    -1.01047 
 1                     3.39445  -1.62245   0.29027 
 6                    -1.10768  -1.43412  -0.64379 
 1                    -0.5759   -2.33046  -0.93732 
 6                    -2.39222  -1.5308   -0.13382 
 1                    -2.84055  -2.51247  -0.02505 
 6                    -1.43359   0.98985  -0.95388 
 1                    -0.95387   1.97005  -0.95435 
 1                    -1.83168   0.82905  -1.95916 
 6                    -2.59067   0.96146   0.04561 
 1                    -3.39445   1.62245  -0.29027 
 1                    -2.26347   1.372     1.01047 
 
 ITRead=  0  0  0  0  0  0  0  0  0  0  0  0  0  0  0  0  0  0  0  0
 ITRead=  0  0  0  0  0  0  0  0
 MicOpt= -1 -1 -1 -1 -1 -1 -1 -1 -1 -1 -1 -1 -1 -1 -1 -1 -1 -1 -1 -1
 MicOpt= -1 -1 -1 -1 -1 -1 -1 -1
 NAtoms=     28 NQM=       28 NQMF=       0 NMMI=      0 NMMIF=      0
                NMic=       0 NMicF=      0.
                    Isotopes and Nuclear Properties:
 (Nuclear quadrupole moments (NQMom) in fm**2, nuclear magnetic moments (NMagM)
  in nuclear magnetons)

  Atom         1           2           3           4           5           6           7           8           9          10
 IAtWgt=          12          12           1           1          12          12           1           1          12           1
 AtmWgt=  12.0000000  12.0000000   1.0078250   1.0078250  12.0000000  12.0000000   1.0078250   1.0078250  12.0000000   1.0078250
 NucSpn=           0           0           1           1           0           0           1           1           0           1
 AtZEff=  -0.0000000  -0.0000000  -0.0000000  -0.0000000  -0.0000000  -0.0000000  -0.0000000  -0.0000000  -0.0000000  -0.0000000
 NQMom=    0.0000000   0.0000000   0.0000000   0.0000000   0.0000000   0.0000000   0.0000000   0.0000000   0.0000000   0.0000000
 NMagM=    0.0000000   0.0000000   2.7928460   2.7928460   0.0000000   0.0000000   2.7928460   2.7928460   0.0000000   2.7928460
 AtZNuc=   6.0000000   6.0000000   1.0000000   1.0000000   6.0000000   6.0000000   1.0000000   1.0000000   6.0000000   1.0000000

  Atom        11          12          13          14          15          16          17          18          19          20
 IAtWgt=           1          12           1          12           1          12           1           1          12           1
 AtmWgt=   1.0078250  12.0000000   1.0078250  12.0000000   1.0078250  12.0000000   1.0078250   1.0078250  12.0000000   1.0078250
 NucSpn=           1           0           1           0           1           0           1           1           0           1
 AtZEff=  -0.0000000  -0.0000000  -0.0000000  -0.0000000  -0.0000000  -0.0000000  -0.0000000  -0.0000000  -0.0000000  -0.0000000
 NQMom=    0.0000000   0.0000000   0.0000000   0.0000000   0.0000000   0.0000000   0.0000000   0.0000000   0.0000000   0.0000000
 NMagM=    2.7928460   0.0000000   2.7928460   0.0000000   2.7928460   0.0000000   2.7928460   2.7928460   0.0000000   2.7928460
 AtZNuc=   1.0000000   6.0000000   1.0000000   6.0000000   1.0000000   6.0000000   1.0000000   1.0000000   6.0000000   1.0000000

  Atom        21          22          23          24          25          26          27          28
 IAtWgt=          12           1          12           1           1          12           1           1
 AtmWgt=  12.0000000   1.0078250  12.0000000   1.0078250   1.0078250  12.0000000   1.0078250   1.0078250
 NucSpn=           0           1           0           1           1           0           1           1
 AtZEff=  -0.0000000  -0.0000000  -0.0000000  -0.0000000  -0.0000000  -0.0000000  -0.0000000  -0.0000000
 NQMom=    0.0000000   0.0000000   0.0000000   0.0000000   0.0000000   0.0000000   0.0000000   0.0000000
 NMagM=    0.0000000   2.7928460   0.0000000   2.7928460   2.7928460   0.0000000   2.7928460   2.7928460
 AtZNuc=   6.0000000   1.0000000   6.0000000   1.0000000   1.0000000   6.0000000   1.0000000   1.0000000
 Leave Link  101 at Mon Aug  3 16:58:01 2020, MaxMem=  6442450944 cpu:               2.4 elap:               0.1
 (Enter /scratch/scicomp/CentOS/7.3.1611/Haswell/software/Gaussian/g16/l202.exe)
                          Input orientation:                          
 ---------------------------------------------------------------------
 Center     Atomic      Atomic             Coordinates (Angstroms)
 Number     Number       Type             X           Y           Z
 ---------------------------------------------------------------------
      1          6           0       -3.118545   -0.423500    0.248223
      2          6           0       -0.402344   -0.116575   -0.672864
      3          1           0       -4.093571   -0.546048    0.703566
      4          1           0        0.333633   -0.108030   -1.481168
      5          6           0        1.107682    1.434119    0.643785
      6          6           0        0.402344    0.116575    0.672864
      7          1           0        0.575901    2.330463    0.937322
      8          1           0       -0.333633    0.108030    1.481168
      9          6           0        1.433587   -0.989852    0.953879
     10          1           0        1.831677   -0.829046    1.959162
     11          1           0        0.953866   -1.970051    0.954345
     12          6           0        2.392223    1.530795    0.133818
     13          1           0        2.840546    2.512465    0.025049
     14          6           0        3.118545    0.423500   -0.248223
     15          1           0        4.093571    0.546048   -0.703566
     16          6           0        2.590666   -0.961461   -0.045609
     17          1           0        2.263468   -1.371998   -1.010466
     18          1           0        3.394447   -1.622447    0.290265
     19          6           0       -1.107682   -1.434119   -0.643785
     20          1           0       -0.575901   -2.330463   -0.937322
     21          6           0       -2.392223   -1.530795   -0.133818
     22          1           0       -2.840546   -2.512465   -0.025049
     23          6           0       -1.433587    0.989852   -0.953879
     24          1           0       -0.953866    1.970051   -0.954345
     25          1           0       -1.831677    0.829046   -1.959162
     26          6           0       -2.590666    0.961461    0.045609
     27          1           0       -3.394447    1.622447   -0.290265
     28          1           0       -2.263468    1.371998    1.010466
 ---------------------------------------------------------------------
                    Distance matrix (angstroms):
                    1          2          3          4          5
     1  C    0.000000
     2  C    2.884502   0.000000
     3  H    1.083066   3.962848   0.000000
     4  H    3.873996   1.093202   4.956315   0.000000
     5  C    4.633380   2.533455   5.565759   2.737298   0.000000
     6  C    3.587292   1.585202   4.544586   2.166800   1.494747
     7  H    4.659195   3.088310   5.489347   3.442969   1.082768
     8  H    3.091668   2.166800   3.894819   3.044234   2.130050
     9  C    4.641186   2.603757   5.550594   2.813710   2.465362
    10  H    5.253235   3.525057   6.063429   3.820978   2.715935
    11  H    4.413044   2.814691   5.250457   3.127864   3.421766
    12  C    5.848155   3.342779   6.833990   3.087348   1.385445
    13  H    6.646839   4.232643   7.608999   3.926869   2.132717
    14  C    6.313886   3.587292   7.338974   3.091668   2.420867
    15  H    7.338974   4.544586   8.378663   3.894819   3.394047
    16  C    5.742023   3.172600   6.738906   2.807734   2.900570
    17  H    5.608031   2.965909   6.635665   2.354451   3.456397
    18  H    6.622560   4.196533   7.576270   3.847079   3.833649
    19  C    2.420867   1.494747   3.394047   2.130050   3.846097
    20  H    3.392206   2.236372   4.272078   2.462159   4.416608
    21  C    1.378260   2.500041   2.136709   3.357068   4.652388
    22  H    2.125026   3.479193   2.442897   4.239930   5.622399
    23  C    2.506331   1.538380   3.490219   2.146263   3.034461
    24  H    3.443994   2.176561   4.351686   2.500723   2.662935
    25  H    2.845602   2.142838   3.754620   2.407313   3.972566
    26  C    1.495936   2.543053   2.228052   3.467908   3.776109
    27  H    2.133539   3.481847   2.485728   4.279180   4.601856
    28  H    2.129785   2.917744   2.668776   3.891485   3.391602
                    6          7          8          9         10
     6  C    0.000000
     7  H    2.236372   0.000000
     8  H    1.093202   2.462159   0.000000
     9  C    1.538380   3.429343   2.146263   0.000000
    10  H    2.142838   3.550159   2.407313   1.093128   0.000000
    11  H    2.176561   4.317125   2.500723   1.091294   1.755592
    12  C    2.500041   2.141054   3.357068   2.818713   3.035612
    13  H    3.479193   2.448261   4.239930   3.886963   3.990527
    14  C    2.884502   3.392206   3.873996   2.506331   2.845602
    15  H    3.962848   4.272078   4.956315   3.490219   3.754620
    16  C    2.543053   3.982737   3.467908   1.529253   2.147721
    17  H    2.917744   4.511095   3.891485   2.166423   3.049579
    18  H    3.481847   4.897794   4.279180   2.164609   2.420114
    19  C    2.533455   4.416608   2.737298   3.034461   3.972566
    20  H    3.088310   5.154141   3.442969   3.067885   4.054665
    21  C    3.342779   4.986624   3.087348   4.014041   4.765957
    22  H    4.232643   6.004350   3.926869   4.641644   5.347959
    23  C    2.603757   3.067885   2.813710   3.972336   4.738792
    24  H    2.814691   2.459367   3.127864   4.254677   4.907414
    25  H    3.525057   4.054665   3.820978   4.738792   5.614508
    26  C    3.172600   3.563210   2.807734   4.563682   5.140498
    27  H    4.196533   4.215675   3.847079   5.628669   6.195330
    28  H    2.965909   2.997669   2.354451   4.387454   4.744980
                   11         12         13         14         15
    11  H    0.000000
    12  C    3.872733   0.000000
    13  H    4.951374   1.084666   0.000000
    14  C    3.443994   1.378260   2.125026   0.000000
    15  H    4.351686   2.136709   2.442897   1.083066   0.000000
    16  C    2.167089   2.506574   3.483618   1.495936   2.228052
    17  H    2.435818   3.122847   4.061325   2.129785   2.668776
    18  H    2.553090   3.312380   4.180268   2.133539   2.485728
    19  C    2.662935   4.652388   5.622399   4.633380   5.565759
    20  H    2.459367   4.986624   6.004350   4.659195   5.489347
    21  C    3.545893   5.686465   6.614761   5.848155   6.833990
    22  H    3.956133   6.614761   7.584671   6.646839   7.608999
    23  C    4.254677   4.014041   4.641644   4.641186   5.550594
    24  H    4.775661   3.545893   3.956133   4.413044   5.250457
    25  H    4.907414   4.765957   5.347959   5.253235   6.063429
    26  C    4.688632   5.016085   5.648371   5.742023   6.738906
    27  H    5.776065   5.802913   6.306084   6.622560   7.576270
    28  H    4.639362   4.740167   5.321905   5.608031   6.635665
                   16         17         18         19         20
    16  C    0.000000
    17  H    1.098430   0.000000
    18  H    1.093516   1.741763   0.000000
    19  C    3.776109   3.391602   4.601856   0.000000
    20  H    3.563210   2.997669   4.215675   1.082768   0.000000
    21  C    5.016085   4.740167   5.802913   1.385445   2.141054
    22  H    5.648371   5.321905   6.306084   2.132717   2.448261
    23  C    4.563682   4.387454   5.628669   2.465362   3.429343
    24  H    4.688632   4.639362   5.776065   3.421766   4.317125
    25  H    5.140498   4.744980   6.195330   2.715935   3.550159
    26  C    5.527400   5.488437   6.523650   2.900570   3.982737
    27  H    6.523650   6.441847   7.546882   3.833649   4.897794
    28  H    5.488437   5.666289   6.441847   3.456397   4.511095
                   21         22         23         24         25
    21  C    0.000000
    22  H    1.084666   0.000000
    23  C    2.818713   3.886963   0.000000
    24  H    3.872733   4.951374   1.091294   0.000000
    25  H    3.035612   3.990527   1.093128   1.755592   0.000000
    26  C    2.506574   3.483618   1.529253   2.167089   2.147721
    27  H    3.312380   4.180268   2.164609   2.553090   2.420114
    28  H    3.122847   4.061325   2.166423   2.435818   3.049579
                   26         27         28
    26  C    0.000000
    27  H    1.093516   0.000000
    28  H    1.098430   1.741763   0.000000
 Symmetry turned off by external request.
 Stoichiometry    C12H16
 Framework group  CI[X(C12H16)]
 Deg. of freedom    39
 Full point group                 CI      NOp   2
 Rotational constants (GHZ):           2.0078497           0.6490302           0.5559470
 Leave Link  202 at Mon Aug  3 16:58:02 2020, MaxMem=  6442450944 cpu:               0.3 elap:               0.0
 (Enter /scratch/scicomp/CentOS/7.3.1611/Haswell/software/Gaussian/g16/l301.exe)
 Standard basis: def2TZVP (6D, 10F)
 Ernie: Thresh=  0.10000D-02 Tol=  0.10000D-05 Strict=F.
   528 basis functions,   740 primitive gaussians,   528 cartesian basis functions
    44 alpha electrons       44 beta electrons
       nuclear repulsion energy       696.7492334605 Hartrees.
 IExCor= 4639 DFT=T Ex+Corr=wB97XD ExCW=0 ScaHFX=  1.000000
 ScaDFX=  1.000000  1.000000  1.000000  1.000000 ScalE2=  1.000000  1.000000
 IRadAn=      5 IRanWt=     -1 IRanGd=            0 ICorTp=0 IEmpDi=121
 HFx  wShort=  0.000000 wLong=  0.200000 cFull=  0.222036 cShort=  0.000000 cLong=  0.777964
 DFx  wShort=  0.000000 wLong=  0.200000 cFull=  0.000000 cShort=  0.000000 cLong=  1.000000
 NAtoms=   28 NActive=   28 NUniq=   28 SFac= 1.00D+00 NAtFMM=   60 NAOKFM=F Big=F
 Integral buffers will be    131072 words long.
 Raffenetti 2 integral format.
 Two-electron integral symmetry is turned off.
 R6Disp:  Grimme-D2 Dispersion energy=       -0.0228760933 Hartrees.
 Nuclear repulsion after empirical dispersion term =      696.7263573672 Hartrees.
 Using the following non-standard input for PCM:
 norep pcmdoc geomview  nodis nocav g03defaults tsare=0.075
 Warning! Using old PCM defaults because the g03defaults keyword was found.
 These settings can be overridden by following keywords.
 nsfe=28
 NVESolv=36  SolvMW=84.1595   Rsolv=2.815
 eps=2.0165 RhoS=0.7781
 --- end of non-standard input.
 Reading user-defined spheres from input:
 ISph  on   Nord    Re0     Alpha      Xe            Ye            Ze
 --- end of user-defined spheres data.
 ------------------------------------------------------------------------------
 Polarizable Continuum Model (PCM)
 =================================
 Model                : PCM.
 Atomic radii         : UA0 (Simple United Atom Topological Model).
 Polarization charges : Total charges.
 Charge compensation  : None.
 Solution method      : On-the-fly selection.
 Cavity type          : SES (Solvent Excluding Surface) (Alpha=1.000).
 Cavity algorithm     : GePol (RMin=0.200 OFac=0.890).
                        User-defined sphere list used, NSphG=   28.
                        Tesserae with average area of 0.075 Ang**2.
                        Smoothing algorithm: None.
                        Polarization charges: point-like.
                        Self-potential: constant (ISelfS= 1).
                        Self-field    : global E.n sum rule (ISelfD= 3).
 Solvent              : CycloHexane, Eps=   2.016500 Eps(inf)=   2.035188
                        RSolv=   2.815000 Ang.
 ------------------------------------------------------------------------------
 GePol: Number of generator spheres                  =      28
 GePol: Total number of spheres                      =     148
 GePol: Number of exposed spheres                    =     114 ( 77.03%)
 GePol: Number of tesserae                           =    4625
 GePol: Average area of tesserae                     =       0.05 Ang**2
 GePol: Minimum area of tessera                      =   0.10D-02 Ang**2
 GePol: Maximum area of tessera                      =    0.12395 Ang**2
 GePol: Number of small tesserae                     =       0
 GePol: Fraction of small tesserae (<1% of avg)      =       0.00%
 GePol: Total count of vertices                      =   16275
 GePol: Maximum number of vertices in a tessera      =       7
 GePol: Cavity surface area                          =    217.884 Ang**2
 GePol: Cavity volume                                =    244.224 Ang**3
 Leave Link  301 at Mon Aug  3 16:58:02 2020, MaxMem=  6442450944 cpu:               6.9 elap:               0.3
 (Enter /scratch/scicomp/CentOS/7.3.1611/Haswell/software/Gaussian/g16/l302.exe)
 NPDir=0 NMtPBC=     1 NCelOv=     1 NCel=       1 NClECP=     1 NCelD=      1
         NCelK=      1 NCelE2=     1 NClLst=     1 CellRange=     0.0.
 One-electron integrals computed using PRISM.
   1 Symmetry operations used in ECPInt.
 ECPInt:  NShTT=   19306 NPrTT=   56928 LenC2=   18540 LenP2D=   42344.
 LDataN:  DoStor=T MaxTD1= 6 Len=  172
 NBasis=   528 RedAO= T EigKep=  2.48D-05  NBF=   528
 NBsUse=   528 1.00D-06 EigRej= -1.00D+00 NBFU=   528
 Precomputing XC quadrature grid using
 IXCGrd= 4 IRadAn=           5 IRanWt=          -1 IRanGd=           0 AccXCQ= 0.00D+00.
 Generated NRdTot=       0 NPtTot=           0 NUsed=           0 NTot=          32
 NSgBfM=   526   526   526   526   526 MxSgAt=    28 MxSgA2=    28.
 Leave Link  302 at Mon Aug  3 16:58:03 2020, MaxMem=  6442450944 cpu:              12.7 elap:               0.6
 (Enter /scratch/scicomp/CentOS/7.3.1611/Haswell/software/Gaussian/g16/l303.exe)
 DipDrv:  MaxL=1.
 Leave Link  303 at Mon Aug  3 16:58:03 2020, MaxMem=  6442450944 cpu:               1.5 elap:               0.1
 (Enter /scratch/scicomp/CentOS/7.3.1611/Haswell/software/Gaussian/g16/l401.exe)
 ExpMin= 9.52D-02 ExpMax= 1.36D+04 ExpMxC= 4.63D+02 IAcc=3 IRadAn=         5 AccDes= 0.00D+00
 Harris functional with IExCor= 4639 and IRadAn=       5 diagonalized for initial guess.
 HarFok:  IExCor= 4639 AccDes= 0.00D+00 IRadAn=         5 IDoV= 1 UseB2=F ITyADJ=14
 ICtDFT=  3500011 ScaDFX=  1.000000  1.000000  1.000000  1.000000
 FoFCou: FMM=F IPFlag=           0 FMFlag=      100000 FMFlg1=           0
         NFxFlg=           0 DoJE=T BraDBF=F KetDBF=T FulRan=T
         wScrn=  0.000000 ICntrl=       500 IOpCl=  0 I1Cent=   200000004 NGrid=           0
         NMat0=    1 NMatS0=      1 NMatT0=    0 NMatD0=    1 NMtDS0=    0 NMtDT0=    0
 Symmetry not used in FoFCou.
 Harris En= -444.601683823236    
 JPrj=0 DoOrth=F DoCkMO=T.
 Mixing orbitals, IMix= 1 IMixAn=  0 NRI=1 NE=   44 Coef=  7.07106781D-01  7.07106781D-01
 Mixing orbitals, IMix= 1 IMixAn=  0 NRI=1 NE=   44 Coef= -7.07106781D-01  7.07106781D-01
 Initial guess <Sx>= 0.0000 <Sy>= 0.0000 <Sz>= 0.0000 <S**2>= 1.0000 S= 0.6180
 Leave Link  401 at Mon Aug  3 16:58:05 2020, MaxMem=  6442450944 cpu:              49.1 elap:               2.1
 (Enter /scratch/scicomp/CentOS/7.3.1611/Haswell/software/Gaussian/g16/l502.exe)
 Two-electron integral symmetry not used.
 UHF open shell SCF:
 Using DIIS extrapolation, IDIIS=  1040.
 NGot=  6442450944 LenX=  6441877030 LenY=  6441597718
 Requested convergence on RMS density matrix=1.00D-08 within 128 cycles.
 Requested convergence on MAX density matrix=1.00D-06.
 Requested convergence on             energy=1.00D-06.
 No special actions if energy rises.
 Fock matrices will be formed incrementally for  20 cycles.

 Cycle   1  Pass 1  IDiag  1:
 FoFJK:  IHMeth= 1 ICntrl=       0 DoSepK=T KAlg= 0 I1Cent=           0 FoldK=F
 IRaf=         1 NMat=       1 IRICut=       1 DoRegI=T DoRafI=F ISym2E= 0 IDoP0=0 IntGTp=1.
 FoFCou: FMM=F IPFlag=           0 FMFlag=      100000 FMFlg1=           0
         NFxFlg=           0 DoJE=T BraDBF=F KetDBF=F FulRan=T
         wScrn=  0.000000 ICntrl=       500 IOpCl=  0 I1Cent=           0 NGrid=           0
         NMat0=    1 NMatS0=      1 NMatT0=    0 NMatD0=    1 NMtDS0=    0 NMtDT0=    0
 Symmetry not used in FoFCou.
 Inv3:  Mode=1 IEnd=    64171875.
 Iteration    1 A*A^-1 deviation from unit magnitude is 4.09D-14 for   3761.
 Iteration    1 A*A^-1 deviation from orthogonality  is 2.56D-14 for   3225   3203.
 Iteration    1 A^-1*A deviation from unit magnitude is 4.09D-14 for   3761.
 Iteration    1 A^-1*A deviation from orthogonality  is 1.17D-14 for   3761   3225.
 E= -466.693551253545    
 DIIS: error= 6.45D-02 at cycle   1 NSaved=   1.
 NSaved= 1 IEnMin= 1 EnMin= -466.693551253545     IErMin= 1 ErrMin= 6.45D-02
 ErrMax= 6.45D-02  0.00D+00 EMaxC= 1.00D-01 BMatC= 4.10D+00 BMatP= 4.10D+00
 IDIUse=3 WtCom= 3.55D-01 WtEn= 6.45D-01
 Coeff-Com:  0.100D+01
 Coeff-En:   0.100D+01
 Coeff:      0.100D+01
 Gap=     0.233 Goal=   None    Shift=    0.000
 Gap=     0.233 Goal=   None    Shift=    0.000
 GapD=    0.233 DampG=1.000 DampE=0.500 DampFc=0.5000 IDamp=-1.
 Damping current iteration by 5.00D-01
 RMSDP=1.37D-03 MaxDP=9.20D-02              OVMax= 5.25D-02

 Cycle   2  Pass 1  IDiag  1:
 RMSU=  6.68D-04    CP:  9.76D-01
 E= -466.763451334733     Delta-E=       -0.069900081187 Rises=F Damp=T
 DIIS: error= 3.05D-02 at cycle   2 NSaved=   2.
 NSaved= 2 IEnMin= 2 EnMin= -466.763451334733     IErMin= 2 ErrMin= 3.05D-02
 ErrMax= 3.05D-02  0.00D+00 EMaxC= 1.00D-01 BMatC= 9.19D-01 BMatP= 4.10D+00
 IDIUse=3 WtCom= 6.95D-01 WtEn= 3.05D-01
 Coeff-Com: -0.862D+00 0.186D+01
 Coeff-En:   0.000D+00 0.100D+01
 Coeff:     -0.599D+00 0.160D+01
 Gap=     0.241 Goal=   None    Shift=    0.000
 Gap=     0.241 Goal=   None    Shift=    0.000
 RMSDP=8.24D-04 MaxDP=4.86D-02 DE=-6.99D-02 OVMax= 3.21D-02

 Cycle   3  Pass 1  IDiag  1:
 RMSU=  4.32D-04    CP:  9.49D-01  2.02D+00
 E= -466.831534350171     Delta-E=       -0.068083015438 Rises=F Damp=F
 DIIS: error= 2.59D-03 at cycle   3 NSaved=   3.
 NSaved= 3 IEnMin= 3 EnMin= -466.831534350171     IErMin= 3 ErrMin= 2.59D-03
 ErrMax= 2.59D-03  0.00D+00 EMaxC= 1.00D-01 BMatC= 1.67D-02 BMatP= 9.19D-01
 IDIUse=3 WtCom= 9.74D-01 WtEn= 2.59D-02
 Coeff-Com: -0.302D+00 0.654D+00 0.648D+00
 Coeff-En:   0.000D+00 0.000D+00 0.100D+01
 Coeff:     -0.294D+00 0.637D+00 0.657D+00
 Gap=     0.245 Goal=   None    Shift=    0.000
 Gap=     0.245 Goal=   None    Shift=    0.000
 RMSDP=1.09D-04 MaxDP=4.60D-03 DE=-6.81D-02 OVMax= 1.27D-02

 Cycle   4  Pass 1  IDiag  1:
 RMSU=  8.63D-05    CP:  9.47D-01  2.09D+00  8.93D-01
 E= -466.835852215276     Delta-E=       -0.004317865106 Rises=F Damp=F
 DIIS: error= 9.70D-04 at cycle   4 NSaved=   4.
 NSaved= 4 IEnMin= 4 EnMin= -466.835852215276     IErMin= 4 ErrMin= 9.70D-04
 ErrMax= 9.70D-04  0.00D+00 EMaxC= 1.00D-01 BMatC= 5.61D-04 BMatP= 1.67D-02
 IDIUse=3 WtCom= 9.90D-01 WtEn= 9.70D-03
 Coeff-Com:  0.104D+00-0.224D+00-0.124D+00 0.124D+01
 Coeff-En:   0.000D+00 0.000D+00 0.000D+00 0.100D+01
 Coeff:      0.103D+00-0.221D+00-0.123D+00 0.124D+01
 Gap=     0.250 Goal=   None    Shift=    0.000
 Gap=     0.250 Goal=   None    Shift=    0.000
 RMSDP=7.58D-05 MaxDP=4.87D-03 DE=-4.32D-03 OVMax= 1.21D-02

 Cycle   5  Pass 1  IDiag  1:
 RMSU=  3.32D-05    CP:  9.46D-01  2.12D+00  1.02D+00  1.42D+00
 E= -466.836481467278     Delta-E=       -0.000629252002 Rises=F Damp=F
 DIIS: error= 4.90D-04 at cycle   5 NSaved=   5.
 NSaved= 5 IEnMin= 5 EnMin= -466.836481467278     IErMin= 5 ErrMin= 4.90D-04
 ErrMax= 4.90D-04  0.00D+00 EMaxC= 1.00D-01 BMatC= 1.61D-04 BMatP= 5.61D-04
 IDIUse=3 WtCom= 9.95D-01 WtEn= 4.90D-03
 Coeff-Com:  0.575D-01-0.125D+00-0.104D+00 0.224D+00 0.948D+00
 Coeff-En:   0.000D+00 0.000D+00 0.000D+00 0.000D+00 0.100D+01
 Coeff:      0.572D-01-0.124D+00-0.104D+00 0.223D+00 0.948D+00
 Gap=     0.252 Goal=   None    Shift=    0.000
 Gap=     0.252 Goal=   None    Shift=    0.000
 RMSDP=2.72D-05 MaxDP=1.56D-03 DE=-6.29D-04 OVMax= 6.64D-03

 Cycle   6  Pass 1  IDiag  1:
 RMSU=  1.66D-05    CP:  9.45D-01  2.12D+00  1.04D+00  1.59D+00  1.37D+00
 E= -466.836628630570     Delta-E=       -0.000147163292 Rises=F Damp=F
 DIIS: error= 2.65D-04 at cycle   6 NSaved=   6.
 NSaved= 6 IEnMin= 6 EnMin= -466.836628630570     IErMin= 6 ErrMin= 2.65D-04
 ErrMax= 2.65D-04  0.00D+00 EMaxC= 1.00D-01 BMatC= 5.69D-05 BMatP= 1.61D-04
 IDIUse=3 WtCom= 9.97D-01 WtEn= 2.65D-03
 Coeff-Com: -0.218D-01 0.468D-01 0.133D-01-0.430D+00 0.369D+00 0.102D+01
 Coeff-En:   0.000D+00 0.000D+00 0.000D+00 0.000D+00 0.000D+00 0.100D+01
 Coeff:     -0.217D-01 0.466D-01 0.133D-01-0.429D+00 0.368D+00 0.102D+01
 Gap=     0.254 Goal=   None    Shift=    0.000
 Gap=     0.254 Goal=   None    Shift=    0.000
 RMSDP=1.91D-05 MaxDP=1.20D-03 DE=-1.47D-04 OVMax= 4.86D-03

 Cycle   7  Pass 1  IDiag  1:
 RMSU=  8.80D-06    CP:  9.45D-01  2.13D+00  1.05D+00  1.68D+00  1.79D+00
                    CP:  1.21D+00
 E= -466.836680176898     Delta-E=       -0.000051546328 Rises=F Damp=F
 DIIS: error= 5.63D-05 at cycle   7 NSaved=   7.
 NSaved= 7 IEnMin= 7 EnMin= -466.836680176898     IErMin= 7 ErrMin= 5.63D-05
 ErrMax= 5.63D-05  0.00D+00 EMaxC= 1.00D-01 BMatC= 3.27D-06 BMatP= 5.69D-05
 IDIUse=1 WtCom= 1.00D+00 WtEn= 0.00D+00
 Coeff-Com: -0.103D-01 0.223D-01 0.126D-01-0.108D+00-0.223D-01 0.202D+00
 Coeff-Com:  0.904D+00
 Coeff:     -0.103D-01 0.223D-01 0.126D-01-0.108D+00-0.223D-01 0.202D+00
 Coeff:      0.904D+00
 Gap=     0.254 Goal=   None    Shift=    0.000
 Gap=     0.254 Goal=   None    Shift=    0.000
 RMSDP=4.92D-06 MaxDP=3.10D-04 DE=-5.15D-05 OVMax= 1.16D-03

 Cycle   8  Pass 1  IDiag  1:
 RMSU=  2.21D-06    CP:  9.45D-01  2.12D+00  1.04D+00  1.68D+00  1.85D+00
                    CP:  1.36D+00  1.24D+00
 E= -466.836682863380     Delta-E=       -0.000002686482 Rises=F Damp=F
 DIIS: error= 2.88D-05 at cycle   8 NSaved=   8.
 NSaved= 8 IEnMin= 8 EnMin= -466.836682863380     IErMin= 8 ErrMin= 2.88D-05
 ErrMax= 2.88D-05  0.00D+00 EMaxC= 1.00D-01 BMatC= 5.35D-07 BMatP= 3.27D-06
 IDIUse=1 WtCom= 1.00D+00 WtEn= 0.00D+00
 Coeff-Com:  0.217D-03-0.442D-03 0.160D-02 0.317D-01-0.581D-01-0.922D-01
 Coeff-Com:  0.231D+00 0.886D+00
 Coeff:      0.217D-03-0.442D-03 0.160D-02 0.317D-01-0.581D-01-0.922D-01
 Coeff:      0.231D+00 0.886D+00
 Gap=     0.254 Goal=   None    Shift=    0.000
 Gap=     0.254 Goal=   None    Shift=    0.000
 RMSDP=2.11D-06 MaxDP=1.32D-04 DE=-2.69D-06 OVMax= 4.01D-04

 Cycle   9  Pass 1  IDiag  1:
 RMSU=  9.34D-07    CP:  9.45D-01  2.12D+00  1.04D+00  1.67D+00  1.85D+00
                    CP:  1.39D+00  1.39D+00  1.31D+00
 E= -466.836683223764     Delta-E=       -0.000000360384 Rises=F Damp=F
 DIIS: error= 1.18D-05 at cycle   9 NSaved=   9.
 NSaved= 9 IEnMin= 9 EnMin= -466.836683223764     IErMin= 9 ErrMin= 1.18D-05
 ErrMax= 1.18D-05  0.00D+00 EMaxC= 1.00D-01 BMatC= 5.82D-08 BMatP= 5.35D-07
 IDIUse=1 WtCom= 1.00D+00 WtEn= 0.00D+00
 Coeff-Com:  0.143D-02-0.311D-02-0.132D-02 0.217D-01-0.106D-01-0.491D-01
 Coeff-Com: -0.620D-01 0.217D+00 0.886D+00
 Coeff:      0.143D-02-0.311D-02-0.132D-02 0.217D-01-0.106D-01-0.491D-01
 Coeff:     -0.620D-01 0.217D+00 0.886D+00
 Gap=     0.254 Goal=   None    Shift=    0.000
 Gap=     0.254 Goal=   None    Shift=    0.000
 RMSDP=8.13D-07 MaxDP=4.73D-05 DE=-3.60D-07 OVMax= 1.69D-04

 Cycle  10  Pass 1  IDiag  1:
 RMSU=  3.20D-07    CP:  9.45D-01  2.12D+00  1.04D+00  1.67D+00  1.85D+00
                    CP:  1.39D+00  1.44D+00  1.50D+00  1.31D+00
 E= -466.836683266592     Delta-E=       -0.000000042828 Rises=F Damp=F
 DIIS: error= 3.72D-06 at cycle  10 NSaved=  10.
 NSaved=10 IEnMin=10 EnMin= -466.836683266592     IErMin=10 ErrMin= 3.72D-06
 ErrMax= 3.72D-06  0.00D+00 EMaxC= 1.00D-01 BMatC= 4.55D-09 BMatP= 5.82D-08
 IDIUse=1 WtCom= 1.00D+00 WtEn= 0.00D+00
 Coeff-Com: -0.972D-04 0.212D-03-0.854D-04-0.413D-02 0.560D-02 0.113D-01
 Coeff-Com: -0.160D-01-0.925D-01-0.483D-01 0.114D+01
 Coeff:     -0.972D-04 0.212D-03-0.854D-04-0.413D-02 0.560D-02 0.113D-01
 Coeff:     -0.160D-01-0.925D-01-0.483D-01 0.114D+01
 Gap=     0.254 Goal=   None    Shift=    0.000
 Gap=     0.254 Goal=   None    Shift=    0.000
 RMSDP=3.33D-07 MaxDP=2.65D-05 DE=-4.28D-08 OVMax= 6.69D-05

 Cycle  11  Pass 1  IDiag  1:
 RMSU=  1.12D-07    CP:  9.45D-01  2.12D+00  1.04D+00  1.67D+00  1.84D+00
                    CP:  1.39D+00  1.45D+00  1.57D+00  1.52D+00  1.41D+00
 E= -466.836683271552     Delta-E=       -0.000000004961 Rises=F Damp=F
 DIIS: error= 7.53D-07 at cycle  11 NSaved=  11.
 NSaved=11 IEnMin=11 EnMin= -466.836683271552     IErMin=11 ErrMin= 7.53D-07
 ErrMax= 7.53D-07  0.00D+00 EMaxC= 1.00D-01 BMatC= 1.13D-09 BMatP= 4.55D-09
 IDIUse=1 WtCom= 1.00D+00 WtEn= 0.00D+00
 Coeff-Com: -0.226D-03 0.489D-03 0.145D-03-0.430D-02 0.330D-02 0.105D-01
 Coeff-Com:  0.234D-02-0.605D-01-0.129D+00 0.395D+00 0.782D+00
 Coeff:     -0.226D-03 0.489D-03 0.145D-03-0.430D-02 0.330D-02 0.105D-01
 Coeff:      0.234D-02-0.605D-01-0.129D+00 0.395D+00 0.782D+00
 Gap=     0.254 Goal=   None    Shift=    0.000
 Gap=     0.254 Goal=   None    Shift=    0.000
 RMSDP=1.00D-07 MaxDP=7.74D-06 DE=-4.96D-09 OVMax= 1.75D-05

 Cycle  12  Pass 1  IDiag  1:
 RMSU=  3.95D-08    CP:  9.45D-01  2.12D+00  1.04D+00  1.67D+00  1.84D+00
                    CP:  1.39D+00  1.45D+00  1.58D+00  1.57D+00  1.55D+00
                    CP:  1.33D+00
 E= -466.836683272270     Delta-E=       -0.000000000717 Rises=F Damp=F
 DIIS: error= 3.36D-07 at cycle  12 NSaved=  12.
 NSaved=12 IEnMin=12 EnMin= -466.836683272270     IErMin=12 ErrMin= 3.36D-07
 ErrMax= 3.36D-07  0.00D+00 EMaxC= 1.00D-01 BMatC= 1.36D-10 BMatP= 1.13D-09
 IDIUse=1 WtCom= 1.00D+00 WtEn= 0.00D+00
 Coeff-Com:  0.306D-04-0.666D-04-0.628D-05 0.832D-03-0.975D-03-0.204D-02
 Coeff-Com:  0.195D-02 0.157D-01 0.149D-01-0.182D+00-0.193D-01 0.117D+01
 Coeff:      0.306D-04-0.666D-04-0.628D-05 0.832D-03-0.975D-03-0.204D-02
 Coeff:      0.195D-02 0.157D-01 0.149D-01-0.182D+00-0.193D-01 0.117D+01
 Gap=     0.254 Goal=   None    Shift=    0.000
 Gap=     0.254 Goal=   None    Shift=    0.000
 RMSDP=4.94D-08 MaxDP=2.48D-06 DE=-7.17D-10 OVMax= 9.26D-06

 Cycle  13  Pass 1  IDiag  1:
 RMSU=  1.90D-08    CP:  9.45D-01  2.12D+00  1.04D+00  1.67D+00  1.84D+00
                    CP:  1.39D+00  1.45D+00  1.58D+00  1.57D+00  1.60D+00
                    CP:  1.64D+00  1.48D+00
 E= -466.836683272472     Delta-E=       -0.000000000203 Rises=F Damp=F
 DIIS: error= 2.04D-07 at cycle  13 NSaved=  13.
 NSaved=13 IEnMin=13 EnMin= -466.836683272472     IErMin=13 ErrMin= 2.04D-07
 ErrMax= 2.04D-07  0.00D+00 EMaxC= 1.00D-01 BMatC= 3.15D-11 BMatP= 1.36D-10
 IDIUse=1 WtCom= 1.00D+00 WtEn= 0.00D+00
 Coeff-Com:  0.388D-04-0.840D-04-0.218D-04 0.760D-03-0.580D-03-0.190D-02
 Coeff-Com: -0.290D-03 0.106D-01 0.235D-01-0.732D-01-0.142D+00-0.177D-01
 Coeff-Com:  0.120D+01
 Coeff:      0.388D-04-0.840D-04-0.218D-04 0.760D-03-0.580D-03-0.190D-02
 Coeff:     -0.290D-03 0.106D-01 0.235D-01-0.732D-01-0.142D+00-0.177D-01
 Coeff:      0.120D+01
 Gap=     0.254 Goal=   None    Shift=    0.000
 Gap=     0.254 Goal=   None    Shift=    0.000
 RMSDP=2.43D-08 MaxDP=1.05D-06 DE=-2.03D-10 OVMax= 5.90D-06

 Cycle  14  Pass 1  IDiag  1:
 RMSU=  8.75D-09    CP:  9.45D-01  2.12D+00  1.04D+00  1.67D+00  1.84D+00
                    CP:  1.39D+00  1.45D+00  1.58D+00  1.57D+00  1.61D+00
                    CP:  1.76D+00  1.74D+00  1.67D+00
 E= -466.836683272537     Delta-E=       -0.000000000065 Rises=F Damp=F
 DIIS: error= 1.17D-07 at cycle  14 NSaved=  14.
 NSaved=14 IEnMin=14 EnMin= -466.836683272537     IErMin=14 ErrMin= 1.17D-07
 ErrMax= 1.17D-07  0.00D+00 EMaxC= 1.00D-01 BMatC= 9.37D-12 BMatP= 3.15D-11
 IDIUse=1 WtCom= 1.00D+00 WtEn= 0.00D+00
 Coeff-Com: -0.307D-05 0.687D-05 0.138D-06-0.114D-03 0.173D-03 0.246D-03
 Coeff-Com: -0.413D-03-0.270D-02-0.678D-03 0.344D-01-0.141D-01-0.291D+00
 Coeff-Com:  0.151D+00 0.112D+01
 Coeff:     -0.307D-05 0.687D-05 0.138D-06-0.114D-03 0.173D-03 0.246D-03
 Coeff:     -0.413D-03-0.270D-02-0.678D-03 0.344D-01-0.141D-01-0.291D+00
 Coeff:      0.151D+00 0.112D+01
 Gap=     0.254 Goal=   None    Shift=    0.000
 Gap=     0.254 Goal=   None    Shift=    0.000
 RMSDP=1.27D-08 MaxDP=6.27D-07 DE=-6.50D-11 OVMax= 3.89D-06

 Cycle  15  Pass 1  IDiag  1:
 RMSU=  4.07D-09    CP:  9.45D-01  2.12D+00  1.04D+00  1.67D+00  1.84D+00
                    CP:  1.39D+00  1.45D+00  1.58D+00  1.57D+00  1.61D+00
                    CP:  1.79D+00  1.82D+00  2.11D+00  1.73D+00
 E= -466.836683272568     Delta-E=       -0.000000000031 Rises=F Damp=F
 DIIS: error= 5.07D-08 at cycle  15 NSaved=  15.
 NSaved=15 IEnMin=15 EnMin= -466.836683272568     IErMin=15 ErrMin= 5.07D-08
 ErrMax= 5.07D-08  0.00D+00 EMaxC= 1.00D-01 BMatC= 2.52D-12 BMatP= 9.37D-12
 IDIUse=1 WtCom= 1.00D+00 WtEn= 0.00D+00
 Coeff-Com: -0.123D-04 0.266D-04 0.624D-05-0.257D-03 0.231D-03 0.628D-03
 Coeff-Com: -0.608D-04-0.410D-02-0.711D-02 0.323D-01 0.392D-01-0.801D-01
 Coeff-Com: -0.318D+00 0.317D+00 0.102D+01
 Coeff:     -0.123D-04 0.266D-04 0.624D-05-0.257D-03 0.231D-03 0.628D-03
 Coeff:     -0.608D-04-0.410D-02-0.711D-02 0.323D-01 0.392D-01-0.801D-01
 Coeff:     -0.318D+00 0.317D+00 0.102D+01
 Gap=     0.254 Goal=   None    Shift=    0.000
 Gap=     0.254 Goal=   None    Shift=    0.000
 RMSDP=7.07D-09 MaxDP=3.16D-07 DE=-3.06D-11 OVMax= 2.15D-06

 Error on total polarization charges =  0.01165
 SCF Done:  E(UwB97XD) =  -466.836683273     A.U. after   15 cycles
            NFock= 15  Conv=0.71D-08     -V/T= 2.0060
 <Sx>= 0.0000 <Sy>= 0.0000 <Sz>= 0.0000 <S**2>= 1.0545 S= 0.6422
 <L.S>=  0.00000000000    
 KE= 4.640394194347D+02 PE=-2.475038674988D+03 EE= 8.474362149131D+02
 --------------------------------------------------------------------
 Variational PCM results
 =======================
 <psi(f)|   H    |psi(f)>                     (a.u.) =    -466.835483
 <psi(f)|H+V(f)/2|psi(f)>                     (a.u.) =    -466.836683
 (Polarized solute)-Solvent               (kcal/mol) =      -0.75
 --------------------------------------------------------------------
 Partition over spheres:
 Sphere  on Atom  Surface  Charge   GEl     GCav    GDR
    1      C1       6.53   0.010   -0.04    0.00    0.00
    2      C2       0.05  -0.000   -0.00    0.00    0.00
    3      H3       7.51  -0.010   -0.04    0.00    0.00
    4      H4       3.55  -0.004   -0.01    0.00    0.00
    5      C5       3.93   0.007   -0.03    0.00    0.00
    6      C6       0.06  -0.000   -0.00    0.00    0.00
    7      H7       5.57  -0.008   -0.03    0.00    0.00
    8      H8       3.53  -0.003   -0.01    0.00    0.00
    9      C9       3.51   0.003   -0.00    0.00    0.00
   10      H10      5.89  -0.005   -0.01    0.00    0.00
   11      H11      5.08  -0.004   -0.01    0.00    0.00
   12      C12      7.01   0.011   -0.06    0.00    0.00
   13      H13      7.51  -0.010   -0.03    0.00    0.00
   14      C14      6.58   0.010   -0.04    0.00    0.00
   15      H15      7.51  -0.010   -0.04    0.00    0.00
   16      C16      2.69   0.001    0.00    0.00    0.00
   17      H17      4.54  -0.005   -0.02    0.00    0.00
   18      H18      7.62  -0.008   -0.03    0.00    0.00
   19      C19      4.49   0.007   -0.04    0.00    0.00
   20      H20      5.36  -0.007   -0.03    0.00    0.00
   21      C21      7.18   0.011   -0.06    0.00    0.00
   22      H22      7.53  -0.010   -0.03    0.00    0.00
   23      C23      3.18   0.002   -0.00    0.00    0.00
   24      H24      4.26  -0.003   -0.01    0.00    0.00
   25      H25      6.35  -0.005   -0.01    0.00    0.00
   26      C26      3.07   0.001    0.00    0.00    0.00
   27      H27      7.62  -0.008   -0.03    0.00    0.00
   28      H28      4.65  -0.005   -0.02    0.00    0.00
 Added spheres:    75.53   0.027   -0.17    0.00    0.00
 --------------------------------------------------------------------
 After PCM corrections, the energy is  -466.836683273     a.u.
 --------------------------------------------------------------------
 Annihilation of the first spin contaminant:
 S**2 before annihilation     1.0545,   after     0.5436
 Leave Link  502 at Mon Aug  3 17:02:37 2020, MaxMem=  6442450944 cpu:            6465.3 elap:             272.0
 (Enter /scratch/scicomp/CentOS/7.3.1611/Haswell/software/Gaussian/g16/l601.exe)
 Copying SCF densities to generalized density rwf, IOpCl= 1 IROHF=0.

 **********************************************************************

            Population analysis using the SCF Density.

 **********************************************************************

 Alpha  occ. eigenvalues --  -10.29161 -10.29036 -10.28869 -10.28575 -10.28426
 Alpha  occ. eigenvalues --  -10.28380 -10.28216 -10.28147 -10.27897 -10.27848
 Alpha  occ. eigenvalues --  -10.27836 -10.27817  -0.95508  -0.92701  -0.85973
 Alpha  occ. eigenvalues --   -0.84577  -0.83562  -0.81009  -0.71498  -0.70692
 Alpha  occ. eigenvalues --   -0.69185  -0.67540  -0.60182  -0.59339  -0.58717
 Alpha  occ. eigenvalues --   -0.56202  -0.53663  -0.52621  -0.50940  -0.49062
 Alpha  occ. eigenvalues --   -0.48987  -0.48636  -0.48263  -0.47380  -0.45965
 Alpha  occ. eigenvalues --   -0.44725  -0.41435  -0.40913  -0.40086  -0.38929
 Alpha  occ. eigenvalues --   -0.37711  -0.37347  -0.34730  -0.25279
 Alpha virt. eigenvalues --    0.00163   0.10522   0.10580   0.12331   0.13159
 Alpha virt. eigenvalues --    0.14049   0.14755   0.15391   0.16039   0.16300
 Alpha virt. eigenvalues --    0.17017   0.17154   0.18398   0.19971   0.20156
 Alpha virt. eigenvalues --    0.21350   0.22115   0.22402   0.23400   0.24548
 Alpha virt. eigenvalues --    0.25287   0.25614   0.26248   0.26524   0.26821
 Alpha virt. eigenvalues --    0.28464   0.28861   0.29807   0.30548   0.31499
 Alpha virt. eigenvalues --    0.31643   0.32021   0.32247   0.33853   0.34058
 Alpha virt. eigenvalues --    0.34286   0.35537   0.36022   0.36670   0.37139
 Alpha virt. eigenvalues --    0.38051   0.38337   0.40999   0.41181   0.41770
 Alpha virt. eigenvalues --    0.43353   0.43674   0.45195   0.45589   0.46043
 Alpha virt. eigenvalues --    0.46698   0.47030   0.47432   0.48038   0.48366
 Alpha virt. eigenvalues --    0.48709   0.49131   0.49365   0.49781   0.50741
 Alpha virt. eigenvalues --    0.50910   0.51055   0.51814   0.52281   0.52809
 Alpha virt. eigenvalues --    0.52949   0.53971   0.54056   0.54655   0.55277
 Alpha virt. eigenvalues --    0.56190   0.56840   0.57401   0.58273   0.58387
 Alpha virt. eigenvalues --    0.58688   0.61395   0.61644   0.64227   0.65423
 Alpha virt. eigenvalues --    0.66779   0.66915   0.67594   0.68884   0.69883
 Alpha virt. eigenvalues --    0.70504   0.71560   0.75102   0.75458   0.75638
 Alpha virt. eigenvalues --    0.78654   0.79187   0.80354   0.81158   0.82830
 Alpha virt. eigenvalues --    0.83275   0.84150   0.87222   0.87487   0.89072
 Alpha virt. eigenvalues --    0.90339   0.91057   0.92012   0.93435   0.94917
 Alpha virt. eigenvalues --    0.96407   0.97576   0.98471   0.98968   0.99682
 Alpha virt. eigenvalues --    1.01685   1.01847   1.03965   1.04894   1.05393
 Alpha virt. eigenvalues --    1.06731   1.08817   1.10161   1.10710   1.10739
 Alpha virt. eigenvalues --    1.11673   1.14482   1.15761   1.16928   1.17365
 Alpha virt. eigenvalues --    1.18411   1.18793   1.19658   1.19865   1.20694
 Alpha virt. eigenvalues --    1.22031   1.24076   1.25054   1.26109   1.26734
 Alpha virt. eigenvalues --    1.27134   1.27993   1.28702   1.29298   1.29772
 Alpha virt. eigenvalues --    1.30260   1.31294   1.33432   1.33868   1.34879
 Alpha virt. eigenvalues --    1.35031   1.36739   1.37203   1.38176   1.38573
 Alpha virt. eigenvalues --    1.39108   1.39411   1.40167   1.41208   1.42289
 Alpha virt. eigenvalues --    1.43131   1.43187   1.44362   1.45338   1.46212
 Alpha virt. eigenvalues --    1.46657   1.47738   1.48331   1.50618   1.51179
 Alpha virt. eigenvalues --    1.52612   1.53962   1.54425   1.56840   1.58075
 Alpha virt. eigenvalues --    1.58601   1.60495   1.62107   1.62566   1.63829
 Alpha virt. eigenvalues --    1.67728   1.68775   1.69206   1.69527   1.70168
 Alpha virt. eigenvalues --    1.73639   1.74255   1.77013   1.78275   1.78726
 Alpha virt. eigenvalues --    1.80734   1.81673   1.83439   1.84702   1.88351
 Alpha virt. eigenvalues --    1.88802   1.91761   1.92193   1.93848   1.95004
 Alpha virt. eigenvalues --    1.96210   1.99089   2.01981   2.05473   2.07201
 Alpha virt. eigenvalues --    2.07905   2.08745   2.09738   2.12323   2.12982
 Alpha virt. eigenvalues --    2.13507   2.15252   2.16509   2.18216   2.18817
 Alpha virt. eigenvalues --    2.20660   2.20875   2.21480   2.23193   2.23913
 Alpha virt. eigenvalues --    2.27320   2.27945   2.29960   2.31826   2.34935
 Alpha virt. eigenvalues --    2.35803   2.36639   2.37847   2.40807   2.41529
 Alpha virt. eigenvalues --    2.45534   2.46142   2.47075   2.49496   2.50851
 Alpha virt. eigenvalues --    2.51084   2.53469   2.55822   2.56318   2.57596
 Alpha virt. eigenvalues --    2.58198   2.60917   2.62168   2.62778   2.63340
 Alpha virt. eigenvalues --    2.65131   2.65523   2.67599   2.67678   2.68259
 Alpha virt. eigenvalues --    2.68970   2.70710   2.72749   2.72949   2.73090
 Alpha virt. eigenvalues --    2.74559   2.75232   2.76125   2.77830   2.79901
 Alpha virt. eigenvalues --    2.80183   2.81984   2.82159   2.82838   2.83880
 Alpha virt. eigenvalues --    2.84340   2.85084   2.86687   2.87145   2.87874
 Alpha virt. eigenvalues --    2.88219   2.89017   2.89690   2.90499   2.91218
 Alpha virt. eigenvalues --    2.93087   2.93981   2.94966   2.95807   2.97938
 Alpha virt. eigenvalues --    2.98589   3.01589   3.01748   3.02551   3.04312
 Alpha virt. eigenvalues --    3.06438   3.06622   3.06952   3.07940   3.08693
 Alpha virt. eigenvalues --    3.10293   3.10915   3.11512   3.12464   3.13004
 Alpha virt. eigenvalues --    3.13227   3.14241   3.15471   3.16044   3.16521
 Alpha virt. eigenvalues --    3.16589   3.17292   3.17827   3.19125   3.20102
 Alpha virt. eigenvalues --    3.20758   3.21132   3.21858   3.23092   3.24166
 Alpha virt. eigenvalues --    3.25016   3.25310   3.25553   3.25888   3.26363
 Alpha virt. eigenvalues --    3.27150   3.29187   3.29711   3.31249   3.31766
 Alpha virt. eigenvalues --    3.32305   3.32795   3.33148   3.35036   3.35737
 Alpha virt. eigenvalues --    3.36984   3.37111   3.38122   3.38898   3.39600
 Alpha virt. eigenvalues --    3.40985   3.41168   3.41683   3.43334   3.43765
 Alpha virt. eigenvalues --    3.44357   3.45689   3.46522   3.46934   3.49030
 Alpha virt. eigenvalues --    3.49384   3.50853   3.51149   3.51374   3.52820
 Alpha virt. eigenvalues --    3.53076   3.54111   3.55100   3.57515   3.57800
 Alpha virt. eigenvalues --    3.58745   3.59031   3.59433   3.60977   3.62732
 Alpha virt. eigenvalues --    3.62832   3.63877   3.64435   3.64938   3.67576
 Alpha virt. eigenvalues --    3.68491   3.69988   3.72089   3.72449   3.73935
 Alpha virt. eigenvalues --    3.75035   3.78883   3.79149   3.79981   3.81325
 Alpha virt. eigenvalues --    3.83649   3.83845   3.84376   3.84842   3.86147
 Alpha virt. eigenvalues --    3.88486   3.91118   3.91409   3.94338   3.95144
 Alpha virt. eigenvalues --    3.95759   3.97265   3.99164   4.00728   4.03740
 Alpha virt. eigenvalues --    4.05071   4.06594   4.08171   4.08762   4.08920
 Alpha virt. eigenvalues --    4.12175   4.13234   4.14505   4.16102   4.17957
 Alpha virt. eigenvalues --    4.18920   4.21419   4.23343   4.24151   4.25854
 Alpha virt. eigenvalues --    4.26469   4.28070   4.28670   4.28775   4.30084
 Alpha virt. eigenvalues --    4.33311   4.35701   4.40385   4.41171   4.41516
 Alpha virt. eigenvalues --    4.42882   4.43581   4.45449   4.45575   4.50789
 Alpha virt. eigenvalues --    4.53233   4.54887   4.56532   4.58100   4.58807
 Alpha virt. eigenvalues --    4.60957   4.62548   4.63596   4.65520   4.68766
 Alpha virt. eigenvalues --    4.70700   4.71411   4.74324   4.75633   4.78249
 Alpha virt. eigenvalues --    4.82585   4.83863   4.88117   4.89472   4.90240
 Alpha virt. eigenvalues --    4.92124   4.92369   4.95728   4.98423   5.00754
 Alpha virt. eigenvalues --    5.06031   5.08072   5.09445   5.13333   5.14616
 Alpha virt. eigenvalues --    5.20088   5.24476   5.26090   5.27019   5.31504
 Alpha virt. eigenvalues --    5.33868   5.35407   5.38390   5.39297   5.42739
 Alpha virt. eigenvalues --    5.46268   5.46973   5.52788   5.55058   5.57853
 Alpha virt. eigenvalues --    5.64270   5.72377   5.74548   5.80640   5.81542
 Alpha virt. eigenvalues --    7.94362   7.95268   8.03229   8.04701   8.08439
 Alpha virt. eigenvalues --    8.10970   8.12479   8.16212   8.18339   8.20127
 Alpha virt. eigenvalues --    8.32382   8.37347  34.74997  34.75652  34.82211
 Alpha virt. eigenvalues --   34.82652  34.85622  34.90013  34.98965  35.00365
 Alpha virt. eigenvalues --   35.02287  35.02991  35.15325  35.24902
  Beta  occ. eigenvalues --  -10.29161 -10.29035 -10.28869 -10.28575 -10.28427
  Beta  occ. eigenvalues --  -10.28379 -10.28217 -10.28148 -10.27896 -10.27849
  Beta  occ. eigenvalues --  -10.27835 -10.27818  -0.95507  -0.92701  -0.85973
  Beta  occ. eigenvalues --   -0.84577  -0.83563  -0.81009  -0.71498  -0.70692
  Beta  occ. eigenvalues --   -0.69186  -0.67540  -0.60182  -0.59339  -0.58717
  Beta  occ. eigenvalues --   -0.56202  -0.53663  -0.52621  -0.50940  -0.49062
  Beta  occ. eigenvalues --   -0.48987  -0.48636  -0.48263  -0.47380  -0.45965
  Beta  occ. eigenvalues --   -0.44724  -0.41435  -0.40913  -0.40086  -0.38929
  Beta  occ. eigenvalues --   -0.37711  -0.37347  -0.34731  -0.25278
  Beta virt. eigenvalues --    0.00162   0.10523   0.10580   0.12331   0.13158
  Beta virt. eigenvalues --    0.14048   0.14756   0.15391   0.16039   0.16300
  Beta virt. eigenvalues --    0.17017   0.17153   0.18398   0.19972   0.20156
  Beta virt. eigenvalues --    0.21350   0.22115   0.22402   0.23400   0.24548
  Beta virt. eigenvalues --    0.25287   0.25614   0.26248   0.26524   0.26821
  Beta virt. eigenvalues --    0.28464   0.28861   0.29807   0.30548   0.31499
  Beta virt. eigenvalues --    0.31643   0.32021   0.32247   0.33853   0.34058
  Beta virt. eigenvalues --    0.34286   0.35537   0.36022   0.36670   0.37140
  Beta virt. eigenvalues --    0.38050   0.38337   0.40999   0.41181   0.41770
  Beta virt. eigenvalues --    0.43353   0.43674   0.45195   0.45589   0.46043
  Beta virt. eigenvalues --    0.46698   0.47030   0.47432   0.48038   0.48366
  Beta virt. eigenvalues --    0.48709   0.49131   0.49366   0.49780   0.50741
  Beta virt. eigenvalues --    0.50910   0.51054   0.51814   0.52281   0.52809
  Beta virt. eigenvalues --    0.52948   0.53971   0.54056   0.54655   0.55277
  Beta virt. eigenvalues --    0.56190   0.56840   0.57401   0.58273   0.58387
  Beta virt. eigenvalues --    0.58688   0.61395   0.61644   0.64227   0.65423
  Beta virt. eigenvalues --    0.66779   0.66915   0.67594   0.68884   0.69883
  Beta virt. eigenvalues --    0.70504   0.71560   0.75102   0.75458   0.75638
  Beta virt. eigenvalues --    0.78654   0.79187   0.80354   0.81158   0.82830
  Beta virt. eigenvalues --    0.83275   0.84150   0.87222   0.87487   0.89072
  Beta virt. eigenvalues --    0.90339   0.91057   0.92012   0.93435   0.94917
  Beta virt. eigenvalues --    0.96407   0.97576   0.98471   0.98968   0.99682
  Beta virt. eigenvalues --    1.01685   1.01846   1.03965   1.04894   1.05393
  Beta virt. eigenvalues --    1.06731   1.08816   1.10161   1.10710   1.10739
  Beta virt. eigenvalues --    1.11673   1.14482   1.15761   1.16928   1.17364
  Beta virt. eigenvalues --    1.18411   1.18792   1.19658   1.19865   1.20694
  Beta virt. eigenvalues --    1.22031   1.24076   1.25054   1.26109   1.26734
  Beta virt. eigenvalues --    1.27134   1.27993   1.28702   1.29298   1.29772
  Beta virt. eigenvalues --    1.30260   1.31294   1.33432   1.33868   1.34879
  Beta virt. eigenvalues --    1.35031   1.36739   1.37203   1.38176   1.38573
  Beta virt. eigenvalues --    1.39108   1.39411   1.40167   1.41208   1.42289
  Beta virt. eigenvalues --    1.43131   1.43187   1.44363   1.45338   1.46212
  Beta virt. eigenvalues --    1.46657   1.47738   1.48331   1.50618   1.51179
  Beta virt. eigenvalues --    1.52612   1.53962   1.54425   1.56840   1.58075
  Beta virt. eigenvalues --    1.58601   1.60495   1.62107   1.62566   1.63829
  Beta virt. eigenvalues --    1.67728   1.68775   1.69206   1.69527   1.70168
  Beta virt. eigenvalues --    1.73639   1.74255   1.77013   1.78275   1.78726
  Beta virt. eigenvalues --    1.80734   1.81673   1.83439   1.84702   1.88351
  Beta virt. eigenvalues --    1.88802   1.91761   1.92193   1.93848   1.95004
  Beta virt. eigenvalues --    1.96210   1.99089   2.01981   2.05473   2.07201
  Beta virt. eigenvalues --    2.07905   2.08745   2.09738   2.12323   2.12982
  Beta virt. eigenvalues --    2.13507   2.15252   2.16509   2.18217   2.18817
  Beta virt. eigenvalues --    2.20660   2.20875   2.21480   2.23193   2.23913
  Beta virt. eigenvalues --    2.27320   2.27945   2.29960   2.31826   2.34935
  Beta virt. eigenvalues --    2.35803   2.36639   2.37847   2.40807   2.41529
  Beta virt. eigenvalues --    2.45534   2.46142   2.47075   2.49496   2.50851
  Beta virt. eigenvalues --    2.51084   2.53469   2.55822   2.56318   2.57596
  Beta virt. eigenvalues --    2.58198   2.60917   2.62168   2.62779   2.63340
  Beta virt. eigenvalues --    2.65131   2.65524   2.67599   2.67678   2.68259
  Beta virt. eigenvalues --    2.68970   2.70709   2.72749   2.72948   2.73091
  Beta virt. eigenvalues --    2.74559   2.75232   2.76125   2.77830   2.79901
  Beta virt. eigenvalues --    2.80183   2.81984   2.82159   2.82838   2.83880
  Beta virt. eigenvalues --    2.84340   2.85084   2.86687   2.87145   2.87874
  Beta virt. eigenvalues --    2.88219   2.89017   2.89690   2.90499   2.91218
  Beta virt. eigenvalues --    2.93087   2.93981   2.94966   2.95807   2.97938
  Beta virt. eigenvalues --    2.98589   3.01590   3.01747   3.02551   3.04312
  Beta virt. eigenvalues --    3.06438   3.06622   3.06952   3.07940   3.08693
  Beta virt. eigenvalues --    3.10294   3.10915   3.11512   3.12463   3.13004
  Beta virt. eigenvalues --    3.13227   3.14241   3.15471   3.16044   3.16521
  Beta virt. eigenvalues --    3.16589   3.17292   3.17827   3.19125   3.20102
  Beta virt. eigenvalues --    3.20758   3.21132   3.21859   3.23092   3.24166
  Beta virt. eigenvalues --    3.25016   3.25310   3.25553   3.25888   3.26363
  Beta virt. eigenvalues --    3.27150   3.29187   3.29711   3.31249   3.31766
  Beta virt. eigenvalues --    3.32305   3.32795   3.33148   3.35036   3.35737
  Beta virt. eigenvalues --    3.36984   3.37111   3.38122   3.38899   3.39600
  Beta virt. eigenvalues --    3.40985   3.41168   3.41683   3.43334   3.43765
  Beta virt. eigenvalues --    3.44357   3.45689   3.46522   3.46934   3.49030
  Beta virt. eigenvalues --    3.49384   3.50853   3.51149   3.51374   3.52820
  Beta virt. eigenvalues --    3.53076   3.54111   3.55100   3.57515   3.57800
  Beta virt. eigenvalues --    3.58745   3.59030   3.59433   3.60977   3.62731
  Beta virt. eigenvalues --    3.62833   3.63877   3.64435   3.64938   3.67576
  Beta virt. eigenvalues --    3.68491   3.69988   3.72089   3.72449   3.73935
  Beta virt. eigenvalues --    3.75035   3.78883   3.79149   3.79981   3.81325
  Beta virt. eigenvalues --    3.83650   3.83846   3.84376   3.84841   3.86147
  Beta virt. eigenvalues --    3.88486   3.91118   3.91409   3.94338   3.95144
  Beta virt. eigenvalues --    3.95758   3.97265   3.99164   4.00728   4.03740
  Beta virt. eigenvalues --    4.05071   4.06594   4.08171   4.08762   4.08920
  Beta virt. eigenvalues --    4.12175   4.13234   4.14505   4.16102   4.17957
  Beta virt. eigenvalues --    4.18920   4.21419   4.23344   4.24151   4.25854
  Beta virt. eigenvalues --    4.26469   4.28070   4.28670   4.28775   4.30084
  Beta virt. eigenvalues --    4.33311   4.35701   4.40385   4.41171   4.41516
  Beta virt. eigenvalues --    4.42882   4.43580   4.45449   4.45575   4.50789
  Beta virt. eigenvalues --    4.53233   4.54888   4.56532   4.58100   4.58807
  Beta virt. eigenvalues --    4.60957   4.62548   4.63596   4.65520   4.68766
  Beta virt. eigenvalues --    4.70700   4.71411   4.74324   4.75633   4.78249
  Beta virt. eigenvalues --    4.82585   4.83863   4.88117   4.89473   4.90240
  Beta virt. eigenvalues --    4.92124   4.92369   4.95728   4.98423   5.00754
  Beta virt. eigenvalues --    5.06031   5.08072   5.09445   5.13333   5.14616
  Beta virt. eigenvalues --    5.20088   5.24476   5.26090   5.27019   5.31504
  Beta virt. eigenvalues --    5.33868   5.35407   5.38390   5.39297   5.42739
  Beta virt. eigenvalues --    5.46268   5.46973   5.52788   5.55058   5.57853
  Beta virt. eigenvalues --    5.64270   5.72377   5.74548   5.80641   5.81541
  Beta virt. eigenvalues --    7.94362   7.95267   8.03230   8.04701   8.08439
  Beta virt. eigenvalues --    8.10970   8.12479   8.16212   8.18339   8.20127
  Beta virt. eigenvalues --    8.32382   8.37347  34.74997  34.75652  34.82212
  Beta virt. eigenvalues --   34.82652  34.85622  34.90012  34.98965  35.00365
  Beta virt. eigenvalues --   35.02287  35.02991  35.15325  35.24902
          Condensed to atoms (all electrons):
               1          2          3          4          5          6
     1  C    5.254311   0.030299   0.430896  -0.003113   0.001026  -0.011600
     2  C    0.030299   5.302160  -0.001800   0.422193  -0.109954   0.250137
     3  H    0.430896  -0.001800   0.490899   0.000041  -0.000003   0.000215
     4  H   -0.003113   0.422193   0.000041   0.542361  -0.002578  -0.011567
     5  C    0.001026  -0.109954  -0.000003  -0.002578   5.337791   0.277362
     6  C   -0.011600   0.250137   0.000215  -0.011567   0.277362   5.302146
     7  H    0.000022   0.000913   0.000004   0.000246   0.426809  -0.032173
     8  H   -0.001656  -0.011550  -0.000105   0.002856  -0.050914   0.422162
     9  C    0.002216  -0.068754   0.000001  -0.011075  -0.054081   0.268320
    10  H   -0.000049   0.007979  -0.000001  -0.000233  -0.000929  -0.048084
    11  H   -0.000335  -0.005097   0.000002   0.000982   0.011616  -0.048396
    12  C   -0.000134   0.012541  -0.000001   0.004053   0.439778  -0.075908
    13  H    0.000000  -0.000310   0.000000  -0.000059  -0.029509   0.004087
    14  C    0.000049  -0.011591  -0.000000  -0.001658  -0.060539   0.030300
    15  H   -0.000000   0.000215  -0.000000  -0.000105   0.004479  -0.001801
    16  C   -0.000308   0.021485   0.000000   0.002799  -0.005644  -0.081395
    17  H    0.000043   0.003041  -0.000000  -0.003615   0.005153  -0.011701
    18  H    0.000002  -0.000479   0.000000   0.000360  -0.001219   0.012044
    19  C   -0.060539   0.277363   0.004482  -0.050931   0.012161  -0.109952
    20  H    0.004485  -0.032255  -0.000150  -0.005728  -0.000595   0.000918
    21  C    0.459973  -0.075937  -0.035049   0.007044  -0.000763   0.012546
    22  H   -0.030869   0.004083  -0.005442  -0.000161   0.000055  -0.000310
    23  C   -0.103265   0.268324   0.005782  -0.022749   0.012210  -0.068752
    24  H    0.012831  -0.048395  -0.000073  -0.003280   0.004815  -0.005106
    25  H   -0.001189  -0.048069  -0.000157  -0.005709  -0.000128   0.007978
    26  C    0.283787  -0.081391  -0.030943   0.009929  -0.009201   0.021484
    27  H   -0.028888   0.012042  -0.003859  -0.000183   0.000101  -0.000479
    28  H   -0.039507  -0.011691   0.000409  -0.000193  -0.000945   0.003041
               7          8          9         10         11         12
     1  C    0.000022  -0.001656   0.002216  -0.000049  -0.000335  -0.000134
     2  C    0.000913  -0.011550  -0.068754   0.007979  -0.005097   0.012541
     3  H    0.000004  -0.000105   0.000001  -0.000001   0.000002  -0.000001
     4  H    0.000246   0.002856  -0.011075  -0.000233   0.000982   0.004053
     5  C    0.426809  -0.050914  -0.054081  -0.000929   0.011616   0.439778
     6  C   -0.032173   0.422162   0.268320  -0.048084  -0.048396  -0.075908
     7  H    0.480161  -0.005731   0.003413   0.000270  -0.000081  -0.031771
     8  H   -0.005731   0.542404  -0.022770  -0.005709  -0.003279   0.007051
     9  C    0.003413  -0.022770   5.020299   0.415127   0.445005   0.029683
    10  H    0.000270  -0.005709   0.415127   0.556684  -0.015610   0.001883
    11  H   -0.000081  -0.003279   0.445005  -0.015610   0.530292  -0.004897
    12  C   -0.031771   0.007051   0.029683   0.001883  -0.004897   4.986402
    13  H   -0.004927  -0.000161   0.000198  -0.000123   0.000039   0.420504
    14  C    0.004491  -0.003116  -0.103252  -0.001186   0.012829   0.459961
    15  H   -0.000150   0.000041   0.005781  -0.000157  -0.000073  -0.035046
    16  C   -0.001285   0.009934   0.338405  -0.027403  -0.052965  -0.047011
    17  H   -0.000030  -0.000193  -0.027891   0.005246  -0.004108  -0.004830
    18  H    0.000067  -0.000184  -0.038929  -0.006239  -0.003112   0.003009
    19  C   -0.000594  -0.002583   0.012208  -0.000127   0.004808  -0.000764
    20  H    0.000004   0.000245   0.002552   0.000286  -0.003283  -0.000046
    21  C   -0.000047   0.004055  -0.004013  -0.000004   0.000454   0.000131
    22  H   -0.000002  -0.000059  -0.000069  -0.000002  -0.000003   0.000000
    23  C    0.002556  -0.011069   0.010015  -0.000261  -0.000008  -0.004017
    24  H   -0.003286   0.000982  -0.000008  -0.000018  -0.000009   0.000453
    25  H    0.000286  -0.000234  -0.000260   0.000018  -0.000018  -0.000004
    26  C   -0.001060   0.002799  -0.002534   0.000085   0.000063   0.001099
    27  H   -0.000029   0.000360   0.000041  -0.000002  -0.000003  -0.000008
    28  H    0.002164  -0.003615   0.000864   0.000012   0.000008  -0.000070
              13         14         15         16         17         18
     1  C    0.000000   0.000049  -0.000000  -0.000308   0.000043   0.000002
     2  C   -0.000310  -0.011591   0.000215   0.021485   0.003041  -0.000479
     3  H    0.000000  -0.000000  -0.000000   0.000000  -0.000000   0.000000
     4  H   -0.000059  -0.001658  -0.000105   0.002799  -0.003615   0.000360
     5  C   -0.029509  -0.060539   0.004479  -0.005644   0.005153  -0.001219
     6  C    0.004087   0.030300  -0.001801  -0.081395  -0.011701   0.012044
     7  H   -0.004927   0.004491  -0.000150  -0.001285  -0.000030   0.000067
     8  H   -0.000161  -0.003116   0.000041   0.009934  -0.000193  -0.000184
     9  C    0.000198  -0.103252   0.005781   0.338405  -0.027891  -0.038929
    10  H   -0.000123  -0.001186  -0.000157  -0.027403   0.005246  -0.006239
    11  H    0.000039   0.012829  -0.000073  -0.052965  -0.004108  -0.003112
    12  C    0.420504   0.459961  -0.035046  -0.047011  -0.004830   0.003009
    13  H    0.500499  -0.030834  -0.005442   0.004778  -0.000373  -0.000166
    14  C   -0.030834   5.254326   0.430895   0.283795  -0.039516  -0.028894
    15  H   -0.005442   0.430895   0.490888  -0.030938   0.000407  -0.003859
    16  C    0.004778   0.283795  -0.030938   4.963356   0.400433   0.414555
    17  H   -0.000373  -0.039516   0.000407   0.400433   0.582956  -0.023436
    18  H   -0.000166  -0.028894  -0.003859   0.414555  -0.023436   0.548582
    19  C    0.000055   0.001026  -0.000003  -0.009201  -0.000943   0.000101
    20  H   -0.000002   0.000022   0.000004  -0.001058   0.002165  -0.000029
    21  C    0.000000  -0.000134  -0.000001   0.001098  -0.000069  -0.000008
    22  H    0.000000   0.000000   0.000000   0.000001  -0.000006  -0.000001
    23  C   -0.000068   0.002217   0.000001  -0.002533   0.000864   0.000041
    24  H   -0.000003  -0.000335   0.000002   0.000063   0.000008  -0.000003
    25  H   -0.000002  -0.000048  -0.000001   0.000085   0.000012  -0.000002
    26  C    0.000001  -0.000308   0.000000   0.000497  -0.000048  -0.000002
    27  H   -0.000001   0.000002   0.000000  -0.000002   0.000001  -0.000000
    28  H   -0.000006   0.000043  -0.000000  -0.000048  -0.000002   0.000001
              19         20         21         22         23         24
     1  C   -0.060539   0.004485   0.459973  -0.030869  -0.103265   0.012831
     2  C    0.277363  -0.032255  -0.075937   0.004083   0.268324  -0.048395
     3  H    0.004482  -0.000150  -0.035049  -0.005442   0.005782  -0.000073
     4  H   -0.050931  -0.005728   0.007044  -0.000161  -0.022749  -0.003280
     5  C    0.012161  -0.000595  -0.000763   0.000055   0.012210   0.004815
     6  C   -0.109952   0.000918   0.012546  -0.000310  -0.068752  -0.005106
     7  H   -0.000594   0.000004  -0.000047  -0.000002   0.002556  -0.003286
     8  H   -0.002583   0.000245   0.004055  -0.000059  -0.011069   0.000982
     9  C    0.012208   0.002552  -0.004013  -0.000069   0.010015  -0.000008
    10  H   -0.000127   0.000286  -0.000004  -0.000002  -0.000261  -0.000018
    11  H    0.004808  -0.003283   0.000454  -0.000003  -0.000008  -0.000009
    12  C   -0.000764  -0.000046   0.000131   0.000000  -0.004017   0.000453
    13  H    0.000055  -0.000002   0.000000   0.000000  -0.000068  -0.000003
    14  C    0.001026   0.000022  -0.000134   0.000000   0.002217  -0.000335
    15  H   -0.000003   0.000004  -0.000001   0.000000   0.000001   0.000002
    16  C   -0.009201  -0.001058   0.001098   0.000001  -0.002533   0.000063
    17  H   -0.000943   0.002165  -0.000069  -0.000006   0.000864   0.000008
    18  H    0.000101  -0.000029  -0.000008  -0.000001   0.000041  -0.000003
    19  C    5.337723   0.426806   0.439865  -0.029484  -0.054070   0.011616
    20  H    0.426806   0.480198  -0.031688  -0.004928   0.003413  -0.000081
    21  C    0.439865  -0.031688   4.986332   0.420516   0.029702  -0.004898
    22  H   -0.029484  -0.004928   0.420516   0.500482   0.000197   0.000039
    23  C   -0.054070   0.003413   0.029702   0.000197   5.020199   0.444993
    24  H    0.011616  -0.000081  -0.004898   0.000039   0.444993   0.530381
    25  H   -0.000928   0.000270   0.001887  -0.000123   0.415127  -0.015617
    26  C   -0.005664  -0.001282  -0.046996   0.004779   0.338432  -0.052970
    27  H   -0.001219   0.000067   0.003005  -0.000166  -0.038924  -0.003111
    28  H    0.005154  -0.000031  -0.004838  -0.000373  -0.027883  -0.004109
              25         26         27         28
     1  C   -0.001189   0.283787  -0.028888  -0.039507
     2  C   -0.048069  -0.081391   0.012042  -0.011691
     3  H   -0.000157  -0.030943  -0.003859   0.000409
     4  H   -0.005709   0.009929  -0.000183  -0.000193
     5  C   -0.000128  -0.009201   0.000101  -0.000945
     6  C    0.007978   0.021484  -0.000479   0.003041
     7  H    0.000286  -0.001060  -0.000029   0.002164
     8  H   -0.000234   0.002799   0.000360  -0.003615
     9  C   -0.000260  -0.002534   0.000041   0.000864
    10  H    0.000018   0.000085  -0.000002   0.000012
    11  H   -0.000018   0.000063  -0.000003   0.000008
    12  C   -0.000004   0.001099  -0.000008  -0.000070
    13  H   -0.000002   0.000001  -0.000001  -0.000006
    14  C   -0.000048  -0.000308   0.000002   0.000043
    15  H   -0.000001   0.000000   0.000000  -0.000000
    16  C    0.000085   0.000497  -0.000002  -0.000048
    17  H    0.000012  -0.000048   0.000001  -0.000002
    18  H   -0.000002  -0.000002  -0.000000   0.000001
    19  C   -0.000928  -0.005664  -0.001219   0.005154
    20  H    0.000270  -0.001282   0.000067  -0.000031
    21  C    0.001887  -0.046996   0.003005  -0.004838
    22  H   -0.000123   0.004779  -0.000166  -0.000373
    23  C    0.415127   0.338432  -0.038924  -0.027883
    24  H   -0.015617  -0.052970  -0.003111  -0.004109
    25  H    0.556598  -0.027389  -0.006240   0.005245
    26  C   -0.027389   4.963360   0.414547   0.400428
    27  H   -0.006240   0.414547   0.548586  -0.023439
    28  H    0.005245   0.400428  -0.023439   0.582923
          Atomic-Atomic Spin Densities.
               1          2          3          4          5          6
     1  C   -0.706169  -0.006439   0.001201  -0.000016   0.000361  -0.004803
     2  C   -0.006439   0.093677  -0.000220  -0.003054  -0.042514   0.000018
     3  H    0.001201  -0.000220   0.025524   0.000002   0.000003   0.000034
     4  H   -0.000016  -0.003054   0.000002  -0.009790   0.001844   0.007861
     5  C    0.000361  -0.042514   0.000003   0.001844   0.766051  -0.033610
     6  C   -0.004803   0.000018   0.000034   0.007861  -0.033610  -0.093652
     7  H   -0.000003   0.000709   0.000000  -0.000002  -0.003354   0.000764
     8  H    0.001501  -0.007861   0.000007   0.000000  -0.000833   0.003047
     9  C   -0.000212  -0.011724   0.000000  -0.000853  -0.006492   0.009947
    10  H   -0.000007   0.000364  -0.000000  -0.000020  -0.001989   0.000303
    11  H    0.000247   0.000930  -0.000000   0.000015   0.000108   0.001039
    12  C    0.000072   0.006623  -0.000000  -0.001241  -0.004458   0.006054
    13  H    0.000000   0.000171  -0.000000  -0.000020  -0.001528   0.000365
    14  C    0.000000   0.004805  -0.000000  -0.001502  -0.061768   0.006451
    15  H    0.000000  -0.000034  -0.000000  -0.000007  -0.000506   0.000220
    16  C    0.000030  -0.000993   0.000000   0.001007   0.007579  -0.003217
    17  H   -0.000010  -0.002745   0.000000   0.000331   0.003463  -0.002642
    18  H    0.000001   0.000228   0.000000  -0.000037  -0.000012   0.000801
    19  C    0.061758   0.033566   0.000505   0.000836  -0.000002   0.042510
    20  H    0.000341  -0.000769  -0.000006  -0.000261  -0.000073  -0.000709
    21  C   -0.008320  -0.006048  -0.000708   0.000815   0.000556  -0.006625
    22  H    0.000985  -0.000365  -0.000300   0.000023   0.000008  -0.000171
    23  C   -0.003030  -0.009956   0.000308  -0.004145  -0.004188   0.011726
    24  H   -0.000197  -0.001038  -0.000006   0.000189   0.001289  -0.000930
    25  H    0.000448  -0.000303   0.000008   0.000112   0.000108  -0.000364
    26  C    0.034551   0.003209  -0.001183  -0.000143   0.000316   0.000991
    27  H    0.007663  -0.000800  -0.000265   0.000047   0.000035  -0.000228
    28  H    0.022381   0.002636   0.000189  -0.000192  -0.000121   0.002746
               7          8          9         10         11         12
     1  C   -0.000003   0.001501  -0.000212  -0.000007   0.000247   0.000072
     2  C    0.000709  -0.007861  -0.011724   0.000364   0.000930   0.006623
     3  H    0.000000   0.000007   0.000000  -0.000000  -0.000000  -0.000000
     4  H   -0.000002   0.000000  -0.000853  -0.000020   0.000015  -0.001241
     5  C   -0.003354  -0.000833  -0.006492  -0.001989   0.000108  -0.004458
     6  C    0.000764   0.003047   0.009947   0.000303   0.001039   0.006054
     7  H   -0.026184   0.000262  -0.000379  -0.000030   0.000010   0.002238
     8  H    0.000262   0.009792   0.004145  -0.000112  -0.000189  -0.000815
     9  C   -0.000379   0.004145   0.007376  -0.000825  -0.001079  -0.001985
    10  H   -0.000030  -0.000112  -0.000825   0.000739   0.000335   0.001216
    11  H    0.000010  -0.000189  -0.001079   0.000335   0.000042  -0.000117
    12  C    0.002238  -0.000815  -0.001985   0.001216  -0.000117  -0.248554
    13  H    0.000334  -0.000023  -0.000142   0.000021  -0.000000   0.001836
    14  C   -0.000341   0.000016   0.003023  -0.000448   0.000197   0.008325
    15  H    0.000006  -0.000002  -0.000308  -0.000008   0.000006   0.000709
    16  C    0.000039   0.000143   0.006512   0.000624  -0.000193   0.003357
    17  H   -0.000031   0.000192  -0.002184   0.000240  -0.000566   0.000024
    18  H    0.000004  -0.000047   0.002691  -0.000531   0.000309   0.000540
    19  C    0.000073  -0.001843   0.004187  -0.000109  -0.001288  -0.000556
    20  H   -0.000000   0.000002   0.000168   0.000017  -0.000150   0.000029
    21  C   -0.000029   0.001242  -0.000755  -0.000003   0.000103   0.000000
    22  H   -0.000000   0.000020  -0.000026   0.000000   0.000011  -0.000000
    23  C   -0.000168   0.000853  -0.000000  -0.000015  -0.000151   0.000755
    24  H    0.000150  -0.000015   0.000151   0.000000  -0.000000  -0.000103
    25  H   -0.000017   0.000020   0.000015   0.000000  -0.000000   0.000003
    26  C    0.000166  -0.001006   0.000015   0.000004  -0.000036  -0.000222
    27  H    0.000005   0.000037   0.000007   0.000000   0.000002   0.000006
    28  H   -0.000093  -0.000331  -0.000058  -0.000003  -0.000035  -0.000111
              13         14         15         16         17         18
     1  C    0.000000   0.000000   0.000000   0.000030  -0.000010   0.000001
     2  C    0.000171   0.004805  -0.000034  -0.000993  -0.002745   0.000228
     3  H   -0.000000  -0.000000  -0.000000   0.000000   0.000000   0.000000
     4  H   -0.000020  -0.001502  -0.000007   0.001007   0.000331  -0.000037
     5  C   -0.001528  -0.061768  -0.000506   0.007579   0.003463  -0.000012
     6  C    0.000365   0.006451   0.000220  -0.003217  -0.002642   0.000801
     7  H    0.000334  -0.000341   0.000006   0.000039  -0.000031   0.000004
     8  H   -0.000023   0.000016  -0.000002   0.000143   0.000192  -0.000047
     9  C   -0.000142   0.003023  -0.000308   0.006512  -0.002184   0.002691
    10  H    0.000021  -0.000448  -0.000008   0.000624   0.000240  -0.000531
    11  H   -0.000000   0.000197   0.000006  -0.000193  -0.000566   0.000309
    12  C    0.001836   0.008325   0.000709   0.003357   0.000024   0.000540
    13  H    0.009223  -0.000983   0.000300   0.000059  -0.000051   0.000021
    14  C   -0.000983   0.706167  -0.001202  -0.034541  -0.022388  -0.007660
    15  H    0.000300  -0.001202  -0.025524   0.001183  -0.000190   0.000266
    16  C    0.000059  -0.034541   0.001183  -0.036017   0.012625   0.004984
    17  H   -0.000051  -0.022388  -0.000190   0.012625   0.055660  -0.008958
    18  H    0.000021  -0.007660   0.000266   0.004984  -0.008958   0.022056
    19  C   -0.000008  -0.000361  -0.000003  -0.000315   0.000121  -0.000035
    20  H    0.000000   0.000002  -0.000000  -0.000166   0.000093  -0.000005
    21  C    0.000000  -0.000072   0.000000   0.000222   0.000111  -0.000006
    22  H    0.000000  -0.000000   0.000000   0.000003   0.000001  -0.000000
    23  C    0.000026   0.000211  -0.000000  -0.000015   0.000058  -0.000007
    24  H   -0.000011  -0.000247   0.000000   0.000036   0.000036  -0.000002
    25  H   -0.000000   0.000007   0.000000  -0.000004   0.000003  -0.000000
    26  C   -0.000003  -0.000030  -0.000000  -0.000000   0.000013  -0.000001
    27  H    0.000000  -0.000001  -0.000000   0.000001   0.000000   0.000000
    28  H   -0.000001   0.000010  -0.000000  -0.000013  -0.000000  -0.000000
              19         20         21         22         23         24
     1  C    0.061758   0.000341  -0.008320   0.000985  -0.003030  -0.000197
     2  C    0.033566  -0.000769  -0.006048  -0.000365  -0.009956  -0.001038
     3  H    0.000505  -0.000006  -0.000708  -0.000300   0.000308  -0.000006
     4  H    0.000836  -0.000261   0.000815   0.000023  -0.004145   0.000189
     5  C   -0.000002  -0.000073   0.000556   0.000008  -0.004188   0.001289
     6  C    0.042510  -0.000709  -0.006625  -0.000171   0.011726  -0.000930
     7  H    0.000073  -0.000000  -0.000029  -0.000000  -0.000168   0.000150
     8  H   -0.001843   0.000002   0.001242   0.000020   0.000853  -0.000015
     9  C    0.004187   0.000168  -0.000755  -0.000026  -0.000000   0.000151
    10  H   -0.000109   0.000017  -0.000003   0.000000  -0.000015   0.000000
    11  H   -0.001288  -0.000150   0.000103   0.000011  -0.000151  -0.000000
    12  C   -0.000556   0.000029   0.000000  -0.000000   0.000755  -0.000103
    13  H   -0.000008   0.000000   0.000000   0.000000   0.000026  -0.000011
    14  C   -0.000361   0.000002  -0.000072  -0.000000   0.000211  -0.000247
    15  H   -0.000003  -0.000000   0.000000   0.000000  -0.000000   0.000000
    16  C   -0.000315  -0.000166   0.000222   0.000003  -0.000015   0.000036
    17  H    0.000121   0.000093   0.000111   0.000001   0.000058   0.000036
    18  H   -0.000035  -0.000005  -0.000006  -0.000000  -0.000007  -0.000002
    19  C   -0.766011   0.003353   0.004458   0.001528   0.006499  -0.000108
    20  H    0.003353   0.026186  -0.002233  -0.000334   0.000379  -0.000010
    21  C    0.004458  -0.002233   0.248546  -0.001837   0.001988   0.000117
    22  H    0.001528  -0.000334  -0.001837  -0.009223   0.000142   0.000000
    23  C    0.006499   0.000379   0.001988   0.000142  -0.007376   0.001078
    24  H   -0.000108  -0.000010   0.000117   0.000000   0.001078  -0.000042
    25  H    0.001989   0.000030  -0.001215  -0.000021   0.000825  -0.000335
    26  C   -0.007575  -0.000039  -0.003363  -0.000059  -0.006506   0.000193
    27  H    0.000011  -0.000004  -0.000540  -0.000021  -0.002690  -0.000309
    28  H   -0.003459   0.000031  -0.000023   0.000051   0.002184   0.000566
              25         26         27         28
     1  C    0.000448   0.034551   0.007663   0.022381
     2  C   -0.000303   0.003209  -0.000800   0.002636
     3  H    0.000008  -0.001183  -0.000265   0.000189
     4  H    0.000112  -0.000143   0.000047  -0.000192
     5  C    0.000108   0.000316   0.000035  -0.000121
     6  C   -0.000364   0.000991  -0.000228   0.002746
     7  H   -0.000017   0.000166   0.000005  -0.000093
     8  H    0.000020  -0.001006   0.000037  -0.000331
     9  C    0.000015   0.000015   0.000007  -0.000058
    10  H    0.000000   0.000004   0.000000  -0.000003
    11  H   -0.000000  -0.000036   0.000002  -0.000035
    12  C    0.000003  -0.000222   0.000006  -0.000111
    13  H   -0.000000  -0.000003   0.000000  -0.000001
    14  C    0.000007  -0.000030  -0.000001   0.000010
    15  H    0.000000  -0.000000  -0.000000  -0.000000
    16  C   -0.000004  -0.000000   0.000001  -0.000013
    17  H    0.000003   0.000013   0.000000  -0.000000
    18  H   -0.000000  -0.000001   0.000000  -0.000000
    19  C    0.001989  -0.007575   0.000011  -0.003459
    20  H    0.000030  -0.000039  -0.000004   0.000031
    21  C   -0.001215  -0.003363  -0.000540  -0.000023
    22  H   -0.000021  -0.000059  -0.000021   0.000051
    23  C    0.000825  -0.006506  -0.002690   0.002184
    24  H   -0.000335   0.000193  -0.000309   0.000566
    25  H   -0.000740  -0.000624   0.000531  -0.000240
    26  C   -0.000624   0.036008  -0.004987  -0.012620
    27  H    0.000531  -0.004987  -0.022056   0.008957
    28  H   -0.000240  -0.012620   0.008957  -0.055656
 Mulliken charges and spin densities:
               1          2
     1  C   -0.198488  -0.597669
     2  C   -0.105499   0.052072
     3  H    0.144854   0.025093
     4  H    0.130073  -0.008201
     5  C   -0.206355   0.620273
     6  C   -0.105515  -0.052075
     7  H    0.159760  -0.025869
     8  H    0.130038   0.008202
     9  C   -0.220491   0.011216
    10  H    0.118546  -0.000235
    11  H    0.135181  -0.000452
    12  C   -0.162040  -0.226376
    13  H    0.141826   0.009584
    14  C   -0.198544   0.597671
    15  H    0.144862  -0.025094
    16  C   -0.181494  -0.037068
    17  H    0.116432   0.033207
    18  H    0.127800   0.014600
    19  C   -0.206365  -0.620280
    20  H    0.159724   0.025870
    21  C   -0.162165   0.226382
    22  H    0.141846  -0.009584
    23  C   -0.220475  -0.011217
    24  H    0.135120   0.000452
    25  H    0.118612   0.000235
    26  C   -0.181502   0.037069
    27  H    0.127802  -0.014600
    28  H    0.116457  -0.033207
 Sum of Mulliken charges =  -0.00000   0.00000
 Mulliken charges and spin densities with hydrogens summed into heavy atoms:
               1          2
     1  C   -0.053634  -0.572575
     2  C    0.024574   0.043871
     5  C   -0.046595   0.594404
     6  C    0.024523  -0.043873
     9  C    0.033237   0.010530
    12  C   -0.020214  -0.216793
    14  C   -0.053682   0.572577
    16  C    0.062738   0.010739
    19  C   -0.046641  -0.594411
    21  C   -0.020319   0.216799
    23  C    0.033257  -0.010530
    26  C    0.062756  -0.010739
 Electronic spatial extent (au):  <R**2>=           2166.5057
 Charge=             -0.0000 electrons
 Dipole moment (field-independent basis, Debye):
    X=             -0.0003    Y=             -0.0003    Z=              0.0003  Tot=              0.0005
 Quadrupole moment (field-independent basis, Debye-Ang):
   XX=            -71.9361   YY=            -71.2274   ZZ=            -76.3075
   XY=             -2.3969   XZ=             -2.7134   YZ=              0.0632
 Traceless Quadrupole moment (field-independent basis, Debye-Ang):
   XX=              1.2209   YY=              1.9296   ZZ=             -3.1505
   XY=             -2.3969   XZ=             -2.7134   YZ=              0.0632
 Octapole moment (field-independent basis, Debye-Ang**2):
  XXX=              0.0035  YYY=             -0.0039  ZZZ=             -0.0005  XYY=             -0.0022
  XXY=             -0.0003  XXZ=              0.0001  XZZ=             -0.0008  YZZ=              0.0010
  YYZ=              0.0011  XYZ=              0.0006
 Hexadecapole moment (field-independent basis, Debye-Ang**3):
 XXXX=          -2001.7941 YYYY=           -640.0531 ZZZZ=           -288.8416 XXXY=            -86.9883
 XXXZ=           -105.8242 YYYX=            -60.7638 YYYZ=              1.5317 ZZZX=            -58.9453
 ZZZY=             -6.6265 XXYY=           -439.2657 XXZZ=           -412.2381 YYZZ=           -168.8654
 XXYZ=            -18.3456 YYXZ=            -22.0060 ZZXY=            -40.2908
 N-N= 6.967263573672D+02 E-N=-2.475038679743D+03  KE= 4.640394194347D+02
                          Isotropic Fermi Contact Couplings
        Atom                 a.u.       MegaHertz       Gauss      10(-4) cm-1
     1  C(13)             -0.04584     -25.76652      -9.19414      -8.59479
     2  C(13)              0.05395      30.32634      10.82119      10.11578
     3  H(1)               0.00897      20.05545       7.15628       6.68978
     4  H(1)              -0.00417      -9.31829      -3.32500      -3.10825
     5  C(13)              0.04812      27.04872       9.65166       9.02248
     6  C(13)             -0.05395     -30.32695     -10.82141     -10.11598
     7  H(1)              -0.00941     -21.01994      -7.50044      -7.01150
     8  H(1)               0.00417       9.31835       3.32502       3.10827
     9  C(13)              0.00300       1.68369       0.60078       0.56162
    10  H(1)              -0.00021      -0.46165      -0.16473      -0.15399
    11  H(1)              -0.00029      -0.64079      -0.22865      -0.21374
    12  C(13)             -0.04371     -24.57025      -8.76728      -8.19575
    13  H(1)               0.00314       7.02411       2.50638       2.34299
    14  C(13)              0.04584      25.76676       9.19422       8.59487
    15  H(1)              -0.00897     -20.05564      -7.15635      -6.68984
    16  C(13)             -0.01865     -10.48492      -3.74128      -3.49739
    17  H(1)               0.01607      35.92300      12.81822      11.98262
    18  H(1)               0.00695      15.53270       5.54245       5.18115
    19  C(13)             -0.04812     -27.04857      -9.65160      -9.02243
    20  H(1)               0.00941      21.01999       7.50046       7.01151
    21  C(13)              0.04371      24.56993       8.76716       8.19565
    22  H(1)              -0.00314      -7.02420      -2.50641      -2.34302
    23  C(13)             -0.00300      -1.68370      -0.60079      -0.56162
    24  H(1)               0.00029       0.64077       0.22864       0.21374
    25  H(1)               0.00021       0.46154       0.16469       0.15395
    26  C(13)              0.01865      10.48475       3.74122       3.49733
    27  H(1)              -0.00695     -15.53290      -5.54252      -5.18122
    28  H(1)              -0.01607     -35.92402     -12.81858     -11.98296
 --------------------------------------------------------
       Center         ----  Spin Dipole Couplings  ----
                      3XX-RR        3YY-RR        3ZZ-RR
 --------------------------------------------------------
     1   Atom        0.146789      0.353739     -0.500528
     2   Atom       -0.002082     -0.019281      0.021363
     3   Atom       -0.035344      0.044936     -0.009592
     4   Atom       -0.003183     -0.004210      0.007393
     5   Atom       -0.244254     -0.346706      0.590960
     6   Atom        0.002082      0.019281     -0.021363
     7   Atom       -0.020017      0.017014      0.003003
     8   Atom        0.003183      0.004210     -0.007393
     9   Atom       -0.001735      0.008781     -0.007046
    10   Atom       -0.004288      0.003741      0.000547
    11   Atom       -0.006050      0.007233     -0.001183
    12   Atom        0.076482      0.098684     -0.175166
    13   Atom        0.007059     -0.001626     -0.005433
    14   Atom       -0.146791     -0.353742      0.500533
    15   Atom        0.035345     -0.044936      0.009592
    16   Atom       -0.005476      0.002697      0.002779
    17   Atom       -0.008508      0.009315     -0.000806
    18   Atom       -0.006341      0.010760     -0.004419
    19   Atom        0.244258      0.346704     -0.590962
    20   Atom        0.020018     -0.017015     -0.003004
    21   Atom       -0.076481     -0.098683      0.175164
    22   Atom       -0.007058      0.001626      0.005433
    23   Atom        0.001735     -0.008780      0.007046
    24   Atom        0.006050     -0.007233      0.001183
    25   Atom        0.004288     -0.003741     -0.000547
    26   Atom        0.005477     -0.002696     -0.002781
    27   Atom        0.006341     -0.010760      0.004419
    28   Atom        0.008508     -0.009314      0.000806
 --------------------------------------------------------
                        XY            XZ            YZ
 --------------------------------------------------------
     1   Atom        0.003352     -0.405015      0.010524
     2   Atom        0.007243      0.030760      0.015478
     3   Atom       -0.008499      0.017726      0.005037
     4   Atom       -0.005200      0.005882      0.008999
     5   Atom       -0.055329      0.339660     -0.122565
     6   Atom       -0.007243     -0.030760     -0.015477
     7   Atom       -0.043025      0.002471      0.015329
     8   Atom        0.005200     -0.005882     -0.008999
     9   Atom       -0.014399     -0.012652      0.002433
    10   Atom       -0.001318     -0.003555     -0.005906
    11   Atom        0.004615     -0.008368     -0.000045
    12   Atom       -0.006506     -0.123070      0.028863
    13   Atom       -0.007418     -0.007603      0.003186
    14   Atom       -0.003353      0.405017     -0.010525
    15   Atom        0.008499     -0.017726     -0.005037
    16   Atom        0.001749      0.006390     -0.000679
    17   Atom        0.004563      0.001678      0.005557
    18   Atom       -0.002554     -0.000818     -0.002841
    19   Atom        0.055332     -0.339655      0.122573
    20   Atom        0.043025     -0.002471     -0.015330
    21   Atom        0.006505      0.123071     -0.028863
    22   Atom        0.007418      0.007603     -0.003186
    23   Atom        0.014400      0.012652     -0.002433
    24   Atom       -0.004615      0.008368      0.000045
    25   Atom        0.001318      0.003555      0.005906
    26   Atom       -0.001749     -0.006392      0.000679
    27   Atom        0.002554      0.000818      0.002841
    28   Atom       -0.004563     -0.001678     -0.005557
 --------------------------------------------------------


 ---------------------------------------------------------------------------------
              Anisotropic Spin Dipole Couplings in Principal Axis System
 ---------------------------------------------------------------------------------

       Atom             a.u.   MegaHertz   Gauss  10(-4) cm-1        Axes

              Baa    -0.6954   -93.321   -33.299   -31.128  0.4334 -0.0104  0.9011
     1 C(13)  Bbb     0.3414    45.812    16.347    15.281  0.8949  0.1227 -0.4290
              Bcc     0.3540    47.509    16.952    15.847 -0.1061  0.9924  0.0625
 
              Baa    -0.0262    -3.511    -1.253    -1.171  0.4684  0.7049 -0.5327
     2 C(13)  Bbb    -0.0207    -2.777    -0.991    -0.926  0.6981 -0.6648 -0.2659
              Bcc     0.0469     6.288     2.244     2.098  0.5416  0.2473  0.8035
 
              Baa    -0.0455   -24.251    -8.653    -8.089  0.8850  0.1084 -0.4527
     3 H(1)   Bbb    -0.0006    -0.303    -0.108    -0.101  0.4566 -0.0132  0.8896
              Bcc     0.0460    24.554     8.762     8.190 -0.0905  0.9940  0.0612
 
              Baa    -0.0142    -7.571    -2.702    -2.525  0.5656  0.6950 -0.4439
     4 H(1)   Bbb     0.0014     0.727     0.259     0.242  0.8016 -0.5897  0.0980
              Bcc     0.0128     6.844     2.442     2.283  0.1936  0.4113  0.8907
 
              Baa    -0.3752   -50.351   -17.966   -16.795  0.7170  0.6770 -0.1662
     5 C(13)  Bbb    -0.3531   -47.388   -16.909   -15.807 -0.6121  0.7255  0.3144
              Bcc     0.7284    97.739    34.876    32.602  0.3334 -0.1237  0.9346
 
              Baa    -0.0469    -6.288    -2.244    -2.098  0.5416  0.2473  0.8035
     6 C(13)  Bbb     0.0207     2.777     0.991     0.926  0.6981 -0.6648 -0.2659
              Bcc     0.0262     3.511     1.253     1.171  0.4684  0.7049 -0.5327
 
              Baa    -0.0505   -26.921    -9.606    -8.980  0.8056  0.5586 -0.1974
     7 H(1)   Bbb     0.0022     1.147     0.409     0.383  0.3026 -0.1015  0.9477
              Bcc     0.0483    25.773     9.196     8.597 -0.5093  0.8232  0.2508
 
              Baa    -0.0128    -6.844    -2.442    -2.283  0.1937  0.4113  0.8907
     8 H(1)   Bbb    -0.0014    -0.727    -0.259    -0.242  0.8016 -0.5897  0.0980
              Bcc     0.0142     7.571     2.702     2.525  0.5656  0.6950 -0.4439
 
              Baa    -0.0196    -2.630    -0.938    -0.877  0.7004  0.2998  0.6477
     9 C(13)  Bbb    -0.0025    -0.329    -0.117    -0.110 -0.3700 -0.6235  0.6887
              Bcc     0.0221     2.959     1.056     0.987 -0.6104  0.7220  0.3258
 
              Baa    -0.0078    -4.161    -1.485    -1.388  0.7250  0.3776  0.5760
    10 H(1)   Bbb    -0.0006    -0.304    -0.109    -0.101  0.6821 -0.5098 -0.5243
              Bcc     0.0084     4.465     1.593     1.490  0.0957  0.7730 -0.6271
 
              Baa    -0.0130    -6.941    -2.477    -2.315  0.8030 -0.1818  0.5675
    11 H(1)   Bbb     0.0034     1.821     0.650     0.607 -0.4158  0.5112  0.7522
              Bcc     0.0096     5.120     1.827     1.708  0.4269  0.8400 -0.3349
 
              Baa    -0.2272   -30.483   -10.877   -10.168  0.3732 -0.0745  0.9248
    12 C(13)  Bbb     0.0922    12.376     4.416     4.128  0.4332  0.8954 -0.1027
              Bcc     0.1349    18.107     6.461     6.040  0.8204 -0.4390 -0.3664
 
              Baa    -0.0090    -4.827    -1.722    -1.610  0.4521  0.0701  0.8892
    13 H(1)   Bbb    -0.0056    -2.991    -1.067    -0.998  0.3685  0.8932 -0.2577
              Bcc     0.0147     7.818     2.790     2.608  0.8123 -0.4442 -0.3780
 
              Baa    -0.3540   -47.510   -16.953   -15.847 -0.1061  0.9924  0.0625
    14 C(13)  Bbb    -0.3414   -45.812   -16.347   -15.281  0.8949  0.1226 -0.4290
              Bcc     0.6954    93.321    33.299    31.129  0.4334 -0.0104  0.9011
 
              Baa    -0.0460   -24.554    -8.762    -8.190 -0.0905  0.9940  0.0612
    15 H(1)   Bbb     0.0006     0.303     0.108     0.101  0.4566 -0.0132  0.8896
              Bcc     0.0455    24.252     8.654     8.089  0.8850  0.1084 -0.4527
 
              Baa    -0.0092    -1.241    -0.443    -0.414  0.8689 -0.1540 -0.4704
    16 C(13)  Bbb     0.0030     0.399     0.142     0.133  0.1007  0.9855 -0.1366
              Bcc     0.0063     0.842     0.301     0.281  0.4846  0.0713  0.8718
 
              Baa    -0.0096    -5.135    -1.832    -1.713  0.9741 -0.2212 -0.0460
    17 H(1)   Bbb    -0.0032    -1.733    -0.618    -0.578 -0.0453 -0.3903  0.9196
              Bcc     0.0129     6.867     2.450     2.291  0.2214  0.8937  0.3902
 
              Baa    -0.0073    -3.900    -1.392    -1.301  0.8780  0.1930  0.4380
    18 H(1)   Bbb    -0.0043    -2.283    -0.815    -0.761 -0.4602  0.0887  0.8834
              Bcc     0.0116     6.183     2.206     2.062 -0.1316  0.9772 -0.1667
 
              Baa    -0.7284   -97.739   -34.876   -32.602  0.3334 -0.1237  0.9346
    19 C(13)  Bbb     0.3531    47.388    16.909    15.807 -0.6121  0.7255  0.3144
              Bcc     0.3752    50.351    17.966    16.795  0.7170  0.6770 -0.1662
 
              Baa    -0.0483   -25.773    -9.196    -8.597 -0.5093  0.8232  0.2508
    20 H(1)   Bbb    -0.0022    -1.148    -0.409    -0.383  0.3026 -0.1015  0.9477
              Bcc     0.0505    26.921     9.606     8.980  0.8056  0.5586 -0.1974
 
              Baa    -0.1349   -18.107    -6.461    -6.040  0.8204 -0.4390 -0.3664
    21 C(13)  Bbb    -0.0922   -12.375    -4.416    -4.128  0.4332  0.8954 -0.1027
              Bcc     0.2272    30.482    10.877    10.168  0.3732 -0.0745  0.9247
 
              Baa    -0.0147    -7.818    -2.790    -2.608  0.8123 -0.4442 -0.3780
    22 H(1)   Bbb     0.0056     2.991     1.067     0.998  0.3685  0.8932 -0.2578
              Bcc     0.0090     4.827     1.722     1.610  0.4521  0.0701  0.8892
 
              Baa    -0.0221    -2.959    -1.056    -0.987 -0.6104  0.7220  0.3258
    23 C(13)  Bbb     0.0025     0.329     0.117     0.110 -0.3700 -0.6235  0.6887
              Bcc     0.0196     2.630     0.938     0.877  0.7004  0.2998  0.6477
 
              Baa    -0.0096    -5.120    -1.827    -1.708  0.4269  0.8400 -0.3349
    24 H(1)   Bbb    -0.0034    -1.821    -0.650    -0.607 -0.4158  0.5112  0.7522
              Bcc     0.0130     6.941     2.477     2.315  0.8030 -0.1818  0.5675
 
              Baa    -0.0084    -4.465    -1.593    -1.490  0.0957  0.7730 -0.6271
    25 H(1)   Bbb     0.0006     0.304     0.109     0.101  0.6821 -0.5098 -0.5243
              Bcc     0.0078     4.161     1.485     1.388  0.7250  0.3776  0.5760
 
              Baa    -0.0063    -0.842    -0.301    -0.281  0.4847  0.0715  0.8718
    26 C(13)  Bbb    -0.0030    -0.398    -0.142    -0.133  0.1006  0.9855 -0.1367
              Bcc     0.0092     1.241     0.443     0.414  0.8689 -0.1540 -0.4704
 
              Baa    -0.0116    -6.183    -2.206    -2.062 -0.1316  0.9772 -0.1667
    27 H(1)   Bbb     0.0043     2.283     0.815     0.761 -0.4602  0.0887  0.8834
              Bcc     0.0073     3.900     1.392     1.301  0.8780  0.1930  0.4380
 
              Baa    -0.0129    -6.867    -2.450    -2.291  0.2214  0.8937  0.3903
    28 H(1)   Bbb     0.0032     1.733     0.618     0.578 -0.0452 -0.3903  0.9196
              Bcc     0.0096     5.135     1.832     1.713  0.9741 -0.2212 -0.0460
 

 ---------------------------------------------------------------------------------

 No NMR shielding tensors so no spin-rotation constants.
 Leave Link  601 at Mon Aug  3 17:02:38 2020, MaxMem=  6442450944 cpu:               8.6 elap:               0.5
 (Enter /scratch/scicomp/CentOS/7.3.1611/Haswell/software/Gaussian/g16/l9999.exe)
 1\1\GINC-ATLAS-205\SP\UwB97XD\def2TZVP\C12H16\BOCHEN\03-Aug-2020\0\\#p
  uwb97xd guess=mix def2tzvp # scrf=(iefpcm,solvent=Cyclohexane,read) n
 osym 6d 10f\\endo-2 xp-pcm for eta=3\\0,1\C,0,-3.118545,-0.4235,0.2482
 23\C,0,-0.402344,-0.116575,-0.672864\H,0,-4.093571,-0.546048,0.703566\
 H,0,0.333633,-0.10803,-1.481168\C,0,1.107682,1.434119,0.643785\C,0,0.4
 02344,0.116575,0.672864\H,0,0.575901,2.330463,0.937322\H,0,-0.333633,0
 .10803,1.481168\C,0,1.433587,-0.989852,0.953879\H,0,1.831677,-0.829046
 ,1.959162\H,0,0.953866,-1.970051,0.954345\C,0,2.392223,1.530795,0.1338
 18\H,0,2.840546,2.512465,0.025049\C,0,3.118545,0.4235,-0.248223\H,0,4.
 093571,0.546048,-0.703566\C,0,2.590666,-0.961461,-0.045609\H,0,2.26346
 8,-1.371998,-1.010466\H,0,3.394447,-1.622447,0.290265\C,0,-1.107682,-1
 .434119,-0.643785\H,0,-0.575901,-2.330463,-0.937322\C,0,-2.392223,-1.5
 30795,-0.133818\H,0,-2.840546,-2.512465,-0.025049\C,0,-1.433587,0.9898
 52,-0.953879\H,0,-0.953866,1.970051,-0.954345\H,0,-1.831677,0.829046,-
 1.959162\C,0,-2.590666,0.961461,0.045609\H,0,-3.394447,1.622447,-0.290
 265\H,0,-2.263468,1.371998,1.010466\\Version=ES64L-G16RevB.01\HF=-466.
 8366833\S2=1.054545\S2-1=0.\S2A=0.543617\RMSD=7.072e-09\Dipole=-0.0001
 089,-0.0001131,0.0001051\Quadrupole=0.9077215,1.434603,-2.3423245,-1.7
 82036,-2.0173226,0.0469799\PG=CI [X(C12H16)]\\@


 The impersonal hand of government can
 never replace the helping hand of a neighbor.
                        -- Hubert H. Humphrey
 Job cpu time:       0 days  1 hours 49 minutes 10.7 seconds.
 Elapsed time:       0 days  0 hours  4 minutes 36.1 seconds.
 File lengths (MBytes):  RWF=    629 Int=      0 D2E=      0 Chk=     23 Scr=      1
 Normal termination of Gaussian 16 at Mon Aug  3 17:02:38 2020.
