 Entering Gaussian System, Link 0=g16
 Input=meso-TS_4_2_pcm.com
 Output=meso-TS_4_2_pcm.log
 Initial command:
 /scratch/scicomp/CentOS/7.3.1611/Haswell/software/Gaussian/g16/l1.exe "/scratch/bochen/cyclohexadiene-dimerization/wb97xd-def2tzvp/xp-pcm/meso/Gau-47724.inp" -scrdir="/scratch/bochen/cyclohexadiene-dimerization/wb97xd-def2tzvp/xp-pcm/meso/"
 Entering Link 1 = /scratch/scicomp/CentOS/7.3.1611/Haswell/software/Gaussian/g16/l1.exe PID=     47726.
  
 Copyright (c) 1988-2017, Gaussian, Inc.  All Rights Reserved.
  
 This is part of the Gaussian(R) 16 program.  It is based on
 the Gaussian(R) 09 system (copyright 2009, Gaussian, Inc.),
 the Gaussian(R) 03 system (copyright 2003, Gaussian, Inc.),
 the Gaussian(R) 98 system (copyright 1998, Gaussian, Inc.),
 the Gaussian(R) 94 system (copyright 1995, Gaussian, Inc.),
 the Gaussian 92(TM) system (copyright 1992, Gaussian, Inc.),
 the Gaussian 90(TM) system (copyright 1990, Gaussian, Inc.),
 the Gaussian 88(TM) system (copyright 1988, Gaussian, Inc.),
 the Gaussian 86(TM) system (copyright 1986, Carnegie Mellon
 University), and the Gaussian 82(TM) system (copyright 1983,
 Carnegie Mellon University). Gaussian is a federally registered
 trademark of Gaussian, Inc.
  
 This software contains proprietary and confidential information,
 including trade secrets, belonging to Gaussian, Inc.
  
 This software is provided under written license and may be
 used, copied, transmitted, or stored only in accord with that
 written license.
  
 The following legend is applicable only to US Government
 contracts under FAR:
  
                    RESTRICTED RIGHTS LEGEND
  
 Use, reproduction and disclosure by the US Government is
 subject to restrictions as set forth in subparagraphs (a)
 and (c) of the Commercial Computer Software - Restricted
 Rights clause in FAR 52.227-19.
  
 Gaussian, Inc.
 340 Quinnipiac St., Bldg. 40, Wallingford CT 06492
  
  
 ---------------------------------------------------------------
 Warning -- This program may not be used in any manner that
 competes with the business of Gaussian, Inc. or will provide
 assistance to any competitor of Gaussian, Inc.  The licensee
 of this program is prohibited from giving any competitor of
 Gaussian, Inc. access to this program.  By using this program,
 the user acknowledges that Gaussian, Inc. is engaged in the
 business of creating and licensing software in the field of
 computational chemistry and represents and warrants to the
 licensee that it is not a competitor of Gaussian, Inc. and that
 it will not use this program in any manner prohibited above.
 ---------------------------------------------------------------
  

 Cite this work as:
 Gaussian 16, Revision B.01,
 M. J. Frisch, G. W. Trucks, H. B. Schlegel, G. E. Scuseria, 
 M. A. Robb, J. R. Cheeseman, G. Scalmani, V. Barone, 
 G. A. Petersson, H. Nakatsuji, X. Li, M. Caricato, A. V. Marenich, 
 J. Bloino, B. G. Janesko, R. Gomperts, B. Mennucci, H. P. Hratchian, 
 J. V. Ortiz, A. F. Izmaylov, J. L. Sonnenberg, D. Williams-Young, 
 F. Ding, F. Lipparini, F. Egidi, J. Goings, B. Peng, A. Petrone, 
 T. Henderson, D. Ranasinghe, V. G. Zakrzewski, J. Gao, N. Rega, 
 G. Zheng, W. Liang, M. Hada, M. Ehara, K. Toyota, R. Fukuda, 
 J. Hasegawa, M. Ishida, T. Nakajima, Y. Honda, O. Kitao, H. Nakai, 
 T. Vreven, K. Throssell, J. A. Montgomery, Jr., J. E. Peralta, 
 F. Ogliaro, M. J. Bearpark, J. J. Heyd, E. N. Brothers, K. N. Kudin, 
 V. N. Staroverov, T. A. Keith, R. Kobayashi, J. Normand, 
 K. Raghavachari, A. P. Rendell, J. C. Burant, S. S. Iyengar, 
 J. Tomasi, M. Cossi, J. M. Millam, M. Klene, C. Adamo, R. Cammi, 
 J. W. Ochterski, R. L. Martin, K. Morokuma, O. Farkas, 
 J. B. Foresman, and D. J. Fox, Gaussian, Inc., Wallingford CT, 2016.
 
 ******************************************
 Gaussian 16:  ES64L-G16RevB.01 20-Dec-2017
                 3-Aug-2020 
 ******************************************
 %nproc=24
 Will use up to   24 processors via shared memory.
 %mem=48GB
 ----------------------------------------------------------------------
 #p uwb97xd guess=mix def2tzvp # scrf=(iefpcm,solvent=Cyclohexane,read)
  nosym 6d 10f
 ----------------------------------------------------------------------
 1/38=1,40=2,172=1/1;
 2/12=2,15=1,17=6,18=5,40=1/2;
 3/5=44,7=101,8=22,11=2,25=1,30=1,70=2203,72=17,74=-58,116=2/1,2,3;
 4/13=-1/1;
 5/5=2,38=5,53=17/2;
 6/7=2,8=2,9=2,10=2,28=1/1;
 99/5=1,9=1/99;
 Leave Link    1 at Mon Aug  3 16:07:05 2020, MaxMem=  6442450944 cpu:               1.7 elap:               0.1
 (Enter /scratch/scicomp/CentOS/7.3.1611/Haswell/software/Gaussian/g16/l101.exe)
 -----------------------
 endo-2 xp-pcm for eta=3
 -----------------------
 Symbolic Z-matrix:
 Charge =  0 Multiplicity = 1
 6                    -3.11815  -0.43497   0.24691 
 6                    -0.52524  -0.17909  -0.88111 
 1                    -4.08288  -0.54955   0.72728 
 1                     0.36942  -0.11647  -1.48831 
 6                     1.09575   1.4095    0.68495 
 6                     0.52524   0.17909   0.88111 
 1                     0.53438   2.31527   0.87754 
 1                    -0.36942   0.11647   1.48831 
 6                     1.46405  -0.99991   0.98781 
 1                     1.9024   -0.94814   1.99091 
 1                     0.92291  -1.94429   0.93136 
 6                     2.41275   1.51877   0.11499 
 1                     2.82551   2.50732  -0.04986 
 6                     3.11815   0.43497  -0.24691 
 1                     4.08288   0.54955  -0.72728 
 6                     2.59196  -0.95848  -0.0439 
 1                     2.25122  -1.35663  -1.00783 
 1                     3.4008   -1.62138   0.27176 
 6                    -1.09575  -1.4095   -0.68495 
 1                    -0.53438  -2.31527  -0.87754 
 6                    -2.41275  -1.51877  -0.11499 
 1                    -2.82551  -2.50732   0.04986 
 6                    -1.46405   0.99991  -0.98781 
 1                    -0.92291   1.94429  -0.93136 
 1                    -1.9024    0.94814  -1.99091 
 6                    -2.59196   0.95848   0.0439 
 1                    -3.4008    1.62138  -0.27176 
 1                    -2.25122   1.35663   1.00783 
 
 ITRead=  0  0  0  0  0  0  0  0  0  0  0  0  0  0  0  0  0  0  0  0
 ITRead=  0  0  0  0  0  0  0  0
 MicOpt= -1 -1 -1 -1 -1 -1 -1 -1 -1 -1 -1 -1 -1 -1 -1 -1 -1 -1 -1 -1
 MicOpt= -1 -1 -1 -1 -1 -1 -1 -1
 NAtoms=     28 NQM=       28 NQMF=       0 NMMI=      0 NMMIF=      0
                NMic=       0 NMicF=      0.
                    Isotopes and Nuclear Properties:
 (Nuclear quadrupole moments (NQMom) in fm**2, nuclear magnetic moments (NMagM)
  in nuclear magnetons)

  Atom         1           2           3           4           5           6           7           8           9          10
 IAtWgt=          12          12           1           1          12          12           1           1          12           1
 AtmWgt=  12.0000000  12.0000000   1.0078250   1.0078250  12.0000000  12.0000000   1.0078250   1.0078250  12.0000000   1.0078250
 NucSpn=           0           0           1           1           0           0           1           1           0           1
 AtZEff=  -0.0000000  -0.0000000  -0.0000000  -0.0000000  -0.0000000  -0.0000000  -0.0000000  -0.0000000  -0.0000000  -0.0000000
 NQMom=    0.0000000   0.0000000   0.0000000   0.0000000   0.0000000   0.0000000   0.0000000   0.0000000   0.0000000   0.0000000
 NMagM=    0.0000000   0.0000000   2.7928460   2.7928460   0.0000000   0.0000000   2.7928460   2.7928460   0.0000000   2.7928460
 AtZNuc=   6.0000000   6.0000000   1.0000000   1.0000000   6.0000000   6.0000000   1.0000000   1.0000000   6.0000000   1.0000000

  Atom        11          12          13          14          15          16          17          18          19          20
 IAtWgt=           1          12           1          12           1          12           1           1          12           1
 AtmWgt=   1.0078250  12.0000000   1.0078250  12.0000000   1.0078250  12.0000000   1.0078250   1.0078250  12.0000000   1.0078250
 NucSpn=           1           0           1           0           1           0           1           1           0           1
 AtZEff=  -0.0000000  -0.0000000  -0.0000000  -0.0000000  -0.0000000  -0.0000000  -0.0000000  -0.0000000  -0.0000000  -0.0000000
 NQMom=    0.0000000   0.0000000   0.0000000   0.0000000   0.0000000   0.0000000   0.0000000   0.0000000   0.0000000   0.0000000
 NMagM=    2.7928460   0.0000000   2.7928460   0.0000000   2.7928460   0.0000000   2.7928460   2.7928460   0.0000000   2.7928460
 AtZNuc=   1.0000000   6.0000000   1.0000000   6.0000000   1.0000000   6.0000000   1.0000000   1.0000000   6.0000000   1.0000000

  Atom        21          22          23          24          25          26          27          28
 IAtWgt=          12           1          12           1           1          12           1           1
 AtmWgt=  12.0000000   1.0078250  12.0000000   1.0078250   1.0078250  12.0000000   1.0078250   1.0078250
 NucSpn=           0           1           0           1           1           0           1           1
 AtZEff=  -0.0000000  -0.0000000  -0.0000000  -0.0000000  -0.0000000  -0.0000000  -0.0000000  -0.0000000
 NQMom=    0.0000000   0.0000000   0.0000000   0.0000000   0.0000000   0.0000000   0.0000000   0.0000000
 NMagM=    0.0000000   2.7928460   0.0000000   2.7928460   2.7928460   0.0000000   2.7928460   2.7928460
 AtZNuc=   6.0000000   1.0000000   6.0000000   1.0000000   1.0000000   6.0000000   1.0000000   1.0000000
 Leave Link  101 at Mon Aug  3 16:07:05 2020, MaxMem=  6442450944 cpu:               2.4 elap:               0.1
 (Enter /scratch/scicomp/CentOS/7.3.1611/Haswell/software/Gaussian/g16/l202.exe)
                          Input orientation:                          
 ---------------------------------------------------------------------
 Center     Atomic      Atomic             Coordinates (Angstroms)
 Number     Number       Type             X           Y           Z
 ---------------------------------------------------------------------
      1          6           0       -3.118154   -0.434970    0.246911
      2          6           0       -0.525244   -0.179089   -0.881108
      3          1           0       -4.082876   -0.549545    0.727275
      4          1           0        0.369421   -0.116466   -1.488305
      5          6           0        1.095749    1.409502    0.684953
      6          6           0        0.525244    0.179089    0.881108
      7          1           0        0.534376    2.315268    0.877539
      8          1           0       -0.369421    0.116466    1.488305
      9          6           0        1.464053   -0.999907    0.987811
     10          1           0        1.902396   -0.948136    1.990906
     11          1           0        0.922907   -1.944294    0.931362
     12          6           0        2.412752    1.518768    0.114990
     13          1           0        2.825512    2.507319   -0.049863
     14          6           0        3.118154    0.434970   -0.246911
     15          1           0        4.082876    0.549545   -0.727275
     16          6           0        2.591960   -0.958481   -0.043904
     17          1           0        2.251216   -1.356631   -1.007828
     18          1           0        3.400803   -1.621376    0.271761
     19          6           0       -1.095749   -1.409502   -0.684954
     20          1           0       -0.534376   -2.315268   -0.877539
     21          6           0       -2.412752   -1.518768   -0.114990
     22          1           0       -2.825512   -2.507319    0.049863
     23          6           0       -1.464053    0.999907   -0.987811
     24          1           0       -0.922907    1.944294   -0.931362
     25          1           0       -1.902396    0.948136   -1.990906
     26          6           0       -2.591960    0.958481    0.043904
     27          1           0       -3.400803    1.621376   -0.271761
     28          1           0       -2.251216    1.356631    1.007828
 ---------------------------------------------------------------------
                    Distance matrix (angstroms):
                    1          2          3          4          5
     1  C    0.000000
     2  C    2.839205   0.000000
     3  H    1.083774   3.921846   0.000000
     4  H    3.908401   1.083068   4.991924   0.000000
     5  C    4.620707   2.757496   5.536950   2.753031   0.000000
     6  C    3.748816   2.082600   4.667906   2.392854   1.370354
     7  H    4.615461   3.230704   5.435876   3.396728   1.082886
     8  H    3.066052   2.392854   3.848699   3.075769   2.112827
     9  C    4.675971   2.850246   5.571277   2.847778   2.456140
    10  H    5.339549   3.838402   6.130181   3.891863   2.813299
    11  H    4.367689   2.915157   5.200465   3.082546   3.367275
    12  C    5.867318   3.536488   6.844413   3.069161   1.439199
    13  H    6.638698   4.374394   7.594352   3.871143   2.176519
    14  C    6.316027   3.748816   7.333017   3.066052   2.430680
    15  H    7.333017   4.667906   8.366793   3.848699   3.414212
    16  C    5.741432   3.320440   6.731670   2.781180   2.894343
    17  H    5.590524   3.018508   6.616849   2.304348   3.442688
    18  H    6.626083   4.338565   7.573755   3.814690   3.830173
    19  C    2.430680   1.370353   3.414212   2.112827   3.824407
    20  H    3.387598   2.136202   4.276103   2.454509   4.355755
    21  C    1.342826   2.438106   2.106684   3.404839   4.639424
    22  H    2.102165   3.402733   2.423372   4.276650   5.578630
    23  C    2.513854   1.510887   3.492929   2.204180   3.085206
    24  H    3.445045   2.160883   4.353816   2.495402   2.640729
    25  H    2.898081   2.097340   3.792895   2.558738   4.044991
    26  C    1.503262   2.533975   2.227997   3.503277   3.770088
    27  H    2.139502   3.447001   2.485195   4.326045   4.602083
    28  H    2.130824   2.984208   2.658420   3.907484   3.362918
                    6          7          8          9         10
     6  C    0.000000
     7  H    2.136202   0.000000
     8  H    1.083068   2.454509   0.000000
     9  C    1.510887   3.444829   2.204180   0.000000
    10  H    2.097340   3.709565   2.558738   1.095913   0.000000
    11  H    2.160883   4.277584   2.495402   1.089905   1.753386
    12  C    2.438106   2.178116   3.404839   2.829412   3.140882
    13  H    3.402733   2.479166   4.276650   3.902688   4.117894
    14  C    2.839205   3.387598   3.908401   2.513854   2.898081
    15  H    3.921846   4.276103   4.991924   3.492929   3.792895
    16  C    2.533975   3.974939   3.503277   1.529159   2.148501
    17  H    2.984208   4.470458   3.907484   2.174730   3.046465
    18  H    3.447001   4.907192   4.326045   2.156375   2.377800
    19  C    2.757497   4.355755   2.753032   3.085206   4.044992
    20  H    3.230704   5.066004   3.396728   3.033714   4.004358
    21  C    3.536488   4.936650   3.069161   4.063866   4.835382
    22  H    4.374394   5.935591   3.871143   4.642457   5.343390
    23  C    2.850246   3.033714   2.847778   4.059082   4.899041
    24  H    2.915157   2.352322   3.082546   4.248426   4.988801
    25  H    3.838402   4.004358   3.891863   4.899041   5.824699
    26  C    3.320440   3.508532   2.781180   4.601900   5.255972
    27  H    4.338565   4.157885   3.814690   5.667845   6.312367
    28  H    3.018508   2.948810   2.304348   4.399647   4.850864
                   11         12         13         14         15
    11  H    0.000000
    12  C    3.857318   0.000000
    13  H    4.939592   1.083873   0.000000
    14  C    3.445045   1.342826   2.102165   0.000000
    15  H    4.353816   2.106684   2.423372   1.083774   0.000000
    16  C    2.169956   2.488800   3.473665   1.503262   2.227997
    17  H    2.422852   3.091073   4.022142   2.130824   2.658420
    18  H    2.584438   3.295653   4.180972   2.139502   2.485195
    19  C    2.640729   4.639424   5.578630   4.620707   5.536950
    20  H    2.352322   4.936650   5.935591   4.615461   5.435876
    21  C    3.521725   5.706576   6.607044   5.867318   6.844413
    22  H    3.891617   6.607044   7.555833   6.638698   7.594352
    23  C    4.248426   4.063866   4.642457   4.675971   5.571277
    24  H    4.690190   3.521725   3.891617   4.367689   5.200465
    25  H    4.988801   4.835382   5.343390   5.339549   6.130181
    26  C    4.644133   5.036479   5.635308   5.741432   6.731670
    27  H    5.732013   5.827309   6.292943   6.626083   7.573755
    28  H    4.580067   4.751426   5.311870   5.590524   6.616849
                   16         17         18         19         20
    16  C    0.000000
    17  H    1.097169   0.000000
    18  H    1.092383   1.740399   0.000000
    19  C    3.770088   3.362918   4.602084   0.000000
    20  H    3.508532   2.948810   4.157885   1.082885   0.000000
    21  C    5.036479   4.751426   5.827309   1.439199   2.178116
    22  H    5.635308   5.311870   6.292943   2.176520   2.479166
    23  C    4.601900   4.399647   5.667845   2.456140   3.444829
    24  H    4.644133   4.580067   5.732013   3.367275   4.277584
    25  H    5.255972   4.850864   6.312367   2.813298   3.709565
    26  C    5.527701   5.470122   6.528460   2.894344   3.974939
    27  H    6.528460   6.430835   7.554648   3.830173   4.907192
    28  H    5.470122   5.629969   6.430835   3.442689   4.470458
                   21         22         23         24         25
    21  C    0.000000
    22  H    1.083873   0.000000
    23  C    2.829412   3.902688   0.000000
    24  H    3.857318   4.939592   1.089905   0.000000
    25  H    3.140882   4.117894   1.095913   1.753386   0.000000
    26  C    2.488800   3.473665   1.529159   2.169956   2.148501
    27  H    3.295653   4.180972   2.156375   2.584438   2.377800
    28  H    3.091073   4.022142   2.174730   2.422852   3.046465
                   26         27         28
    26  C    0.000000
    27  H    1.092383   0.000000
    28  H    1.097169   1.740399   0.000000
 Symmetry turned off by external request.
 Stoichiometry    C12H16
 Framework group  CI[X(C12H16)]
 Deg. of freedom    39
 Full point group                 CI      NOp   2
 Rotational constants (GHZ):           1.9433052           0.6351751           0.5523114
 Leave Link  202 at Mon Aug  3 16:07:05 2020, MaxMem=  6442450944 cpu:               0.3 elap:               0.0
 (Enter /scratch/scicomp/CentOS/7.3.1611/Haswell/software/Gaussian/g16/l301.exe)
 Standard basis: def2TZVP (6D, 10F)
 Ernie: Thresh=  0.10000D-02 Tol=  0.10000D-05 Strict=F.
   528 basis functions,   740 primitive gaussians,   528 cartesian basis functions
    44 alpha electrons       44 beta electrons
       nuclear repulsion energy       691.5867081711 Hartrees.
 IExCor= 4639 DFT=T Ex+Corr=wB97XD ExCW=0 ScaHFX=  1.000000
 ScaDFX=  1.000000  1.000000  1.000000  1.000000 ScalE2=  1.000000  1.000000
 IRadAn=      5 IRanWt=     -1 IRanGd=            0 ICorTp=0 IEmpDi=121
 HFx  wShort=  0.000000 wLong=  0.200000 cFull=  0.222036 cShort=  0.000000 cLong=  0.777964
 DFx  wShort=  0.000000 wLong=  0.200000 cFull=  0.000000 cShort=  0.000000 cLong=  1.000000
 NAtoms=   28 NActive=   28 NUniq=   28 SFac= 1.00D+00 NAtFMM=   60 NAOKFM=F Big=F
 Integral buffers will be    131072 words long.
 Raffenetti 2 integral format.
 Two-electron integral symmetry is turned off.
 R6Disp:  Grimme-D2 Dispersion energy=       -0.0229383116 Hartrees.
 Nuclear repulsion after empirical dispersion term =      691.5637698595 Hartrees.
 Using the following non-standard input for PCM:
 norep pcmdoc geomview  nodis nocav g03defaults tsare=0.075
 Warning! Using old PCM defaults because the g03defaults keyword was found.
 These settings can be overridden by following keywords.
 nsfe=28
 NVESolv=36  SolvMW=84.1595   Rsolv=2.815
 eps=2.0165 RhoS=0.7781
 --- end of non-standard input.
 Reading user-defined spheres from input:
 ISph  on   Nord    Re0     Alpha      Xe            Ye            Ze
 --- end of user-defined spheres data.
 ------------------------------------------------------------------------------
 Polarizable Continuum Model (PCM)
 =================================
 Model                : PCM.
 Atomic radii         : UA0 (Simple United Atom Topological Model).
 Polarization charges : Total charges.
 Charge compensation  : None.
 Solution method      : On-the-fly selection.
 Cavity type          : SES (Solvent Excluding Surface) (Alpha=1.000).
 Cavity algorithm     : GePol (RMin=0.200 OFac=0.890).
                        User-defined sphere list used, NSphG=   28.
                        Tesserae with average area of 0.075 Ang**2.
                        Smoothing algorithm: None.
                        Polarization charges: point-like.
                        Self-potential: constant (ISelfS= 1).
                        Self-field    : global E.n sum rule (ISelfD= 3).
 Solvent              : CycloHexane, Eps=   2.016500 Eps(inf)=   2.035188
                        RSolv=   2.815000 Ang.
 ------------------------------------------------------------------------------
 GePol: Number of generator spheres                  =      28
 GePol: Total number of spheres                      =     173
 GePol: Number of exposed spheres                    =     126 ( 72.83%)
 GePol: Number of tesserae                           =    4666
 GePol: Average area of tesserae                     =       0.05 Ang**2
 GePol: Minimum area of tessera                      =   0.10D-02 Ang**2
 GePol: Maximum area of tessera                      =    0.12641 Ang**2
 GePol: Number of small tesserae                     =       0
 GePol: Fraction of small tesserae (<1% of avg)      =       0.00%
 GePol: Total count of vertices                      =   16495
 GePol: Maximum number of vertices in a tessera      =       7
 GePol: Cavity surface area                          =    218.466 Ang**2
 GePol: Cavity volume                                =    245.935 Ang**3
 Leave Link  301 at Mon Aug  3 16:07:06 2020, MaxMem=  6442450944 cpu:               7.5 elap:               0.4
 (Enter /scratch/scicomp/CentOS/7.3.1611/Haswell/software/Gaussian/g16/l302.exe)
 NPDir=0 NMtPBC=     1 NCelOv=     1 NCel=       1 NClECP=     1 NCelD=      1
         NCelK=      1 NCelE2=     1 NClLst=     1 CellRange=     0.0.
 One-electron integrals computed using PRISM.
   1 Symmetry operations used in ECPInt.
 ECPInt:  NShTT=   19306 NPrTT=   56928 LenC2=   18522 LenP2D=   42279.
 LDataN:  DoStor=T MaxTD1= 6 Len=  172
 NBasis=   528 RedAO= T EigKep=  2.44D-05  NBF=   528
 NBsUse=   528 1.00D-06 EigRej= -1.00D+00 NBFU=   528
 Precomputing XC quadrature grid using
 IXCGrd= 4 IRadAn=           5 IRanWt=          -1 IRanGd=           0 AccXCQ= 0.00D+00.
 Generated NRdTot=       0 NPtTot=           0 NUsed=           0 NTot=          32
 NSgBfM=   526   526   526   526   526 MxSgAt=    28 MxSgA2=    28.
 Leave Link  302 at Mon Aug  3 16:07:06 2020, MaxMem=  6442450944 cpu:              12.8 elap:               0.6
 (Enter /scratch/scicomp/CentOS/7.3.1611/Haswell/software/Gaussian/g16/l303.exe)
 DipDrv:  MaxL=1.
 Leave Link  303 at Mon Aug  3 16:07:06 2020, MaxMem=  6442450944 cpu:               1.6 elap:               0.1
 (Enter /scratch/scicomp/CentOS/7.3.1611/Haswell/software/Gaussian/g16/l401.exe)
 ExpMin= 9.52D-02 ExpMax= 1.36D+04 ExpMxC= 4.63D+02 IAcc=3 IRadAn=         5 AccDes= 0.00D+00
 Harris functional with IExCor= 4639 and IRadAn=       5 diagonalized for initial guess.
 HarFok:  IExCor= 4639 AccDes= 0.00D+00 IRadAn=         5 IDoV= 1 UseB2=F ITyADJ=14
 ICtDFT=  3500011 ScaDFX=  1.000000  1.000000  1.000000  1.000000
 FoFCou: FMM=F IPFlag=           0 FMFlag=      100000 FMFlg1=           0
         NFxFlg=           0 DoJE=T BraDBF=F KetDBF=T FulRan=T
         wScrn=  0.000000 ICntrl=       500 IOpCl=  0 I1Cent=   200000004 NGrid=           0
         NMat0=    1 NMatS0=      1 NMatT0=    0 NMatD0=    1 NMtDS0=    0 NMtDT0=    0
 Symmetry not used in FoFCou.
 Harris En= -444.620400575312    
 JPrj=0 DoOrth=F DoCkMO=T.
 Mixing orbitals, IMix= 1 IMixAn=  0 NRI=1 NE=   44 Coef=  7.07106781D-01  7.07106781D-01
 Mixing orbitals, IMix= 1 IMixAn=  0 NRI=1 NE=   44 Coef= -7.07106781D-01  7.07106781D-01
 Initial guess <Sx>= 0.0000 <Sy>= 0.0000 <Sz>= 0.0000 <S**2>= 1.0000 S= 0.6180
 Leave Link  401 at Mon Aug  3 16:07:09 2020, MaxMem=  6442450944 cpu:              49.2 elap:               2.1
 (Enter /scratch/scicomp/CentOS/7.3.1611/Haswell/software/Gaussian/g16/l502.exe)
 Two-electron integral symmetry not used.
 UHF open shell SCF:
 Using DIIS extrapolation, IDIIS=  1040.
 NGot=  6442450944 LenX=  6441877030 LenY=  6441597718
 Requested convergence on RMS density matrix=1.00D-08 within 128 cycles.
 Requested convergence on MAX density matrix=1.00D-06.
 Requested convergence on             energy=1.00D-06.
 No special actions if energy rises.
 Fock matrices will be formed incrementally for  20 cycles.

 Cycle   1  Pass 1  IDiag  1:
 FoFJK:  IHMeth= 1 ICntrl=       0 DoSepK=T KAlg= 0 I1Cent=           0 FoldK=F
 IRaf=         1 NMat=       1 IRICut=       1 DoRegI=T DoRafI=F ISym2E= 0 IDoP0=0 IntGTp=1.
 FoFCou: FMM=F IPFlag=           0 FMFlag=      100000 FMFlg1=           0
         NFxFlg=           0 DoJE=T BraDBF=F KetDBF=F FulRan=T
         wScrn=  0.000000 ICntrl=       500 IOpCl=  0 I1Cent=           0 NGrid=           0
         NMat0=    1 NMatS0=      1 NMatT0=    0 NMatD0=    1 NMtDS0=    0 NMtDT0=    0
 Symmetry not used in FoFCou.
 Inv3:  Mode=1 IEnd=    65314668.
 Iteration    1 A*A^-1 deviation from unit magnitude is 3.33D-15 for    231.
 Iteration    1 A*A^-1 deviation from orthogonality  is 1.60D-15 for   1969   1623.
 Iteration    1 A^-1*A deviation from unit magnitude is 3.44D-15 for    231.
 Iteration    1 A^-1*A deviation from orthogonality  is 2.22D-15 for   2956   1367.
 E= -466.631745017102    
 DIIS: error= 5.76D-02 at cycle   1 NSaved=   1.
 NSaved= 1 IEnMin= 1 EnMin= -466.631745017102     IErMin= 1 ErrMin= 5.76D-02
 ErrMax= 5.76D-02  0.00D+00 EMaxC= 1.00D-01 BMatC= 4.10D+00 BMatP= 4.10D+00
 IDIUse=3 WtCom= 4.24D-01 WtEn= 5.76D-01
 Coeff-Com:  0.100D+01
 Coeff-En:   0.100D+01
 Coeff:      0.100D+01
 Gap=     0.206 Goal=   None    Shift=    0.000
 Gap=     0.206 Goal=   None    Shift=    0.000
 GapD=    0.206 DampG=1.000 DampE=0.500 DampFc=0.5000 IDamp=-1.
 Damping current iteration by 5.00D-01
 RMSDP=1.46D-03 MaxDP=9.19D-02              OVMax= 1.94D-01

 Cycle   2  Pass 1  IDiag  1:
 RMSU=  7.12D-04    CP:  9.74D-01
 E= -466.713955698794     Delta-E=       -0.082210681692 Rises=F Damp=T
 DIIS: error= 2.73D-02 at cycle   2 NSaved=   2.
 NSaved= 2 IEnMin= 2 EnMin= -466.713955698794     IErMin= 2 ErrMin= 2.73D-02
 ErrMax= 2.73D-02  0.00D+00 EMaxC= 1.00D-01 BMatC= 9.24D-01 BMatP= 4.10D+00
 IDIUse=3 WtCom= 7.27D-01 WtEn= 2.73D-01
 Coeff-Com: -0.866D+00 0.187D+01
 Coeff-En:   0.000D+00 0.100D+01
 Coeff:     -0.629D+00 0.163D+01
 Gap=     0.236 Goal=   None    Shift=    0.000
 Gap=     0.236 Goal=   None    Shift=    0.000
 RMSDP=9.48D-04 MaxDP=4.82D-02 DE=-8.22D-02 OVMax= 8.78D-02

 Cycle   3  Pass 1  IDiag  1:
 RMSU=  5.35D-04    CP:  9.39D-01  2.05D+00
 E= -466.805108816828     Delta-E=       -0.091153118034 Rises=F Damp=F
 DIIS: error= 5.05D-03 at cycle   3 NSaved=   3.
 NSaved= 3 IEnMin= 3 EnMin= -466.805108816828     IErMin= 3 ErrMin= 5.05D-03
 ErrMax= 5.05D-03  0.00D+00 EMaxC= 1.00D-01 BMatC= 1.92D-02 BMatP= 9.24D-01
 IDIUse=3 WtCom= 9.49D-01 WtEn= 5.05D-02
 Coeff-Com: -0.310D+00 0.668D+00 0.642D+00
 Coeff-En:   0.000D+00 0.000D+00 0.100D+01
 Coeff:     -0.294D+00 0.635D+00 0.660D+00
 Gap=     0.243 Goal=   None    Shift=    0.000
 Gap=     0.243 Goal=   None    Shift=    0.000
 RMSDP=1.78D-04 MaxDP=1.05D-02 DE=-9.12D-02 OVMax= 4.74D-02

 Cycle   4  Pass 1  IDiag  1:
 RMSU=  1.59D-04    CP:  9.33D-01  2.15D+00  9.67D-01
 E= -466.812277948752     Delta-E=       -0.007169131924 Rises=F Damp=F
 DIIS: error= 3.61D-03 at cycle   4 NSaved=   4.
 NSaved= 4 IEnMin= 4 EnMin= -466.812277948752     IErMin= 4 ErrMin= 3.61D-03
 ErrMax= 3.61D-03  0.00D+00 EMaxC= 1.00D-01 BMatC= 1.15D-03 BMatP= 1.92D-02
 IDIUse=3 WtCom= 9.64D-01 WtEn= 3.61D-02
 Coeff-Com:  0.997D-01-0.214D+00-0.734D-01 0.119D+01
 Coeff-En:   0.000D+00 0.000D+00 0.000D+00 0.100D+01
 Coeff:      0.961D-01-0.207D+00-0.707D-01 0.118D+01
 Gap=     0.247 Goal=   None    Shift=    0.000
 Gap=     0.247 Goal=   None    Shift=    0.000
 RMSDP=1.76D-04 MaxDP=9.02D-03 DE=-7.17D-03 OVMax= 6.10D-02

 Cycle   5  Pass 1  IDiag  1:
 RMSU=  6.89D-05    CP:  9.28D-01  2.20D+00  1.17D+00  1.68D+00
 E= -466.815083500761     Delta-E=       -0.002805552008 Rises=F Damp=F
 DIIS: error= 2.13D-03 at cycle   5 NSaved=   5.
 NSaved= 5 IEnMin= 5 EnMin= -466.815083500761     IErMin= 5 ErrMin= 2.13D-03
 ErrMax= 2.13D-03  0.00D+00 EMaxC= 1.00D-01 BMatC= 4.92D-04 BMatP= 1.15D-03
 IDIUse=3 WtCom= 9.79D-01 WtEn= 2.13D-02
 Coeff-Com:  0.690D-01-0.149D+00-0.106D+00 0.363D+00 0.823D+00
 Coeff-En:   0.000D+00 0.000D+00 0.000D+00 0.000D+00 0.100D+01
 Coeff:      0.675D-01-0.146D+00-0.104D+00 0.355D+00 0.827D+00
 Gap=     0.249 Goal=   None    Shift=    0.000
 Gap=     0.249 Goal=   None    Shift=    0.000
 RMSDP=8.89D-05 MaxDP=5.58D-03 DE=-2.81D-03 OVMax= 3.26D-02

 Cycle   6  Pass 1  IDiag  1:
 RMSU=  3.04D-05    CP:  9.26D-01  2.22D+00  1.23D+00  2.09D+00  1.54D+00
 E= -466.816104425254     Delta-E=       -0.001020924494 Rises=F Damp=F
 DIIS: error= 1.51D-03 at cycle   6 NSaved=   6.
 NSaved= 6 IEnMin= 6 EnMin= -466.816104425254     IErMin= 6 ErrMin= 1.51D-03
 ErrMax= 1.51D-03  0.00D+00 EMaxC= 1.00D-01 BMatC= 2.53D-04 BMatP= 4.92D-04
 IDIUse=3 WtCom= 9.85D-01 WtEn= 1.51D-02
 Coeff-Com: -0.454D-01 0.976D-01 0.379D-01-0.481D+00 0.224D+00 0.117D+01
 Coeff-En:   0.000D+00 0.000D+00 0.000D+00 0.000D+00 0.000D+00 0.100D+01
 Coeff:     -0.447D-01 0.961D-01 0.373D-01-0.473D+00 0.221D+00 0.116D+01
 Gap=     0.247 Goal=   None    Shift=    0.000
 Gap=     0.247 Goal=   None    Shift=    0.000
 RMSDP=9.47D-05 MaxDP=5.25D-03 DE=-1.02D-03 OVMax= 3.72D-02

 Cycle   7  Pass 1  IDiag  1:
 RMSU=  2.15D-05    CP:  9.24D-01  2.22D+00  1.29D+00  2.48D+00  2.35D+00
                    CP:  1.73D+00
 E= -466.816937198682     Delta-E=       -0.000832773427 Rises=F Damp=F
 DIIS: error= 9.85D-04 at cycle   7 NSaved=   7.
 NSaved= 7 IEnMin= 7 EnMin= -466.816937198682     IErMin= 7 ErrMin= 9.85D-04
 ErrMax= 9.85D-04  0.00D+00 EMaxC= 1.00D-01 BMatC= 1.13D-04 BMatP= 2.53D-04
 IDIUse=3 WtCom= 9.90D-01 WtEn= 9.85D-03
 Coeff-Com: -0.132D-01 0.289D-01 0.335D-01 0.763D-01-0.319D+00-0.455D+00
 Coeff-Com:  0.165D+01
 Coeff-En:   0.000D+00 0.000D+00 0.000D+00 0.000D+00 0.000D+00 0.000D+00
 Coeff-En:   0.100D+01
 Coeff:     -0.131D-01 0.286D-01 0.332D-01 0.756D-01-0.316D+00-0.451D+00
 Coeff:      0.164D+01
 Gap=     0.245 Goal=   None    Shift=    0.000
 Gap=     0.245 Goal=   None    Shift=    0.000
 RMSDP=7.60D-05 MaxDP=3.54D-03 DE=-8.33D-04 OVMax= 3.12D-02

 Cycle   8  Pass 1  IDiag  1:
 RMSU=  1.37D-05    CP:  9.23D-01  2.23D+00  1.31D+00  2.76D+00  2.98D+00
                    CP:  2.65D+00  2.26D+00
 E= -466.817463740351     Delta-E=       -0.000526541670 Rises=F Damp=F
 DIIS: error= 7.27D-04 at cycle   8 NSaved=   8.
 NSaved= 8 IEnMin= 8 EnMin= -466.817463740351     IErMin= 8 ErrMin= 7.27D-04
 ErrMax= 7.27D-04  0.00D+00 EMaxC= 1.00D-01 BMatC= 6.34D-05 BMatP= 1.13D-04
 IDIUse=3 WtCom= 9.93D-01 WtEn= 7.27D-03
 Coeff-Com:  0.311D-01-0.672D-01-0.230D-01 0.361D+00-0.744D-01-0.838D+00
 Coeff-Com: -0.153D+00 0.176D+01
 Coeff-En:   0.000D+00 0.000D+00 0.000D+00 0.000D+00 0.000D+00 0.000D+00
 Coeff-En:   0.000D+00 0.100D+01
 Coeff:      0.309D-01-0.667D-01-0.229D-01 0.359D+00-0.739D-01-0.832D+00
 Coeff:     -0.152D+00 0.176D+01
 Gap=     0.243 Goal=   None    Shift=    0.000
 Gap=     0.243 Goal=   None    Shift=    0.000
 RMSDP=8.10D-05 MaxDP=3.23D-03 DE=-5.27D-04 OVMax= 3.49D-02

 Cycle   9  Pass 1  IDiag  1:
 RMSU=  4.93D-05    CP:  9.21D-01  2.24D+00  1.34D+00  3.00D+00  3.00D+00
                    CP:  3.00D+00  3.00D+00  2.59D+00
 E= -466.817884151547     Delta-E=       -0.000420411196 Rises=F Damp=F
 DIIS: error= 5.13D-04 at cycle   9 NSaved=   9.
 NSaved= 9 IEnMin= 9 EnMin= -466.817884151547     IErMin= 9 ErrMin= 5.13D-04
 ErrMax= 5.13D-04  0.00D+00 EMaxC= 1.00D-01 BMatC= 2.98D-05 BMatP= 6.34D-05
 IDIUse=3 WtCom= 9.95D-01 WtEn= 5.13D-03
 Coeff-Com:  0.197D-01-0.427D-01-0.268D-01 0.104D+00 0.152D+00-0.836D-01
 Coeff-Com: -0.946D+00 0.525D+00 0.130D+01
 Coeff-En:   0.000D+00 0.000D+00 0.000D+00 0.000D+00 0.000D+00 0.000D+00
 Coeff-En:   0.000D+00 0.000D+00 0.100D+01
 Coeff:      0.196D-01-0.424D-01-0.267D-01 0.104D+00 0.151D+00-0.831D-01
 Coeff:     -0.942D+00 0.522D+00 0.130D+01
 Gap=     0.241 Goal=   None    Shift=    0.000
 Gap=     0.241 Goal=   None    Shift=    0.000
 RMSDP=7.02D-05 MaxDP=2.86D-03 DE=-4.20D-04 OVMax= 3.08D-02

 Cycle  10  Pass 1  IDiag  1:
 RMSU=  4.00D-05    CP:  9.19D-01  2.24D+00  1.37D+00  3.00D+00  3.00D+00
                    CP:  3.00D+00  3.00D+00  3.00D+00  2.06D+00
 E= -466.818121673877     Delta-E=       -0.000237522329 Rises=F Damp=F
 DIIS: error= 3.37D-04 at cycle  10 NSaved=  10.
 NSaved=10 IEnMin=10 EnMin= -466.818121673877     IErMin=10 ErrMin= 3.37D-04
 ErrMax= 3.37D-04  0.00D+00 EMaxC= 1.00D-01 BMatC= 1.21D-05 BMatP= 2.98D-05
 IDIUse=3 WtCom= 9.97D-01 WtEn= 3.37D-03
 Coeff-Com: -0.113D-01 0.245D-01 0.515D-02-0.163D+00 0.776D-01 0.450D+00
 Coeff-Com: -0.214D+00-0.948D+00 0.213D+00 0.156D+01
 Coeff-En:   0.000D+00 0.000D+00 0.000D+00 0.000D+00 0.000D+00 0.000D+00
 Coeff-En:   0.000D+00 0.000D+00 0.000D+00 0.100D+01
 Coeff:     -0.113D-01 0.244D-01 0.514D-02-0.162D+00 0.773D-01 0.448D+00
 Coeff:     -0.213D+00-0.944D+00 0.213D+00 0.156D+01
 Gap=     0.239 Goal=   None    Shift=    0.000
 Gap=     0.239 Goal=   None    Shift=    0.000
 RMSDP=8.16D-05 MaxDP=3.39D-03 DE=-2.38D-04 OVMax= 3.61D-02

 Cycle  11  Pass 1  IDiag  1:
 RMSU=  1.79D-05    CP:  9.17D-01  2.25D+00  1.41D+00  3.00D+00  3.00D+00
                    CP:  3.00D+00  3.00D+00  3.00D+00  3.00D+00  2.22D+00
 E= -466.818278515167     Delta-E=       -0.000156841290 Rises=F Damp=F
 DIIS: error= 1.67D-04 at cycle  11 NSaved=  11.
 NSaved=11 IEnMin=11 EnMin= -466.818278515167     IErMin=11 ErrMin= 1.67D-04
 ErrMax= 1.67D-04  0.00D+00 EMaxC= 1.00D-01 BMatC= 4.31D-06 BMatP= 1.21D-05
 IDIUse=3 WtCom= 9.98D-01 WtEn= 1.67D-03
 Coeff-Com: -0.774D-02 0.167D-01 0.601D-02-0.849D-01 0.407D-02 0.227D+00
 Coeff-Com:  0.544D-01-0.550D+00-0.183D+00 0.659D+00 0.859D+00
 Coeff-En:   0.000D+00 0.000D+00 0.000D+00 0.000D+00 0.000D+00 0.000D+00
 Coeff-En:   0.000D+00 0.000D+00 0.000D+00 0.000D+00 0.100D+01
 Coeff:     -0.773D-02 0.167D-01 0.600D-02-0.848D-01 0.407D-02 0.227D+00
 Coeff:      0.543D-01-0.549D+00-0.183D+00 0.658D+00 0.859D+00
 Gap=     0.238 Goal=   None    Shift=    0.000
 Gap=     0.238 Goal=   None    Shift=    0.000
 RMSDP=3.64D-05 MaxDP=1.54D-03 DE=-1.57D-04 OVMax= 1.62D-02

 Cycle  12  Pass 1  IDiag  1:
 RMSU=  1.25D-05    CP:  9.17D-01  2.25D+00  1.42D+00  3.00D+00  3.00D+00
                    CP:  3.00D+00  3.00D+00  3.00D+00  3.00D+00  2.76D+00
                    CP:  2.37D+00
 E= -466.818317072628     Delta-E=       -0.000038557461 Rises=F Damp=F
 DIIS: error= 1.06D-04 at cycle  12 NSaved=  12.
 NSaved=12 IEnMin=12 EnMin= -466.818317072628     IErMin=12 ErrMin= 1.06D-04
 ErrMax= 1.06D-04  0.00D+00 EMaxC= 1.00D-01 BMatC= 1.84D-06 BMatP= 4.31D-06
 IDIUse=3 WtCom= 9.99D-01 WtEn= 1.06D-03
 Coeff-Com:  0.491D-02-0.106D-01-0.298D-02 0.665D-01-0.385D-01-0.155D+00
 Coeff-Com:  0.796D-01 0.306D+00-0.165D+00-0.676D+00 0.138D+00 0.145D+01
 Coeff-En:   0.000D+00 0.000D+00 0.000D+00 0.000D+00 0.000D+00 0.000D+00
 Coeff-En:   0.000D+00 0.000D+00 0.000D+00 0.000D+00 0.000D+00 0.100D+01
 Coeff:      0.491D-02-0.106D-01-0.297D-02 0.664D-01-0.385D-01-0.154D+00
 Coeff:      0.795D-01 0.306D+00-0.165D+00-0.675D+00 0.138D+00 0.145D+01
 Gap=     0.236 Goal=   None    Shift=    0.000
 Gap=     0.236 Goal=   None    Shift=    0.000
 RMSDP=4.84D-05 MaxDP=2.13D-03 DE=-3.86D-05 OVMax= 2.15D-02

 Cycle  13  Pass 1  IDiag  1:
 RMSU=  2.91D-05    CP:  9.15D-01  2.25D+00  1.44D+00  3.00D+00  3.00D+00
                    CP:  3.00D+00  3.00D+00  3.00D+00  3.00D+00  3.00D+00
                    CP:  3.00D+00  2.29D+00
 E= -466.818345310323     Delta-E=       -0.000028237695 Rises=F Damp=F
 DIIS: error= 5.48D-05 at cycle  13 NSaved=  13.
 NSaved=13 IEnMin=13 EnMin= -466.818345310323     IErMin=13 ErrMin= 5.48D-05
 ErrMax= 5.48D-05  0.00D+00 EMaxC= 1.00D-01 BMatC= 5.90D-07 BMatP= 1.84D-06
 IDIUse=1 WtCom= 1.00D+00 WtEn= 0.00D+00
 Coeff-Com: -0.199D-02 0.435D-02 0.129D-03-0.387D-01 0.305D-01 0.102D+00
 Coeff-Com: -0.111D+00-0.176D+00 0.187D+00 0.409D+00-0.406D+00-0.959D+00
 Coeff-Com:  0.196D+01
 Coeff:     -0.199D-02 0.435D-02 0.129D-03-0.387D-01 0.305D-01 0.102D+00
 Coeff:     -0.111D+00-0.176D+00 0.187D+00 0.409D+00-0.406D+00-0.959D+00
 Coeff:      0.196D+01
 Gap=     0.235 Goal=   None    Shift=    0.000
 Gap=     0.235 Goal=   None    Shift=    0.000
 RMSDP=2.68D-05 MaxDP=1.25D-03 DE=-2.82D-05 OVMax= 1.20D-02

 Cycle  14  Pass 1  IDiag  1:
 RMSU=  2.25D-06    CP:  9.15D-01  2.25D+00  1.45D+00  3.00D+00  3.00D+00
                    CP:  3.00D+00  3.00D+00  3.00D+00  3.00D+00  3.00D+00
                    CP:  3.00D+00  3.00D+00  1.83D+00
 E= -466.818352697739     Delta-E=       -0.000007387416 Rises=F Damp=F
 DIIS: error= 2.59D-05 at cycle  14 NSaved=  14.
 NSaved=14 IEnMin=14 EnMin= -466.818352697739     IErMin=14 ErrMin= 2.59D-05
 ErrMax= 2.59D-05  0.00D+00 EMaxC= 1.00D-01 BMatC= 1.88D-07 BMatP= 5.90D-07
 IDIUse=1 WtCom= 1.00D+00 WtEn= 0.00D+00
 Coeff-Com: -0.218D-02 0.470D-02 0.103D-02-0.314D-01 0.163D-01 0.789D-01
 Coeff-Com: -0.316D-01-0.167D+00 0.488D-01 0.302D+00-0.446D-02-0.514D+00
 Coeff-Com: -0.232D+00 0.153D+01
 Coeff:     -0.218D-02 0.470D-02 0.103D-02-0.314D-01 0.163D-01 0.789D-01
 Coeff:     -0.316D-01-0.167D+00 0.488D-01 0.302D+00-0.446D-02-0.514D+00
 Coeff:     -0.232D+00 0.153D+01
 Gap=     0.235 Goal=   None    Shift=    0.000
 Gap=     0.235 Goal=   None    Shift=    0.000
 RMSDP=1.49D-05 MaxDP=7.25D-04 DE=-7.39D-06 OVMax= 6.58D-03

 Cycle  15  Pass 1  IDiag  1:
 RMSU=  4.79D-06    CP:  9.14D-01  2.25D+00  1.46D+00  3.00D+00  3.00D+00
                    CP:  3.00D+00  3.00D+00  3.00D+00  3.00D+00  3.00D+00
                    CP:  3.00D+00  3.00D+00  2.29D+00  1.90D+00
 E= -466.818354617725     Delta-E=       -0.000001919986 Rises=F Damp=F
 DIIS: error= 1.05D-05 at cycle  15 NSaved=  15.
 NSaved=15 IEnMin=15 EnMin= -466.818354617725     IErMin=15 ErrMin= 1.05D-05
 ErrMax= 1.05D-05  0.00D+00 EMaxC= 1.00D-01 BMatC= 4.98D-08 BMatP= 1.88D-07
 IDIUse=1 WtCom= 1.00D+00 WtEn= 0.00D+00
 Coeff-Com: -0.454D-04 0.831D-04 0.185D-03 0.201D-02-0.369D-02-0.618D-02
 Coeff-Com:  0.253D-01-0.580D-03-0.470D-01-0.327D-01 0.126D+00 0.132D+00
 Coeff-Com: -0.698D+00 0.420D+00 0.108D+01
 Coeff:     -0.454D-04 0.831D-04 0.185D-03 0.201D-02-0.369D-02-0.618D-02
 Coeff:      0.253D-01-0.580D-03-0.470D-01-0.327D-01 0.126D+00 0.132D+00
 Coeff:     -0.698D+00 0.420D+00 0.108D+01
 Gap=     0.235 Goal=   None    Shift=    0.000
 Gap=     0.235 Goal=   None    Shift=    0.000
 RMSDP=8.31D-06 MaxDP=4.00D-04 DE=-1.92D-06 OVMax= 3.63D-03

 Cycle  16  Pass 1  IDiag  1:
 RMSU=  3.84D-07    CP:  9.14D-01  2.25D+00  1.46D+00  3.00D+00  3.00D+00
                    CP:  3.00D+00  3.00D+00  3.00D+00  3.00D+00  3.00D+00
                    CP:  3.00D+00  3.00D+00  2.55D+00  2.37D+00  1.54D+00
 E= -466.818354996174     Delta-E=       -0.000000378449 Rises=F Damp=F
 DIIS: error= 2.96D-06 at cycle  16 NSaved=  16.
 NSaved=16 IEnMin=16 EnMin= -466.818354996174     IErMin=16 ErrMin= 2.96D-06
 ErrMax= 2.96D-06  0.00D+00 EMaxC= 1.00D-01 BMatC= 6.18D-09 BMatP= 4.98D-08
 IDIUse=1 WtCom= 1.00D+00 WtEn= 0.00D+00
 Coeff-Com:  0.397D-03-0.857D-03-0.161D-03 0.619D-02-0.334D-02-0.168D-01
 Coeff-Com:  0.996D-02 0.335D-01-0.174D-01-0.646D-01 0.171D-01 0.116D+00
 Coeff-Com: -0.461D-01-0.272D+00 0.170D+00 0.107D+01
 Coeff:      0.397D-03-0.857D-03-0.161D-03 0.619D-02-0.334D-02-0.168D-01
 Coeff:      0.996D-02 0.335D-01-0.174D-01-0.646D-01 0.171D-01 0.116D+00
 Coeff:     -0.461D-01-0.272D+00 0.170D+00 0.107D+01
 Gap=     0.235 Goal=   None    Shift=    0.000
 Gap=     0.235 Goal=   None    Shift=    0.000
 RMSDP=2.76D-06 MaxDP=1.32D-04 DE=-3.78D-07 OVMax= 1.18D-03

 Cycle  17  Pass 1  IDiag  1:
 RMSU=  1.34D-07    CP:  9.14D-01  2.25D+00  1.46D+00  3.00D+00  3.00D+00
                    CP:  3.00D+00  3.00D+00  3.00D+00  3.00D+00  3.00D+00
                    CP:  3.00D+00  3.00D+00  2.64D+00  2.49D+00  1.73D+00
                    CP:  1.63D+00
 E= -466.818355019611     Delta-E=       -0.000000023437 Rises=F Damp=F
 DIIS: error= 6.99D-07 at cycle  17 NSaved=  17.
 NSaved=17 IEnMin=17 EnMin= -466.818355019611     IErMin=17 ErrMin= 6.99D-07
 ErrMax= 6.99D-07  0.00D+00 EMaxC= 1.00D-01 BMatC= 4.33D-10 BMatP= 6.18D-09
 IDIUse=1 WtCom= 1.00D+00 WtEn= 0.00D+00
 Coeff-Com: -0.290D-04 0.643D-04 0.277D-04-0.570D-03 0.470D-03 0.108D-02
 Coeff-Com: -0.261D-02-0.127D-02 0.498D-02 0.602D-02-0.132D-01-0.135D-01
 Coeff-Com:  0.735D-01-0.345D-01-0.121D+00-0.180D-01 0.112D+01
 Coeff:     -0.290D-04 0.643D-04 0.277D-04-0.570D-03 0.470D-03 0.108D-02
 Coeff:     -0.261D-02-0.127D-02 0.498D-02 0.602D-02-0.132D-01-0.135D-01
 Coeff:      0.735D-01-0.345D-01-0.121D+00-0.180D-01 0.112D+01
 Gap=     0.235 Goal=   None    Shift=    0.000
 Gap=     0.235 Goal=   None    Shift=    0.000
 RMSDP=1.14D-07 MaxDP=4.75D-06 DE=-2.34D-08 OVMax= 3.75D-05

 Cycle  18  Pass 1  IDiag  1:
 RMSU=  4.52D-08    CP:  9.14D-01  2.25D+00  1.46D+00  3.00D+00  3.00D+00
                    CP:  3.00D+00  3.00D+00  3.00D+00  3.00D+00  3.00D+00
                    CP:  3.00D+00  3.00D+00  2.64D+00  2.49D+00  1.73D+00
                    CP:  1.79D+00  1.36D+00
 E= -466.818355020121     Delta-E=       -0.000000000511 Rises=F Damp=F
 DIIS: error= 2.84D-07 at cycle  18 NSaved=  18.
 NSaved=18 IEnMin=18 EnMin= -466.818355020121     IErMin=18 ErrMin= 2.84D-07
 ErrMax= 2.84D-07  0.00D+00 EMaxC= 1.00D-01 BMatC= 8.59D-11 BMatP= 4.33D-10
 IDIUse=1 WtCom= 1.00D+00 WtEn= 0.00D+00
 Coeff-Com: -0.433D-04 0.941D-04 0.223D-04-0.728D-03 0.489D-03 0.175D-02
 Coeff-Com: -0.175D-02-0.325D-02 0.321D-02 0.749D-02-0.608D-02-0.137D-01
 Coeff-Com:  0.306D-01 0.815D-02-0.578D-01-0.893D-01 0.380D+00 0.741D+00
 Coeff:     -0.433D-04 0.941D-04 0.223D-04-0.728D-03 0.489D-03 0.175D-02
 Coeff:     -0.175D-02-0.325D-02 0.321D-02 0.749D-02-0.608D-02-0.137D-01
 Coeff:      0.306D-01 0.815D-02-0.578D-01-0.893D-01 0.380D+00 0.741D+00
 Gap=     0.235 Goal=   None    Shift=    0.000
 Gap=     0.235 Goal=   None    Shift=    0.000
 RMSDP=7.09D-08 MaxDP=3.34D-06 DE=-5.11D-10 OVMax= 3.21D-05

 Cycle  19  Pass 1  IDiag  1:
 RMSU=  1.25D-08    CP:  9.14D-01  2.25D+00  1.46D+00  3.00D+00  3.00D+00
                    CP:  3.00D+00  3.00D+00  3.00D+00  3.00D+00  3.00D+00
                    CP:  3.00D+00  3.00D+00  2.63D+00  2.48D+00  1.73D+00
                    CP:  1.79D+00  1.42D+00  1.18D+00
 E= -466.818355020201     Delta-E=       -0.000000000080 Rises=F Damp=F
 DIIS: error= 1.47D-07 at cycle  19 NSaved=  19.
 NSaved=19 IEnMin=19 EnMin= -466.818355020201     IErMin=19 ErrMin= 1.47D-07
 ErrMax= 1.47D-07  0.00D+00 EMaxC= 1.00D-01 BMatC= 1.30D-11 BMatP= 8.59D-11
 IDIUse=1 WtCom= 1.00D+00 WtEn= 0.00D+00
 Coeff-Com: -0.455D-05 0.973D-05-0.148D-05-0.863D-04 0.855D-04 0.241D-03
 Coeff-Com: -0.104D-03-0.512D-03 0.197D-03 0.961D-03 0.243D-04-0.161D-02
 Coeff-Com: -0.143D-02 0.568D-02 0.146D-02-0.185D-01-0.686D-01 0.223D+00
 Coeff-Com:  0.859D+00
 Coeff:     -0.455D-05 0.973D-05-0.148D-05-0.863D-04 0.855D-04 0.241D-03
 Coeff:     -0.104D-03-0.512D-03 0.197D-03 0.961D-03 0.243D-04-0.161D-02
 Coeff:     -0.143D-02 0.568D-02 0.146D-02-0.185D-01-0.686D-01 0.223D+00
 Coeff:      0.859D+00
 Gap=     0.235 Goal=   None    Shift=    0.000
 Gap=     0.235 Goal=   None    Shift=    0.000
 RMSDP=2.91D-08 MaxDP=1.28D-06 DE=-7.97D-11 OVMax= 1.23D-05

 Cycle  20  Pass 1  IDiag  1:
 RMSU=  6.86D-09    CP:  9.14D-01  2.25D+00  1.46D+00  3.00D+00  3.00D+00
                    CP:  3.00D+00  3.00D+00  3.00D+00  3.00D+00  3.00D+00
                    CP:  3.00D+00  3.00D+00  2.63D+00  2.49D+00  1.72D+00
                    CP:  1.79D+00  1.42D+00  1.28D+00  1.21D+00
 E= -466.818355020220     Delta-E=       -0.000000000019 Rises=F Damp=F
 DIIS: error= 8.90D-08 at cycle  20 NSaved=  20.
 NSaved=20 IEnMin=20 EnMin= -466.818355020220     IErMin=20 ErrMin= 8.90D-08
 ErrMax= 8.90D-08  0.00D+00 EMaxC= 1.00D-01 BMatC= 2.94D-12 BMatP= 1.30D-11
 IDIUse=1 WtCom= 1.00D+00 WtEn= 0.00D+00
 Coeff-Com:  0.427D-05-0.933D-05-0.385D-05 0.642D-04-0.243D-04-0.148D-03
 Coeff-Com:  0.151D-03 0.294D-03-0.269D-03-0.603D-03 0.636D-03 0.110D-02
 Coeff-Com: -0.363D-02 0.580D-03 0.716D-02 0.481D-02-0.726D-01-0.844D-02
 Coeff-Com:  0.346D+00 0.725D+00
 Coeff:      0.427D-05-0.933D-05-0.385D-05 0.642D-04-0.243D-04-0.148D-03
 Coeff:      0.151D-03 0.294D-03-0.269D-03-0.603D-03 0.636D-03 0.110D-02
 Coeff:     -0.363D-02 0.580D-03 0.716D-02 0.481D-02-0.726D-01-0.844D-02
 Coeff:      0.346D+00 0.725D+00
 Gap=     0.235 Goal=   None    Shift=    0.000
 Gap=     0.235 Goal=   None    Shift=    0.000
 RMSDP=2.70D-08 MaxDP=1.27D-06 DE=-1.92D-11 OVMax= 1.20D-05

 Cycle  21  Pass 1  IDiag  1:
 Restarting incremental Fock formation.
 E= -466.818355020243     Delta-E=       -0.000000000022 Rises=F Damp=F
 DIIS: error= 5.06D-08 at cycle  21 NSaved=  20.
 NSaved=20 IEnMin=20 EnMin= -466.818355020243     IErMin=20 ErrMin= 5.06D-08
 ErrMax= 5.06D-08  0.00D+00 EMaxC= 1.00D-01 BMatC= 5.74D-13 BMatP= 2.94D-12
 IDIUse=1 WtCom= 1.00D+00 WtEn= 0.00D+00
 Coeff-Com:  0.622D-08 0.110D-05 0.905D-05-0.126D-04-0.378D-04 0.452D-05
 Coeff-Com:  0.115D-03-0.331D-05-0.146D-03-0.919D-06 0.299D-03 0.514D-03
 Coeff-Com: -0.128D-02 0.436D-04 0.430D-02 0.458D-02-0.518D-01-0.114D+00
 Coeff-Com:  0.191D+00 0.967D+00
 Coeff:      0.622D-08 0.110D-05 0.905D-05-0.126D-04-0.378D-04 0.452D-05
 Coeff:      0.115D-03-0.331D-05-0.146D-03-0.919D-06 0.299D-03 0.514D-03
 Coeff:     -0.128D-02 0.436D-04 0.430D-02 0.458D-02-0.518D-01-0.114D+00
 Coeff:      0.191D+00 0.967D+00
 Gap=     0.235 Goal=   None    Shift=    0.000
 Gap=     0.235 Goal=   None    Shift=    0.000
 RMSDP=3.43D-08 MaxDP=1.57D-06 DE=-2.24D-11 OVMax= 1.53D-05

 Cycle  22  Pass 1  IDiag  1:
 RMSU=  3.43D-08    CP:  1.00D+00
 E= -466.818355020245     Delta-E=       -0.000000000002 Rises=F Damp=F
 DIIS: error= 2.05D-08 at cycle  22 NSaved=  20.
 NSaved=20 IEnMin=20 EnMin= -466.818355020245     IErMin=20 ErrMin= 2.05D-08
 ErrMax= 2.05D-08  0.00D+00 EMaxC= 1.00D-01 BMatC= 7.26D-14 BMatP= 5.74D-13
 IDIUse=1 WtCom= 1.00D+00 WtEn= 0.00D+00
 Coeff-Com:  0.226D-06-0.142D-05 0.254D-05-0.231D-05-0.249D-04 0.136D-04
 Coeff-Com:  0.557D-04 0.175D-04-0.114D-03-0.783D-04 0.873D-03-0.579D-03
 Coeff-Com: -0.129D-02 0.258D-03 0.120D-01-0.322D-02-0.533D-01-0.953D-01
 Coeff-Com: -0.228D-01 0.116D+01
 Coeff:      0.226D-06-0.142D-05 0.254D-05-0.231D-05-0.249D-04 0.136D-04
 Coeff:      0.557D-04 0.175D-04-0.114D-03-0.783D-04 0.873D-03-0.579D-03
 Coeff:     -0.129D-02 0.258D-03 0.120D-01-0.322D-02-0.533D-01-0.953D-01
 Coeff:     -0.228D-01 0.116D+01
 Gap=     0.235 Goal=   None    Shift=    0.000
 Gap=     0.235 Goal=   None    Shift=    0.000
 RMSDP=1.70D-08 MaxDP=7.79D-07 DE=-2.05D-12 OVMax= 7.59D-06

 Cycle  23  Pass 1  IDiag  1:
 RMSU=  6.16D-10    CP:  1.00D+00  1.49D+00
 E= -466.818355020249     Delta-E=       -0.000000000005 Rises=F Damp=F
 DIIS: error= 7.24D-09 at cycle  23 NSaved=  20.
 NSaved=20 IEnMin=20 EnMin= -466.818355020249     IErMin=20 ErrMin= 7.24D-09
 ErrMax= 7.24D-09  0.00D+00 EMaxC= 1.00D-01 BMatC= 1.04D-14 BMatP= 7.26D-14
 IDIUse=1 WtCom= 1.00D+00 WtEn= 0.00D+00
 Coeff-Com: -0.531D-06 0.180D-05 0.136D-05-0.249D-05-0.641D-05 0.107D-04
 Coeff-Com:  0.115D-04-0.175D-04-0.476D-04 0.127D-03-0.140D-04-0.234D-03
 Coeff-Com: -0.386D-03 0.116D-02 0.621D-02 0.109D-01-0.326D-01-0.149D+00
 Coeff-Com:  0.169D-01 0.115D+01
 Coeff:     -0.531D-06 0.180D-05 0.136D-05-0.249D-05-0.641D-05 0.107D-04
 Coeff:      0.115D-04-0.175D-04-0.476D-04 0.127D-03-0.140D-04-0.234D-03
 Coeff:     -0.386D-03 0.116D-02 0.621D-02 0.109D-01-0.326D-01-0.149D+00
 Coeff:      0.169D-01 0.115D+01
 Gap=     0.235 Goal=   None    Shift=    0.000
 Gap=     0.235 Goal=   None    Shift=    0.000
 RMSDP=6.53D-09 MaxDP=3.00D-07 DE=-4.89D-12 OVMax= 2.95D-06

 Error on total polarization charges =  0.01176
 SCF Done:  E(UwB97XD) =  -466.818355020     A.U. after   23 cycles
            NFock= 23  Conv=0.65D-08     -V/T= 2.0057
 <Sx>= 0.0000 <Sy>= 0.0000 <Sz>= 0.0000 <S**2>= 0.1017 S= 0.0931
 <L.S>=  0.00000000000    
 KE= 4.641549662079D+02 PE=-2.464760511322D+03 EE= 8.422234202341D+02
 --------------------------------------------------------------------
 Variational PCM results
 =======================
 <psi(f)|   H    |psi(f)>                     (a.u.) =    -466.816913
 <psi(f)|H+V(f)/2|psi(f)>                     (a.u.) =    -466.818355
 (Polarized solute)-Solvent               (kcal/mol) =      -0.90
 --------------------------------------------------------------------
 Partition over spheres:
 Sphere  on Atom  Surface  Charge   GEl     GCav    GDR
    1      C1       7.37   0.012   -0.05    0.00    0.00
    2      C2       1.42   0.002   -0.01    0.00    0.00
    3      H3       7.52  -0.010   -0.03    0.00    0.00
    4      H4       2.99  -0.004   -0.01    0.00    0.00
    5      C5       4.59   0.009   -0.05    0.00    0.00
    6      C6       1.52   0.002   -0.01    0.00    0.00
    7      H7       4.82  -0.007   -0.03    0.00    0.00
    8      H8       3.18  -0.004   -0.01    0.00    0.00
    9      C9       3.06   0.002    0.00    0.00    0.00
   10      H10      6.68  -0.006   -0.01    0.00    0.00
   11      H11      3.61  -0.003   -0.01    0.00    0.00
   12      C12      6.70   0.011   -0.06    0.00    0.00
   13      H13      7.50  -0.010   -0.03    0.00    0.00
   14      C14      7.28   0.012   -0.05    0.00    0.00
   15      H15      7.52  -0.010   -0.03    0.00    0.00
   16      C16      3.42   0.001    0.00    0.00    0.00
   17      H17      3.88  -0.004   -0.02    0.00    0.00
   18      H18      7.46  -0.008   -0.03    0.00    0.00
   19      C19      4.66   0.008   -0.05    0.00    0.00
   20      H20      4.83  -0.007   -0.03    0.00    0.00
   21      C21      6.99   0.011   -0.06    0.00    0.00
   22      H22      7.52  -0.010   -0.03    0.00    0.00
   23      C23      2.99   0.002    0.00    0.00    0.00
   24      H24      3.56  -0.003   -0.01    0.00    0.00
   25      H25      6.87  -0.007   -0.01    0.00    0.00
   26      C26      3.26   0.001    0.00    0.00    0.00
   27      H27      7.39  -0.008   -0.03    0.00    0.00
   28      H28      4.10  -0.004   -0.02    0.00    0.00
 Added spheres:    75.77   0.020   -0.23    0.00    0.00
 --------------------------------------------------------------------
 After PCM corrections, the energy is  -466.818355020     a.u.
 --------------------------------------------------------------------
 Annihilation of the first spin contaminant:
 S**2 before annihilation     0.1017,   after     0.0042
 Leave Link  502 at Mon Aug  3 16:13:57 2020, MaxMem=  6442450944 cpu:            9740.1 elap:             408.9
 (Enter /scratch/scicomp/CentOS/7.3.1611/Haswell/software/Gaussian/g16/l601.exe)
 Copying SCF densities to generalized density rwf, IOpCl= 1 IROHF=0.

 **********************************************************************

            Population analysis using the SCF Density.

 **********************************************************************

 Alpha  occ. eigenvalues --  -10.29424 -10.29250 -10.28585 -10.28573 -10.28422
 Alpha  occ. eigenvalues --  -10.28274 -10.28221 -10.28209 -10.28074 -10.27989
 Alpha  occ. eigenvalues --  -10.27632 -10.27410  -0.95028  -0.93358  -0.85146
 Alpha  occ. eigenvalues --   -0.84453  -0.83672  -0.82897  -0.71499  -0.70567
 Alpha  occ. eigenvalues --   -0.69179  -0.67887  -0.60127  -0.59727  -0.58135
 Alpha  occ. eigenvalues --   -0.56389  -0.53342  -0.53264  -0.51046  -0.50392
 Alpha  occ. eigenvalues --   -0.49645  -0.48571  -0.47880  -0.47287  -0.46456
 Alpha  occ. eigenvalues --   -0.44759  -0.41530  -0.41089  -0.39913  -0.39555
 Alpha  occ. eigenvalues --   -0.39123  -0.37905  -0.31675  -0.24001
 Alpha virt. eigenvalues --   -0.00533   0.08172   0.10433   0.12450   0.13245
 Alpha virt. eigenvalues --    0.14373   0.14476   0.15475   0.15933   0.16339
 Alpha virt. eigenvalues --    0.16445   0.17241   0.18030   0.19226   0.20019
 Alpha virt. eigenvalues --    0.20736   0.21359   0.22725   0.23227   0.23760
 Alpha virt. eigenvalues --    0.24566   0.25183   0.26345   0.26513   0.27369
 Alpha virt. eigenvalues --    0.28564   0.28761   0.29886   0.30156   0.30524
 Alpha virt. eigenvalues --    0.31060   0.31723   0.32062   0.32950   0.33961
 Alpha virt. eigenvalues --    0.34517   0.35395   0.35935   0.36322   0.37386
 Alpha virt. eigenvalues --    0.37556   0.38819   0.41143   0.41564   0.42178
 Alpha virt. eigenvalues --    0.43594   0.43879   0.44508   0.44964   0.45544
 Alpha virt. eigenvalues --    0.46480   0.47331   0.48267   0.48562   0.48587
 Alpha virt. eigenvalues --    0.48680   0.49024   0.49225   0.49933   0.50233
 Alpha virt. eigenvalues --    0.50299   0.50786   0.51790   0.51990   0.52901
 Alpha virt. eigenvalues --    0.52916   0.54178   0.54667   0.54830   0.55564
 Alpha virt. eigenvalues --    0.56665   0.57066   0.58165   0.59081   0.59489
 Alpha virt. eigenvalues --    0.59820   0.60575   0.60952   0.63259   0.64563
 Alpha virt. eigenvalues --    0.66703   0.67052   0.67868   0.68518   0.68642
 Alpha virt. eigenvalues --    0.70916   0.72524   0.72817   0.76258   0.76360
 Alpha virt. eigenvalues --    0.77327   0.78676   0.78995   0.81568   0.81699
 Alpha virt. eigenvalues --    0.83326   0.84318   0.85607   0.86840   0.87813
 Alpha virt. eigenvalues --    0.88429   0.89670   0.93008   0.93908   0.95081
 Alpha virt. eigenvalues --    0.95574   0.97915   0.98084   0.98502   0.99314
 Alpha virt. eigenvalues --    1.02109   1.02385   1.03915   1.04468   1.05630
 Alpha virt. eigenvalues --    1.07133   1.07811   1.07863   1.09731   1.10104
 Alpha virt. eigenvalues --    1.12466   1.14029   1.15493   1.16741   1.17196
 Alpha virt. eigenvalues --    1.18300   1.18386   1.19159   1.19610   1.19766
 Alpha virt. eigenvalues --    1.20792   1.22194   1.24050   1.25845   1.26034
 Alpha virt. eigenvalues --    1.26836   1.26862   1.28107   1.29035   1.29097
 Alpha virt. eigenvalues --    1.30317   1.30590   1.33202   1.33839   1.34413
 Alpha virt. eigenvalues --    1.34986   1.35581   1.35849   1.38223   1.39354
 Alpha virt. eigenvalues --    1.39461   1.39920   1.39973   1.41987   1.42558
 Alpha virt. eigenvalues --    1.42923   1.43966   1.44077   1.44259   1.45080
 Alpha virt. eigenvalues --    1.45741   1.45915   1.47754   1.47908   1.49003
 Alpha virt. eigenvalues --    1.50623   1.53537   1.54859   1.56688   1.57572
 Alpha virt. eigenvalues --    1.58736   1.59829   1.59966   1.60698   1.62983
 Alpha virt. eigenvalues --    1.64056   1.65394   1.65490   1.66759   1.68301
 Alpha virt. eigenvalues --    1.71666   1.73118   1.75454   1.77253   1.78252
 Alpha virt. eigenvalues --    1.79375   1.81056   1.82133   1.84857   1.85617
 Alpha virt. eigenvalues --    1.88185   1.89998   1.90766   1.93479   1.94153
 Alpha virt. eigenvalues --    1.96810   1.97484   2.00237   2.01639   2.03293
 Alpha virt. eigenvalues --    2.05966   2.06539   2.08510   2.10918   2.11129
 Alpha virt. eigenvalues --    2.12667   2.16239   2.16280   2.16459   2.18144
 Alpha virt. eigenvalues --    2.18824   2.20202   2.20744   2.21388   2.24098
 Alpha virt. eigenvalues --    2.25125   2.25226   2.28059   2.30347   2.31824
 Alpha virt. eigenvalues --    2.35274   2.36519   2.38776   2.38983   2.44396
 Alpha virt. eigenvalues --    2.44956   2.47529   2.47676   2.48682   2.49911
 Alpha virt. eigenvalues --    2.50722   2.54071   2.54436   2.57152   2.57351
 Alpha virt. eigenvalues --    2.59799   2.60212   2.61659   2.62486   2.62620
 Alpha virt. eigenvalues --    2.64307   2.65279   2.66386   2.67854   2.68829
 Alpha virt. eigenvalues --    2.69646   2.72033   2.73097   2.73588   2.74273
 Alpha virt. eigenvalues --    2.74377   2.76256   2.76676   2.77449   2.78372
 Alpha virt. eigenvalues --    2.78536   2.79946   2.80340   2.82025   2.83436
 Alpha virt. eigenvalues --    2.83615   2.83651   2.84415   2.85842   2.86548
 Alpha virt. eigenvalues --    2.87045   2.87652   2.89350   2.90519   2.91901
 Alpha virt. eigenvalues --    2.91957   2.93376   2.94052   2.95399   2.96715
 Alpha virt. eigenvalues --    2.97292   2.98375   2.98637   2.99719   3.01799
 Alpha virt. eigenvalues --    3.01928   3.03323   3.04863   3.04978   3.06154
 Alpha virt. eigenvalues --    3.07749   3.08467   3.09950   3.10066   3.11164
 Alpha virt. eigenvalues --    3.11997   3.12740   3.13092   3.14086   3.14637
 Alpha virt. eigenvalues --    3.16056   3.16245   3.18132   3.18366   3.19826
 Alpha virt. eigenvalues --    3.20361   3.20486   3.21028   3.21430   3.22866
 Alpha virt. eigenvalues --    3.23551   3.24104   3.24612   3.24846   3.26649
 Alpha virt. eigenvalues --    3.26705   3.26795   3.27886   3.28747   3.29865
 Alpha virt. eigenvalues --    3.30197   3.30998   3.32084   3.32175   3.34484
 Alpha virt. eigenvalues --    3.35254   3.35603   3.35720   3.36353   3.37158
 Alpha virt. eigenvalues --    3.38132   3.39515   3.39938   3.40815   3.42146
 Alpha virt. eigenvalues --    3.42424   3.45226   3.45346   3.46534   3.46928
 Alpha virt. eigenvalues --    3.48099   3.48504   3.48836   3.50349   3.51245
 Alpha virt. eigenvalues --    3.52110   3.53110   3.53157   3.56020   3.56505
 Alpha virt. eigenvalues --    3.57269   3.57563   3.58675   3.58925   3.59795
 Alpha virt. eigenvalues --    3.61566   3.62657   3.63443   3.65341   3.65481
 Alpha virt. eigenvalues --    3.66175   3.67078   3.68084   3.69951   3.71929
 Alpha virt. eigenvalues --    3.72007   3.74223   3.77093   3.79597   3.80300
 Alpha virt. eigenvalues --    3.80685   3.82064   3.82493   3.83061   3.83444
 Alpha virt. eigenvalues --    3.85464   3.87427   3.90964   3.91396   3.92718
 Alpha virt. eigenvalues --    3.93301   3.95341   3.96442   4.01177   4.01532
 Alpha virt. eigenvalues --    4.02308   4.04105   4.06911   4.09214   4.10569
 Alpha virt. eigenvalues --    4.10977   4.12233   4.13032   4.14733   4.15489
 Alpha virt. eigenvalues --    4.16725   4.18492   4.19340   4.20569   4.20815
 Alpha virt. eigenvalues --    4.22428   4.24431   4.25643   4.28133   4.29935
 Alpha virt. eigenvalues --    4.32344   4.32526   4.34021   4.35649   4.38672
 Alpha virt. eigenvalues --    4.39089   4.43721   4.44401   4.45762   4.47583
 Alpha virt. eigenvalues --    4.49229   4.50629   4.51951   4.54762   4.56195
 Alpha virt. eigenvalues --    4.57725   4.58916   4.61015   4.66238   4.67440
 Alpha virt. eigenvalues --    4.69709   4.72541   4.75744   4.76484   4.76957
 Alpha virt. eigenvalues --    4.78841   4.79017   4.85096   4.87233   4.88135
 Alpha virt. eigenvalues --    4.92321   4.92741   4.93610   4.94869   4.97673
 Alpha virt. eigenvalues --    4.99318   5.02799   5.07969   5.09387   5.11312
 Alpha virt. eigenvalues --    5.16482   5.20258   5.22552   5.25424   5.25806
 Alpha virt. eigenvalues --    5.29338   5.37107   5.37862   5.39791   5.40112
 Alpha virt. eigenvalues --    5.43445   5.43910   5.51754   5.54343   5.66919
 Alpha virt. eigenvalues --    5.68812   5.71092   5.74592   5.88348   5.96374
 Alpha virt. eigenvalues --    7.94673   7.95318   8.03144   8.03893   8.05462
 Alpha virt. eigenvalues --    8.09968   8.10906   8.14352   8.18746   8.19804
 Alpha virt. eigenvalues --    8.33935   8.40097  34.76837  34.77145  34.81097
 Alpha virt. eigenvalues --   34.81473  34.84022  34.90496  34.98246  34.99836
 Alpha virt. eigenvalues --   35.01655  35.02670  35.16765  35.23072
  Beta  occ. eigenvalues --  -10.29424 -10.29250 -10.28585 -10.28573 -10.28423
  Beta  occ. eigenvalues --  -10.28274 -10.28221 -10.28208 -10.28073 -10.27990
  Beta  occ. eigenvalues --  -10.27633 -10.27410  -0.95028  -0.93358  -0.85146
  Beta  occ. eigenvalues --   -0.84453  -0.83672  -0.82897  -0.71499  -0.70567
  Beta  occ. eigenvalues --   -0.69179  -0.67886  -0.60127  -0.59727  -0.58135
  Beta  occ. eigenvalues --   -0.56389  -0.53342  -0.53264  -0.51046  -0.50392
  Beta  occ. eigenvalues --   -0.49645  -0.48571  -0.47880  -0.47287  -0.46456
  Beta  occ. eigenvalues --   -0.44759  -0.41530  -0.41088  -0.39913  -0.39555
  Beta  occ. eigenvalues --   -0.39123  -0.37905  -0.31675  -0.24001
  Beta virt. eigenvalues --   -0.00533   0.08172   0.10433   0.12450   0.13245
  Beta virt. eigenvalues --    0.14373   0.14476   0.15475   0.15933   0.16339
  Beta virt. eigenvalues --    0.16445   0.17241   0.18030   0.19226   0.20019
  Beta virt. eigenvalues --    0.20736   0.21359   0.22725   0.23227   0.23760
  Beta virt. eigenvalues --    0.24566   0.25183   0.26345   0.26513   0.27369
  Beta virt. eigenvalues --    0.28564   0.28761   0.29886   0.30156   0.30524
  Beta virt. eigenvalues --    0.31060   0.31723   0.32062   0.32950   0.33961
  Beta virt. eigenvalues --    0.34517   0.35395   0.35935   0.36322   0.37386
  Beta virt. eigenvalues --    0.37556   0.38819   0.41143   0.41564   0.42178
  Beta virt. eigenvalues --    0.43594   0.43879   0.44508   0.44964   0.45544
  Beta virt. eigenvalues --    0.46480   0.47331   0.48267   0.48562   0.48587
  Beta virt. eigenvalues --    0.48680   0.49024   0.49225   0.49933   0.50233
  Beta virt. eigenvalues --    0.50299   0.50786   0.51790   0.51990   0.52901
  Beta virt. eigenvalues --    0.52916   0.54178   0.54667   0.54830   0.55564
  Beta virt. eigenvalues --    0.56665   0.57066   0.58165   0.59081   0.59489
  Beta virt. eigenvalues --    0.59820   0.60575   0.60952   0.63259   0.64563
  Beta virt. eigenvalues --    0.66703   0.67052   0.67868   0.68518   0.68642
  Beta virt. eigenvalues --    0.70916   0.72524   0.72817   0.76258   0.76360
  Beta virt. eigenvalues --    0.77327   0.78676   0.78995   0.81568   0.81699
  Beta virt. eigenvalues --    0.83326   0.84318   0.85607   0.86840   0.87813
  Beta virt. eigenvalues --    0.88429   0.89670   0.93008   0.93908   0.95081
  Beta virt. eigenvalues --    0.95574   0.97915   0.98084   0.98502   0.99314
  Beta virt. eigenvalues --    1.02109   1.02385   1.03915   1.04468   1.05630
  Beta virt. eigenvalues --    1.07133   1.07811   1.07863   1.09731   1.10104
  Beta virt. eigenvalues --    1.12466   1.14029   1.15493   1.16741   1.17196
  Beta virt. eigenvalues --    1.18300   1.18386   1.19159   1.19611   1.19766
  Beta virt. eigenvalues --    1.20792   1.22194   1.24050   1.25845   1.26034
  Beta virt. eigenvalues --    1.26836   1.26862   1.28107   1.29035   1.29097
  Beta virt. eigenvalues --    1.30317   1.30590   1.33202   1.33839   1.34413
  Beta virt. eigenvalues --    1.34986   1.35581   1.35849   1.38223   1.39354
  Beta virt. eigenvalues --    1.39461   1.39920   1.39973   1.41987   1.42558
  Beta virt. eigenvalues --    1.42923   1.43966   1.44077   1.44259   1.45080
  Beta virt. eigenvalues --    1.45741   1.45915   1.47754   1.47908   1.49003
  Beta virt. eigenvalues --    1.50623   1.53537   1.54859   1.56688   1.57572
  Beta virt. eigenvalues --    1.58736   1.59829   1.59966   1.60698   1.62983
  Beta virt. eigenvalues --    1.64056   1.65394   1.65490   1.66759   1.68301
  Beta virt. eigenvalues --    1.71666   1.73118   1.75454   1.77253   1.78252
  Beta virt. eigenvalues --    1.79375   1.81056   1.82133   1.84857   1.85617
  Beta virt. eigenvalues --    1.88185   1.89998   1.90766   1.93479   1.94153
  Beta virt. eigenvalues --    1.96810   1.97484   2.00237   2.01639   2.03293
  Beta virt. eigenvalues --    2.05966   2.06539   2.08510   2.10918   2.11129
  Beta virt. eigenvalues --    2.12667   2.16239   2.16280   2.16459   2.18144
  Beta virt. eigenvalues --    2.18824   2.20202   2.20744   2.21388   2.24098
  Beta virt. eigenvalues --    2.25125   2.25226   2.28059   2.30347   2.31824
  Beta virt. eigenvalues --    2.35274   2.36519   2.38776   2.38983   2.44396
  Beta virt. eigenvalues --    2.44956   2.47529   2.47676   2.48682   2.49911
  Beta virt. eigenvalues --    2.50722   2.54071   2.54436   2.57152   2.57351
  Beta virt. eigenvalues --    2.59799   2.60212   2.61659   2.62486   2.62620
  Beta virt. eigenvalues --    2.64307   2.65279   2.66386   2.67854   2.68829
  Beta virt. eigenvalues --    2.69646   2.72033   2.73097   2.73588   2.74273
  Beta virt. eigenvalues --    2.74377   2.76256   2.76676   2.77449   2.78372
  Beta virt. eigenvalues --    2.78536   2.79946   2.80340   2.82025   2.83436
  Beta virt. eigenvalues --    2.83615   2.83651   2.84415   2.85842   2.86548
  Beta virt. eigenvalues --    2.87045   2.87652   2.89350   2.90519   2.91901
  Beta virt. eigenvalues --    2.91957   2.93376   2.94052   2.95399   2.96715
  Beta virt. eigenvalues --    2.97292   2.98375   2.98637   2.99719   3.01799
  Beta virt. eigenvalues --    3.01928   3.03323   3.04863   3.04978   3.06154
  Beta virt. eigenvalues --    3.07748   3.08467   3.09950   3.10066   3.11164
  Beta virt. eigenvalues --    3.11997   3.12740   3.13092   3.14086   3.14637
  Beta virt. eigenvalues --    3.16056   3.16245   3.18132   3.18366   3.19826
  Beta virt. eigenvalues --    3.20361   3.20486   3.21027   3.21430   3.22866
  Beta virt. eigenvalues --    3.23551   3.24104   3.24612   3.24846   3.26650
  Beta virt. eigenvalues --    3.26704   3.26795   3.27886   3.28747   3.29865
  Beta virt. eigenvalues --    3.30197   3.30998   3.32084   3.32175   3.34484
  Beta virt. eigenvalues --    3.35254   3.35603   3.35720   3.36353   3.37158
  Beta virt. eigenvalues --    3.38132   3.39515   3.39939   3.40815   3.42146
  Beta virt. eigenvalues --    3.42424   3.45226   3.45346   3.46534   3.46928
  Beta virt. eigenvalues --    3.48099   3.48504   3.48836   3.50349   3.51245
  Beta virt. eigenvalues --    3.52110   3.53110   3.53157   3.56020   3.56505
  Beta virt. eigenvalues --    3.57269   3.57563   3.58675   3.58925   3.59795
  Beta virt. eigenvalues --    3.61566   3.62657   3.63443   3.65341   3.65481
  Beta virt. eigenvalues --    3.66175   3.67078   3.68084   3.69951   3.71929
  Beta virt. eigenvalues --    3.72007   3.74223   3.77093   3.79597   3.80300
  Beta virt. eigenvalues --    3.80685   3.82064   3.82493   3.83061   3.83444
  Beta virt. eigenvalues --    3.85464   3.87427   3.90964   3.91396   3.92718
  Beta virt. eigenvalues --    3.93301   3.95341   3.96442   4.01177   4.01532
  Beta virt. eigenvalues --    4.02308   4.04105   4.06911   4.09214   4.10569
  Beta virt. eigenvalues --    4.10977   4.12233   4.13032   4.14733   4.15489
  Beta virt. eigenvalues --    4.16725   4.18492   4.19340   4.20569   4.20815
  Beta virt. eigenvalues --    4.22428   4.24431   4.25643   4.28133   4.29935
  Beta virt. eigenvalues --    4.32344   4.32526   4.34020   4.35649   4.38673
  Beta virt. eigenvalues --    4.39089   4.43721   4.44401   4.45762   4.47583
  Beta virt. eigenvalues --    4.49229   4.50629   4.51951   4.54762   4.56195
  Beta virt. eigenvalues --    4.57725   4.58916   4.61015   4.66238   4.67440
  Beta virt. eigenvalues --    4.69709   4.72541   4.75744   4.76484   4.76957
  Beta virt. eigenvalues --    4.78841   4.79017   4.85096   4.87233   4.88135
  Beta virt. eigenvalues --    4.92321   4.92741   4.93610   4.94869   4.97673
  Beta virt. eigenvalues --    4.99318   5.02799   5.07969   5.09387   5.11312
  Beta virt. eigenvalues --    5.16482   5.20258   5.22552   5.25424   5.25806
  Beta virt. eigenvalues --    5.29338   5.37107   5.37862   5.39791   5.40112
  Beta virt. eigenvalues --    5.43445   5.43910   5.51754   5.54343   5.66919
  Beta virt. eigenvalues --    5.68812   5.71092   5.74592   5.88348   5.96375
  Beta virt. eigenvalues --    7.94673   7.95318   8.03144   8.03893   8.05462
  Beta virt. eigenvalues --    8.09968   8.10906   8.14352   8.18746   8.19804
  Beta virt. eigenvalues --    8.33935   8.40097  34.76837  34.77145  34.81097
  Beta virt. eigenvalues --   34.81473  34.84022  34.90496  34.98246  34.99836
  Beta virt. eigenvalues --   35.01655  35.02670  35.16765  35.23072
          Condensed to atoms (all electrons):
               1          2          3          4          5          6
     1  C    5.174033  -0.002629   0.425827  -0.002917   0.001980  -0.008127
     2  C   -0.002629   5.370199  -0.001877   0.435167  -0.111407   0.037905
     3  H    0.425827  -0.001877   0.495693   0.000045  -0.000029   0.000113
     4  H   -0.002917   0.435167   0.000045   0.488880  -0.017965  -0.007877
     5  C    0.001980  -0.111407  -0.000029  -0.017965   5.239278   0.494410
     6  C   -0.008127   0.037905   0.000113  -0.007877   0.494410   5.370129
     7  H    0.000100  -0.002610   0.000003   0.000086   0.440223  -0.035049
     8  H    0.001532  -0.007871  -0.000126   0.000626  -0.040801   0.435156
     9  C    0.002878  -0.033358  -0.000008  -0.005331  -0.062150   0.255628
    10  H   -0.000043   0.004716  -0.000001  -0.000521  -0.006684  -0.049422
    11  H   -0.000083  -0.006487   0.000004   0.000952   0.010404  -0.059407
    12  C   -0.000247   0.021860   0.000000   0.007591   0.297725  -0.068829
    13  H   -0.000001   0.000265   0.000000   0.000063  -0.036269   0.004228
    14  C    0.000111  -0.008129  -0.000000   0.001535  -0.047302  -0.002613
    15  H   -0.000000   0.000113  -0.000000  -0.000126   0.005635  -0.001880
    16  C   -0.000423   0.015064   0.000000  -0.001017  -0.000324  -0.072769
    17  H    0.000029   0.001080  -0.000000  -0.005876   0.010309  -0.002831
    18  H    0.000001   0.000086   0.000000   0.000507  -0.003193   0.012491
    19  C   -0.047329   0.494394   0.005631  -0.040794  -0.028101  -0.111363
    20  H    0.005215  -0.035095  -0.000149  -0.006307  -0.000191  -0.002605
    21  C    0.554676  -0.068846  -0.032446   0.006809   0.004270   0.021844
    22  H   -0.028850   0.004219  -0.006354  -0.000088   0.000066   0.000265
    23  C   -0.088730   0.255611   0.005454  -0.018101   0.007046  -0.033347
    24  H    0.013090  -0.059399  -0.000091  -0.003981   0.005384  -0.006490
    25  H    0.004863  -0.049406  -0.000035  -0.003181   0.000482   0.004715
    26  C    0.272983  -0.072785  -0.031178   0.006991  -0.010877   0.015067
    27  H   -0.032106   0.012493  -0.004318  -0.000098   0.000421   0.000086
    28  H   -0.033891  -0.002830   0.001077  -0.000218  -0.004843   0.001080
               7          8          9         10         11         12
     1  C    0.000100   0.001532   0.002878  -0.000043  -0.000083  -0.000247
     2  C   -0.002610  -0.007871  -0.033358   0.004716  -0.006487   0.021860
     3  H    0.000003  -0.000126  -0.000008  -0.000001   0.000004   0.000000
     4  H    0.000086   0.000626  -0.005331  -0.000521   0.000952   0.007591
     5  C    0.440223  -0.040801  -0.062150  -0.006684   0.010404   0.297725
     6  C   -0.035049   0.435156   0.255628  -0.049422  -0.059407  -0.068829
     7  H    0.485645  -0.006310   0.003859  -0.000022  -0.000036  -0.039255
     8  H   -0.006310   0.488888  -0.018095  -0.003183  -0.003980   0.006811
     9  C    0.003859  -0.018095   4.965980   0.404906   0.458575   0.031390
    10  H   -0.000022  -0.003183   0.404906   0.572588  -0.020736   0.000663
    11  H   -0.000036  -0.003980   0.458575  -0.020736   0.532782  -0.004683
    12  C   -0.039255   0.006811   0.031390   0.000663  -0.004683   5.034881
    13  H   -0.003925  -0.000088   0.000336  -0.000130   0.000037   0.425317
    14  C    0.005219  -0.002917  -0.088739   0.004855   0.013090   0.554600
    15  H   -0.000149   0.000045   0.005454  -0.000035  -0.000091  -0.032484
    16  C   -0.001439   0.006992   0.342272  -0.025706  -0.053945  -0.052409
    17  H    0.000007  -0.000218  -0.031193   0.006600  -0.007045  -0.013146
    18  H    0.000045  -0.000098  -0.041261  -0.009195  -0.001249   0.005267
    19  C   -0.000192  -0.017961   0.007030   0.000483   0.005386   0.004272
    20  H    0.000002   0.000087   0.002782   0.000383  -0.002834  -0.000096
    21  C   -0.000096   0.007589  -0.002574  -0.000170  -0.000317  -0.000442
    22  H   -0.000001   0.000063  -0.000086  -0.000001  -0.000036  -0.000002
    23  C    0.002784  -0.005337   0.004608  -0.000187   0.000243  -0.002578
    24  H   -0.002837   0.000952   0.000243  -0.000031  -0.000014  -0.000317
    25  H    0.000383  -0.000521  -0.000187   0.000018  -0.000031  -0.000170
    26  C   -0.001511  -0.001012  -0.001702   0.000066  -0.000103   0.001333
    27  H   -0.000026   0.000507   0.000019  -0.000000  -0.000002  -0.000036
    28  H    0.002254  -0.005875   0.000476   0.000013   0.000020   0.000287
              13         14         15         16         17         18
     1  C   -0.000001   0.000111  -0.000000  -0.000423   0.000029   0.000001
     2  C    0.000265  -0.008129   0.000113   0.015064   0.001080   0.000086
     3  H    0.000000  -0.000000  -0.000000   0.000000  -0.000000   0.000000
     4  H    0.000063   0.001535  -0.000126  -0.001017  -0.005876   0.000507
     5  C   -0.036269  -0.047302   0.005635  -0.000324   0.010309  -0.003193
     6  C    0.004228  -0.002613  -0.001880  -0.072769  -0.002831   0.012491
     7  H   -0.003925   0.005219  -0.000149  -0.001439   0.000007   0.000045
     8  H   -0.000088  -0.002917   0.000045   0.006992  -0.000218  -0.000098
     9  C    0.000336  -0.088739   0.005454   0.342272  -0.031193  -0.041261
    10  H   -0.000130   0.004855  -0.000035  -0.025706   0.006600  -0.009195
    11  H    0.000037   0.013090  -0.000091  -0.053945  -0.007045  -0.001249
    12  C    0.425317   0.554600  -0.032484  -0.052409  -0.013146   0.005267
    13  H    0.496652  -0.028829  -0.006356   0.004770  -0.000460  -0.000125
    14  C   -0.028829   5.174124   0.425853   0.272982  -0.033896  -0.032101
    15  H   -0.006356   0.425853   0.495689  -0.031166   0.001076  -0.004317
    16  C    0.004770   0.272982  -0.031166   4.969203   0.399155   0.422999
    17  H   -0.000460  -0.033896   0.001076   0.399155   0.583895  -0.022951
    18  H   -0.000125  -0.032101  -0.004317   0.422999  -0.022951   0.544740
    19  C    0.000066   0.001979  -0.000029  -0.010878  -0.004843   0.000422
    20  H   -0.000001   0.000099   0.000003  -0.001509   0.002254  -0.000026
    21  C   -0.000002  -0.000247   0.000000   0.001333   0.000287  -0.000036
    22  H    0.000000  -0.000001   0.000000   0.000005  -0.000000  -0.000001
    23  C   -0.000086   0.002879  -0.000008  -0.001702   0.000476   0.000019
    24  H   -0.000036  -0.000082   0.000004  -0.000103   0.000020  -0.000002
    25  H   -0.000001  -0.000043  -0.000001   0.000066   0.000013  -0.000000
    26  C    0.000005  -0.000423   0.000000   0.000440  -0.000023  -0.000001
    27  H   -0.000001   0.000001   0.000000  -0.000001   0.000001  -0.000000
    28  H   -0.000000   0.000029  -0.000000  -0.000023  -0.000014   0.000001
              19         20         21         22         23         24
     1  C   -0.047329   0.005215   0.554676  -0.028850  -0.088730   0.013090
     2  C    0.494394  -0.035095  -0.068846   0.004219   0.255611  -0.059399
     3  H    0.005631  -0.000149  -0.032446  -0.006354   0.005454  -0.000091
     4  H   -0.040794  -0.006307   0.006809  -0.000088  -0.018101  -0.003981
     5  C   -0.028101  -0.000191   0.004270   0.000066   0.007046   0.005384
     6  C   -0.111363  -0.002605   0.021844   0.000265  -0.033347  -0.006490
     7  H   -0.000192   0.000002  -0.000096  -0.000001   0.002784  -0.002837
     8  H   -0.017961   0.000087   0.007589   0.000063  -0.005337   0.000952
     9  C    0.007030   0.002782  -0.002574  -0.000086   0.004608   0.000243
    10  H    0.000483   0.000383  -0.000170  -0.000001  -0.000187  -0.000031
    11  H    0.005386  -0.002834  -0.000317  -0.000036   0.000243  -0.000014
    12  C    0.004272  -0.000096  -0.000442  -0.000002  -0.002578  -0.000317
    13  H    0.000066  -0.000001  -0.000002   0.000000  -0.000086  -0.000036
    14  C    0.001979   0.000099  -0.000247  -0.000001   0.002879  -0.000082
    15  H   -0.000029   0.000003   0.000000   0.000000  -0.000008   0.000004
    16  C   -0.010878  -0.001509   0.001333   0.000005  -0.001702  -0.000103
    17  H   -0.004843   0.002254   0.000287  -0.000000   0.000476   0.000020
    18  H    0.000422  -0.000026  -0.000036  -0.000001   0.000019  -0.000002
    19  C    5.239237   0.440241   0.297842  -0.036238  -0.062129   0.010404
    20  H    0.440241   0.485619  -0.039222  -0.003924   0.003858  -0.000036
    21  C    0.297842  -0.039222   5.034778   0.425319   0.031392  -0.004684
    22  H   -0.036238  -0.003924   0.425319   0.496625   0.000335   0.000037
    23  C   -0.062129   0.003858   0.031392   0.000335   4.965922   0.458562
    24  H    0.010404  -0.000036  -0.004684   0.000037   0.458562   0.532806
    25  H   -0.006690  -0.000022   0.000660  -0.000130   0.404913  -0.020744
    26  C   -0.000314  -0.001437  -0.052423   0.004770   0.342263  -0.053941
    27  H   -0.003194   0.000045   0.005272  -0.000125  -0.041251  -0.001250
    28  H    0.010307   0.000007  -0.013150  -0.000460  -0.031192  -0.007045
              25         26         27         28
     1  C    0.004863   0.272983  -0.032106  -0.033891
     2  C   -0.049406  -0.072785   0.012493  -0.002830
     3  H   -0.000035  -0.031178  -0.004318   0.001077
     4  H   -0.003181   0.006991  -0.000098  -0.000218
     5  C    0.000482  -0.010877   0.000421  -0.004843
     6  C    0.004715   0.015067   0.000086   0.001080
     7  H    0.000383  -0.001511  -0.000026   0.002254
     8  H   -0.000521  -0.001012   0.000507  -0.005875
     9  C   -0.000187  -0.001702   0.000019   0.000476
    10  H    0.000018   0.000066  -0.000000   0.000013
    11  H   -0.000031  -0.000103  -0.000002   0.000020
    12  C   -0.000170   0.001333  -0.000036   0.000287
    13  H   -0.000001   0.000005  -0.000001  -0.000000
    14  C   -0.000043  -0.000423   0.000001   0.000029
    15  H   -0.000001   0.000000   0.000000  -0.000000
    16  C    0.000066   0.000440  -0.000001  -0.000023
    17  H    0.000013  -0.000023   0.000001  -0.000014
    18  H   -0.000000  -0.000001  -0.000000   0.000001
    19  C   -0.006690  -0.000314  -0.003194   0.010307
    20  H   -0.000022  -0.001437   0.000045   0.000007
    21  C    0.000660  -0.052423   0.005272  -0.013150
    22  H   -0.000130   0.004770  -0.000125  -0.000460
    23  C    0.404913   0.342263  -0.041251  -0.031192
    24  H   -0.020744  -0.053941  -0.001250  -0.007045
    25  H    0.572525  -0.025706  -0.009192   0.006598
    26  C   -0.025706   4.969273   0.422991   0.399160
    27  H   -0.009192   0.422991   0.544727  -0.022951
    28  H    0.006598   0.399160  -0.022951   0.583869
          Atomic-Atomic Spin Densities.
               1          2          3          4          5          6
     1  C    0.156211  -0.000372  -0.000072   0.000099   0.000164   0.001851
     2  C   -0.000372  -0.176314   0.000028   0.003698   0.035487  -0.000012
     3  H   -0.000072   0.000028  -0.005792   0.000000   0.000000  -0.000019
     4  H    0.000099   0.003698   0.000000   0.007801  -0.002837  -0.006779
     5  C    0.000164   0.035487   0.000000  -0.002837  -0.243070   0.010819
     6  C    0.001851  -0.000012  -0.000019  -0.006779   0.010819   0.176315
     7  H   -0.000002  -0.000231  -0.000000  -0.000007   0.000659   0.000158
     8  H   -0.000648   0.006779   0.000004  -0.000000  -0.001197  -0.003696
     9  C   -0.000016   0.006349   0.000000   0.000873  -0.001567  -0.010375
    10  H    0.000027  -0.000486  -0.000000  -0.000062   0.000881  -0.002635
    11  H   -0.000104   0.000046   0.000000   0.000136  -0.000229  -0.001837
[...]
     6  C    0.000485   0.000153   0.000156  -0.001626
     7  H    0.000001  -0.000030  -0.000000   0.000001
     8  H    0.000062   0.000214  -0.000033   0.000674
     9  C    0.000001  -0.000031  -0.000003   0.000088
    10  H   -0.000000  -0.000003   0.000000  -0.000013
    11  H   -0.000002   0.000002  -0.000001   0.000019
    12  C   -0.000084   0.000072  -0.000006   0.000054
    13  H   -0.000001   0.000001  -0.000000   0.000001
    14  C   -0.000027   0.000010   0.000000  -0.000008
    15  H    0.000000   0.000000   0.000000  -0.000000
    16  C    0.000003   0.000000  -0.000000   0.000005
    17  H    0.000013  -0.000005   0.000000   0.000000
    18  H   -0.000000   0.000000   0.000000  -0.000000
    19  C   -0.000880   0.000312  -0.000234   0.001743
    20  H   -0.000014   0.000023   0.000000  -0.000006
    21  C    0.000323   0.001795   0.000347  -0.000555
    22  H    0.000013   0.000033   0.000006  -0.000011
    23  C   -0.002051   0.000527   0.000592  -0.000223
    24  H    0.001251  -0.000346  -0.000012   0.000183
    25  H   -0.007040   0.001154  -0.000051  -0.000132
    26  C    0.001154  -0.009177   0.001173   0.002386
    27  H   -0.000051   0.001173   0.005093  -0.002042
    28  H   -0.000132   0.002386  -0.002042   0.011970
 Mulliken charges and spin densities:
               1          2
     1  C   -0.211944   0.132596
     2  C   -0.190444  -0.117871
     3  H    0.142767  -0.005605
     4  H    0.165146   0.005934
     5  C   -0.147499  -0.185861
     6  C   -0.190509   0.117873
     7  H    0.152847   0.007800
     8  H    0.165147  -0.005934
     9  C   -0.201755  -0.004790
    10  H    0.120776   0.004061
    11  H    0.139585   0.001762
    12  C   -0.177304   0.072818
    13  H    0.144572  -0.002869
    14  C   -0.212035  -0.132598
    15  H    0.142771   0.005606
    16  C   -0.181870   0.009328
    17  H    0.117293  -0.006992
    18  H    0.127977  -0.003236
    19  C   -0.147639   0.185861
    20  H    0.152861  -0.007800
    21  C   -0.177417  -0.072819
    22  H    0.144592   0.002869
    23  C   -0.201720   0.004790
    24  H    0.139581  -0.001762
    25  H    0.120823  -0.004061
    26  C   -0.181908  -0.009328
    27  H    0.127988   0.003236
    28  H    0.117316   0.006992
 Sum of Mulliken charges =  -0.00000  -0.00000
 Mulliken charges and spin densities with hydrogens summed into heavy atoms:
               1          2
     1  C   -0.069177   0.126991
     2  C   -0.025298  -0.111937
     5  C    0.005348  -0.178061
     6  C   -0.025362   0.111939
     9  C    0.058607   0.001033
    12  C   -0.032732   0.069949
    14  C   -0.069264  -0.126992
    16  C    0.063401  -0.000900
    19  C    0.005223   0.178062
    21  C   -0.032825  -0.069950
    23  C    0.058684  -0.001033
    26  C    0.063395   0.000900
 Electronic spatial extent (au):  <R**2>=           2194.6337
 Charge=             -0.0000 electrons
 Dipole moment (field-independent basis, Debye):
    X=              0.0002    Y=             -0.0005    Z=             -0.0000  Tot=              0.0006
 Quadrupole moment (field-independent basis, Debye-Ang):
   XX=            -72.5992   YY=            -70.3000   ZZ=            -76.8340
   XY=             -3.1678   XZ=             -3.1414   YZ=             -1.0310
 Traceless Quadrupole moment (field-independent basis, Debye-Ang):
   XX=              0.6452   YY=              2.9444   ZZ=             -3.5896
   XY=             -3.1678   XZ=             -3.1414   YZ=             -1.0310
 Octapole moment (field-independent basis, Debye-Ang**2):
  XXX=              0.0099  YYY=             -0.0049  ZZZ=             -0.0003  XYY=             -0.0026
  XXY=             -0.0026  XXZ=             -0.0017  XZZ=             -0.0006  YZZ=              0.0004
  YYZ=             -0.0007  XYZ=              0.0003
 Hexadecapole moment (field-independent basis, Debye-Ang**3):
 XXXX=          -2035.8947 YYYY=           -627.9027 ZZZZ=           -320.5678 XXXY=            -99.5958
 XXXZ=           -116.7021 YYYX=            -57.7618 YYYZ=             -0.5465 ZZZX=            -66.2812
 ZZZY=             -9.6451 XXYY=           -441.5538 XXZZ=           -418.1459 YYZZ=           -173.2653
 XXYZ=            -19.8008 YYXZ=            -24.5069 ZZXY=            -41.7302
 N-N= 6.915637698595D+02 E-N=-2.464760511380D+03  KE= 4.641549662079D+02
                          Isotropic Fermi Contact Couplings
        Atom                 a.u.       MegaHertz       Gauss      10(-4) cm-1
     1  C(13)              0.01007       5.66016       2.01968       1.88803
     2  C(13)             -0.02812     -15.80710      -5.64036      -5.27268
     3  H(1)              -0.00199      -4.45620      -1.59008      -1.48643
     4  H(1)               0.00328       7.33256       2.61644       2.44588
     5  C(13)             -0.01489      -8.36980      -2.98655      -2.79187
     6  C(13)              0.02812      15.80745       5.64049       5.27280
     7  H(1)               0.00277       6.18839       2.20817       2.06423
     8  H(1)              -0.00328      -7.33261      -2.61646      -2.44590
     9  C(13)             -0.00439      -2.46544      -0.87973      -0.82238
    10  H(1)               0.00216       4.83325       1.72462       1.61220
    11  H(1)               0.00047       1.05125       0.37511       0.35066
    12  C(13)              0.01216       6.83667       2.43949       2.28047
    13  H(1)              -0.00095      -2.11897      -0.75610      -0.70681
    14  C(13)             -0.01007      -5.66022      -2.01971      -1.88805
    15  H(1)               0.00199       4.45631       1.59012       1.48647
    16  C(13)              0.00518       2.91293       1.03941       0.97165
    17  H(1)              -0.00339      -7.56639      -2.69988      -2.52388
    18  H(1)              -0.00155      -3.46359      -1.23589      -1.15533
    19  C(13)              0.01489       8.36950       2.98645       2.79177
    20  H(1)              -0.00277      -6.18836      -2.20816      -2.06421
    21  C(13)             -0.01216      -6.83649      -2.43943      -2.28041
    22  H(1)               0.00095       2.11898       0.75610       0.70681
    23  C(13)              0.00439       2.46531       0.87968       0.82234
    24  H(1)              -0.00047      -1.05126      -0.37512      -0.35066
    25  H(1)              -0.00216      -4.83329      -1.72464      -1.61221
    26  C(13)             -0.00518      -2.91287      -1.03939      -0.97163
    27  H(1)               0.00155       3.46354       1.23588       1.15531
    28  H(1)               0.00339       7.56640       2.69988       2.52388
 --------------------------------------------------------
       Center         ----  Spin Dipole Couplings  ----
                      3XX-RR        3YY-RR        3ZZ-RR
 --------------------------------------------------------
     1   Atom       -0.026468     -0.077343      0.103810
     2   Atom        0.030354      0.068704     -0.099058
     3   Atom        0.007468     -0.009765      0.002297
     4   Atom       -0.004930      0.007829     -0.002899
     5   Atom        0.061461      0.110033     -0.171494
     6   Atom       -0.030355     -0.068706      0.099061
     7   Atom        0.003645     -0.003255     -0.000391
     8   Atom        0.004930     -0.007830      0.002899
     9   Atom       -0.000240     -0.001698      0.001939
    10   Atom        0.001133     -0.000676     -0.000458
    11   Atom        0.001037     -0.000738     -0.000299
    12   Atom       -0.020606     -0.033907      0.054513
    13   Atom       -0.002796      0.001739      0.001058
    14   Atom        0.026468      0.077344     -0.103812
    15   Atom       -0.007468      0.009765     -0.002297
    16   Atom        0.001053     -0.001220      0.000167
    17   Atom        0.001494     -0.002018      0.000524
    18   Atom        0.001566     -0.002350      0.000785
    19   Atom       -0.061460     -0.110030      0.171490
    20   Atom       -0.003645      0.003255      0.000391
    21   Atom        0.020605      0.033906     -0.054512
    22   Atom        0.002796     -0.001739     -0.001058
    23   Atom        0.000240      0.001699     -0.001939
    24   Atom       -0.001037      0.000738      0.000299
    25   Atom       -0.001133      0.000676      0.000458
    26   Atom       -0.001053      0.001219     -0.000167
    27   Atom       -0.001566      0.002350     -0.000785
    28   Atom       -0.001494      0.002018     -0.000524
 --------------------------------------------------------
                        XY            XZ            YZ
 --------------------------------------------------------
     1   Atom       -0.001412      0.092447     -0.004250
     2   Atom       -0.014095     -0.082576     -0.036961
     3   Atom        0.001867     -0.003738     -0.001170
     4   Atom        0.000077      0.003871     -0.002447
     5   Atom       -0.000140     -0.111612     -0.014889
     6   Atom        0.014096      0.082578      0.036963
     7   Atom        0.012515     -0.002644     -0.004470
     8   Atom       -0.000077     -0.003871      0.002447
     9   Atom        0.002704      0.002394     -0.001120
    10   Atom       -0.000649      0.001400      0.000928
    11   Atom       -0.001226      0.002013      0.000394
    12   Atom        0.003106      0.041230     -0.005810
    13   Atom        0.002488      0.002239     -0.001112
    14   Atom        0.001412     -0.092449      0.004250
    15   Atom       -0.001867      0.003738      0.001170
    16   Atom       -0.000641     -0.003101      0.000348
    17   Atom       -0.000818     -0.000698     -0.000832
    18   Atom        0.000298     -0.000024      0.000673
    19   Atom        0.000141      0.111609      0.014891
    20   Atom       -0.012515      0.002644      0.004470
    21   Atom       -0.003106     -0.041229      0.005810
    22   Atom       -0.002488     -0.002239      0.001112
    23   Atom       -0.002705     -0.002394      0.001121
    24   Atom        0.001226     -0.002013     -0.000394
    25   Atom        0.000649     -0.001400     -0.000928
    26   Atom        0.000641      0.003101     -0.000348
    27   Atom       -0.000298      0.000024     -0.000673
    28   Atom        0.000818      0.000698      0.000832
 --------------------------------------------------------


 ---------------------------------------------------------------------------------
              Anisotropic Spin Dipole Couplings in Principal Axis System
 ---------------------------------------------------------------------------------

       Atom             a.u.   MegaHertz   Gauss  10(-4) cm-1        Axes

              Baa    -0.0776   -10.411    -3.715    -3.473 -0.1840  0.9760  0.1166
     1 C(13)  Bbb    -0.0743    -9.965    -3.556    -3.324  0.8685  0.2170 -0.4457
              Bcc     0.1518    20.376     7.271     6.797  0.4603 -0.0193  0.8876
 
              Baa    -0.1465   -19.656    -7.014    -6.556  0.4279  0.1802  0.8857
     2 C(13)  Bbb     0.0689     9.242     3.298     3.083  0.8434 -0.4318 -0.3197
              Bcc     0.0776    10.414     3.716     3.474  0.3248  0.8838 -0.3367
 
              Baa    -0.0100    -5.344    -1.907    -1.783 -0.0919  0.9935  0.0665
     3 H(1)   Bbb     0.0003     0.181     0.065     0.061  0.4676 -0.0159  0.8838
              Bcc     0.0097     5.163     1.842     1.722  0.8791  0.1123 -0.4631
 
              Baa    -0.0081    -4.307    -1.537    -1.437  0.7734 -0.1000 -0.6260
     4 H(1)   Bbb    -0.0003    -0.178    -0.064    -0.060  0.6309  0.2173  0.7448
              Bcc     0.0084     4.486     1.601     1.496 -0.0615  0.9710 -0.2312
 
              Baa    -0.2169   -29.109   -10.387    -9.710  0.3718  0.0424  0.9273
     5 C(13)  Bbb     0.1026    13.772     4.914     4.594  0.7771 -0.5606 -0.2860
              Bcc     0.1143    15.337     5.473     5.116  0.5078  0.8270 -0.2414
 
              Baa    -0.0776   -10.414    -3.716    -3.474  0.3248  0.8838 -0.3367
     6 C(13)  Bbb    -0.0689    -9.242    -3.298    -3.083  0.8434 -0.4318 -0.3197
              Bcc     0.1465    19.656     7.014     6.557  0.4279  0.1802  0.8857
 
              Baa    -0.0131    -6.994    -2.496    -2.333 -0.5738  0.8026  0.1628
     7 H(1)   Bbb    -0.0016    -0.862    -0.307    -0.287  0.3422  0.0544  0.9381
              Bcc     0.0147     7.856     2.803     2.620  0.7441  0.5940 -0.3059
 
              Baa    -0.0084    -4.486    -1.601    -1.496 -0.0615  0.9710 -0.2312
     8 H(1)   Bbb     0.0003     0.178     0.064     0.060  0.6309  0.2173  0.7448
              Bcc     0.0081     4.307     1.537     1.437  0.7734 -0.1000 -0.6260
 
              Baa    -0.0046    -0.622    -0.222    -0.208 -0.6210  0.7034  0.3459
     9 C(13)  Bbb     0.0011     0.146     0.052     0.049  0.5072  0.6970 -0.5068
              Bcc     0.0036     0.477     0.170     0.159  0.5976  0.1393  0.7896
 
              Baa    -0.0021    -1.143    -0.408    -0.381 -0.4105 -0.6105  0.6774
    10 H(1)   Bbb     0.0002     0.102     0.036     0.034 -0.2702  0.7909  0.5490
              Bcc     0.0020     1.041     0.372     0.347  0.8709 -0.0423  0.4896
 
              Baa    -0.0024    -1.298    -0.463    -0.433 -0.5560 -0.5474  0.6254
    11 H(1)   Bbb    -0.0002    -0.128    -0.046    -0.043 -0.1405  0.8035  0.5784
              Bcc     0.0027     1.426     0.509     0.476  0.8192 -0.2338  0.5237
 
              Baa    -0.0421    -5.656    -2.018    -1.886  0.7622 -0.5396 -0.3576
    12 C(13)  Bbb    -0.0307    -4.124    -1.472    -1.376  0.5072  0.8411 -0.1880
              Bcc     0.0729     9.780     3.490     3.262  0.4022 -0.0381  0.9148
 
              Baa    -0.0049    -2.634    -0.940    -0.879  0.8421 -0.3780 -0.3847
    13 H(1)   Bbb     0.0021     1.112     0.397     0.371  0.4044 -0.0293  0.9141
              Bcc     0.0029     1.522     0.543     0.508  0.3568  0.9253 -0.1282
 
              Baa    -0.1518   -20.377    -7.271    -6.797  0.4603 -0.0193  0.8876
    14 C(13)  Bbb     0.0743     9.966     3.556     3.324  0.8685  0.2170 -0.4457
              Bcc     0.0776    10.411     3.715     3.473 -0.1840  0.9760  0.1166
 
              Baa    -0.0097    -5.163    -1.842    -1.722  0.8791  0.1123 -0.4631
    15 H(1)   Bbb    -0.0003    -0.181    -0.065    -0.061  0.4676 -0.0159  0.8838
              Bcc     0.0100     5.344     1.907     1.783 -0.0919  0.9935  0.0665
 
              Baa    -0.0025    -0.341    -0.122    -0.114  0.6607  0.1254  0.7401
    16 C(13)  Bbb    -0.0013    -0.174    -0.062    -0.058  0.0222  0.9823 -0.1862
              Bcc     0.0038     0.516     0.184     0.172  0.7503 -0.1395 -0.6462
 
              Baa    -0.0025    -1.340    -0.478    -0.447  0.2415  0.9203  0.3078
    17 H(1)   Bbb     0.0006     0.329     0.117     0.110  0.3355 -0.3768  0.8634
              Bcc     0.0019     1.011     0.361     0.337  0.9105 -0.1052 -0.3998
 
              Baa    -0.0025    -1.339    -0.478    -0.447 -0.0726  0.9771 -0.2000
    18 H(1)   Bbb     0.0009     0.491     0.175     0.164 -0.0537  0.1964  0.9790
              Bcc     0.0016     0.848     0.303     0.283  0.9959  0.0818  0.0383
 
              Baa    -0.1143   -15.337    -5.472    -5.116  0.5078  0.8270 -0.2414
    19 C(13)  Bbb    -0.1026   -13.772    -4.914    -4.594  0.7771 -0.5606 -0.2860
              Bcc     0.2169    29.109    10.387     9.710  0.3718  0.0424  0.9273
 
              Baa    -0.0147    -7.856    -2.803    -2.620  0.7441  0.5940 -0.3059
    20 H(1)   Bbb     0.0016     0.862     0.307     0.287  0.3422  0.0544  0.9381
              Bcc     0.0131     6.994     2.496     2.333 -0.5738  0.8026  0.1628
 
              Baa    -0.0729    -9.780    -3.490    -3.262  0.4022 -0.0381  0.9148
    21 C(13)  Bbb     0.0307     4.124     1.472     1.376  0.5072  0.8411 -0.1880
              Bcc     0.0421     5.655     2.018     1.886  0.7622 -0.5396 -0.3576
 
              Baa    -0.0029    -1.522    -0.543    -0.508  0.3568  0.9253 -0.1282
    22 H(1)   Bbb    -0.0021    -1.112    -0.397    -0.371  0.4044 -0.0293  0.9141
              Bcc     0.0049     2.634     0.940     0.879  0.8421 -0.3780 -0.3847
 
              Baa    -0.0036    -0.477    -0.170    -0.159  0.5976  0.1393  0.7896
    23 C(13)  Bbb    -0.0011    -0.146    -0.052    -0.049  0.5073  0.6970 -0.5068
              Bcc     0.0046     0.622     0.222     0.208 -0.6209  0.7034  0.3459
 
              Baa    -0.0027    -1.427    -0.509    -0.476  0.8192 -0.2338  0.5237
    24 H(1)   Bbb     0.0002     0.128     0.046     0.043 -0.1405  0.8035  0.5784
              Bcc     0.0024     1.298     0.463     0.433 -0.5560 -0.5474  0.6254
 
              Baa    -0.0020    -1.041    -0.372    -0.347  0.8709 -0.0422  0.4897
    25 H(1)   Bbb    -0.0002    -0.102    -0.036    -0.034 -0.2703  0.7909  0.5490
              Bcc     0.0021     1.143     0.408     0.381 -0.4105 -0.6105  0.6774
 
              Baa    -0.0038    -0.516    -0.184    -0.172  0.7503 -0.1395 -0.6462
    26 C(13)  Bbb     0.0013     0.174     0.062     0.058  0.0221  0.9822 -0.1863
              Bcc     0.0025     0.341     0.122     0.114  0.6607  0.1255  0.7401
 
              Baa    -0.0016    -0.848    -0.303    -0.283  0.9959  0.0818  0.0383
    27 H(1)   Bbb    -0.0009    -0.491    -0.175    -0.164 -0.0538  0.1964  0.9790
              Bcc     0.0025     1.339     0.478     0.447 -0.0726  0.9771 -0.2000
 
              Baa    -0.0019    -1.011    -0.361    -0.337  0.9106 -0.1052 -0.3998
    28 H(1)   Bbb    -0.0006    -0.329    -0.117    -0.110  0.3355 -0.3768  0.8634
              Bcc     0.0025     1.340     0.478     0.447  0.2415  0.9203  0.3078
 

 ---------------------------------------------------------------------------------

 No NMR shielding tensors so no spin-rotation constants.
 Leave Link  601 at Mon Aug  3 16:13:58 2020, MaxMem=  6442450944 cpu:               8.1 elap:               0.4
 (Enter /scratch/scicomp/CentOS/7.3.1611/Haswell/software/Gaussian/g16/l9999.exe)
 1\1\GINC-ATLAS-205\SP\UwB97XD\def2TZVP\C12H16\BOCHEN\03-Aug-2020\0\\#p
  uwb97xd guess=mix def2tzvp # scrf=(iefpcm,solvent=Cyclohexane,read) n
 osym 6d 10f\\endo-2 xp-pcm for eta=3\\0,1\C,0,-3.118154,-0.43497,0.246
 911\C,0,-0.525244,-0.179089,-0.881108\H,0,-4.082876,-0.549545,0.727275
 \H,0,0.369421,-0.116466,-1.488305\C,0,1.095749,1.409502,0.684953\C,0,0
 .525244,0.179089,0.881108\H,0,0.534376,2.315268,0.877539\H,0,-0.369421
 ,0.116466,1.488305\C,0,1.464053,-0.999907,0.987811\H,0,1.902396,-0.948
 136,1.990906\H,0,0.922907,-1.944294,0.931362\C,0,2.412752,1.518768,0.1
 1499\H,0,2.825512,2.507319,-0.049863\C,0,3.118154,0.43497,-0.246911\H,
 0,4.082876,0.549545,-0.727275\C,0,2.59196,-0.958481,-0.043904\H,0,2.25
 1216,-1.356631,-1.007828\H,0,3.400803,-1.621376,0.271761\C,0,-1.095749
 ,-1.409502,-0.684954\H,0,-0.534376,-2.315268,-0.877539\C,0,-2.412752,-
 1.518768,-0.11499\H,0,-2.825512,-2.507319,0.049863\C,0,-1.464053,0.999
 907,-0.987811\H,0,-0.922907,1.944294,-0.931362\H,0,-1.902396,0.948136,
 -1.990906\C,0,-2.59196,0.958481,0.043904\H,0,-3.400803,1.621376,-0.271
 761\H,0,-2.251216,1.356631,1.007828\\Version=ES64L-G16RevB.01\HF=-466.
 818355\S2=0.101723\S2-1=0.\S2A=0.004203\RMSD=6.531e-09\Dipole=0.000090
 9,-0.0001975,-0.0000058\Quadrupole=0.4796719,2.189094,-2.6687659,-2.35
 51519,-2.3355471,-0.7665413\PG=CI [X(C12H16)]\\@


 THE UNDERLYING PHYSICAL LAWS NECESSARY FOR THE 
 MATHEMATICAL THEORY OF A LARGE PART OF PHYSICS AND THE
 WHOLE OF CHEMISTRY ARE THUS COMPLETELY KNOWN, AND THE
 DIFFICULTY IS ONLY THAT THE EXACT APPLICATION OF THESE
 LAWS LEADS TO EQUATIONS MUCH TOO COMPLICATED 
 TO BE SOLUBLE.

                                        -- P. A. M. DIRAC, 1929
 Job cpu time:       0 days  2 hours 43 minutes 45.5 seconds.
 Elapsed time:       0 days  0 hours  6 minutes 52.8 seconds.
 File lengths (MBytes):  RWF=    638 Int=      0 D2E=      0 Chk=     23 Scr=      1
 Normal termination of Gaussian 16 at Mon Aug  3 16:13:58 2020.
