 Entering Gaussian System, Link 0=g16
 Input=meso-TS_4_1_pcm.com
 Output=meso-TS_4_1_pcm.log
 Initial command:
 /scratch/scicomp/CentOS/7.3.1611/Haswell/software/Gaussian/g16/l1.exe "/scratch/bochen/cyclohexadiene-dimerization/wb97xd-def2tzvp/xp-pcm/meso/Gau-53096.inp" -scrdir="/scratch/bochen/cyclohexadiene-dimerization/wb97xd-def2tzvp/xp-pcm/meso/"
 Entering Link 1 = /scratch/scicomp/CentOS/7.3.1611/Haswell/software/Gaussian/g16/l1.exe PID=     53097.
  
 Copyright (c) 1988-2017, Gaussian, Inc.  All Rights Reserved.
  
 This is part of the Gaussian(R) 16 program.  It is based on
 the Gaussian(R) 09 system (copyright 2009, Gaussian, Inc.),
 the Gaussian(R) 03 system (copyright 2003, Gaussian, Inc.),
 the Gaussian(R) 98 system (copyright 1998, Gaussian, Inc.),
 the Gaussian(R) 94 system (copyright 1995, Gaussian, Inc.),
 the Gaussian 92(TM) system (copyright 1992, Gaussian, Inc.),
 the Gaussian 90(TM) system (copyright 1990, Gaussian, Inc.),
 the Gaussian 88(TM) system (copyright 1988, Gaussian, Inc.),
 the Gaussian 86(TM) system (copyright 1986, Carnegie Mellon
 University), and the Gaussian 82(TM) system (copyright 1983,
 Carnegie Mellon University). Gaussian is a federally registered
 trademark of Gaussian, Inc.
  
 This software contains proprietary and confidential information,
 including trade secrets, belonging to Gaussian, Inc.
  
 This software is provided under written license and may be
 used, copied, transmitted, or stored only in accord with that
 written license.
  
 The following legend is applicable only to US Government
 contracts under FAR:
  
                    RESTRICTED RIGHTS LEGEND
  
 Use, reproduction and disclosure by the US Government is
 subject to restrictions as set forth in subparagraphs (a)
 and (c) of the Commercial Computer Software - Restricted
 Rights clause in FAR 52.227-19.
  
 Gaussian, Inc.
 340 Quinnipiac St., Bldg. 40, Wallingford CT 06492
  
  
 ---------------------------------------------------------------
 Warning -- This program may not be used in any manner that
 competes with the business of Gaussian, Inc. or will provide
 assistance to any competitor of Gaussian, Inc.  The licensee
 of this program is prohibited from giving any competitor of
 Gaussian, Inc. access to this program.  By using this program,
 the user acknowledges that Gaussian, Inc. is engaged in the
 business of creating and licensing software in the field of
 computational chemistry and represents and warrants to the
 licensee that it is not a competitor of Gaussian, Inc. and that
 it will not use this program in any manner prohibited above.
 ---------------------------------------------------------------
  

 Cite this work as:
 Gaussian 16, Revision B.01,
 M. J. Frisch, G. W. Trucks, H. B. Schlegel, G. E. Scuseria, 
 M. A. Robb, J. R. Cheeseman, G. Scalmani, V. Barone, 
 G. A. Petersson, H. Nakatsuji, X. Li, M. Caricato, A. V. Marenich, 
 J. Bloino, B. G. Janesko, R. Gomperts, B. Mennucci, H. P. Hratchian, 
 J. V. Ortiz, A. F. Izmaylov, J. L. Sonnenberg, D. Williams-Young, 
 F. Ding, F. Lipparini, F. Egidi, J. Goings, B. Peng, A. Petrone, 
 T. Henderson, D. Ranasinghe, V. G. Zakrzewski, J. Gao, N. Rega, 
 G. Zheng, W. Liang, M. Hada, M. Ehara, K. Toyota, R. Fukuda, 
 J. Hasegawa, M. Ishida, T. Nakajima, Y. Honda, O. Kitao, H. Nakai, 
 T. Vreven, K. Throssell, J. A. Montgomery, Jr., J. E. Peralta, 
 F. Ogliaro, M. J. Bearpark, J. J. Heyd, E. N. Brothers, K. N. Kudin, 
 V. N. Staroverov, T. A. Keith, R. Kobayashi, J. Normand, 
 K. Raghavachari, A. P. Rendell, J. C. Burant, S. S. Iyengar, 
 J. Tomasi, M. Cossi, J. M. Millam, M. Klene, C. Adamo, R. Cammi, 
 J. W. Ochterski, R. L. Martin, K. Morokuma, O. Farkas, 
 J. B. Foresman, and D. J. Fox, Gaussian, Inc., Wallingford CT, 2016.
 
 ******************************************
 Gaussian 16:  ES64L-G16RevB.01 20-Dec-2017
                 3-Aug-2020 
 ******************************************
 %nproc=24
 Will use up to   24 processors via shared memory.
 %mem=48GB
 ----------------------------------------------------------------------
 #p uwb97xd guess=mix def2tzvp # scrf=(iefpcm,solvent=Cyclohexane,read)
  nosym 6d 10f
 ----------------------------------------------------------------------
 1/38=1,40=2,172=1/1;
 2/12=2,15=1,17=6,18=5,40=1/2;
 3/5=44,7=101,8=22,11=2,25=1,30=1,70=2203,72=17,74=-58,116=2/1,2,3;
 4/13=-1/1;
 5/5=2,38=5,53=17/2;
 6/7=2,8=2,9=2,10=2,28=1/1;
 99/5=1,9=1/99;
 Leave Link    1 at Mon Aug  3 16:30:12 2020, MaxMem=  6442450944 cpu:              46.4 elap:               2.0
 (Enter /scratch/scicomp/CentOS/7.3.1611/Haswell/software/Gaussian/g16/l101.exe)
 -----------------------
 endo-2 xp-pcm for eta=3
 -----------------------
 Symbolic Z-matrix:
 Charge =  0 Multiplicity = 1
 6                    -3.11937  -0.42989   0.24771 
 6                    -0.48324  -0.15114  -0.81766 
 1                    -4.08469  -0.54834   0.72495 
 1                     0.34529  -0.11483  -1.51998 
 6                     1.10923   1.42387   0.67843 
 6                     0.48324   0.15114   0.81766 
 1                     0.55031   2.32597   0.89209 
 1                    -0.34529   0.11483   1.51998 
 6                     1.46135  -0.99962   0.98665 
 1                     1.89494  -0.9287    1.98963 
 1                     0.93419  -1.9533    0.93935 
 6                     2.403     1.52468   0.11993 
 1                     2.82435   2.51037  -0.04195 
 6                     3.11937   0.42989  -0.24771 
 1                     4.08469   0.54834  -0.72495 
 6                     2.59246  -0.95872  -0.04309 
 1                     2.24729  -1.35738  -1.00581 
 1                     3.40144  -1.62324   0.27068 
 6                    -1.10923  -1.42387  -0.67843 
 1                    -0.55031  -2.32597  -0.89209 
 6                    -2.403    -1.52468  -0.11993 
 1                    -2.82435  -2.51037   0.04195 
 6                    -1.46135   0.99962  -0.98665 
 1                    -0.93419   1.9533   -0.93935 
 1                    -1.89494   0.9287   -1.98963 
 6                    -2.59246   0.95872   0.04309 
 1                    -3.40144   1.62324  -0.27068 
 1                    -2.24729   1.35738   1.00581 
 
 ITRead=  0  0  0  0  0  0  0  0  0  0  0  0  0  0  0  0  0  0  0  0
 ITRead=  0  0  0  0  0  0  0  0
 MicOpt= -1 -1 -1 -1 -1 -1 -1 -1 -1 -1 -1 -1 -1 -1 -1 -1 -1 -1 -1 -1
 MicOpt= -1 -1 -1 -1 -1 -1 -1 -1
 NAtoms=     28 NQM=       28 NQMF=       0 NMMI=      0 NMMIF=      0
                NMic=       0 NMicF=      0.
                    Isotopes and Nuclear Properties:
 (Nuclear quadrupole moments (NQMom) in fm**2, nuclear magnetic moments (NMagM)
  in nuclear magnetons)

  Atom         1           2           3           4           5           6           7           8           9          10
 IAtWgt=          12          12           1           1          12          12           1           1          12           1
 AtmWgt=  12.0000000  12.0000000   1.0078250   1.0078250  12.0000000  12.0000000   1.0078250   1.0078250  12.0000000   1.0078250
 NucSpn=           0           0           1           1           0           0           1           1           0           1
 AtZEff=  -0.0000000  -0.0000000  -0.0000000  -0.0000000  -0.0000000  -0.0000000  -0.0000000  -0.0000000  -0.0000000  -0.0000000
 NQMom=    0.0000000   0.0000000   0.0000000   0.0000000   0.0000000   0.0000000   0.0000000   0.0000000   0.0000000   0.0000000
 NMagM=    0.0000000   0.0000000   2.7928460   2.7928460   0.0000000   0.0000000   2.7928460   2.7928460   0.0000000   2.7928460
 AtZNuc=   6.0000000   6.0000000   1.0000000   1.0000000   6.0000000   6.0000000   1.0000000   1.0000000   6.0000000   1.0000000

  Atom        11          12          13          14          15          16          17          18          19          20
 IAtWgt=           1          12           1          12           1          12           1           1          12           1
 AtmWgt=   1.0078250  12.0000000   1.0078250  12.0000000   1.0078250  12.0000000   1.0078250   1.0078250  12.0000000   1.0078250
 NucSpn=           1           0           1           0           1           0           1           1           0           1
 AtZEff=  -0.0000000  -0.0000000  -0.0000000  -0.0000000  -0.0000000  -0.0000000  -0.0000000  -0.0000000  -0.0000000  -0.0000000
 NQMom=    0.0000000   0.0000000   0.0000000   0.0000000   0.0000000   0.0000000   0.0000000   0.0000000   0.0000000   0.0000000
 NMagM=    2.7928460   0.0000000   2.7928460   0.0000000   2.7928460   0.0000000   2.7928460   2.7928460   0.0000000   2.7928460
 AtZNuc=   1.0000000   6.0000000   1.0000000   6.0000000   1.0000000   6.0000000   1.0000000   1.0000000   6.0000000   1.0000000

  Atom        21          22          23          24          25          26          27          28
 IAtWgt=          12           1          12           1           1          12           1           1
 AtmWgt=  12.0000000   1.0078250  12.0000000   1.0078250   1.0078250  12.0000000   1.0078250   1.0078250
 NucSpn=           0           1           0           1           1           0           1           1
 AtZEff=  -0.0000000  -0.0000000  -0.0000000  -0.0000000  -0.0000000  -0.0000000  -0.0000000  -0.0000000
 NQMom=    0.0000000   0.0000000   0.0000000   0.0000000   0.0000000   0.0000000   0.0000000   0.0000000
 NMagM=    0.0000000   2.7928460   0.0000000   2.7928460   2.7928460   0.0000000   2.7928460   2.7928460
 AtZNuc=   6.0000000   1.0000000   6.0000000   1.0000000   1.0000000   6.0000000   1.0000000   1.0000000
 Leave Link  101 at Mon Aug  3 16:30:12 2020, MaxMem=  6442450944 cpu:               2.4 elap:               0.1
 (Enter /scratch/scicomp/CentOS/7.3.1611/Haswell/software/Gaussian/g16/l202.exe)
                          Input orientation:                          
 ---------------------------------------------------------------------
 Center     Atomic      Atomic             Coordinates (Angstroms)
 Number     Number       Type             X           Y           Z
 ---------------------------------------------------------------------
      1          6           0       -3.119365   -0.429886    0.247711
      2          6           0       -0.483238   -0.151143   -0.817662
      3          1           0       -4.084691   -0.548341    0.724950
      4          1           0        0.345292   -0.114825   -1.519981
      5          6           0        1.109235    1.423870    0.678430
      6          6           0        0.483238    0.151143    0.817662
      7          1           0        0.550310    2.325971    0.892085
      8          1           0       -0.345292    0.114825    1.519981
      9          6           0        1.461352   -0.999620    0.986645
     10          1           0        1.894943   -0.928704    1.989628
     11          1           0        0.934187   -1.953298    0.939348
     12          6           0        2.402996    1.524681    0.119927
     13          1           0        2.824354    2.510372   -0.041948
     14          6           0        3.119365    0.429886   -0.247711
     15          1           0        4.084691    0.548341   -0.724950
     16          6           0        2.592455   -0.958721   -0.043087
     17          1           0        2.247288   -1.357377   -1.005814
     18          1           0        3.401438   -1.623242    0.270678
     19          6           0       -1.109235   -1.423870   -0.678430
     20          1           0       -0.550310   -2.325971   -0.892085
     21          6           0       -2.402996   -1.524681   -0.119927
     22          1           0       -2.824354   -2.510372    0.041948
     23          6           0       -1.461352    0.999620   -0.986645
     24          1           0       -0.934187    1.953298   -0.939348
     25          1           0       -1.894943    0.928704   -1.989628
     26          6           0       -2.592455    0.958721    0.043088
     27          1           0       -3.401438    1.623242   -0.270678
     28          1           0       -2.247288    1.357377    1.005814
 ---------------------------------------------------------------------
                    Distance matrix (angstroms):
                    1          2          3          4          5
     1  C    0.000000
     2  C    2.856901   0.000000
     3  H    1.083348   3.938005   0.000000
     4  H    3.902287   1.086753   4.985218   0.000000
     5  C    4.637131   2.693497   5.555956   2.790018   0.000000
     6  C    3.693398   1.923470   4.622104   2.356765   1.425164
     7  H    4.634272   3.182381   5.456449   3.437671   1.082512
     8  H    3.100139   2.356765   3.880073   3.125862   2.130130
     9  C    4.674782   2.785115   5.570523   2.882989   2.468256
    10  H    5.331639   3.760482   6.123733   3.921884   2.805563
    11  H    4.385251   2.888588   5.216225   3.126512   3.391752
    12  C    5.859448   3.466671   6.837657   3.100230   1.412765
    13  H    6.637531   4.315734   7.594653   3.901537   2.154313
    14  C    6.317151   3.693398   7.334945   3.100139   2.426183
    15  H    7.334945   4.622104   8.369213   3.880073   3.404316
    16  C    5.743615   3.272925   6.733689   2.818354   2.897804
    17  H    5.588607   2.991016   6.613928   2.329354   3.444877
    18  H    6.629140   4.294446   7.576536   3.849910   3.834755
    19  C    2.426183   1.425164   3.404316   2.130130   3.856462
    20  H    3.390327   2.177134   4.273947   2.466885   4.391118
    21  C    1.359014   2.461486   2.120178   3.391302   4.654793
    22  H    2.111348   3.433033   2.429919   4.269066   5.599687
    23  C    2.513191   1.519710   3.493945   2.188698   3.091986
    24  H    3.444369   2.155652   4.353592   2.500267   2.659525
    25  H    2.889751   2.128963   3.787558   2.515586   4.048309
    26  C    1.499245   2.534065   2.227766   3.496576   3.784512
    27  H    2.136265   3.458833   2.484730   4.315046   4.613754
    28  H    2.128273   2.951706   2.662085   3.907492   3.373107
                    6          7          8          9         10
     6  C    0.000000
     7  H    2.177134   0.000000
     8  H    1.086753   2.466885   0.000000
     9  C    1.519710   3.449419   2.188698   0.000000
    10  H    2.128963   3.688570   2.515586   1.094991   0.000000
    11  H    2.155652   4.296713   2.500267   1.090707   1.753834
    12  C    2.461486   2.161189   3.391302   2.830192   3.126179
    13  H    3.433033   2.465299   4.269066   3.903309   4.101018
    14  C    2.856901   3.390327   3.902287   2.513191   2.889751
    15  H    3.938005   4.273947   4.985218   3.493945   3.787558
    16  C    2.534065   3.979209   3.496575   1.530168   2.149268
    17  H    2.951706   4.477589   3.907492   2.171538   3.046404
    18  H    3.458833   4.910332   4.315046   2.159965   2.388870
    19  C    2.693497   4.391118   2.790018   3.091986   4.048309
    20  H    3.182381   5.102469   3.437671   3.055424   4.029378
    21  C    3.466671   4.957187   3.100230   4.053810   4.824696
    22  H    4.315734   5.958297   3.901537   4.641347   5.344801
    23  C    2.785115   3.055424   2.882989   4.053768   4.882761
    24  H    2.888588   2.386789   3.126512   4.262368   4.988869
    25  H    3.760482   4.029378   3.921884   4.882761   5.800662
    26  C    3.272924   3.530884   2.818353   4.599864   5.242913
    27  H    4.294446   4.178775   3.849910   5.666303   6.298656
    28  H    2.991016   2.962712   2.329354   4.394293   4.832405
                   11         12         13         14         15
    11  H    0.000000
    12  C    3.863313   0.000000
    13  H    4.945708   1.084128   0.000000
    14  C    3.444369   1.359014   2.111348   0.000000
    15  H    4.353592   2.120178   2.429919   1.083348   0.000000
    16  C    2.168920   2.495947   3.476835   1.499245   2.227766
    17  H    2.421366   3.098031   4.027595   2.128273   2.662085
    18  H    2.577476   3.305909   4.185394   2.136265   2.484730
    19  C    2.659525   4.654793   5.599687   4.637131   5.555956
    20  H    2.386789   4.957187   5.958297   4.634272   5.456449
    21  C    3.527402   5.696815   6.604008   5.859448   6.837657
    22  H    3.904137   6.604008   7.557963   6.637531   7.594653
    23  C    4.262368   4.053810   4.641347   4.674782   5.570523
    24  H    4.720361   3.527402   3.904137   4.385251   5.216225
    25  H    4.988869   4.824696   5.344801   5.331639   6.123733
    26  C    4.660509   5.027996   5.635306   5.743615   6.733689
    27  H    5.749213   5.818397   6.292837   6.629140   7.576536
    28  H    4.592033   4.736869   5.305540   5.588607   6.613928
                   16         17         18         19         20
    16  C    0.000000
    17  H    1.097684   0.000000
    18  H    1.092927   1.741315   0.000000
    19  C    3.784512   3.373107   4.613754   0.000000
    20  H    3.530884   2.962712   4.178775   1.082512   0.000000
    21  C    5.027996   4.736869   5.818397   1.412765   2.161189
    22  H    5.635306   5.305540   6.292837   2.154313   2.465299
    23  C    4.599864   4.394293   5.666303   2.468256   3.449419
    24  H    4.660509   4.592033   5.749213   3.391752   4.296713
    25  H    5.242913   4.832405   6.298656   2.805563   3.688570
    26  C    5.528770   5.466957   6.530320   2.897804   3.979209
    27  H    6.530320   6.429045   7.557238   3.834755   4.910332
    28  H    5.466957   5.622966   6.429045   3.444877   4.477589
                   21         22         23         24         25
    21  C    0.000000
    22  H    1.084128   0.000000
    23  C    2.830192   3.903309   0.000000
    24  H    3.863313   4.945708   1.090707   0.000000
    25  H    3.126179   4.101018   1.094991   1.753834   0.000000
    26  C    2.495948   3.476835   1.530169   2.168921   2.149269
    27  H    3.305909   4.185394   2.159965   2.577476   2.388870
    28  H    3.098031   4.027595   2.171538   2.421366   3.046404
                   26         27         28
    26  C    0.000000
    27  H    1.092928   0.000000
    28  H    1.097683   1.741315   0.000000
 Symmetry turned off by external request.
 Stoichiometry    C12H16
 Framework group  CI[X(C12H16)]
 Deg. of freedom    39
 Full point group                 CI      NOp   2
 Rotational constants (GHZ):           1.9524158           0.6383220           0.5525380
 Leave Link  202 at Mon Aug  3 16:30:12 2020, MaxMem=  6442450944 cpu:               0.3 elap:               0.1
 (Enter /scratch/scicomp/CentOS/7.3.1611/Haswell/software/Gaussian/g16/l301.exe)
 Standard basis: def2TZVP (6D, 10F)
 Ernie: Thresh=  0.10000D-02 Tol=  0.10000D-05 Strict=F.
   528 basis functions,   740 primitive gaussians,   528 cartesian basis functions
    44 alpha electrons       44 beta electrons
       nuclear repulsion energy       691.9222290504 Hartrees.
 IExCor= 4639 DFT=T Ex+Corr=wB97XD ExCW=0 ScaHFX=  1.000000
 ScaDFX=  1.000000  1.000000  1.000000  1.000000 ScalE2=  1.000000  1.000000
 IRadAn=      5 IRanWt=     -1 IRanGd=            0 ICorTp=0 IEmpDi=121
 HFx  wShort=  0.000000 wLong=  0.200000 cFull=  0.222036 cShort=  0.000000 cLong=  0.777964
 DFx  wShort=  0.000000 wLong=  0.200000 cFull=  0.000000 cShort=  0.000000 cLong=  1.000000
 NAtoms=   28 NActive=   28 NUniq=   28 SFac= 1.00D+00 NAtFMM=   60 NAOKFM=F Big=F
 Integral buffers will be    131072 words long.
 Raffenetti 2 integral format.
 Two-electron integral symmetry is turned off.
 R6Disp:  Grimme-D2 Dispersion energy=       -0.0228937751 Hartrees.
 Nuclear repulsion after empirical dispersion term =      691.8993352753 Hartrees.
 Using the following non-standard input for PCM:
 norep pcmdoc geomview  nodis nocav g03defaults tsare=0.075
 Warning! Using old PCM defaults because the g03defaults keyword was found.
 These settings can be overridden by following keywords.
 nsfe=28
 NVESolv=36  SolvMW=84.1595   Rsolv=2.815
 eps=2.0165 RhoS=0.7781
 --- end of non-standard input.
 Reading user-defined spheres from input:
 ISph  on   Nord    Re0     Alpha      Xe            Ye            Ze
 --- end of user-defined spheres data.
 ------------------------------------------------------------------------------
 Polarizable Continuum Model (PCM)
 =================================
 Model                : PCM.
 Atomic radii         : UA0 (Simple United Atom Topological Model).
 Polarization charges : Total charges.
 Charge compensation  : None.
 Solution method      : On-the-fly selection.
 Cavity type          : SES (Solvent Excluding Surface) (Alpha=1.000).
 Cavity algorithm     : GePol (RMin=0.200 OFac=0.890).
                        User-defined sphere list used, NSphG=   28.
                        Tesserae with average area of 0.075 Ang**2.
                        Smoothing algorithm: None.
                        Polarization charges: point-like.
                        Self-potential: constant (ISelfS= 1).
                        Self-field    : global E.n sum rule (ISelfD= 3).
 Solvent              : CycloHexane, Eps=   2.016500 Eps(inf)=   2.035188
                        RSolv=   2.815000 Ang.
 ------------------------------------------------------------------------------
 GePol: Number of generator spheres                  =      28
 GePol: Total number of spheres                      =     166
 GePol: Number of exposed spheres                    =     123 ( 74.10%)
 GePol: Number of tesserae                           =    4582
 GePol: Average area of tesserae                     =       0.05 Ang**2
 GePol: Minimum area of tessera                      =   0.10D-02 Ang**2
 GePol: Maximum area of tessera                      =    0.12609 Ang**2
 GePol: Number of small tesserae                     =       0
 GePol: Fraction of small tesserae (<1% of avg)      =       0.00%
 GePol: Total count of vertices                      =   16183
 GePol: Maximum number of vertices in a tessera      =       7
 GePol: Cavity surface area                          =    218.717 Ang**2
 GePol: Cavity volume                                =    245.831 Ang**3
 Leave Link  301 at Mon Aug  3 16:30:14 2020, MaxMem=  6442450944 cpu:              39.7 elap:               1.8
 (Enter /scratch/scicomp/CentOS/7.3.1611/Haswell/software/Gaussian/g16/l302.exe)
 NPDir=0 NMtPBC=     1 NCelOv=     1 NCel=       1 NClECP=     1 NCelD=      1
         NCelK=      1 NCelE2=     1 NClLst=     1 CellRange=     0.0.
 One-electron integrals computed using PRISM.
   1 Symmetry operations used in ECPInt.
 ECPInt:  NShTT=   19306 NPrTT=   56928 LenC2=   18530 LenP2D=   42290.
 LDataN:  DoStor=T MaxTD1= 6 Len=  172
 NBasis=   528 RedAO= T EigKep=  2.59D-05  NBF=   528
 NBsUse=   528 1.00D-06 EigRej= -1.00D+00 NBFU=   528
 Precomputing XC quadrature grid using
 IXCGrd= 4 IRadAn=           5 IRanWt=          -1 IRanGd=           0 AccXCQ= 0.00D+00.
 Generated NRdTot=       0 NPtTot=           0 NUsed=           0 NTot=          32
 NSgBfM=   526   526   526   526   526 MxSgAt=    28 MxSgA2=    28.
 Leave Link  302 at Mon Aug  3 16:30:15 2020, MaxMem=  6442450944 cpu:              13.0 elap:               0.6
 (Enter /scratch/scicomp/CentOS/7.3.1611/Haswell/software/Gaussian/g16/l303.exe)
 DipDrv:  MaxL=1.
 Leave Link  303 at Mon Aug  3 16:30:15 2020, MaxMem=  6442450944 cpu:               1.5 elap:               0.1
 (Enter /scratch/scicomp/CentOS/7.3.1611/Haswell/software/Gaussian/g16/l401.exe)
 ExpMin= 9.52D-02 ExpMax= 1.36D+04 ExpMxC= 4.63D+02 IAcc=3 IRadAn=         5 AccDes= 0.00D+00
 Harris functional with IExCor= 4639 and IRadAn=       5 diagonalized for initial guess.
 HarFok:  IExCor= 4639 AccDes= 0.00D+00 IRadAn=         5 IDoV= 1 UseB2=F ITyADJ=14
 ICtDFT=  3500011 ScaDFX=  1.000000  1.000000  1.000000  1.000000
 FoFCou: FMM=F IPFlag=           0 FMFlag=      100000 FMFlg1=           0
         NFxFlg=           0 DoJE=T BraDBF=F KetDBF=T FulRan=T
         wScrn=  0.000000 ICntrl=       500 IOpCl=  0 I1Cent=   200000004 NGrid=           0
         NMat0=    1 NMatS0=      1 NMatT0=    0 NMatD0=    1 NMtDS0=    0 NMtDT0=    0
 Symmetry not used in FoFCou.
 Harris En= -444.615997417059    
 JPrj=0 DoOrth=F DoCkMO=T.
 Mixing orbitals, IMix= 1 IMixAn=  0 NRI=1 NE=   44 Coef=  7.07106781D-01  7.07106781D-01
 Mixing orbitals, IMix= 1 IMixAn=  0 NRI=1 NE=   44 Coef= -7.07106781D-01  7.07106781D-01
 Initial guess <Sx>= 0.0000 <Sy>= 0.0000 <Sz>= 0.0000 <S**2>= 1.0000 S= 0.6180
 Leave Link  401 at Mon Aug  3 16:30:24 2020, MaxMem=  6442450944 cpu:             100.4 elap:               9.1
 (Enter /scratch/scicomp/CentOS/7.3.1611/Haswell/software/Gaussian/g16/l502.exe)
 Two-electron integral symmetry not used.
 UHF open shell SCF:
 Using DIIS extrapolation, IDIIS=  1040.
 NGot=  6442450944 LenX=  6441877030 LenY=  6441597718
 Requested convergence on RMS density matrix=1.00D-08 within 128 cycles.
 Requested convergence on MAX density matrix=1.00D-06.
 Requested convergence on             energy=1.00D-06.
 No special actions if energy rises.
 Fock matrices will be formed incrementally for  20 cycles.

 Cycle   1  Pass 1  IDiag  1:
 FoFJK:  IHMeth= 1 ICntrl=       0 DoSepK=T KAlg= 0 I1Cent=           0 FoldK=F
 IRaf=         1 NMat=       1 IRICut=       1 DoRegI=T DoRafI=F ISym2E= 0 IDoP0=0 IntGTp=1.
 FoFCou: FMM=F IPFlag=           0 FMFlag=      100000 FMFlg1=           0
         NFxFlg=           0 DoJE=T BraDBF=F KetDBF=F FulRan=T
         wScrn=  0.000000 ICntrl=       500 IOpCl=  0 I1Cent=           0 NGrid=           0
         NMat0=    1 NMatS0=      1 NMatT0=    0 NMatD0=    1 NMtDS0=    0 NMtDT0=    0
 Symmetry not used in FoFCou.
 Inv3:  Mode=1 IEnd=    62984172.
 Iteration    1 A*A^-1 deviation from unit magnitude is 4.22D-15 for   2519.
 Iteration    1 A*A^-1 deviation from orthogonality  is 2.02D-15 for   2161    902.
 Iteration    1 A^-1*A deviation from unit magnitude is 4.22D-15 for   2519.
 Iteration    1 A^-1*A deviation from orthogonality  is 2.40D-15 for   1088   1068.
 E= -466.661112058113    
 DIIS: error= 4.90D-02 at cycle   1 NSaved=   1.
 NSaved= 1 IEnMin= 1 EnMin= -466.661112058113     IErMin= 1 ErrMin= 4.90D-02
 ErrMax= 4.90D-02  0.00D+00 EMaxC= 1.00D-01 BMatC= 4.11D+00 BMatP= 4.11D+00
 IDIUse=3 WtCom= 5.10D-01 WtEn= 4.90D-01
 Coeff-Com:  0.100D+01
 Coeff-En:   0.100D+01
 Coeff:      0.100D+01
 Gap=     0.218 Goal=   None    Shift=    0.000
 Gap=     0.218 Goal=   None    Shift=    0.000
 GapD=    0.218 DampG=1.000 DampE=0.500 DampFc=0.5000 IDamp=-1.
 Damping current iteration by 5.00D-01
 RMSDP=1.39D-03 MaxDP=9.23D-02              OVMax= 1.22D-01

 Cycle   2  Pass 1  IDiag  1:
 RMSU=  6.78D-04    CP:  9.75D-01
 E= -466.735618199164     Delta-E=       -0.074506141051 Rises=F Damp=T
 DIIS: error= 2.33D-02 at cycle   2 NSaved=   2.
 NSaved= 2 IEnMin= 2 EnMin= -466.735618199164     IErMin= 2 ErrMin= 2.33D-02
 ErrMax= 2.33D-02  0.00D+00 EMaxC= 1.00D-01 BMatC= 9.21D-01 BMatP= 4.11D+00
 IDIUse=3 WtCom= 7.67D-01 WtEn= 2.33D-01
 Coeff-Com: -0.863D+00 0.186D+01
 Coeff-En:   0.000D+00 0.100D+01
 Coeff:     -0.662D+00 0.166D+01
 Gap=     0.234 Goal=   None    Shift=    0.000
 Gap=     0.234 Goal=   None    Shift=    0.000
 RMSDP=8.56D-04 MaxDP=4.82D-02 DE=-7.45D-02 OVMax= 5.25D-02

 Cycle   3  Pass 1  IDiag  1:
 RMSU=  4.56D-04    CP:  9.44D-01  2.03D+00
 E= -466.810858904488     Delta-E=       -0.075240705324 Rises=F Damp=F
 DIIS: error= 2.73D-03 at cycle   3 NSaved=   3.
 NSaved= 3 IEnMin= 3 EnMin= -466.810858904488     IErMin= 3 ErrMin= 2.73D-03
 ErrMax= 2.73D-03  0.00D+00 EMaxC= 1.00D-01 BMatC= 1.97D-02 BMatP= 9.21D-01
 IDIUse=3 WtCom= 9.73D-01 WtEn= 2.73D-02
 Coeff-Com: -0.322D+00 0.693D+00 0.629D+00
 Coeff-En:   0.000D+00 0.000D+00 0.100D+01
 Coeff:     -0.313D+00 0.674D+00 0.639D+00
 Gap=     0.238 Goal=   None    Shift=    0.000
 Gap=     0.238 Goal=   None    Shift=    0.000
 RMSDP=1.29D-04 MaxDP=6.51D-03 DE=-7.52D-02 OVMax= 2.27D-02

 Cycle   4  Pass 1  IDiag  1:
 RMSU=  1.08D-04    CP:  9.41D-01  2.11D+00  9.09D-01
 E= -466.816300885167     Delta-E=       -0.005441980680 Rises=F Damp=F
 DIIS: error= 1.72D-03 at cycle   4 NSaved=   4.
 NSaved= 4 IEnMin= 4 EnMin= -466.816300885167     IErMin= 4 ErrMin= 1.72D-03
 ErrMax= 1.72D-03  0.00D+00 EMaxC= 1.00D-01 BMatC= 5.91D-04 BMatP= 1.97D-02
 IDIUse=3 WtCom= 9.83D-01 WtEn= 1.72D-02
 Coeff-Com:  0.117D+00-0.252D+00-0.128D+00 0.126D+01
 Coeff-En:   0.000D+00 0.000D+00 0.000D+00 0.100D+01
 Coeff:      0.115D+00-0.247D+00-0.126D+00 0.126D+01
 Gap=     0.241 Goal=   None    Shift=    0.000
 Gap=     0.241 Goal=   None    Shift=    0.000
 RMSDP=1.06D-04 MaxDP=5.60D-03 DE=-5.44D-03 OVMax= 2.85D-02

 Cycle   5  Pass 1  IDiag  1:
 RMSU=  4.39D-05    CP:  9.39D-01  2.15D+00  1.05D+00  1.59D+00
 E= -466.817244871327     Delta-E=       -0.000943986159 Rises=F Damp=F
 DIIS: error= 6.90D-04 at cycle   5 NSaved=   5.
 NSaved= 5 IEnMin= 5 EnMin= -466.817244871327     IErMin= 5 ErrMin= 6.90D-04
 ErrMax= 6.90D-04  0.00D+00 EMaxC= 1.00D-01 BMatC= 1.25D-04 BMatP= 5.91D-04
 IDIUse=3 WtCom= 9.93D-01 WtEn= 6.90D-03
 Coeff-Com:  0.343D-01-0.742D-01-0.650D-01 0.235D-01 0.108D+01
 Coeff-En:   0.000D+00 0.000D+00 0.000D+00 0.000D+00 0.100D+01
 Coeff:      0.340D-01-0.737D-01-0.645D-01 0.234D-01 0.108D+01
 Gap=     0.242 Goal=   None    Shift=    0.000
 Gap=     0.242 Goal=   None    Shift=    0.000
 RMSDP=4.66D-05 MaxDP=3.33D-03 DE=-9.44D-04 OVMax= 1.34D-02

 Cycle   6  Pass 1  IDiag  1:
 RMSU=  1.62D-05    CP:  9.38D-01  2.16D+00  1.09D+00  1.86D+00  1.63D+00
 E= -466.817455681257     Delta-E=       -0.000210809930 Rises=F Damp=F
 DIIS: error= 3.06D-04 at cycle   6 NSaved=   6.
 NSaved= 6 IEnMin= 6 EnMin= -466.817455681257     IErMin= 6 ErrMin= 3.06D-04
 ErrMax= 3.06D-04  0.00D+00 EMaxC= 1.00D-01 BMatC= 5.26D-05 BMatP= 1.25D-04
 IDIUse=3 WtCom= 9.97D-01 WtEn= 3.06D-03
 Coeff-Com: -0.256D-01 0.549D-01 0.189D-01-0.385D+00 0.419D+00 0.918D+00
 Coeff-En:   0.000D+00 0.000D+00 0.000D+00 0.000D+00 0.000D+00 0.100D+01
 Coeff:     -0.255D-01 0.548D-01 0.188D-01-0.384D+00 0.418D+00 0.918D+00
 Gap=     0.242 Goal=   None    Shift=    0.000
 Gap=     0.242 Goal=   None    Shift=    0.000
 RMSDP=2.81D-05 MaxDP=1.81D-03 DE=-2.11D-04 OVMax= 8.89D-03

 Cycle   7  Pass 1  IDiag  1:
 RMSU=  9.74D-06    CP:  9.38D-01  2.16D+00  1.10D+00  2.00D+00  2.08D+00
                    CP:  1.43D+00
 E= -466.817525865559     Delta-E=       -0.000070184302 Rises=F Damp=F
 DIIS: error= 1.39D-04 at cycle   7 NSaved=   7.
 NSaved= 7 IEnMin= 7 EnMin= -466.817525865559     IErMin= 7 ErrMin= 1.39D-04
 ErrMax= 1.39D-04  0.00D+00 EMaxC= 1.00D-01 BMatC= 7.99D-06 BMatP= 5.26D-05
 IDIUse=3 WtCom= 9.99D-01 WtEn= 1.39D-03
 Coeff-Com: -0.106D-01 0.229D-01 0.153D-01-0.551D-01-0.129D+00 0.103D+00
 Coeff-Com:  0.105D+01
 Coeff-En:   0.000D+00 0.000D+00 0.000D+00 0.000D+00 0.000D+00 0.000D+00
 Coeff-En:   0.100D+01
 Coeff:     -0.106D-01 0.229D-01 0.153D-01-0.550D-01-0.129D+00 0.103D+00
 Coeff:      0.105D+01
 Gap=     0.242 Goal=   None    Shift=    0.000
 Gap=     0.242 Goal=   None    Shift=    0.000
 RMSDP=1.34D-05 MaxDP=8.34D-04 DE=-7.02D-05 OVMax= 3.75D-03

 Cycle   8  Pass 1  IDiag  1:
 RMSU=  4.16D-06    CP:  9.38D-01  2.15D+00  1.09D+00  2.04D+00  2.28D+00
                    CP:  1.83D+00  1.46D+00
 E= -466.817541365201     Delta-E=       -0.000015499642 Rises=F Damp=F
 DIIS: error= 7.17D-05 at cycle   8 NSaved=   8.
 NSaved= 8 IEnMin= 8 EnMin= -466.817541365201     IErMin= 8 ErrMin= 7.17D-05
 ErrMax= 7.17D-05  0.00D+00 EMaxC= 1.00D-01 BMatC= 2.70D-06 BMatP= 7.99D-06
 IDIUse=1 WtCom= 1.00D+00 WtEn= 0.00D+00
 Coeff-Com:  0.406D-02-0.874D-02-0.839D-03 0.915D-01-0.129D+00-0.240D+00
 Coeff-Com:  0.246D+00 0.104D+01
 Coeff:      0.406D-02-0.874D-02-0.839D-03 0.915D-01-0.129D+00-0.240D+00
 Coeff:      0.246D+00 0.104D+01
 Gap=     0.242 Goal=   None    Shift=    0.000
 Gap=     0.242 Goal=   None    Shift=    0.000
 RMSDP=7.16D-06 MaxDP=2.89D-04 DE=-1.55D-05 OVMax= 2.33D-03

 Cycle   9  Pass 1  IDiag  1:
 RMSU=  2.05D-06    CP:  9.38D-01  2.15D+00  1.09D+00  2.05D+00  2.37D+00
                    CP:  2.01D+00  1.89D+00  1.50D+00
 E= -466.817546550895     Delta-E=       -0.000005185694 Rises=F Damp=F
 DIIS: error= 5.00D-05 at cycle   9 NSaved=   9.
 NSaved= 9 IEnMin= 9 EnMin= -466.817546550895     IErMin= 9 ErrMin= 5.00D-05
 ErrMax= 5.00D-05  0.00D+00 EMaxC= 1.00D-01 BMatC= 7.89D-07 BMatP= 2.70D-06
 IDIUse=1 WtCom= 1.00D+00 WtEn= 0.00D+00
 Coeff-Com:  0.426D-02-0.921D-02-0.477D-02 0.407D-01 0.121D-01-0.976D-01
 Coeff-Com: -0.242D+00 0.241D+00 0.106D+01
 Coeff:      0.426D-02-0.921D-02-0.477D-02 0.407D-01 0.121D-01-0.976D-01
 Coeff:     -0.242D+00 0.241D+00 0.106D+01
 Gap=     0.242 Goal=   None    Shift=    0.000
 Gap=     0.242 Goal=   None    Shift=    0.000
 RMSDP=4.04D-06 MaxDP=1.52D-04 DE=-5.19D-06 OVMax= 1.40D-03

 Cycle  10  Pass 1  IDiag  1:
 RMSU=  1.06D-06    CP:  9.38D-01  2.15D+00  1.09D+00  2.06D+00  2.41D+00
                    CP:  2.09D+00  2.09D+00  1.98D+00  1.53D+00
 E= -466.817548316999     Delta-E=       -0.000001766104 Rises=F Damp=F
 DIIS: error= 3.61D-05 at cycle  10 NSaved=  10.
 NSaved=10 IEnMin=10 EnMin= -466.817548316999     IErMin=10 ErrMin= 3.61D-05
 ErrMax= 3.61D-05  0.00D+00 EMaxC= 1.00D-01 BMatC= 1.94D-07 BMatP= 7.89D-07
 IDIUse=1 WtCom= 1.00D+00 WtEn= 0.00D+00
 Coeff-Com: -0.192D-02 0.415D-02 0.112D-02-0.333D-01 0.431D-01 0.861D-01
 Coeff-Com: -0.506D-01-0.386D+00-0.189D+00 0.153D+01
 Coeff:     -0.192D-02 0.415D-02 0.112D-02-0.333D-01 0.431D-01 0.861D-01
 Coeff:     -0.506D-01-0.386D+00-0.189D+00 0.153D+01
 Gap=     0.242 Goal=   None    Shift=    0.000
 Gap=     0.242 Goal=   None    Shift=    0.000
 RMSDP=3.16D-06 MaxDP=1.38D-04 DE=-1.77D-06 OVMax= 1.23D-03

 Cycle  11  Pass 1  IDiag  1:
 RMSU=  6.81D-07    CP:  9.38D-01  2.15D+00  1.09D+00  2.07D+00  2.44D+00
                    CP:  2.12D+00  2.21D+00  2.28D+00  2.14D+00  2.09D+00
 E= -466.817549031162     Delta-E=       -0.000000714162 Rises=F Damp=F
 DIIS: error= 1.62D-05 at cycle  11 NSaved=  11.
 NSaved=11 IEnMin=11 EnMin= -466.817549031162     IErMin=11 ErrMin= 1.62D-05
 ErrMax= 1.62D-05  0.00D+00 EMaxC= 1.00D-01 BMatC= 3.91D-08 BMatP= 1.94D-07
 IDIUse=1 WtCom= 1.00D+00 WtEn= 0.00D+00
 Coeff-Com: -0.945D-03 0.204D-02 0.878D-03-0.116D-01 0.783D-02 0.302D-01
 Coeff-Com:  0.194D-01-0.115D+00-0.187D+00 0.309D+00 0.945D+00
 Coeff:     -0.945D-03 0.204D-02 0.878D-03-0.116D-01 0.783D-02 0.302D-01
 Coeff:      0.194D-01-0.115D+00-0.187D+00 0.309D+00 0.945D+00
 Gap=     0.242 Goal=   None    Shift=    0.000
 Gap=     0.242 Goal=   None    Shift=    0.000
 RMSDP=9.65D-07 MaxDP=4.48D-05 DE=-7.14D-07 OVMax= 3.73D-04

 Cycle  12  Pass 1  IDiag  1:
 RMSU=  2.19D-07    CP:  9.38D-01  2.16D+00  1.09D+00  2.08D+00  2.45D+00
                    CP:  2.13D+00  2.23D+00  2.32D+00  2.28D+00  2.53D+00
                    CP:  1.49D+00
 E= -466.817549124240     Delta-E=       -0.000000093079 Rises=F Damp=F
 DIIS: error= 8.61D-06 at cycle  12 NSaved=  12.
 NSaved=12 IEnMin=12 EnMin= -466.817549124240     IErMin=12 ErrMin= 8.61D-06
 ErrMax= 8.61D-06  0.00D+00 EMaxC= 1.00D-01 BMatC= 1.29D-08 BMatP= 3.91D-08
 IDIUse=1 WtCom= 1.00D+00 WtEn= 0.00D+00
 Coeff-Com:  0.628D-03-0.136D-02-0.306D-03 0.118D-01-0.147D-01-0.295D-01
 Coeff-Com:  0.176D-01 0.129D+00 0.505D-01-0.543D+00 0.192D+00 0.119D+01
 Coeff:      0.628D-03-0.136D-02-0.306D-03 0.118D-01-0.147D-01-0.295D-01
 Coeff:      0.176D-01 0.129D+00 0.505D-01-0.543D+00 0.192D+00 0.119D+01
 Gap=     0.242 Goal=   None    Shift=    0.000
 Gap=     0.242 Goal=   None    Shift=    0.000
 RMSDP=7.40D-07 MaxDP=3.89D-05 DE=-9.31D-08 OVMax= 2.70D-04

 Cycle  13  Pass 1  IDiag  1:
 RMSU=  1.51D-07    CP:  9.38D-01  2.16D+00  1.09D+00  2.08D+00  2.46D+00
                    CP:  2.14D+00  2.24D+00  2.33D+00  2.34D+00  2.86D+00
                    CP:  2.00D+00  1.68D+00
 E= -466.817549158178     Delta-E=       -0.000000033937 Rises=F Damp=F
 DIIS: error= 2.61D-06 at cycle  13 NSaved=  13.
 NSaved=13 IEnMin=13 EnMin= -466.817549158178     IErMin=13 ErrMin= 2.61D-06
 ErrMax= 2.61D-06  0.00D+00 EMaxC= 1.00D-01 BMatC= 2.14D-09 BMatP= 1.29D-08
 IDIUse=1 WtCom= 1.00D+00 WtEn= 0.00D+00
 Coeff-Com:  0.228D-03-0.492D-03-0.177D-03 0.323D-02-0.240D-02-0.837D-02
 Coeff-Com: -0.292D-02 0.309D-01 0.410D-01-0.103D+00-0.154D+00 0.107D+00
 Coeff-Com:  0.109D+01
 Coeff:      0.228D-03-0.492D-03-0.177D-03 0.323D-02-0.240D-02-0.837D-02
 Coeff:     -0.292D-02 0.309D-01 0.410D-01-0.103D+00-0.154D+00 0.107D+00
 Coeff:      0.109D+01
 Gap=     0.242 Goal=   None    Shift=    0.000
 Gap=     0.242 Goal=   None    Shift=    0.000
 RMSDP=2.35D-07 MaxDP=1.13D-05 DE=-3.39D-08 OVMax= 8.69D-05

 Cycle  14  Pass 1  IDiag  1:
 RMSU=  6.30D-08    CP:  9.38D-01  2.16D+00  1.09D+00  2.08D+00  2.46D+00
                    CP:  2.14D+00  2.25D+00  2.34D+00  2.36D+00  2.94D+00
                    CP:  2.13D+00  2.05D+00  1.45D+00
 E= -466.817549162752     Delta-E=       -0.000000004574 Rises=F Damp=F
 DIIS: error= 9.23D-07 at cycle  14 NSaved=  14.
 NSaved=14 IEnMin=14 EnMin= -466.817549162752     IErMin=14 ErrMin= 9.23D-07
 ErrMax= 9.23D-07  0.00D+00 EMaxC= 1.00D-01 BMatC= 6.30D-10 BMatP= 2.14D-09
 IDIUse=1 WtCom= 1.00D+00 WtEn= 0.00D+00
 Coeff-Com: -0.111D-03 0.241D-03 0.380D-04-0.234D-02 0.358D-02 0.564D-02
 Coeff-Com: -0.695D-02-0.278D-01-0.532D-03 0.122D+00-0.102D+00-0.301D+00
 Coeff-Com:  0.343D+00 0.966D+00
 Coeff:     -0.111D-03 0.241D-03 0.380D-04-0.234D-02 0.358D-02 0.564D-02
 Coeff:     -0.695D-02-0.278D-01-0.532D-03 0.122D+00-0.102D+00-0.301D+00
 Coeff:      0.343D+00 0.966D+00
 Gap=     0.242 Goal=   None    Shift=    0.000
 Gap=     0.242 Goal=   None    Shift=    0.000
 RMSDP=1.15D-07 MaxDP=4.31D-06 DE=-4.57D-09 OVMax= 4.20D-05

 Cycle  15  Pass 1  IDiag  1:
 RMSU=  2.97D-08    CP:  9.38D-01  2.16D+00  1.09D+00  2.08D+00  2.46D+00
                    CP:  2.14D+00  2.25D+00  2.34D+00  2.37D+00  2.96D+00
                    CP:  2.17D+00  2.20D+00  1.76D+00  1.38D+00
 E= -466.817549163650     Delta-E=       -0.000000000898 Rises=F Damp=F
 DIIS: error= 2.28D-07 at cycle  15 NSaved=  15.
 NSaved=15 IEnMin=15 EnMin= -466.817549163650     IErMin=15 ErrMin= 2.28D-07
 ErrMax= 2.28D-07  0.00D+00 EMaxC= 1.00D-01 BMatC= 7.32D-11 BMatP= 6.30D-10
 IDIUse=1 WtCom= 1.00D+00 WtEn= 0.00D+00
 Coeff-Com: -0.593D-04 0.128D-03 0.302D-04-0.106D-02 0.130D-02 0.267D-02
 Coeff-Com: -0.151D-02-0.118D-01-0.660D-02 0.475D-01-0.764D-03-0.951D-01
 Coeff-Com: -0.982D-01 0.252D+00 0.911D+00
 Coeff:     -0.593D-04 0.128D-03 0.302D-04-0.106D-02 0.130D-02 0.267D-02
 Coeff:     -0.151D-02-0.118D-01-0.660D-02 0.475D-01-0.764D-03-0.951D-01
 Coeff:     -0.982D-01 0.252D+00 0.911D+00
 Gap=     0.242 Goal=   None    Shift=    0.000
 Gap=     0.242 Goal=   None    Shift=    0.000
 RMSDP=3.31D-08 MaxDP=1.46D-06 DE=-8.98D-10 OVMax= 1.09D-05

 Cycle  16  Pass 1  IDiag  1:
 RMSU=  1.08D-08    CP:  9.38D-01  2.16D+00  1.09D+00  2.08D+00  2.46D+00
                    CP:  2.14D+00  2.25D+00  2.35D+00  2.38D+00  2.97D+00
                    CP:  2.17D+00  2.23D+00  1.83D+00  1.60D+00  1.30D+00
 E= -466.817549163724     Delta-E=       -0.000000000073 Rises=F Damp=F
 DIIS: error= 4.62D-08 at cycle  16 NSaved=  16.
 NSaved=16 IEnMin=16 EnMin= -466.817549163724     IErMin=16 ErrMin= 4.62D-08
 ErrMax= 4.62D-08  0.00D+00 EMaxC= 1.00D-01 BMatC= 5.79D-12 BMatP= 7.32D-11
 IDIUse=1 WtCom= 1.00D+00 WtEn= 0.00D+00
 Coeff-Com:  0.452D-05-0.100D-04-0.112D-05 0.120D-03-0.200D-03-0.289D-03
 Coeff-Com:  0.565D-03 0.161D-02-0.849D-03-0.736D-02 0.119D-01 0.219D-01
 Coeff-Com: -0.528D-01-0.747D-01 0.129D+00 0.971D+00
 Coeff:      0.452D-05-0.100D-04-0.112D-05 0.120D-03-0.200D-03-0.289D-03
 Coeff:      0.565D-03 0.161D-02-0.849D-03-0.736D-02 0.119D-01 0.219D-01
 Coeff:     -0.528D-01-0.747D-01 0.129D+00 0.971D+00
 Gap=     0.242 Goal=   None    Shift=    0.000
 Gap=     0.242 Goal=   None    Shift=    0.000
 RMSDP=8.90D-09 MaxDP=3.77D-07 DE=-7.34D-11 OVMax= 9.22D-07

 Error on total polarization charges =  0.01172
 SCF Done:  E(UwB97XD) =  -466.817549164     A.U. after   16 cycles
            NFock= 16  Conv=0.89D-08     -V/T= 2.0061
 <Sx>= 0.0000 <Sy>= 0.0000 <Sz>= 0.0000 <S**2>= 0.8610 S= 0.5540
 <L.S>=  0.00000000000    
 KE= 4.640044508483D+02 PE=-2.465306364679D+03 EE= 8.425850293914D+02
 --------------------------------------------------------------------
 Variational PCM results
 =======================
 <psi(f)|   H    |psi(f)>                     (a.u.) =    -466.816260
 <psi(f)|H+V(f)/2|psi(f)>                     (a.u.) =    -466.817549
 (Polarized solute)-Solvent               (kcal/mol) =      -0.81
 --------------------------------------------------------------------
 Partition over spheres:
 Sphere  on Atom  Surface  Charge   GEl     GCav    GDR
    1      C1       7.38   0.011   -0.05    0.00    0.00
    2      C2       0.80   0.001   -0.00    0.00    0.00
    3      H3       7.51  -0.010   -0.04    0.00    0.00
    4      H4       2.97  -0.003   -0.01    0.00    0.00
    5      C5       4.75   0.008   -0.04    0.00    0.00
    6      C6       0.71   0.000   -0.00    0.00    0.00
    7      H7       4.92  -0.007   -0.03    0.00    0.00
    8      H8       3.67  -0.004   -0.01    0.00    0.00
    9      C9       3.06   0.002   -0.00    0.00    0.00
   10      H10      6.69  -0.006   -0.01    0.00    0.00
   11      H11      3.70  -0.003   -0.01    0.00    0.00
   12      C12      6.69   0.011   -0.06    0.00    0.00
   13      H13      7.51  -0.010   -0.03    0.00    0.00
   14      C14      7.40   0.011   -0.05    0.00    0.00
   15      H15      7.51  -0.010   -0.03    0.00    0.00
   16      C16      3.32   0.001    0.00    0.00    0.00
   17      H17      4.15  -0.004   -0.02    0.00    0.00
   18      H18      7.48  -0.008   -0.03    0.00    0.00
   19      C19      4.99   0.009   -0.05    0.00    0.00
   20      H20      5.38  -0.007   -0.03    0.00    0.00
   21      C21      6.66   0.011   -0.06    0.00    0.00
   22      H22      7.50  -0.010   -0.03    0.00    0.00
   23      C23      3.03   0.002   -0.00    0.00    0.00
   24      H24      3.89  -0.003   -0.01    0.00    0.00
   25      H25      6.89  -0.006   -0.01    0.00    0.00
   26      C26      3.23   0.001    0.00    0.00    0.00
   27      H27      7.41  -0.008   -0.03    0.00    0.00
   28      H28      4.17  -0.004   -0.02    0.00    0.00
 Added spheres:    75.34   0.022   -0.18    0.00    0.00
 --------------------------------------------------------------------
 After PCM corrections, the energy is  -466.817549164     a.u.
 --------------------------------------------------------------------
 Annihilation of the first spin contaminant:
 S**2 before annihilation     0.8610,   after     0.3625
 Leave Link  502 at Mon Aug  3 16:35:17 2020, MaxMem=  6442450944 cpu:            6957.7 elap:             292.7
 (Enter /scratch/scicomp/CentOS/7.3.1611/Haswell/software/Gaussian/g16/l601.exe)
 Copying SCF densities to generalized density rwf, IOpCl= 1 IROHF=0.

 **********************************************************************

            Population analysis using the SCF Density.

 **********************************************************************

 Alpha  occ. eigenvalues --  -10.29967 -10.29647 -10.28688 -10.28504 -10.28465
 Alpha  occ. eigenvalues --  -10.28355 -10.28199 -10.28120 -10.28062 -10.28036
 Alpha  occ. eigenvalues --  -10.27901 -10.27692  -0.94954  -0.93077  -0.85113
 Alpha  occ. eigenvalues --   -0.84493  -0.83645  -0.82168  -0.71219  -0.70174
 Alpha  occ. eigenvalues --   -0.69558  -0.67837  -0.60009  -0.59401  -0.58306
 Alpha  occ. eigenvalues --   -0.56361  -0.53409  -0.53023  -0.50825  -0.49851
 Alpha  occ. eigenvalues --   -0.49194  -0.48149  -0.47903  -0.47455  -0.46530
 Alpha  occ. eigenvalues --   -0.44724  -0.41493  -0.40993  -0.39879  -0.39715
 Alpha  occ. eigenvalues --   -0.38923  -0.37325  -0.32654  -0.24468
 Alpha virt. eigenvalues --   -0.00294   0.09214   0.10464   0.12521   0.13119
 Alpha virt. eigenvalues --    0.14147   0.14539   0.15463   0.15990   0.16297
 Alpha virt. eigenvalues --    0.16665   0.17112   0.18253   0.19749   0.20493
 Alpha virt. eigenvalues --    0.20738   0.21429   0.22581   0.23223   0.23608
 Alpha virt. eigenvalues --    0.24705   0.25116   0.26337   0.26506   0.27203
 Alpha virt. eigenvalues --    0.28570   0.28601   0.29822   0.30439   0.30540
 Alpha virt. eigenvalues --    0.31290   0.31796   0.31887   0.32752   0.33921
 Alpha virt. eigenvalues --    0.34221   0.35484   0.36007   0.36466   0.37112
 Alpha virt. eigenvalues --    0.37624   0.38671   0.40920   0.41316   0.41976
 Alpha virt. eigenvalues --    0.43270   0.43848   0.44742   0.45410   0.45555
 Alpha virt. eigenvalues --    0.46376   0.46897   0.48364   0.48381   0.48526
 Alpha virt. eigenvalues --    0.48552   0.49065   0.49230   0.49998   0.50232
 Alpha virt. eigenvalues --    0.50403   0.50962   0.51364   0.52067   0.52830
 Alpha virt. eigenvalues --    0.52907   0.54166   0.54247   0.54720   0.55916
 Alpha virt. eigenvalues --    0.56323   0.56645   0.57832   0.58376   0.58708
 Alpha virt. eigenvalues --    0.58825   0.60446   0.60963   0.63198   0.65091
 Alpha virt. eigenvalues --    0.66389   0.67460   0.67730   0.68793   0.68861
 Alpha virt. eigenvalues --    0.70599   0.71634   0.73438   0.75613   0.75762
 Alpha virt. eigenvalues --    0.78233   0.78835   0.79121   0.81437   0.82062
 Alpha virt. eigenvalues --    0.82864   0.84224   0.85850   0.87716   0.87802
 Alpha virt. eigenvalues --    0.88360   0.89337   0.93038   0.93946   0.94741
 Alpha virt. eigenvalues --    0.96272   0.96881   0.97993   0.98613   0.99636
 Alpha virt. eigenvalues --    1.01665   1.01798   1.03970   1.04507   1.05603
 Alpha virt. eigenvalues --    1.07080   1.07997   1.08279   1.09678   1.10048
 Alpha virt. eigenvalues --    1.12062   1.14020   1.15515   1.16682   1.17349
 Alpha virt. eigenvalues --    1.18286   1.19015   1.19452   1.19584   1.19828
 Alpha virt. eigenvalues --    1.21065   1.22582   1.24277   1.25684   1.25946
 Alpha virt. eigenvalues --    1.26902   1.27897   1.28096   1.28747   1.29207
 Alpha virt. eigenvalues --    1.30190   1.30554   1.33041   1.34271   1.34550
 Alpha virt. eigenvalues --    1.35021   1.35503   1.35860   1.38110   1.38995
 Alpha virt. eigenvalues --    1.39165   1.39422   1.40081   1.41397   1.42226
 Alpha virt. eigenvalues --    1.42974   1.43308   1.44156   1.44542   1.45576
 Alpha virt. eigenvalues --    1.46166   1.47139   1.47175   1.48759   1.49395
 Alpha virt. eigenvalues --    1.50659   1.53586   1.54746   1.56775   1.57610
 Alpha virt. eigenvalues --    1.59618   1.59752   1.59890   1.62859   1.62987
 Alpha virt. eigenvalues --    1.63644   1.66103   1.66774   1.68233   1.68612
 Alpha virt. eigenvalues --    1.72707   1.73867   1.75995   1.77413   1.78307
 Alpha virt. eigenvalues --    1.79432   1.80925   1.81608   1.85311   1.85687
 Alpha virt. eigenvalues --    1.87598   1.89541   1.91133   1.92571   1.94153
 Alpha virt. eigenvalues --    1.97447   1.97642   2.01059   2.03780   2.04317
 Alpha virt. eigenvalues --    2.06600   2.06900   2.08638   2.10274   2.10950
 Alpha virt. eigenvalues --    2.12635   2.14911   2.16441   2.17131   2.18143
 Alpha virt. eigenvalues --    2.18575   2.18834   2.20080   2.21354   2.23937
 Alpha virt. eigenvalues --    2.24912   2.25599   2.28440   2.30250   2.31909
 Alpha virt. eigenvalues --    2.34532   2.36766   2.37398   2.39403   2.43947
 Alpha virt. eigenvalues --    2.45494   2.47007   2.47135   2.48157   2.49745
 Alpha virt. eigenvalues --    2.50799   2.54823   2.55002   2.56920   2.57750
 Alpha virt. eigenvalues --    2.58216   2.59242   2.61141   2.62032   2.63525
 Alpha virt. eigenvalues --    2.63927   2.64114   2.67790   2.68271   2.68502
 Alpha virt. eigenvalues --    2.68795   2.71273   2.72468   2.72941   2.73913
 Alpha virt. eigenvalues --    2.74190   2.75434   2.76240   2.77732   2.77969
 Alpha virt. eigenvalues --    2.79433   2.80895   2.81234   2.82220   2.82844
 Alpha virt. eigenvalues --    2.83068   2.84450   2.85112   2.85761   2.86466
 Alpha virt. eigenvalues --    2.87338   2.88469   2.89301   2.89739   2.90717
 Alpha virt. eigenvalues --    2.92772   2.93769   2.94254   2.94768   2.95793
 Alpha virt. eigenvalues --    2.96025   2.99055   3.00213   3.01585   3.02388
 Alpha virt. eigenvalues --    3.03902   3.04809   3.05891   3.06398   3.06910
 Alpha virt. eigenvalues --    3.08704   3.09132   3.09793   3.10644   3.11298
 Alpha virt. eigenvalues --    3.12528   3.12941   3.13561   3.14527   3.15043
 Alpha virt. eigenvalues --    3.15284   3.15935   3.17593   3.19641   3.20141
 Alpha virt. eigenvalues --    3.20255   3.21028   3.21512   3.22330   3.23064
 Alpha virt. eigenvalues --    3.23134   3.24313   3.25302   3.25670   3.26033
 Alpha virt. eigenvalues --    3.26589   3.26834   3.28211   3.29355   3.30330
 Alpha virt. eigenvalues --    3.31031   3.31410   3.32416   3.32528   3.34800
 Alpha virt. eigenvalues --    3.35586   3.35959   3.36791   3.36995   3.37249
 Alpha virt. eigenvalues --    3.38903   3.39930   3.40420   3.40791   3.41748
 Alpha virt. eigenvalues --    3.42622   3.44974   3.45501   3.46800   3.47305
 Alpha virt. eigenvalues --    3.48409   3.48991   3.49941   3.50289   3.51430
 Alpha virt. eigenvalues --    3.52365   3.53118   3.53617   3.56268   3.57467
 Alpha virt. eigenvalues --    3.57744   3.57906   3.58615   3.60276   3.60634
 Alpha virt. eigenvalues --    3.61561   3.61928   3.62848   3.64220   3.66274
 Alpha virt. eigenvalues --    3.66299   3.67248   3.69672   3.70079   3.72503
 Alpha virt. eigenvalues --    3.72960   3.77532   3.78013   3.78646   3.80645
 Alpha virt. eigenvalues --    3.80732   3.82151   3.82588   3.82893   3.84458
 Alpha virt. eigenvalues --    3.85092   3.88118   3.90630   3.91222   3.92779
 Alpha virt. eigenvalues --    3.93668   3.95413   3.96150   3.99027   4.02160
 Alpha virt. eigenvalues --    4.03290   4.04124   4.06247   4.09027   4.10100
 Alpha virt. eigenvalues --    4.11764   4.11935   4.12545   4.14862   4.15896
 Alpha virt. eigenvalues --    4.17622   4.18615   4.20435   4.21389   4.22209
 Alpha virt. eigenvalues --    4.22942   4.25144   4.25443   4.27694   4.29119
 Alpha virt. eigenvalues --    4.32166   4.32684   4.34685   4.36375   4.36991
 Alpha virt. eigenvalues --    4.38309   4.44250   4.45841   4.46502   4.48845
 Alpha virt. eigenvalues --    4.50097   4.51053   4.52628   4.54263   4.54920
 Alpha virt. eigenvalues --    4.56417   4.59481   4.62832   4.63950   4.66612
 Alpha virt. eigenvalues --    4.68122   4.70584   4.73486   4.75740   4.76113
 Alpha virt. eigenvalues --    4.76636   4.79579   4.82138   4.88049   4.90311
 Alpha virt. eigenvalues --    4.91696   4.92430   4.92550   4.95645   4.96558
 Alpha virt. eigenvalues --    4.97184   5.03081   5.05799   5.10090   5.10178
 Alpha virt. eigenvalues --    5.17429   5.20933   5.22268   5.25743   5.26651
 Alpha virt. eigenvalues --    5.30378   5.36192   5.37919   5.38317   5.40030
 Alpha virt. eigenvalues --    5.40803   5.41260   5.52208   5.52700   5.57557
 Alpha virt. eigenvalues --    5.63231   5.71559   5.73399   5.81612   5.87372
 Alpha virt. eigenvalues --    7.94128   7.94910   8.02516   8.04340   8.06691
 Alpha virt. eigenvalues --    8.09762   8.11078   8.14880   8.17959   8.20382
 Alpha virt. eigenvalues --    8.34105   8.38644  34.75699  34.76166  34.80997
 Alpha virt. eigenvalues --   34.81772  34.84510  34.88364  34.98185  34.99842
 Alpha virt. eigenvalues --   35.01184  35.03022  35.18035  35.23032
  Beta  occ. eigenvalues --  -10.29967 -10.29647 -10.28688 -10.28504 -10.28465
  Beta  occ. eigenvalues --  -10.28356 -10.28199 -10.28120 -10.28063 -10.28035
  Beta  occ. eigenvalues --  -10.27901 -10.27691  -0.94954  -0.93077  -0.85113
  Beta  occ. eigenvalues --   -0.84493  -0.83645  -0.82168  -0.71219  -0.70174
  Beta  occ. eigenvalues --   -0.69557  -0.67837  -0.60009  -0.59401  -0.58306
  Beta  occ. eigenvalues --   -0.56361  -0.53409  -0.53022  -0.50825  -0.49851
  Beta  occ. eigenvalues --   -0.49194  -0.48149  -0.47903  -0.47455  -0.46530
  Beta  occ. eigenvalues --   -0.44724  -0.41493  -0.40993  -0.39879  -0.39716
  Beta  occ. eigenvalues --   -0.38923  -0.37325  -0.32654  -0.24468
  Beta virt. eigenvalues --   -0.00294   0.09214   0.10464   0.12521   0.13119
  Beta virt. eigenvalues --    0.14147   0.14539   0.15463   0.15990   0.16298
  Beta virt. eigenvalues --    0.16665   0.17112   0.18253   0.19749   0.20493
  Beta virt. eigenvalues --    0.20738   0.21429   0.22581   0.23223   0.23608
  Beta virt. eigenvalues --    0.24705   0.25116   0.26337   0.26506   0.27203
  Beta virt. eigenvalues --    0.28570   0.28602   0.29822   0.30439   0.30540
  Beta virt. eigenvalues --    0.31290   0.31796   0.31887   0.32752   0.33921
  Beta virt. eigenvalues --    0.34221   0.35484   0.36007   0.36466   0.37112
  Beta virt. eigenvalues --    0.37624   0.38671   0.40920   0.41315   0.41976
  Beta virt. eigenvalues --    0.43270   0.43848   0.44742   0.45409   0.45555
  Beta virt. eigenvalues --    0.46376   0.46897   0.48364   0.48381   0.48526
  Beta virt. eigenvalues --    0.48552   0.49065   0.49230   0.49998   0.50232
  Beta virt. eigenvalues --    0.50403   0.50962   0.51364   0.52067   0.52830
  Beta virt. eigenvalues --    0.52907   0.54166   0.54247   0.54720   0.55916
  Beta virt. eigenvalues --    0.56323   0.56645   0.57832   0.58376   0.58708
  Beta virt. eigenvalues --    0.58825   0.60445   0.60963   0.63198   0.65091
  Beta virt. eigenvalues --    0.66389   0.67460   0.67730   0.68792   0.68861
  Beta virt. eigenvalues --    0.70599   0.71634   0.73438   0.75613   0.75762
  Beta virt. eigenvalues --    0.78233   0.78835   0.79121   0.81437   0.82062
  Beta virt. eigenvalues --    0.82864   0.84224   0.85850   0.87716   0.87802
  Beta virt. eigenvalues --    0.88360   0.89337   0.93038   0.93946   0.94741
  Beta virt. eigenvalues --    0.96272   0.96881   0.97993   0.98613   0.99636
  Beta virt. eigenvalues --    1.01665   1.01798   1.03970   1.04507   1.05603
  Beta virt. eigenvalues --    1.07080   1.07997   1.08279   1.09678   1.10048
  Beta virt. eigenvalues --    1.12062   1.14020   1.15515   1.16682   1.17349
  Beta virt. eigenvalues --    1.18286   1.19015   1.19452   1.19585   1.19828
  Beta virt. eigenvalues --    1.21065   1.22582   1.24277   1.25684   1.25946
  Beta virt. eigenvalues --    1.26902   1.27897   1.28096   1.28747   1.29207
  Beta virt. eigenvalues --    1.30190   1.30554   1.33041   1.34271   1.34550
  Beta virt. eigenvalues --    1.35020   1.35503   1.35860   1.38110   1.38995
  Beta virt. eigenvalues --    1.39165   1.39423   1.40081   1.41397   1.42226
  Beta virt. eigenvalues --    1.42974   1.43308   1.44156   1.44542   1.45575
  Beta virt. eigenvalues --    1.46166   1.47139   1.47175   1.48759   1.49395
  Beta virt. eigenvalues --    1.50659   1.53586   1.54746   1.56775   1.57610
  Beta virt. eigenvalues --    1.59618   1.59752   1.59890   1.62859   1.62987
  Beta virt. eigenvalues --    1.63644   1.66103   1.66774   1.68233   1.68612
  Beta virt. eigenvalues --    1.72707   1.73867   1.75995   1.77413   1.78307
  Beta virt. eigenvalues --    1.79432   1.80925   1.81608   1.85311   1.85687
  Beta virt. eigenvalues --    1.87598   1.89541   1.91133   1.92571   1.94153
  Beta virt. eigenvalues --    1.97447   1.97642   2.01059   2.03780   2.04317
  Beta virt. eigenvalues --    2.06600   2.06900   2.08638   2.10274   2.10950
  Beta virt. eigenvalues --    2.12635   2.14911   2.16441   2.17131   2.18143
  Beta virt. eigenvalues --    2.18575   2.18834   2.20080   2.21354   2.23937
  Beta virt. eigenvalues --    2.24912   2.25599   2.28440   2.30250   2.31909
  Beta virt. eigenvalues --    2.34532   2.36766   2.37398   2.39403   2.43947
  Beta virt. eigenvalues --    2.45494   2.47007   2.47135   2.48157   2.49745
  Beta virt. eigenvalues --    2.50799   2.54823   2.55002   2.56920   2.57751
  Beta virt. eigenvalues --    2.58216   2.59242   2.61141   2.62032   2.63525
  Beta virt. eigenvalues --    2.63927   2.64114   2.67790   2.68271   2.68502
  Beta virt. eigenvalues --    2.68795   2.71273   2.72468   2.72941   2.73913
  Beta virt. eigenvalues --    2.74190   2.75434   2.76240   2.77732   2.77968
  Beta virt. eigenvalues --    2.79433   2.80894   2.81234   2.82220   2.82844
  Beta virt. eigenvalues --    2.83068   2.84450   2.85112   2.85761   2.86466
  Beta virt. eigenvalues --    2.87338   2.88469   2.89301   2.89739   2.90717
  Beta virt. eigenvalues --    2.92772   2.93769   2.94254   2.94768   2.95793
  Beta virt. eigenvalues --    2.96025   2.99055   3.00213   3.01585   3.02388
  Beta virt. eigenvalues --    3.03902   3.04809   3.05891   3.06398   3.06910
  Beta virt. eigenvalues --    3.08704   3.09132   3.09793   3.10644   3.11298
  Beta virt. eigenvalues --    3.12527   3.12941   3.13561   3.14527   3.15043
  Beta virt. eigenvalues --    3.15284   3.15935   3.17593   3.19641   3.20141
  Beta virt. eigenvalues --    3.20255   3.21028   3.21512   3.22330   3.23064
  Beta virt. eigenvalues --    3.23134   3.24313   3.25302   3.25670   3.26033
  Beta virt. eigenvalues --    3.26589   3.26834   3.28211   3.29355   3.30330
  Beta virt. eigenvalues --    3.31031   3.31410   3.32416   3.32528   3.34800
  Beta virt. eigenvalues --    3.35586   3.35959   3.36791   3.36995   3.37249
  Beta virt. eigenvalues --    3.38903   3.39930   3.40420   3.40791   3.41748
  Beta virt. eigenvalues --    3.42622   3.44974   3.45501   3.46800   3.47305
  Beta virt. eigenvalues --    3.48409   3.48991   3.49941   3.50289   3.51430
  Beta virt. eigenvalues --    3.52365   3.53118   3.53617   3.56268   3.57467
  Beta virt. eigenvalues --    3.57744   3.57906   3.58615   3.60276   3.60634
  Beta virt. eigenvalues --    3.61561   3.61928   3.62848   3.64220   3.66274
  Beta virt. eigenvalues --    3.66299   3.67248   3.69672   3.70079   3.72503
  Beta virt. eigenvalues --    3.72960   3.77532   3.78013   3.78646   3.80645
  Beta virt. eigenvalues --    3.80732   3.82151   3.82588   3.82893   3.84458
  Beta virt. eigenvalues --    3.85092   3.88118   3.90630   3.91222   3.92779
  Beta virt. eigenvalues --    3.93668   3.95413   3.96150   3.99027   4.02160
  Beta virt. eigenvalues --    4.03290   4.04124   4.06247   4.09027   4.10100
  Beta virt. eigenvalues --    4.11764   4.11934   4.12545   4.14862   4.15896
  Beta virt. eigenvalues --    4.17622   4.18615   4.20435   4.21389   4.22210
  Beta virt. eigenvalues --    4.22942   4.25144   4.25443   4.27694   4.29119
  Beta virt. eigenvalues --    4.32166   4.32684   4.34685   4.36375   4.36991
  Beta virt. eigenvalues --    4.38309   4.44250   4.45841   4.46502   4.48845
  Beta virt. eigenvalues --    4.50097   4.51053   4.52628   4.54263   4.54920
  Beta virt. eigenvalues --    4.56417   4.59481   4.62832   4.63950   4.66612
  Beta virt. eigenvalues --    4.68122   4.70584   4.73486   4.75740   4.76113
  Beta virt. eigenvalues --    4.76636   4.79579   4.82138   4.88049   4.90311
  Beta virt. eigenvalues --    4.91696   4.92430   4.92550   4.95645   4.96558
  Beta virt. eigenvalues --    4.97184   5.03081   5.05799   5.10090   5.10178
  Beta virt. eigenvalues --    5.17429   5.20933   5.22268   5.25743   5.26652
  Beta virt. eigenvalues --    5.30378   5.36192   5.37919   5.38317   5.40029
  Beta virt. eigenvalues --    5.40803   5.41260   5.52208   5.52700   5.57557
  Beta virt. eigenvalues --    5.63231   5.71559   5.73399   5.81612   5.87372
  Beta virt. eigenvalues --    7.94128   7.94910   8.02516   8.04340   8.06691
  Beta virt. eigenvalues --    8.09762   8.11078   8.14880   8.17959   8.20382
  Beta virt. eigenvalues --    8.34105   8.38644  34.75699  34.76166  34.80997
  Beta virt. eigenvalues --   34.81772  34.84510  34.88364  34.98185  34.99842
  Beta virt. eigenvalues --   35.01184  35.03023  35.18035  35.23032
          Condensed to atoms (all electrons):
               1          2          3          4          5          6
     1  C    5.223516   0.011919   0.427859  -0.003189   0.001498  -0.006701
     2  C    0.011919   5.341645  -0.001726   0.430105  -0.112960   0.242259
     3  H    0.427859  -0.001726   0.493046   0.000045  -0.000014   0.000132
     4  H   -0.003189   0.430105   0.000045   0.513121  -0.004725  -0.016980
     5  C    0.001498  -0.112960  -0.000014  -0.004725   5.295416   0.330641
     6  C   -0.006701   0.242259   0.000132  -0.016980   0.330641   5.341801
     7  H    0.000077  -0.001247   0.000003   0.000131   0.438379  -0.035799
     8  H   -0.000354  -0.016969  -0.000109   0.001151  -0.046354   0.430118
     9  C    0.002393  -0.058716  -0.000003  -0.004546  -0.049534   0.252108
    10  H   -0.000020   0.007488  -0.000001  -0.000487  -0.003339  -0.046052
    11  H   -0.000256  -0.008262   0.000004   0.001072   0.011629  -0.058158
    12  C   -0.000232   0.010856  -0.000001   0.005472   0.377546  -0.065346
    13  H   -0.000001   0.000006   0.000000   0.000027  -0.032300   0.003720
    14  C    0.000087  -0.006703  -0.000000  -0.000358  -0.054182   0.011916
    15  H   -0.000000   0.000132  -0.000000  -0.000109   0.004826  -0.001728
    16  C   -0.000352   0.014217   0.000000  -0.000696  -0.000284  -0.077368
    17  H    0.000035   0.002009  -0.000000  -0.004190   0.008277  -0.007894
    18  H    0.000001  -0.000019   0.000000   0.000407  -0.002682   0.012689
    19  C   -0.054202   0.330763   0.004819  -0.046338  -0.007206  -0.112927
    20  H    0.004997  -0.035690  -0.000149  -0.006246  -0.000391  -0.001246
    21  C    0.498584  -0.065382  -0.033509   0.007257   0.001922   0.010851
    22  H   -0.029750   0.003715  -0.005906  -0.000101   0.000056   0.000006
    23  C   -0.092278   0.252115   0.005419  -0.018567   0.011083  -0.058717
    24  H    0.013293  -0.058158  -0.000082  -0.003400   0.007222  -0.008261
    25  H    0.001378  -0.046042  -0.000096  -0.004919  -0.000413   0.007488
    26  C    0.274389  -0.077383  -0.030471   0.008248  -0.009937   0.014213
    27  H   -0.031600   0.012690  -0.004306  -0.000146   0.000229  -0.000019
    28  H   -0.035782  -0.007895   0.000871  -0.000160  -0.003045   0.002007
               7          8          9         10         11         12
     1  C    0.000077  -0.000354   0.002393  -0.000020  -0.000256  -0.000232
     2  C   -0.001247  -0.016969  -0.058716   0.007488  -0.008262   0.010856
     3  H    0.000003  -0.000109  -0.000003  -0.000001   0.000004  -0.000001
     4  H    0.000131   0.001151  -0.004546  -0.000487   0.001072   0.005472
     5  C    0.438379  -0.046354  -0.049534  -0.003339   0.011629   0.377546
     6  C   -0.035799   0.430118   0.252108  -0.046052  -0.058158  -0.065346
     7  H    0.482812  -0.006248   0.003830   0.000096  -0.000051  -0.037815
     8  H   -0.006248   0.513044  -0.018552  -0.004920  -0.003401   0.007257
     9  C    0.003830  -0.018552   4.990976   0.406115   0.455305   0.027951
    10  H    0.000096  -0.004920   0.406115   0.568093  -0.018914   0.001586
    11  H   -0.000051  -0.003401   0.455305  -0.018914   0.533719  -0.005123
    12  C   -0.037815   0.007257   0.027951   0.001586  -0.005123   5.016518
    13  H   -0.004401  -0.000100   0.000375  -0.000137   0.000038   0.422926
    14  C    0.004996  -0.003188  -0.092300   0.001370   0.013295   0.498580
    15  H   -0.000149   0.000045   0.005419  -0.000096  -0.000082  -0.033556
    16  C   -0.001420   0.008246   0.341726  -0.026822  -0.054248  -0.049566
    17  H    0.000003  -0.000160  -0.029568   0.005765  -0.005773  -0.009945
    18  H    0.000051  -0.000146  -0.040353  -0.007685  -0.001956   0.005011
    19  C   -0.000392  -0.004725   0.011052  -0.000413   0.007228   0.001925
    20  H    0.000002   0.000130   0.002567   0.000351  -0.002855  -0.000078
    21  C   -0.000078   0.005472  -0.002627  -0.000194   0.000221  -0.000116
    22  H   -0.000001   0.000027  -0.000068  -0.000003  -0.000020  -0.000000
    23  C    0.002569  -0.004546   0.007308  -0.000310   0.000303  -0.002628
    24  H   -0.002858   0.001072   0.000303  -0.000034  -0.000009   0.000220
    25  H    0.000351  -0.000487  -0.000311   0.000019  -0.000034  -0.000193
    26  C   -0.001305  -0.000707  -0.001688   0.000064  -0.000026   0.001339
    27  H   -0.000028   0.000407   0.000019  -0.000001  -0.000003  -0.000023
    28  H    0.002214  -0.004197   0.000669   0.000008   0.000018   0.000124
              13         14         15         16         17         18
     1  C   -0.000001   0.000087  -0.000000  -0.000352   0.000035   0.000001
     2  C    0.000006  -0.006703   0.000132   0.014217   0.002009  -0.000019
     3  H    0.000000  -0.000000  -0.000000   0.000000  -0.000000   0.000000
     4  H    0.000027  -0.000358  -0.000109  -0.000696  -0.004190   0.000407
     5  C   -0.032300  -0.054182   0.004826  -0.000284   0.008277  -0.002682
     6  C    0.003720   0.011916  -0.001728  -0.077368  -0.007894   0.012689
     7  H   -0.004401   0.004996  -0.000149  -0.001420   0.000003   0.000051
     8  H   -0.000100  -0.003188   0.000045   0.008246  -0.000160  -0.000146
     9  C    0.000375  -0.092300   0.005419   0.341726  -0.029568  -0.040353
    10  H   -0.000137   0.001370  -0.000096  -0.026822   0.005765  -0.007685
    11  H    0.000038   0.013295  -0.000082  -0.054248  -0.005773  -0.001956
    12  C    0.422926   0.498580  -0.033556  -0.049566  -0.009945   0.005011
    13  H    0.497907  -0.029765  -0.005906   0.004712  -0.000430  -0.000140
    14  C   -0.029765   5.223546   0.427883   0.274372  -0.035777  -0.031588
    15  H   -0.005906   0.427883   0.493045  -0.030456   0.000872  -0.004306
    16  C    0.004712   0.274372  -0.030456   4.969336   0.400156   0.419185
    17  H   -0.000430  -0.035777   0.000872   0.400156   0.582805  -0.023237
    18  H   -0.000140  -0.031588  -0.004306   0.419185  -0.023237   0.547218
    19  C    0.000056   0.001498  -0.000015  -0.009940  -0.003050   0.000229
    20  H   -0.000001   0.000077   0.000003  -0.001306   0.002210  -0.000028
    21  C   -0.000000  -0.000232  -0.000001   0.001337   0.000122  -0.000023
    22  H    0.000000  -0.000001   0.000000   0.000005  -0.000003  -0.000001
    23  C   -0.000068   0.002394  -0.000003  -0.001686   0.000670   0.000018
    24  H   -0.000020  -0.000256   0.000004  -0.000026   0.000018  -0.000003
    25  H   -0.000003  -0.000020  -0.000001   0.000064   0.000008  -0.000001
    26  C    0.000005  -0.000352   0.000000   0.000351  -0.000040  -0.000000
    27  H   -0.000001   0.000001   0.000000  -0.000001   0.000001  -0.000000
    28  H   -0.000003   0.000035  -0.000000  -0.000039  -0.000008   0.000001
              19         20         21         22         23         24
     1  C   -0.054202   0.004997   0.498584  -0.029750  -0.092278   0.013293
     2  C    0.330763  -0.035690  -0.065382   0.003715   0.252115  -0.058158
     3  H    0.004819  -0.000149  -0.033509  -0.005906   0.005419  -0.000082
     4  H   -0.046338  -0.006246   0.007257  -0.000101  -0.018567  -0.003400
     5  C   -0.007206  -0.000391   0.001922   0.000056   0.011083   0.007222
     6  C   -0.112927  -0.001246   0.010851   0.000006  -0.058717  -0.008261
     7  H   -0.000392   0.000002  -0.000078  -0.000001   0.002569  -0.002858
     8  H   -0.004725   0.000130   0.005472   0.000027  -0.004546   0.001072
     9  C    0.011052   0.002567  -0.002627  -0.000068   0.007308   0.000303
    10  H   -0.000413   0.000351  -0.000194  -0.000003  -0.000310  -0.000034
    11  H    0.007228  -0.002855   0.000221  -0.000020   0.000303  -0.000009
    12  C    0.001925  -0.000078  -0.000116  -0.000000  -0.002628   0.000220
    13  H    0.000056  -0.000001  -0.000000   0.000000  -0.000068  -0.000020
    14  C    0.001498   0.000077  -0.000232  -0.000001   0.002394  -0.000256
    15  H   -0.000015   0.000003  -0.000001   0.000000  -0.000003   0.000004
    16  C   -0.009940  -0.001306   0.001337   0.000005  -0.001686  -0.000026
    17  H   -0.003050   0.002210   0.000122  -0.000003   0.000670   0.000018
    18  H    0.000229  -0.000028  -0.000023  -0.000001   0.000018  -0.000003
    19  C    5.295468   0.438371   0.377543  -0.032309  -0.049562   0.011630
    20  H    0.438371   0.482604  -0.037890  -0.004397   0.003827  -0.000051
    21  C    0.377543  -0.037890   5.016546   0.422925   0.027938  -0.005123
    22  H   -0.032309  -0.004397   0.422925   0.497906   0.000376   0.000038
    23  C   -0.049562   0.003827   0.027938   0.000376   4.991042   0.455313
    24  H    0.011630  -0.000051  -0.005123   0.000038   0.455313   0.533665
    25  H   -0.003345   0.000096   0.001591  -0.000137   0.406106  -0.018915
    26  C   -0.000256  -0.001422  -0.049579   0.004713   0.341716  -0.054249
    27  H   -0.002681   0.000051   0.005011  -0.000140  -0.040337  -0.001956
    28  H    0.008264   0.000003  -0.009920  -0.000430  -0.029579  -0.005778
              25         26         27         28
     1  C    0.001378   0.274389  -0.031600  -0.035782
     2  C   -0.046042  -0.077383   0.012690  -0.007895
     3  H   -0.000096  -0.030471  -0.004306   0.000871
     4  H   -0.004919   0.008248  -0.000146  -0.000160
     5  C   -0.000413  -0.009937   0.000229  -0.003045
     6  C    0.007488   0.014213  -0.000019   0.002007
     7  H    0.000351  -0.001305  -0.000028   0.002214
     8  H   -0.000487  -0.000707   0.000407  -0.004197
     9  C   -0.000311  -0.001688   0.000019   0.000669
    10  H    0.000019   0.000064  -0.000001   0.000008
    11  H   -0.000034  -0.000026  -0.000003   0.000018
    12  C   -0.000193   0.001339  -0.000023   0.000124
    13  H   -0.000003   0.000005  -0.000001  -0.000003
    14  C   -0.000020  -0.000352   0.000001   0.000035
    15  H   -0.000001   0.000000   0.000000  -0.000000
    16  C    0.000064   0.000351  -0.000001  -0.000039
    17  H    0.000008  -0.000040   0.000001  -0.000008
    18  H   -0.000001  -0.000000  -0.000000   0.000001
    19  C   -0.003345  -0.000256  -0.002681   0.008264
    20  H    0.000096  -0.001422   0.000051   0.000003
    21  C    0.001591  -0.049579   0.005011  -0.009920
    22  H   -0.000137   0.004713  -0.000140  -0.000430
    23  C    0.406106   0.341716  -0.040337  -0.029579
    24  H   -0.018915  -0.054249  -0.001956  -0.005778
    25  H    0.568068  -0.026823  -0.007684   0.005767
    26  C   -0.026823   4.969289   0.419186   0.400132
    27  H   -0.007684   0.419186   0.547205  -0.023248
    28  H    0.005767   0.400132  -0.023248   0.582929
          Atomic-Atomic Spin Densities.
               1          2          3          4          5          6
     1  C    0.543931   0.001954  -0.000555   0.000189   0.000184   0.006372
     2  C    0.001954  -0.301259   0.000103   0.007009   0.084218  -0.000010
     3  H   -0.000555   0.000103  -0.019846  -0.000001  -0.000001  -0.000040
     4  H    0.000189   0.007009  -0.000001   0.016120  -0.006331  -0.013383
     5  C    0.000184   0.084218  -0.000001  -0.006331  -0.720388   0.034696
     6  C    0.006372  -0.000010  -0.000040  -0.013383   0.034696   0.301237
     7  H   -0.000000  -0.000465  -0.000000  -0.000012   0.002152  -0.000052
     8  H   -0.002175   0.013384   0.000001  -0.000000  -0.001586  -0.007003
     9  C   -0.000038   0.016134   0.000000   0.001515  -0.001326  -0.018066
    10  H    0.000068  -0.000948   0.000000  -0.000076   0.001491  -0.002617
    11  H   -0.000312  -0.000896   0.000001   0.000240  -0.000209  -0.003705
    12  C   -0.000107  -0.012853   0.000000   0.003266   0.017373  -0.019171
    13  H   -0.000000  -0.000202   0.000000   0.000049   0.001114  -0.000403
    14  C    0.000000  -0.006373   0.000000   0.002177   0.047862  -0.001954
    15  H   -0.000000   0.000040  -0.000000  -0.000001   0.000168  -0.000103
    16  C   -0.000028   0.001321  -0.000000  -0.001011  -0.004353   0.001274
    17  H    0.000020   0.004419   0.000000  -0.001381  -0.004965   0.003748
    18  H   -0.000001  -0.000398  -0.000000   0.000076   0.000555  -0.000851
    19  C   -0.047862  -0.034689  -0.000168   0.001584   0.000001  -0.084194
    20  H   -0.000285   0.000047   0.000005   0.000329   0.000105   0.000466
    21  C    0.006229   0.019165   0.000158  -0.001718  -0.001695   0.012844
    22  H   -0.000571   0.000403   0.000203  -0.000030  -0.000016   0.000201
    23  C    0.003225   0.018080  -0.000239   0.003955  -0.004103  -0.016126
    24  H    0.000200   0.003704   0.000003  -0.000481  -0.004920   0.000896
    25  H   -0.001119   0.002616  -0.000000   0.000097   0.001278   0.000948
    26  C   -0.026094  -0.001275   0.000892  -0.000001  -0.000949  -0.001319
    27  H   -0.006509   0.000850   0.000110  -0.000054   0.000019   0.000397
    28  H   -0.016057  -0.003748   0.000021   0.000240   0.000302  -0.004420
               7          8          9         10         11         12
     1  C   -0.000000  -0.002175  -0.000038   0.000068  -0.000312  -0.000107
     2  C   -0.000465   0.013384   0.016134  -0.000948  -0.000896  -0.012853
     3  H   -0.000000   0.000001   0.000000   0.000000   0.000001   0.000000
     4  H   -0.000012  -0.000000   0.001515  -0.000076   0.000240   0.003266
     5  C    0.002152  -0.001586  -0.001326   0.001491  -0.000209   0.017373
     6  C   -0.000052  -0.007003  -0.018066  -0.002617  -0.003705  -0.019171
     7  H    0.023851  -0.000329   0.000244   0.000024  -0.000008  -0.002028
     8  H   -0.000329  -0.016120  -0.003956  -0.000097   0.000480   0.001719
     9  C    0.000244  -0.003956  -0.011205   0.003677   0.001011   0.005319
    10  H    0.000024  -0.000097   0.003677   0.007403  -0.001890  -0.000903
    11  H   -0.000008   0.000480   0.001011  -0.001890   0.003087   0.000206
    12  C   -0.002028   0.001719   0.005319  -0.000903   0.000206   0.224464
    13  H   -0.000245   0.000030   0.000152  -0.000029   0.000003  -0.001300
    14  C    0.000285  -0.000189  -0.003229   0.001120  -0.000200  -0.006235
    15  H   -0.000005   0.000001   0.000239   0.000000  -0.000003  -0.000159
    16  C   -0.000065   0.000001  -0.004359  -0.001495   0.000373  -0.003921
    17  H    0.000016  -0.000239   0.001272   0.000099  -0.000052   0.001504
    18  H   -0.000000   0.000054  -0.002059   0.000232  -0.000084  -0.001005
    19  C   -0.000104   0.006325   0.004090  -0.001278   0.004923   0.001696
    20  H   -0.000000   0.000012  -0.000173  -0.000010   0.000158  -0.000034
    21  C    0.000034  -0.003264  -0.000643   0.000149  -0.000489   0.000000
    22  H    0.000000  -0.000049  -0.000007   0.000002  -0.000021   0.000000
    23  C    0.000173  -0.001517  -0.000001  -0.000004   0.000216   0.000645
    24  H   -0.000158  -0.000240  -0.000216   0.000006  -0.000000   0.000489
    25  H    0.000010   0.000076   0.000004  -0.000000  -0.000006  -0.000149
    26  C   -0.000119   0.001010   0.000023  -0.000020   0.000037   0.000250
    27  H   -0.000003  -0.000076  -0.000008   0.000000  -0.000002  -0.000014
    28  H    0.000040   0.001380   0.000188  -0.000025   0.000048   0.000158
              13         14         15         16         17         18
     1  C   -0.000000   0.000000  -0.000000  -0.000028   0.000020  -0.000001
     2  C   -0.000202  -0.006373   0.000040   0.001321   0.004419  -0.000398
     3  H    0.000000   0.000000  -0.000000  -0.000000   0.000000  -0.000000
     4  H    0.000049   0.002177  -0.000001  -0.001011  -0.001381   0.000076
     5  C    0.001114   0.047862   0.000168  -0.004353  -0.004965   0.000555
     6  C   -0.000403  -0.001954  -0.000103   0.001274   0.003748  -0.000851
     7  H   -0.000245   0.000285  -0.000005  -0.000065   0.000016  -0.000000
     8  H    0.000030  -0.000189   0.000001   0.000001  -0.000239   0.000054
     9  C    0.000152  -0.003229   0.000239  -0.004359   0.001272  -0.002059
    10  H   -0.000029   0.001120   0.000000  -0.001495   0.000099   0.000232
    11  H    0.000003  -0.000200  -0.000003   0.000373  -0.000052  -0.000084
    12  C   -0.001300  -0.006235  -0.000159  -0.003921   0.001504  -0.001005
    13  H   -0.007783   0.000571  -0.000203  -0.000067   0.000038  -0.000017
    14  C    0.000571  -0.543917   0.000556   0.026101   0.016055   0.006507
    15  H   -0.000203   0.000556   0.019845  -0.000892  -0.000021  -0.000110
    16  C   -0.000067   0.026101  -0.000892   0.029420  -0.009282  -0.003865
    17  H    0.000038   0.016055  -0.000021  -0.009282  -0.042643   0.006961
    18  H   -0.000017   0.006507  -0.000110  -0.003865   0.006961  -0.017083
    19  C    0.000016  -0.000185   0.000001   0.000951  -0.000301  -0.000019
    20  H   -0.000000  -0.000000   0.000000   0.000119  -0.000040   0.000003
    21  C   -0.000000   0.000106  -0.000000  -0.000250  -0.000158   0.000014
    22  H    0.000000   0.000000  -0.000000  -0.000003  -0.000002   0.000000
    23  C    0.000007   0.000039  -0.000000  -0.000023  -0.000188   0.000008
    24  H    0.000021   0.000312  -0.000001  -0.000037  -0.000048   0.000002
    25  H   -0.000002  -0.000068  -0.000000   0.000020   0.000025  -0.000000
    26  C    0.000003   0.000028   0.000000  -0.000000  -0.000017   0.000001
    27  H   -0.000000   0.000001   0.000000  -0.000001   0.000000   0.000000
    28  H    0.000002  -0.000020  -0.000000   0.000018  -0.000000  -0.000000
              19         20         21         22         23         24
     1  C   -0.047862  -0.000285   0.006229  -0.000571   0.003225   0.000200
     2  C   -0.034689   0.000047   0.019165   0.000403   0.018080   0.003704
     3  H   -0.000168   0.000005   0.000158   0.000203  -0.000239   0.000003
     4  H    0.001584   0.000329  -0.001718  -0.000030   0.003955  -0.000481
     5  C    0.000001   0.000105  -0.001695  -0.000016  -0.004103  -0.004920
     6  C   -0.084194   0.000466   0.012844   0.000201  -0.016126   0.000896
     7  H   -0.000104  -0.000000   0.000034   0.000000   0.000173  -0.000158
     8  H    0.006325   0.000012  -0.003264  -0.000049  -0.001517  -0.000240
     9  C    0.004090  -0.000173  -0.000643  -0.000007  -0.000001  -0.000216
    10  H   -0.001278  -0.000010   0.000149   0.000002  -0.000004   0.000006
    11  H    0.004923   0.000158  -0.000489  -0.000021   0.000216  -0.000000
    12  C    0.001696  -0.000034   0.000000   0.000000   0.000645   0.000489
    13  H    0.000016  -0.000000  -0.000000   0.000000   0.000007   0.000021
    14  C   -0.000185  -0.000000   0.000106   0.000000   0.000039   0.000312
    15  H    0.000001   0.000000  -0.000000  -0.000000  -0.000000  -0.000001
    16  C    0.000951   0.000119  -0.000250  -0.000003  -0.000023  -0.000037
    17  H   -0.000301  -0.000040  -0.000158  -0.000002  -0.000188  -0.000048
    18  H   -0.000019   0.000003   0.000014   0.000000   0.000008   0.000002
    19  C    0.720364  -0.002157  -0.017358  -0.001113   0.001323   0.000209
    20  H   -0.002157  -0.023841   0.002033   0.000245  -0.000245   0.000008
    21  C   -0.017358   0.002033  -0.224476   0.001299  -0.005315  -0.000205
    22  H   -0.001113   0.000245   0.001299   0.007783  -0.000152  -0.000003
    23  C    0.001323  -0.000245  -0.005315  -0.000152   0.011198  -0.001013
    24  H    0.000209   0.000008  -0.000205  -0.000003  -0.001013  -0.003086
    25  H   -0.001491  -0.000024   0.000902   0.000029  -0.003675   0.001889
    26  C    0.004348   0.000065   0.003925   0.000068   0.004361  -0.000372
    27  H   -0.000554   0.000000   0.001003   0.000017   0.002061   0.000084
    28  H    0.004964  -0.000016  -0.001501  -0.000038  -0.001274   0.000052
              25         26         27         28
     1  C   -0.001119  -0.026094  -0.006509  -0.016057
     2  C    0.002616  -0.001275   0.000850  -0.003748
     3  H   -0.000000   0.000892   0.000110   0.000021
     4  H    0.000097  -0.000001  -0.000054   0.000240
     5  C    0.001278  -0.000949   0.000019   0.000302
     6  C    0.000948  -0.001319   0.000397  -0.004420
     7  H    0.000010  -0.000119  -0.000003   0.000040
     8  H    0.000076   0.001010  -0.000076   0.001380
     9  C    0.000004   0.000023  -0.000008   0.000188
    10  H   -0.000000  -0.000020   0.000000  -0.000025
    11  H   -0.000006   0.000037  -0.000002   0.000048
    12  C   -0.000149   0.000250  -0.000014   0.000158
    13  H   -0.000002   0.000003  -0.000000   0.000002
    14  C   -0.000068   0.000028   0.000001  -0.000020
    15  H   -0.000000   0.000000   0.000000  -0.000000
    16  C    0.000020  -0.000000  -0.000001   0.000018
    17  H    0.000025  -0.000017   0.000000  -0.000000
    18  H   -0.000000   0.000001   0.000000  -0.000000
    19  C   -0.001491   0.004348  -0.000554   0.004964
    20  H   -0.000024   0.000065   0.000000  -0.000016
    21  C    0.000902   0.003925   0.001003  -0.001501
    22  H    0.000029   0.000068   0.000017  -0.000038
    23  C   -0.003675   0.004361   0.002061  -0.001274
    24  H    0.001889  -0.000372   0.000084   0.000052
    25  H   -0.007403   0.001494  -0.000232  -0.000098
    26  C    0.001494  -0.029424   0.003868   0.009272
    27  H   -0.000232   0.003868   0.017082  -0.006962
    28  H   -0.000098   0.009272  -0.006962   0.042659
 Mulliken charges and spin densities:
               1          2
     1  C   -0.205309   0.460661
     2  C   -0.162767  -0.189671
     3  H    0.144174  -0.019353
     4  H    0.148120   0.012367
     5  C   -0.161358  -0.559325
     6  C   -0.162753   0.189662
     7  H    0.156279   0.023233
     8  H    0.148193  -0.012367
     9  C   -0.209849  -0.011418
    10  H    0.118470   0.004879
    11  H    0.136338   0.002905
    12  C   -0.172685   0.209209
    13  H    0.143505  -0.008248
    14  C   -0.205327  -0.460650
    15  H    0.144179   0.019352
    16  C   -0.179495   0.029945
    17  H    0.117125  -0.025182
    18  H    0.127356  -0.011080
    19  C   -0.161489   0.559321
    20  H    0.156460  -0.023229
    21  C   -0.172646  -0.209211
    22  H    0.143500   0.008248
    23  C   -0.209916   0.011416
    24  H    0.136399  -0.002904
    25  H    0.118486  -0.004879
    26  C   -0.179406  -0.029944
    27  H    0.127372   0.011079
    28  H    0.117042   0.025184
 Sum of Mulliken charges =  -0.00000   0.00000
 Mulliken charges and spin densities with hydrogens summed into heavy atoms:
               1          2
     1  C   -0.061135   0.441308
     2  C   -0.014647  -0.177304
     5  C   -0.005079  -0.536091
     6  C   -0.014560   0.177295
     9  C    0.044960  -0.003634
    12  C   -0.029181   0.200961
    14  C   -0.061148  -0.441298
    16  C    0.064986  -0.006317
    19  C   -0.005028   0.536092
    21  C   -0.029145  -0.200964
    23  C    0.044970   0.003633
    26  C    0.065008   0.006319
 Electronic spatial extent (au):  <R**2>=           2190.3536
 Charge=             -0.0000 electrons
 Dipole moment (field-independent basis, Debye):
    X=              0.0004    Y=             -0.0007    Z=             -0.0002  Tot=              0.0009
 Quadrupole moment (field-independent basis, Debye-Ang):
   XX=            -72.3715   YY=            -70.8802   ZZ=            -76.4860
   XY=             -2.8638   XZ=             -3.1198   YZ=             -0.5885
 Traceless Quadrupole moment (field-independent basis, Debye-Ang):
   XX=              0.8744   YY=              2.3657   ZZ=             -3.2401
   XY=             -2.8638   XZ=             -3.1198   YZ=             -0.5885
 Octapole moment (field-independent basis, Debye-Ang**2):
  XXX=              0.0093  YYY=             -0.0039  ZZZ=             -0.0006  XYY=              0.0008
  XXY=             -0.0016  XXZ=             -0.0003  XZZ=             -0.0007  YZZ=             -0.0008
  YYZ=             -0.0023  XYZ=              0.0015
 Hexadecapole moment (field-independent basis, Debye-Ang**3):
 XXXX=          -2025.9031 YYYY=           -636.4859 ZZZZ=           -311.7867 XXXY=            -93.9263
 XXXZ=           -115.4461 YYYX=            -59.7220 YYYZ=              0.0951 ZZZX=            -64.9759
 ZZZY=             -7.4320 XXYY=           -442.7903 XXZZ=           -416.8325 YYZZ=           -173.0996
 XXYZ=            -20.2194 YYXZ=            -25.4401 ZZXY=            -41.1010
 N-N= 6.918993352753D+02 E-N=-2.465306368860D+03  KE= 4.640044508483D+02
                          Isotropic Fermi Contact Couplings
        Atom                 a.u.       MegaHertz       Gauss      10(-4) cm-1
     1  C(13)              0.03499      19.66522       7.01704       6.55961
     2  C(13)             -0.07961     -44.75020     -15.96799     -14.92706
     3  H(1)              -0.00693     -15.48107      -5.52403      -5.16393
     4  H(1)               0.00673      15.03314       5.36420       5.01452
     5  C(13)             -0.04336     -24.37003      -8.69583      -8.12897
     6  C(13)              0.07961      44.75084      15.96821      14.92727
     7  H(1)               0.00846      18.90393       6.74539       6.30567
     8  H(1)              -0.00673     -15.03367      -5.36439      -5.01469
     9  C(13)             -0.00834      -4.68516      -1.67178      -1.56280
    10  H(1)               0.00275       6.15709       2.19700       2.05378
    11  H(1)               0.00070       1.55738       0.55571       0.51949
    12  C(13)              0.03770      21.19329       7.56229       7.06932
    13  H(1)              -0.00268      -5.99143      -2.13789      -1.99853
    14  C(13)             -0.03498     -19.66439      -7.01674      -6.55933
    15  H(1)               0.00693      15.48083       5.52394       5.16385
    16  C(13)              0.01564       8.78995       3.13647       2.93201
    17  H(1)              -0.01225     -27.38100      -9.77022      -9.13332
    18  H(1)              -0.00528     -11.80947      -4.21391      -3.93922
    19  C(13)              0.04335      24.36886       8.69542       8.12858
    20  H(1)              -0.00846     -18.90424      -6.74550      -6.30577
    21  C(13)             -0.03770     -21.19350      -7.56237      -7.06939
    22  H(1)               0.00268       5.99149       2.13791       1.99855
    23  C(13)              0.00834       4.68517       1.67179       1.56281
    24  H(1)              -0.00070      -1.55739      -0.55572      -0.51949
    25  H(1)              -0.00275      -6.15725      -2.19706      -2.05384
    26  C(13)             -0.01564      -8.79037      -3.13662      -2.93215
    27  H(1)               0.00528      11.80951       4.21393       3.93923
    28  H(1)               0.01225      27.38048       9.77004       9.13315
 --------------------------------------------------------
       Center         ----  Spin Dipole Couplings  ----
                      3XX-RR        3YY-RR        3ZZ-RR
 --------------------------------------------------------
     1   Atom       -0.097551     -0.271225      0.368776
     2   Atom        0.036855      0.106489     -0.143343
     3   Atom        0.026402     -0.034380      0.007978
     4   Atom       -0.004080      0.012881     -0.008800
     5   Atom        0.198958      0.333617     -0.532575
     6   Atom       -0.036853     -0.106486      0.143339
     7   Atom        0.013655     -0.012849     -0.000806
     8   Atom        0.004080     -0.012880      0.008800
     9   Atom        0.000021     -0.005815      0.005794
    10   Atom        0.003627     -0.002794     -0.000833
    11   Atom        0.004476     -0.004781      0.000305
    12   Atom       -0.062375     -0.094973      0.157348
    13   Atom       -0.007319      0.003397      0.003923
    14   Atom        0.097546      0.271217     -0.368763
    15   Atom       -0.026401      0.034379     -0.007978
    16   Atom        0.003993     -0.002770     -0.001223
    17   Atom        0.006216     -0.007122      0.000907
    18   Atom        0.005151     -0.008271      0.003121
    19   Atom       -0.198954     -0.333612      0.532565
    20   Atom       -0.013655      0.012849      0.000806
    21   Atom        0.062377      0.094975     -0.157352
    22   Atom        0.007320     -0.003397     -0.003923
    23   Atom       -0.000020      0.005815     -0.005794
    24   Atom       -0.004476      0.004781     -0.000305
    25   Atom       -0.003627      0.002794      0.000833
    26   Atom       -0.003992      0.002771      0.001221
    27   Atom       -0.005151      0.008271     -0.003121
    28   Atom       -0.006216      0.007123     -0.000907
 --------------------------------------------------------
                        XY            XZ            YZ
 --------------------------------------------------------
     1   Atom       -0.003656      0.320990     -0.011023
     2   Atom       -0.023924     -0.135155     -0.059712
     3   Atom        0.006435     -0.013669     -0.003959
     4   Atom        0.002970      0.003064     -0.007818
     5   Atom        0.014530     -0.333968      0.002217
     6   Atom        0.023923      0.135151      0.059710
     7   Atom        0.039017     -0.006334     -0.013053
     8   Atom       -0.002970     -0.003064      0.007818
     9   Atom        0.009992      0.009282     -0.003593
    10   Atom       -0.000100      0.003584      0.003963
    11   Atom       -0.004034      0.006893      0.000387
    12   Atom        0.009303      0.119580     -0.017233
    13   Atom        0.006915      0.006959     -0.002931
    14   Atom        0.003654     -0.320983      0.011017
    15   Atom       -0.006434      0.013669      0.003958
    16   Atom       -0.001741     -0.007188      0.000572
    17   Atom       -0.003285     -0.001794     -0.003764
    18   Atom        0.001694      0.000415      0.002139
    19   Atom       -0.014530      0.333963     -0.002218
    20   Atom       -0.039016      0.006333      0.013053
    21   Atom       -0.009304     -0.119582      0.017233
    22   Atom       -0.006915     -0.006959      0.002931
    23   Atom       -0.009991     -0.009282      0.003594
    24   Atom        0.004034     -0.006893     -0.000387
    25   Atom        0.000100     -0.003585     -0.003963
    26   Atom        0.001741      0.007186     -0.000572
    27   Atom       -0.001694     -0.000415     -0.002139
    28   Atom        0.003285      0.001794      0.003763
 --------------------------------------------------------


 ---------------------------------------------------------------------------------
              Anisotropic Spin Dipole Couplings in Principal Axis System
 ---------------------------------------------------------------------------------

       Atom             a.u.   MegaHertz   Gauss  10(-4) cm-1        Axes

              Baa    -0.2717   -36.457   -13.009   -12.161 -0.1391  0.9865  0.0867
     1 C(13)  Bbb    -0.2608   -35.002   -12.489   -11.675  0.8801  0.1633 -0.4458
              Bcc     0.5325    71.458    25.498    23.836  0.4540 -0.0143  0.8909
 
              Baa    -0.2279   -30.583   -10.913   -10.201  0.4600  0.1879  0.8678
     2 C(13)  Bbb     0.1055    14.160     5.053     4.723  0.8228 -0.4576 -0.3370
              Bcc     0.1224    16.423     5.860     5.478  0.3338  0.8691 -0.3651
 
              Baa    -0.0352   -18.787    -6.704    -6.267 -0.0899  0.9940  0.0627
     3 H(1)   Bbb     0.0007     0.380     0.136     0.127  0.4722 -0.0128  0.8814
              Bcc     0.0345    18.407     6.568     6.140  0.8769  0.1088 -0.4682
 
              Baa    -0.0130    -6.933    -2.474    -2.312 -0.3993  0.3069  0.8639
     4 H(1)   Bbb    -0.0026    -1.386    -0.495    -0.462  0.9116  0.0321  0.4099
              Bcc     0.0156     8.319     2.968     2.775  0.0980  0.9512 -0.2926
 
              Baa    -0.6622   -88.856   -31.706   -29.639  0.3617 -0.0074  0.9323
     5 C(13)  Bbb     0.3181    42.683    15.230    14.237  0.7202 -0.6327 -0.2844
              Bcc     0.3441    46.173    16.476    15.402  0.5920  0.7743 -0.2236
 
              Baa    -0.1224   -16.422    -5.860    -5.478  0.3338  0.8691 -0.3651
     6 C(13)  Bbb    -0.1055   -14.160    -5.053    -4.723  0.8228 -0.4576 -0.3371
              Bcc     0.2279    30.582    10.912    10.201  0.4600  0.1879  0.8678
 
              Baa    -0.0420   -22.422    -8.001    -7.479 -0.5519  0.8157  0.1735
     7 H(1)   Bbb    -0.0032    -1.688    -0.602    -0.563  0.3207  0.0155  0.9471
              Bcc     0.0452    24.110     8.603     8.042  0.7698  0.5783 -0.2701
 
              Baa    -0.0156    -8.318    -2.968    -2.775  0.0980  0.9512 -0.2926
     8 H(1)   Bbb     0.0026     1.386     0.495     0.462  0.9116  0.0321  0.4099
              Bcc     0.0130     6.932     2.474     2.312 -0.3993  0.3069  0.8640
 
              Baa    -0.0167    -2.235    -0.797    -0.745 -0.6200  0.6933  0.3673
     9 C(13)  Bbb     0.0034     0.452     0.161     0.151  0.4210  0.6890 -0.5899
              Bcc     0.0133     1.783     0.636     0.595  0.6621  0.2111  0.7191
 
              Baa    -0.0065    -3.449    -1.231    -1.150  0.2402  0.7153 -0.6563
    10 H(1)   Bbb     0.0004     0.210     0.075     0.070 -0.5505  0.6572  0.5148
              Bcc     0.0061     3.239     1.156     1.080  0.7995  0.2376  0.5516
 
              Baa    -0.0078    -4.152    -1.482    -1.385  0.5006  0.7323 -0.4617
    11 H(1)   Bbb    -0.0024    -1.299    -0.463    -0.433 -0.3118  0.6501  0.6930
              Bcc     0.0102     5.451     1.945     1.818  0.8076 -0.2029  0.5537
 
              Baa    -0.1234   -16.562    -5.910    -5.524  0.7946 -0.4829 -0.3681
    12 C(13)  Bbb    -0.0869   -11.665    -4.162    -3.891  0.4566  0.8748 -0.1618
              Bcc     0.2103    28.227    10.072     9.415  0.4001 -0.0395  0.9156
 
              Baa    -0.0139    -7.416    -2.646    -2.474  0.8305 -0.3981 -0.3897
    13 H(1)   Bbb     0.0065     3.479     1.242     1.161  0.1646  0.8437 -0.5109
              Bcc     0.0074     3.937     1.405     1.313  0.5322  0.3601  0.7662
 
              Baa    -0.5325   -71.456   -25.497   -23.835  0.4540 -0.0143  0.8909
    14 C(13)  Bbb     0.2608    35.001    12.489    11.675  0.8801  0.1633 -0.4458
              Bcc     0.2717    36.456    13.008    12.160 -0.1391  0.9865  0.0867
 
              Baa    -0.0345   -18.407    -6.568    -6.140  0.8769  0.1088 -0.4682
    15 H(1)   Bbb    -0.0007    -0.380    -0.136    -0.127  0.4722 -0.0128  0.8814
              Bcc     0.0352    18.787     6.704     6.267 -0.0899  0.9940  0.0626
 
              Baa    -0.0063    -0.851    -0.304    -0.284  0.5815  0.1554  0.7986
    16 C(13)  Bbb    -0.0029    -0.395    -0.141    -0.132  0.0275  0.9773 -0.2102
              Bcc     0.0093     1.246     0.445     0.416  0.8131 -0.1442 -0.5640
 
              Baa    -0.0095    -5.063    -1.807    -1.689  0.2304  0.9016  0.3661
    17 H(1)   Bbb     0.0024     1.256     0.448     0.419  0.0895 -0.3943  0.9146
              Bcc     0.0071     3.808     1.359     1.270  0.9690 -0.1779 -0.1715
 
              Baa    -0.0088    -4.717    -1.683    -1.574 -0.1134  0.9787 -0.1710
    18 H(1)   Bbb     0.0033     1.743     0.622     0.582 -0.3211  0.1268  0.9385
              Bcc     0.0056     2.974     1.061     0.992  0.9402  0.1614  0.2999
 
              Baa    -0.3441   -46.172   -16.475   -15.401  0.5920  0.7743 -0.2236
    19 C(13)  Bbb    -0.3181   -42.682   -15.230   -14.237  0.7202 -0.6327 -0.2844
              Bcc     0.6621    88.854    31.705    29.639  0.3617 -0.0074  0.9323
 
              Baa    -0.0452   -24.109    -8.603    -8.042  0.7698  0.5783 -0.2701
    20 H(1)   Bbb     0.0032     1.688     0.602     0.563  0.3207  0.0155  0.9471
              Bcc     0.0420    22.421     8.000     7.479 -0.5519  0.8157  0.1735
 
              Baa    -0.2104   -28.227   -10.072    -9.416  0.4001 -0.0395  0.9156
    21 C(13)  Bbb     0.0869    11.665     4.162     3.891  0.4566  0.8748 -0.1618
              Bcc     0.1234    16.562     5.910     5.524  0.7946 -0.4829 -0.3681
 
              Baa    -0.0074    -3.937    -1.405    -1.313  0.5322  0.3603  0.7661
    22 H(1)   Bbb    -0.0065    -3.479    -1.242    -1.161  0.1646  0.8437 -0.5110
              Bcc     0.0139     7.416     2.646     2.474  0.8305 -0.3981 -0.3897
 
              Baa    -0.0133    -1.783    -0.636    -0.595  0.6621  0.2110  0.7191
    23 C(13)  Bbb    -0.0034    -0.452    -0.161    -0.151  0.4210  0.6890 -0.5899
              Bcc     0.0167     2.235     0.797     0.745 -0.6200  0.6933  0.3674
 
              Baa    -0.0102    -5.451    -1.945    -1.818  0.8076 -0.2029  0.5537
    24 H(1)   Bbb     0.0024     1.299     0.463     0.433 -0.3118  0.6501  0.6930
              Bcc     0.0078     4.152     1.482     1.385  0.5006  0.7323 -0.4617
 
              Baa    -0.0061    -3.239    -1.156    -1.080  0.7995  0.2376  0.5516
    25 H(1)   Bbb    -0.0004    -0.210    -0.075    -0.070 -0.5505  0.6572  0.5148
              Bcc     0.0065     3.449     1.231     1.150  0.2402  0.7153 -0.6563
 
              Baa    -0.0093    -1.246    -0.445    -0.416  0.8131 -0.1442 -0.5640
    26 C(13)  Bbb     0.0029     0.395     0.141     0.132  0.0275  0.9773 -0.2103
              Bcc     0.0063     0.851     0.304     0.284  0.5815  0.1555  0.7986
 
              Baa    -0.0056    -2.974    -1.061    -0.992  0.9402  0.1614  0.2999
    27 H(1)   Bbb    -0.0033    -1.743    -0.622    -0.582 -0.3211  0.1268  0.9385
              Bcc     0.0088     4.717     1.683     1.574 -0.1134  0.9787 -0.1710
 
              Baa    -0.0071    -3.808    -1.359    -1.270  0.9690 -0.1780 -0.1715
    28 H(1)   Bbb    -0.0024    -1.256    -0.448    -0.419  0.0895 -0.3942  0.9146
              Bcc     0.0095     5.063     1.807     1.689  0.2304  0.9016  0.3661
 

 ---------------------------------------------------------------------------------

 No NMR shielding tensors so no spin-rotation constants.
 Leave Link  601 at Mon Aug  3 16:35:18 2020, MaxMem=  6442450944 cpu:               8.2 elap:               0.4
 (Enter /scratch/scicomp/CentOS/7.3.1611/Haswell/software/Gaussian/g16/l9999.exe)
 1\1\GINC-ATLAS-205\SP\UwB97XD\def2TZVP\C12H16\BOCHEN\03-Aug-2020\0\\#p
  uwb97xd guess=mix def2tzvp # scrf=(iefpcm,solvent=Cyclohexane,read) n
 osym 6d 10f\\endo-2 xp-pcm for eta=3\\0,1\C,0,-3.119365,-0.429886,0.24
 7711\C,0,-0.483238,-0.151143,-0.817662\H,0,-4.084691,-0.548341,0.72495
 \H,0,0.345292,-0.114825,-1.519981\C,0,1.109235,1.42387,0.67843\C,0,0.4
 83238,0.151143,0.817662\H,0,0.55031,2.325971,0.892085\H,0,-0.345292,0.
 114825,1.519981\C,0,1.461352,-0.99962,0.986645\H,0,1.894943,-0.928704,
 1.989628\H,0,0.934187,-1.953298,0.939348\C,0,2.402996,1.524681,0.11992
 7\H,0,2.824354,2.510372,-0.041948\C,0,3.119365,0.429886,-0.247711\H,0,
 4.084691,0.548341,-0.72495\C,0,2.592455,-0.958721,-0.043087\H,0,2.2472
 88,-1.357377,-1.005814\H,0,3.401438,-1.623242,0.270678\C,0,-1.109235,-
 1.42387,-0.67843\H,0,-0.55031,-2.325971,-0.892085\C,0,-2.402996,-1.524
 681,-0.119927\H,0,-2.824354,-2.510372,0.041948\C,0,-1.461352,0.99962,-
 0.986645\H,0,-0.934187,1.953298,-0.939348\H,0,-1.894943,0.928704,-1.98
 9628\C,0,-2.592455,0.958721,0.043088\H,0,-3.401438,1.623242,-0.270678\
 H,0,-2.247288,1.357377,1.005814\\Version=ES64L-G16RevB.01\HF=-466.8175
 492\S2=0.861002\S2-1=0.\S2A=0.362489\RMSD=8.899e-09\Dipole=0.0001461,-
 0.0002897,-0.0000829\Quadrupole=0.650063,1.7588526,-2.4089156,-2.12915
 91,-2.3194881,-0.4375223\PG=CI [X(C12H16)]\\@


 IF THE FACTS DO NOT CONFORM TO THE THEORY, THEY MUST BE DISPOSED OF.
 Job cpu time:       0 days  1 hours 59 minutes 31.6 seconds.
 Elapsed time:       0 days  0 hours  5 minutes  7.1 seconds.
 File lengths (MBytes):  RWF=    620 Int=      0 D2E=      0 Chk=     23 Scr=      1
 Normal termination of Gaussian 16 at Mon Aug  3 16:35:18 2020.
