 Entering Gaussian System, Link 0=g16
 Input=meso-TS_16_1_pcm.com
 Output=meso-TS_16_1_pcm.log
 Initial command:
 /scratch/scicomp/CentOS/7.3.1611/Haswell/software/Gaussian/g16/l1.exe "/scratch/bochen/cyclohexadiene-dimerization/wb97xd-def2tzvp/xp-pcm/meso/Gau-58327.inp" -scrdir="/scratch/bochen/cyclohexadiene-dimerization/wb97xd-def2tzvp/xp-pcm/meso/"
 Entering Link 1 = /scratch/scicomp/CentOS/7.3.1611/Haswell/software/Gaussian/g16/l1.exe PID=     58328.
  
 Copyright (c) 1988-2017, Gaussian, Inc.  All Rights Reserved.
  
 This is part of the Gaussian(R) 16 program.  It is based on
 the Gaussian(R) 09 system (copyright 2009, Gaussian, Inc.),
 the Gaussian(R) 03 system (copyright 2003, Gaussian, Inc.),
 the Gaussian(R) 98 system (copyright 1998, Gaussian, Inc.),
 the Gaussian(R) 94 system (copyright 1995, Gaussian, Inc.),
 the Gaussian 92(TM) system (copyright 1992, Gaussian, Inc.),
 the Gaussian 90(TM) system (copyright 1990, Gaussian, Inc.),
 the Gaussian 88(TM) system (copyright 1988, Gaussian, Inc.),
 the Gaussian 86(TM) system (copyright 1986, Carnegie Mellon
 University), and the Gaussian 82(TM) system (copyright 1983,
 Carnegie Mellon University). Gaussian is a federally registered
 trademark of Gaussian, Inc.
  
 This software contains proprietary and confidential information,
 including trade secrets, belonging to Gaussian, Inc.
  
 This software is provided under written license and may be
 used, copied, transmitted, or stored only in accord with that
 written license.
  
 The following legend is applicable only to US Government
 contracts under FAR:
  
                    RESTRICTED RIGHTS LEGEND
  
 Use, reproduction and disclosure by the US Government is
 subject to restrictions as set forth in subparagraphs (a)
 and (c) of the Commercial Computer Software - Restricted
 Rights clause in FAR 52.227-19.
  
 Gaussian, Inc.
 340 Quinnipiac St., Bldg. 40, Wallingford CT 06492
  
  
 ---------------------------------------------------------------
 Warning -- This program may not be used in any manner that
 competes with the business of Gaussian, Inc. or will provide
 assistance to any competitor of Gaussian, Inc.  The licensee
 of this program is prohibited from giving any competitor of
 Gaussian, Inc. access to this program.  By using this program,
 the user acknowledges that Gaussian, Inc. is engaged in the
 business of creating and licensing software in the field of
 computational chemistry and represents and warrants to the
 licensee that it is not a competitor of Gaussian, Inc. and that
 it will not use this program in any manner prohibited above.
 ---------------------------------------------------------------
  

 Cite this work as:
 Gaussian 16, Revision B.01,
 M. J. Frisch, G. W. Trucks, H. B. Schlegel, G. E. Scuseria, 
 M. A. Robb, J. R. Cheeseman, G. Scalmani, V. Barone, 
 G. A. Petersson, H. Nakatsuji, X. Li, M. Caricato, A. V. Marenich, 
 J. Bloino, B. G. Janesko, R. Gomperts, B. Mennucci, H. P. Hratchian, 
 J. V. Ortiz, A. F. Izmaylov, J. L. Sonnenberg, D. Williams-Young, 
 F. Ding, F. Lipparini, F. Egidi, J. Goings, B. Peng, A. Petrone, 
 T. Henderson, D. Ranasinghe, V. G. Zakrzewski, J. Gao, N. Rega, 
 G. Zheng, W. Liang, M. Hada, M. Ehara, K. Toyota, R. Fukuda, 
 J. Hasegawa, M. Ishida, T. Nakajima, Y. Honda, O. Kitao, H. Nakai, 
 T. Vreven, K. Throssell, J. A. Montgomery, Jr., J. E. Peralta, 
 F. Ogliaro, M. J. Bearpark, J. J. Heyd, E. N. Brothers, K. N. Kudin, 
 V. N. Staroverov, T. A. Keith, R. Kobayashi, J. Normand, 
 K. Raghavachari, A. P. Rendell, J. C. Burant, S. S. Iyengar, 
 J. Tomasi, M. Cossi, J. M. Millam, M. Klene, C. Adamo, R. Cammi, 
 J. W. Ochterski, R. L. Martin, K. Morokuma, O. Farkas, 
 J. B. Foresman, and D. J. Fox, Gaussian, Inc., Wallingford CT, 2016.
 
 ******************************************
 Gaussian 16:  ES64L-G16RevB.01 20-Dec-2017
                 3-Aug-2020 
 ******************************************
 %nproc=24
 Will use up to   24 processors via shared memory.
 %mem=48GB
 ----------------------------------------------------------------------
 #p uwb97xd guess=mix def2tzvp # scrf=(iefpcm,solvent=Cyclohexane,read)
  nosym 6d 10f
 ----------------------------------------------------------------------
 1/38=1,40=2,172=1/1;
 2/12=2,15=1,17=6,18=5,40=1/2;
 3/5=44,7=101,8=22,11=2,25=1,30=1,70=2203,72=17,74=-58,116=2/1,2,3;
 4/13=-1/1;
 5/5=2,38=5,53=17/2;
 6/7=2,8=2,9=2,10=2,28=1/1;
 99/5=1,9=1/99;
 Leave Link    1 at Mon Aug  3 16:49:23 2020, MaxMem=  6442450944 cpu:               1.6 elap:               0.1
 (Enter /scratch/scicomp/CentOS/7.3.1611/Haswell/software/Gaussian/g16/l101.exe)
 -----------------------
 endo-2 xp-pcm for eta=3
 -----------------------
 Symbolic Z-matrix:
 Charge =  0 Multiplicity = 1
 6                    -3.1195   -0.42494   0.24862 
 6                    -0.42425  -0.12187  -0.71477 
 1                    -4.08782  -0.54642   0.71845 
 1                     0.3294   -0.10766  -1.5049 
 6                     1.11572   1.43358   0.66368 
 6                     0.42425   0.12187   0.71477 
 1                     0.57207   2.33357   0.92248 
 1                    -0.3294    0.10766   1.5049 
 6                     1.44947  -0.99636   0.97346 
 1                     1.86081  -0.86876   1.97862 
 1                     0.95495  -1.96903   0.95371 
 6                     2.39442   1.53076   0.12703 
 1                     2.83084   2.51382  -0.01222 
 6                     3.1195    0.42494  -0.24862 
 1                     4.08782   0.54642  -0.71845 
 6                     2.59287  -0.96028  -0.04245 
 1                     2.24915  -1.36226  -1.00503 
 1                     3.40075  -1.62512   0.27493 
 6                    -1.11572  -1.43358  -0.66368 
 1                    -0.57207  -2.33357  -0.92248 
 6                    -2.39442  -1.53076  -0.12703 
 1                    -2.83084  -2.51382   0.01222 
 6                    -1.44947   0.99636  -0.97346 
 1                    -0.95495   1.96903  -0.95371 
 1                    -1.86081   0.86876  -1.97862 
 6                    -2.59287   0.96028   0.04245 
 1                    -3.40075   1.62512  -0.27493 
 1                    -2.24915   1.36226   1.00503 
 
 ITRead=  0  0  0  0  0  0  0  0  0  0  0  0  0  0  0  0  0  0  0  0
 ITRead=  0  0  0  0  0  0  0  0
 MicOpt= -1 -1 -1 -1 -1 -1 -1 -1 -1 -1 -1 -1 -1 -1 -1 -1 -1 -1 -1 -1
 MicOpt= -1 -1 -1 -1 -1 -1 -1 -1
 NAtoms=     28 NQM=       28 NQMF=       0 NMMI=      0 NMMIF=      0
                NMic=       0 NMicF=      0.
                    Isotopes and Nuclear Properties:
 (Nuclear quadrupole moments (NQMom) in fm**2, nuclear magnetic moments (NMagM)
  in nuclear magnetons)

  Atom         1           2           3           4           5           6           7           8           9          10
 IAtWgt=          12          12           1           1          12          12           1           1          12           1
 AtmWgt=  12.0000000  12.0000000   1.0078250   1.0078250  12.0000000  12.0000000   1.0078250   1.0078250  12.0000000   1.0078250
 NucSpn=           0           0           1           1           0           0           1           1           0           1
 AtZEff=  -0.0000000  -0.0000000  -0.0000000  -0.0000000  -0.0000000  -0.0000000  -0.0000000  -0.0000000  -0.0000000  -0.0000000
 NQMom=    0.0000000   0.0000000   0.0000000   0.0000000   0.0000000   0.0000000   0.0000000   0.0000000   0.0000000   0.0000000
 NMagM=    0.0000000   0.0000000   2.7928460   2.7928460   0.0000000   0.0000000   2.7928460   2.7928460   0.0000000   2.7928460
 AtZNuc=   6.0000000   6.0000000   1.0000000   1.0000000   6.0000000   6.0000000   1.0000000   1.0000000   6.0000000   1.0000000

  Atom        11          12          13          14          15          16          17          18          19          20
 IAtWgt=           1          12           1          12           1          12           1           1          12           1
 AtmWgt=   1.0078250  12.0000000   1.0078250  12.0000000   1.0078250  12.0000000   1.0078250   1.0078250  12.0000000   1.0078250
 NucSpn=           1           0           1           0           1           0           1           1           0           1
 AtZEff=  -0.0000000  -0.0000000  -0.0000000  -0.0000000  -0.0000000  -0.0000000  -0.0000000  -0.0000000  -0.0000000  -0.0000000
 NQMom=    0.0000000   0.0000000   0.0000000   0.0000000   0.0000000   0.0000000   0.0000000   0.0000000   0.0000000   0.0000000
 NMagM=    2.7928460   0.0000000   2.7928460   0.0000000   2.7928460   0.0000000   2.7928460   2.7928460   0.0000000   2.7928460
 AtZNuc=   1.0000000   6.0000000   1.0000000   6.0000000   1.0000000   6.0000000   1.0000000   1.0000000   6.0000000   1.0000000

  Atom        21          22          23          24          25          26          27          28
 IAtWgt=          12           1          12           1           1          12           1           1
 AtmWgt=  12.0000000   1.0078250  12.0000000   1.0078250   1.0078250  12.0000000   1.0078250   1.0078250
 NucSpn=           0           1           0           1           1           0           1           1
 AtZEff=  -0.0000000  -0.0000000  -0.0000000  -0.0000000  -0.0000000  -0.0000000  -0.0000000  -0.0000000
 NQMom=    0.0000000   0.0000000   0.0000000   0.0000000   0.0000000   0.0000000   0.0000000   0.0000000
 NMagM=    0.0000000   2.7928460   0.0000000   2.7928460   2.7928460   0.0000000   2.7928460   2.7928460
 AtZNuc=   6.0000000   1.0000000   6.0000000   1.0000000   1.0000000   6.0000000   1.0000000   1.0000000
 Leave Link  101 at Mon Aug  3 16:49:23 2020, MaxMem=  6442450944 cpu:               2.4 elap:               0.1
 (Enter /scratch/scicomp/CentOS/7.3.1611/Haswell/software/Gaussian/g16/l202.exe)
                          Input orientation:                          
 ---------------------------------------------------------------------
 Center     Atomic      Atomic             Coordinates (Angstroms)
 Number     Number       Type             X           Y           Z
 ---------------------------------------------------------------------
      1          6           0       -3.119495   -0.424944    0.248623
      2          6           0       -0.424245   -0.121866   -0.714774
      3          1           0       -4.087821   -0.546420    0.718451
      4          1           0        0.329403   -0.107658   -1.504901
      5          6           0        1.115717    1.433579    0.663678
      6          6           0        0.424245    0.121866    0.714774
      7          1           0        0.572069    2.333570    0.922475
      8          1           0       -0.329403    0.107658    1.504901
      9          6           0        1.449468   -0.996358    0.973459
     10          1           0        1.860814   -0.868763    1.978620
     11          1           0        0.954950   -1.969025    0.953713
     12          6           0        2.394417    1.530763    0.127030
     13          1           0        2.830840    2.513824   -0.012217
     14          6           0        3.119495    0.424944   -0.248623
     15          1           0        4.087821    0.546420   -0.718451
     16          6           0        2.592866   -0.960276   -0.042448
     17          1           0        2.249153   -1.362262   -1.005025
     18          1           0        3.400748   -1.625122    0.274929
     19          6           0       -1.115717   -1.433580   -0.663678
     20          1           0       -0.572069   -2.333570   -0.922475
     21          6           0       -2.394417   -1.530763   -0.127030
     22          1           0       -2.830840   -2.513824    0.012217
     23          6           0       -1.449468    0.996358   -0.973459
     24          1           0       -0.954950    1.969025   -0.953713
     25          1           0       -1.860814    0.868763   -1.978620
     26          6           0       -2.592866    0.960276    0.042448
     27          1           0       -3.400748    1.625122   -0.274929
     28          1           0       -2.249153    1.362262    1.005025
 ---------------------------------------------------------------------
                    Distance matrix (angstroms):
                    1          2          3          4          5
     1  C    0.000000
     2  C    2.878257   0.000000
     3  H    1.083120   3.956788   0.000000
     4  H    3.882063   1.092011   4.964642   0.000000
     5  C    4.643641   2.586701   5.567783   2.774245   0.000000
     6  C    3.615853   1.680163   4.561289   2.233525   1.483690
     7  H    4.657373   3.114866   5.481838   3.451179   1.082826
     8  H    3.105884   2.233525   3.895129   3.088575   2.134032
     9  C    4.661258   2.669395   5.561389   2.861224   2.472235
    10  H    5.290874   3.610225   6.089186   3.880647   2.754092
    11  H    4.413892   2.845703   5.244873   3.146550   3.418725
    12  C    5.851735   3.374118   6.832560   3.100307   1.390147
    13  H    6.641602   4.246884   7.600450   3.918860   2.136682
    14  C    6.316214   3.615853   7.336497   3.105884   2.421727
    15  H    7.336497   4.561289   8.372581   3.895129   3.395693
    16  C    5.744769   3.202798   6.736603   2.826480   2.900194
    17  H    5.592189   2.961399   6.617644   2.347200   3.447604
    18  H    6.629833   4.227276   7.578851   3.860525   3.837726
    19  C    2.421728   1.483691   3.395694   2.134033   3.868045
    20  H    3.391711   2.226348   4.271657   2.471145   4.422207
    21  C    1.374660   2.492391   2.133398   3.367930   4.661929
    22  H    2.121940   3.470112   2.439149   4.251872   5.619760
    23  C    2.510493   1.538969   3.493369   2.160015   3.074338
    24  H    3.444119   2.170384   4.351836   2.503195   2.681477
    25  H    2.866804   2.154619   3.773128   2.444352   4.020012
    26  C    1.496222   2.539160   2.227555   3.474828   3.789925
    27  H    2.134474   3.479224   2.484848   4.292946   4.616939
    28  H    2.126910   2.913869   2.665688   3.887074   3.382891
                    6          7          8          9         10
     6  C    0.000000
     7  H    2.226348   0.000000
     8  H    1.092011   2.471145   0.000000
     9  C    1.538969   3.443958   2.160015   0.000000
    10  H    2.154619   3.609881   2.444352   1.093542   0.000000
    11  H    2.170384   4.319710   2.503195   1.091338   1.755449
    12  C    2.492391   2.144338   3.367930   2.827669   3.077473
    13  H    3.470112   2.451160   4.251872   3.898862   4.043053
    14  C    2.878257   3.391711   3.882063   2.510493   2.866804
    15  H    3.956788   4.271657   4.964642   3.493369   3.773128
    16  C    2.539160   3.982979   3.474828   1.529944   2.151509
    17  H    2.913869   4.492999   3.887074   2.165128   3.049014
    18  H    3.479224   4.908358   4.292946   2.165821   2.417858
    19  C    2.586702   4.422208   2.774246   3.074338   4.020012
    20  H    3.114866   5.147338   3.451179   3.077225   4.059671
    21  C    3.374118   4.983429   3.100307   4.033871   4.793641
    22  H    4.246884   5.992127   3.918860   4.641953   5.346455
    23  C    2.669395   3.077225   2.861224   4.020602   4.811592
    24  H    2.845703   2.446377   3.146550   4.276531   4.957837
    25  H    3.610225   4.059671   3.880647   4.811592   5.703443
    26  C    3.202798   3.560505   2.826480   4.586465   5.189356
    27  H    4.227276   4.209388   3.860525   5.652895   6.243555
    28  H    2.961399   2.984886   2.347200   4.386785   4.776734
                   11         12         13         14         15
    11  H    0.000000
    12  C    3.873498   0.000000
    13  H    4.954586   1.084557   0.000000
    14  C    3.444119   1.374660   2.121940   0.000000
    15  H    4.351836   2.133398   2.439149   1.083120   0.000000
    16  C    2.166259   2.504672   3.482372   1.496222   2.227555
    17  H    2.424825   3.110023   4.043275   2.126910   2.665688
    18  H    2.561434   3.315748   4.187854   2.134474   2.484848
    19  C    2.681477   4.661930   5.619761   4.643641   5.567783
    20  H    2.446377   4.983429   5.992127   4.657373   5.481838
    21  C    3.546595   5.689501   6.608720   5.851735   6.832560
    22  H    3.938963   6.608720   7.571820   6.641602   7.600450
    23  C    4.276531   4.033871   4.641953   4.661258   5.561389
    24  H    4.774330   3.546595   3.938963   4.413892   5.244873
    25  H    4.957837   4.793641   5.346455   5.290874   6.089186
    26  C    4.690225   5.020518   5.642082   5.744769   6.736603
    27  H    5.779235   5.809855   6.300119   6.629833   7.578851
    28  H    4.622378   4.728849   5.307279   5.592189   6.617644
                   16         17         18         19         20
    16  C    0.000000
    17  H    1.098310   0.000000
    18  H    1.093353   1.741709   0.000000
    19  C    3.789925   3.382891   4.616939   0.000000
    20  H    3.560505   2.984886   4.209388   1.082825   0.000000
    21  C    5.020518   4.728849   5.809855   1.390147   2.144338
    22  H    5.642082   5.307279   6.300119   2.136682   2.451160
    23  C    4.586465   4.386785   5.652895   2.472236   3.443958
    24  H    4.690225   4.622378   5.779235   3.418726   4.319710
    25  H    5.189356   4.776734   6.243555   2.754092   3.609881
    26  C    5.530601   5.471429   6.531595   2.900195   3.982979
    27  H    6.531595   6.432642   7.558226   3.837727   4.908358
    28  H    5.471429   5.630106   6.432642   3.447605   4.492999
                   21         22         23         24         25
    21  C    0.000000
    22  H    1.084557   0.000000
    23  C    2.827669   3.898862   0.000000
    24  H    3.873498   4.954586   1.091338   0.000000
    25  H    3.077473   4.043053   1.093542   1.755449   0.000000
    26  C    2.504672   3.482372   1.529944   2.166259   2.151509
    27  H    3.315748   4.187854   2.165821   2.561434   2.417858
    28  H    3.110023   4.043275   2.165128   2.424825   3.049014
                   26         27         28
    26  C    0.000000
    27  H    1.093353   0.000000
    28  H    1.098310   1.741709   0.000000
 Symmetry turned off by external request.
 Stoichiometry    C12H16
 Framework group  CI[X(C12H16)]
 Deg. of freedom    39
 Full point group                 CI      NOp   2
 Rotational constants (GHZ):           1.9815100           0.6443917           0.5539421
 Leave Link  202 at Mon Aug  3 16:49:23 2020, MaxMem=  6442450944 cpu:               0.3 elap:               0.0
 (Enter /scratch/scicomp/CentOS/7.3.1611/Haswell/software/Gaussian/g16/l301.exe)
 Standard basis: def2TZVP (6D, 10F)
 Ernie: Thresh=  0.10000D-02 Tol=  0.10000D-05 Strict=F.
   528 basis functions,   740 primitive gaussians,   528 cartesian basis functions
    44 alpha electrons       44 beta electrons
       nuclear repulsion energy       694.2658438604 Hartrees.
 IExCor= 4639 DFT=T Ex+Corr=wB97XD ExCW=0 ScaHFX=  1.000000
 ScaDFX=  1.000000  1.000000  1.000000  1.000000 ScalE2=  1.000000  1.000000
 IRadAn=      5 IRanWt=     -1 IRanGd=            0 ICorTp=0 IEmpDi=121
 HFx  wShort=  0.000000 wLong=  0.200000 cFull=  0.222036 cShort=  0.000000 cLong=  0.777964
 DFx  wShort=  0.000000 wLong=  0.200000 cFull=  0.000000 cShort=  0.000000 cLong=  1.000000
 NAtoms=   28 NActive=   28 NUniq=   28 SFac= 1.00D+00 NAtFMM=   60 NAOKFM=F Big=F
 Integral buffers will be    131072 words long.
 Raffenetti 2 integral format.
 Two-electron integral symmetry is turned off.
 R6Disp:  Grimme-D2 Dispersion energy=       -0.0228620695 Hartrees.
 Nuclear repulsion after empirical dispersion term =      694.2429817908 Hartrees.
 Using the following non-standard input for PCM:
 norep pcmdoc geomview  nodis nocav g03defaults tsare=0.075
 Warning! Using old PCM defaults because the g03defaults keyword was found.
 These settings can be overridden by following keywords.
 nsfe=28
 NVESolv=36  SolvMW=84.1595   Rsolv=2.815
 eps=2.0165 RhoS=0.7781
 --- end of non-standard input.
 Reading user-defined spheres from input:
 ISph  on   Nord    Re0     Alpha      Xe            Ye            Ze
 --- end of user-defined spheres data.
 ------------------------------------------------------------------------------
 Polarizable Continuum Model (PCM)
 =================================
 Model                : PCM.
 Atomic radii         : UA0 (Simple United Atom Topological Model).
 Polarization charges : Total charges.
 Charge compensation  : None.
 Solution method      : On-the-fly selection.
 Cavity type          : SES (Solvent Excluding Surface) (Alpha=1.000).
 Cavity algorithm     : GePol (RMin=0.200 OFac=0.890).
                        User-defined sphere list used, NSphG=   28.
                        Tesserae with average area of 0.075 Ang**2.
                        Smoothing algorithm: None.
                        Polarization charges: point-like.
                        Self-potential: constant (ISelfS= 1).
                        Self-field    : global E.n sum rule (ISelfD= 3).
 Solvent              : CycloHexane, Eps=   2.016500 Eps(inf)=   2.035188
                        RSolv=   2.815000 Ang.
 ------------------------------------------------------------------------------
 GePol: Number of generator spheres                  =      28
 GePol: Total number of spheres                      =     161
 GePol: Number of exposed spheres                    =     121 ( 75.16%)
 GePol: Number of tesserae                           =    4581
 GePol: Average area of tesserae                     =       0.05 Ang**2
 GePol: Minimum area of tessera                      =   0.10D-02 Ang**2
 GePol: Maximum area of tessera                      =    0.12524 Ang**2
 GePol: Number of small tesserae                     =       0
 GePol: Fraction of small tesserae (<1% of avg)      =       0.00%
 GePol: Total count of vertices                      =   16137
 GePol: Maximum number of vertices in a tessera      =       7
 GePol: Cavity surface area                          =    218.816 Ang**2
 GePol: Cavity volume                                =    245.283 Ang**3
 Leave Link  301 at Mon Aug  3 16:49:24 2020, MaxMem=  6442450944 cpu:               7.2 elap:               0.3
 (Enter /scratch/scicomp/CentOS/7.3.1611/Haswell/software/Gaussian/g16/l302.exe)
 NPDir=0 NMtPBC=     1 NCelOv=     1 NCel=       1 NClECP=     1 NCelD=      1
         NCelK=      1 NCelE2=     1 NClLst=     1 CellRange=     0.0.
 One-electron integrals computed using PRISM.
   1 Symmetry operations used in ECPInt.
 ECPInt:  NShTT=   19306 NPrTT=   56928 LenC2=   18534 LenP2D=   42298.
 LDataN:  DoStor=T MaxTD1= 6 Len=  172
 NBasis=   528 RedAO= T EigKep=  2.66D-05  NBF=   528
 NBsUse=   528 1.00D-06 EigRej= -1.00D+00 NBFU=   528
 Precomputing XC quadrature grid using
 IXCGrd= 4 IRadAn=           5 IRanWt=          -1 IRanGd=           0 AccXCQ= 0.00D+00.
 Generated NRdTot=       0 NPtTot=           0 NUsed=           0 NTot=          32
 NSgBfM=   526   526   526   526   526 MxSgAt=    28 MxSgA2=    28.
 Leave Link  302 at Mon Aug  3 16:49:25 2020, MaxMem=  6442450944 cpu:              12.7 elap:               0.6
 (Enter /scratch/scicomp/CentOS/7.3.1611/Haswell/software/Gaussian/g16/l303.exe)
 DipDrv:  MaxL=1.
 Leave Link  303 at Mon Aug  3 16:49:25 2020, MaxMem=  6442450944 cpu:               1.5 elap:               0.1
 (Enter /scratch/scicomp/CentOS/7.3.1611/Haswell/software/Gaussian/g16/l401.exe)
 ExpMin= 9.52D-02 ExpMax= 1.36D+04 ExpMxC= 4.63D+02 IAcc=3 IRadAn=         5 AccDes= 0.00D+00
 Harris functional with IExCor= 4639 and IRadAn=       5 diagonalized for initial guess.
 HarFok:  IExCor= 4639 AccDes= 0.00D+00 IRadAn=         5 IDoV= 1 UseB2=F ITyADJ=14
 ICtDFT=  3500011 ScaDFX=  1.000000  1.000000  1.000000  1.000000
 FoFCou: FMM=F IPFlag=           0 FMFlag=      100000 FMFlg1=           0
         NFxFlg=           0 DoJE=T BraDBF=F KetDBF=T FulRan=T
         wScrn=  0.000000 ICntrl=       500 IOpCl=  0 I1Cent=   200000004 NGrid=           0
         NMat0=    1 NMatS0=      1 NMatT0=    0 NMatD0=    1 NMtDS0=    0 NMtDT0=    0
 Symmetry not used in FoFCou.
 Harris En= -444.608809851819    
 JPrj=0 DoOrth=F DoCkMO=T.
 Mixing orbitals, IMix= 1 IMixAn=  0 NRI=1 NE=   44 Coef=  7.07106781D-01  7.07106781D-01
 Mixing orbitals, IMix= 1 IMixAn=  0 NRI=1 NE=   44 Coef= -7.07106781D-01  7.07106781D-01
 Initial guess <Sx>= 0.0000 <Sy>= 0.0000 <Sz>= 0.0000 <S**2>= 1.0000 S= 0.6180
 Leave Link  401 at Mon Aug  3 16:49:27 2020, MaxMem=  6442450944 cpu:              49.5 elap:               2.1
 (Enter /scratch/scicomp/CentOS/7.3.1611/Haswell/software/Gaussian/g16/l502.exe)
 Two-electron integral symmetry not used.
 UHF open shell SCF:
 Using DIIS extrapolation, IDIIS=  1040.
 NGot=  6442450944 LenX=  6441877030 LenY=  6441597718
 Requested convergence on RMS density matrix=1.00D-08 within 128 cycles.
 Requested convergence on MAX density matrix=1.00D-06.
 Requested convergence on             energy=1.00D-06.
 No special actions if energy rises.
 Fock matrices will be formed incrementally for  20 cycles.

 Cycle   1  Pass 1  IDiag  1:
 FoFJK:  IHMeth= 1 ICntrl=       0 DoSepK=T KAlg= 0 I1Cent=           0 FoldK=F
 IRaf=         1 NMat=       1 IRICut=       1 DoRegI=T DoRafI=F ISym2E= 0 IDoP0=0 IntGTp=1.
 FoFCou: FMM=F IPFlag=           0 FMFlag=      100000 FMFlg1=           0
         NFxFlg=           0 DoJE=T BraDBF=F KetDBF=F FulRan=T
         wScrn=  0.000000 ICntrl=       500 IOpCl=  0 I1Cent=           0 NGrid=           0
         NMat0=    1 NMatS0=      1 NMatT0=    0 NMatD0=    1 NMtDS0=    0 NMtDT0=    0
 Symmetry not used in FoFCou.
 Inv3:  Mode=1 IEnd=    62956683.
 Iteration    1 A*A^-1 deviation from unit magnitude is 3.33D-15 for   3413.
 Iteration    1 A*A^-1 deviation from orthogonality  is 2.48D-15 for   3730   3618.
 Iteration    1 A^-1*A deviation from unit magnitude is 3.55D-15 for   2494.
 Iteration    1 A^-1*A deviation from orthogonality  is 1.44D-15 for   2294    850.
 E= -466.688647733131    
 DIIS: error= 6.20D-02 at cycle   1 NSaved=   1.
 NSaved= 1 IEnMin= 1 EnMin= -466.688647733131     IErMin= 1 ErrMin= 6.20D-02
 ErrMax= 6.20D-02  0.00D+00 EMaxC= 1.00D-01 BMatC= 4.11D+00 BMatP= 4.11D+00
 IDIUse=3 WtCom= 3.80D-01 WtEn= 6.20D-01
 Coeff-Com:  0.100D+01
 Coeff-En:   0.100D+01
 Coeff:      0.100D+01
 Gap=     0.231 Goal=   None    Shift=    0.000
 Gap=     0.231 Goal=   None    Shift=    0.000
 GapD=    0.231 DampG=1.000 DampE=0.500 DampFc=0.5000 IDamp=-1.
 Damping current iteration by 5.00D-01
 RMSDP=1.36D-03 MaxDP=9.23D-02              OVMax= 6.31D-02

 Cycle   2  Pass 1  IDiag  1:
 RMSU=  6.65D-04    CP:  9.75D-01
 E= -466.759039101146     Delta-E=       -0.070391368015 Rises=F Damp=T
 DIIS: error= 2.93D-02 at cycle   2 NSaved=   2.
 NSaved= 2 IEnMin= 2 EnMin= -466.759039101146     IErMin= 2 ErrMin= 2.93D-02
 ErrMax= 2.93D-02  0.00D+00 EMaxC= 1.00D-01 BMatC= 9.20D-01 BMatP= 4.11D+00
 IDIUse=3 WtCom= 7.07D-01 WtEn= 2.93D-01
 Coeff-Com: -0.862D+00 0.186D+01
 Coeff-En:   0.000D+00 0.100D+01
 Coeff:     -0.609D+00 0.161D+01
 Gap=     0.239 Goal=   None    Shift=    0.000
 Gap=     0.239 Goal=   None    Shift=    0.000
 RMSDP=8.18D-04 MaxDP=4.84D-02 DE=-7.04D-02 OVMax= 3.09D-02

 Cycle   3  Pass 1  IDiag  1:
 RMSU=  4.13D-04    CP:  9.47D-01  2.03D+00
 E= -466.827895541944     Delta-E=       -0.068856440798 Rises=F Damp=F
 DIIS: error= 2.52D-03 at cycle   3 NSaved=   3.
 NSaved= 3 IEnMin= 3 EnMin= -466.827895541944     IErMin= 3 ErrMin= 2.52D-03
 ErrMax= 2.52D-03  0.00D+00 EMaxC= 1.00D-01 BMatC= 1.68D-02 BMatP= 9.20D-01
 IDIUse=3 WtCom= 9.75D-01 WtEn= 2.52D-02
 Coeff-Com: -0.304D+00 0.657D+00 0.646D+00
 Coeff-En:   0.000D+00 0.000D+00 0.100D+01
 Coeff:     -0.296D+00 0.641D+00 0.655D+00
 Gap=     0.243 Goal=   None    Shift=    0.000
 Gap=     0.243 Goal=   None    Shift=    0.000
 RMSDP=1.07D-04 MaxDP=4.76D-03 DE=-6.89D-02 OVMax= 1.26D-02

 Cycle   4  Pass 1  IDiag  1:
 RMSU=  8.73D-05    CP:  9.45D-01  2.10D+00  9.06D-01
 E= -466.832242396549     Delta-E=       -0.004346854605 Rises=F Damp=F
 DIIS: error= 9.30D-04 at cycle   4 NSaved=   4.
 NSaved= 4 IEnMin= 4 EnMin= -466.832242396549     IErMin= 4 ErrMin= 9.30D-04
 ErrMax= 9.30D-04  0.00D+00 EMaxC= 1.00D-01 BMatC= 5.40D-04 BMatP= 1.68D-02
 IDIUse=3 WtCom= 9.91D-01 WtEn= 9.30D-03
 Coeff-Com:  0.116D+00-0.250D+00-0.145D+00 0.128D+01
 Coeff-En:   0.000D+00 0.000D+00 0.000D+00 0.100D+01
 Coeff:      0.115D+00-0.247D+00-0.143D+00 0.128D+01
 Gap=     0.248 Goal=   None    Shift=    0.000
 Gap=     0.248 Goal=   None    Shift=    0.000
 RMSDP=7.72D-05 MaxDP=4.70D-03 DE=-4.35D-03 OVMax= 1.22D-02

 Cycle   5  Pass 1  IDiag  1:
 RMSU=  3.24D-05    CP:  9.44D-01  2.13D+00  1.03D+00  1.46D+00
 E= -466.832887613520     Delta-E=       -0.000645216972 Rises=F Damp=F
 DIIS: error= 4.62D-04 at cycle   5 NSaved=   5.
 NSaved= 5 IEnMin= 5 EnMin= -466.832887613520     IErMin= 5 ErrMin= 4.62D-04
 ErrMax= 4.62D-04  0.00D+00 EMaxC= 1.00D-01 BMatC= 1.15D-04 BMatP= 5.40D-04
 IDIUse=3 WtCom= 9.95D-01 WtEn= 4.62D-03
 Coeff-Com:  0.305D-01-0.665D-01-0.689D-01-0.629D-01 0.117D+01
 Coeff-En:   0.000D+00 0.000D+00 0.000D+00 0.000D+00 0.100D+01
 Coeff:      0.304D-01-0.662D-01-0.686D-01-0.626D-01 0.117D+01
 Gap=     0.251 Goal=   None    Shift=    0.000
 Gap=     0.251 Goal=   None    Shift=    0.000
 RMSDP=3.03D-05 MaxDP=1.65D-03 DE=-6.45D-04 OVMax= 6.69D-03

 Cycle   6  Pass 1  IDiag  1:
 RMSU=  1.30D-05    CP:  9.43D-01  2.14D+00  1.06D+00  1.65D+00  1.56D+00
 E= -466.833028989358     Delta-E=       -0.000141375838 Rises=F Damp=F
 DIIS: error= 2.06D-04 at cycle   6 NSaved=   6.
 NSaved= 6 IEnMin= 6 EnMin= -466.833028989358     IErMin= 6 ErrMin= 2.06D-04
 ErrMax= 2.06D-04  0.00D+00 EMaxC= 1.00D-01 BMatC= 3.93D-05 BMatP= 1.15D-04
 IDIUse=3 WtCom= 9.98D-01 WtEn= 2.06D-03
 Coeff-Com: -0.228D-01 0.491D-01 0.162D-01-0.406D+00 0.452D+00 0.912D+00
 Coeff-En:   0.000D+00 0.000D+00 0.000D+00 0.000D+00 0.000D+00 0.100D+01
 Coeff:     -0.228D-01 0.490D-01 0.162D-01-0.406D+00 0.451D+00 0.912D+00
 Gap=     0.252 Goal=   None    Shift=    0.000
 Gap=     0.252 Goal=   None    Shift=    0.000
 RMSDP=1.45D-05 MaxDP=1.04D-03 DE=-1.41D-04 OVMax= 3.90D-03

 Cycle   7  Pass 1  IDiag  1:
 RMSU=  7.22D-06    CP:  9.43D-01  2.14D+00  1.06D+00  1.71D+00  1.88D+00
                    CP:  1.29D+00
 E= -466.833061894757     Delta-E=       -0.000032905398 Rises=F Damp=F
 DIIS: error= 6.69D-05 at cycle   7 NSaved=   7.
 NSaved= 7 IEnMin= 7 EnMin= -466.833061894757     IErMin= 7 ErrMin= 6.69D-05
 ErrMax= 6.69D-05  0.00D+00 EMaxC= 1.00D-01 BMatC= 2.96D-06 BMatP= 3.93D-05
 IDIUse=1 WtCom= 1.00D+00 WtEn= 0.00D+00
 Coeff-Com: -0.846D-02 0.184D-01 0.111D-01-0.764D-01-0.456D-01 0.187D+00
 Coeff-Com:  0.914D+00
 Coeff:     -0.846D-02 0.184D-01 0.111D-01-0.764D-01-0.456D-01 0.187D+00
 Coeff:      0.914D+00
 Gap=     0.252 Goal=   None    Shift=    0.000
 Gap=     0.252 Goal=   None    Shift=    0.000
 RMSDP=4.80D-06 MaxDP=3.28D-04 DE=-3.29D-05 OVMax= 1.05D-03

 Cycle   8  Pass 1  IDiag  1:
 RMSU=  2.31D-06    CP:  9.43D-01  2.13D+00  1.06D+00  1.71D+00  1.94D+00
                    CP:  1.50D+00  1.20D+00
 E= -466.833064410887     Delta-E=       -0.000002516130 Rises=F Damp=F
 DIIS: error= 3.48D-05 at cycle   8 NSaved=   8.
 NSaved= 8 IEnMin= 8 EnMin= -466.833064410887     IErMin= 8 ErrMin= 3.48D-05
 ErrMax= 3.48D-05  0.00D+00 EMaxC= 1.00D-01 BMatC= 5.40D-07 BMatP= 2.96D-06
 IDIUse=1 WtCom= 1.00D+00 WtEn= 0.00D+00
 Coeff-Com:  0.711D-03-0.152D-02 0.108D-02 0.367D-01-0.813D-01-0.809D-01
 Coeff-Com:  0.269D+00 0.856D+00
 Coeff:      0.711D-03-0.152D-02 0.108D-02 0.367D-01-0.813D-01-0.809D-01
 Coeff:      0.269D+00 0.856D+00
 Gap=     0.252 Goal=   None    Shift=    0.000
 Gap=     0.252 Goal=   None    Shift=    0.000
 RMSDP=2.10D-06 MaxDP=1.10D-04 DE=-2.52D-06 OVMax= 4.91D-04

 Cycle   9  Pass 1  IDiag  1:
 RMSU=  1.02D-06    CP:  9.43D-01  2.13D+00  1.06D+00  1.70D+00  1.94D+00
                    CP:  1.55D+00  1.38D+00  1.26D+00
 E= -466.833064799392     Delta-E=       -0.000000388506 Rises=F Damp=F
 DIIS: error= 1.55D-05 at cycle   9 NSaved=   9.
 NSaved= 9 IEnMin= 9 EnMin= -466.833064799392     IErMin= 9 ErrMin= 1.55D-05
 ErrMax= 1.55D-05  0.00D+00 EMaxC= 1.00D-01 BMatC= 7.20D-08 BMatP= 5.40D-07
 IDIUse=1 WtCom= 1.00D+00 WtEn= 0.00D+00
 Coeff-Com:  0.150D-02-0.325D-02-0.139D-02 0.219D-01-0.175D-01-0.512D-01
 Coeff-Com: -0.486D-01 0.259D+00 0.839D+00
 Coeff:      0.150D-02-0.325D-02-0.139D-02 0.219D-01-0.175D-01-0.512D-01
 Coeff:     -0.486D-01 0.259D+00 0.839D+00
 Gap=     0.252 Goal=   None    Shift=    0.000
 Gap=     0.252 Goal=   None    Shift=    0.000
 RMSDP=8.55D-07 MaxDP=5.32D-05 DE=-3.89D-07 OVMax= 2.03D-04

 Cycle  10  Pass 1  IDiag  1:
 RMSU=  3.22D-07    CP:  9.43D-01  2.13D+00  1.06D+00  1.70D+00  1.93D+00
                    CP:  1.56D+00  1.44D+00  1.47D+00  1.29D+00
 E= -466.833064852765     Delta-E=       -0.000000053373 Rises=F Damp=F
 DIIS: error= 5.54D-06 at cycle  10 NSaved=  10.
 NSaved=10 IEnMin=10 EnMin= -466.833064852765     IErMin=10 ErrMin= 5.54D-06
 ErrMax= 5.54D-06  0.00D+00 EMaxC= 1.00D-01 BMatC= 6.10D-09 BMatP= 7.20D-08
 IDIUse=1 WtCom= 1.00D+00 WtEn= 0.00D+00
 Coeff-Com: -0.106D-03 0.230D-03-0.983D-04-0.454D-02 0.910D-02 0.998D-02
 Coeff-Com: -0.280D-01-0.989D-01-0.370D-02 0.112D+01
 Coeff:     -0.106D-03 0.230D-03-0.983D-04-0.454D-02 0.910D-02 0.998D-02
 Coeff:     -0.280D-01-0.989D-01-0.370D-02 0.112D+01
 Gap=     0.252 Goal=   None    Shift=    0.000
 Gap=     0.252 Goal=   None    Shift=    0.000
 RMSDP=4.18D-07 MaxDP=3.46D-05 DE=-5.34D-08 OVMax= 9.40D-05

 Cycle  11  Pass 1  IDiag  1:
 RMSU=  1.25D-07    CP:  9.43D-01  2.13D+00  1.06D+00  1.70D+00  1.93D+00
                    CP:  1.56D+00  1.45D+00  1.55D+00  1.53D+00  1.44D+00
 E= -466.833064859953     Delta-E=       -0.000000007188 Rises=F Damp=F
 DIIS: error= 1.45D-06 at cycle  11 NSaved=  11.
 NSaved=11 IEnMin=11 EnMin= -466.833064859953     IErMin=11 ErrMin= 1.45D-06
 ErrMax= 1.45D-06  0.00D+00 EMaxC= 1.00D-01 BMatC= 1.60D-09 BMatP= 6.10D-09
 IDIUse=1 WtCom= 1.00D+00 WtEn= 0.00D+00
 Coeff-Com: -0.258D-03 0.558D-03 0.159D-03-0.493D-02 0.590D-02 0.114D-01
 Coeff-Com: -0.279D-02-0.735D-01-0.123D+00 0.415D+00 0.772D+00
 Coeff:     -0.258D-03 0.558D-03 0.159D-03-0.493D-02 0.590D-02 0.114D-01
 Coeff:     -0.279D-02-0.735D-01-0.123D+00 0.415D+00 0.772D+00
 Gap=     0.252 Goal=   None    Shift=    0.000
 Gap=     0.252 Goal=   None    Shift=    0.000
 RMSDP=1.29D-07 MaxDP=1.10D-05 DE=-7.19D-09 OVMax= 2.60D-05

 Cycle  12  Pass 1  IDiag  1:
 RMSU=  4.78D-08    CP:  9.43D-01  2.13D+00  1.06D+00  1.70D+00  1.92D+00
                    CP:  1.56D+00  1.46D+00  1.56D+00  1.60D+00  1.62D+00
                    CP:  1.34D+00
 E= -466.833064860907     Delta-E=       -0.000000000954 Rises=F Damp=F
 DIIS: error= 3.46D-07 at cycle  12 NSaved=  12.
 NSaved=12 IEnMin=12 EnMin= -466.833064860907     IErMin=12 ErrMin= 3.46D-07
 ErrMax= 3.46D-07  0.00D+00 EMaxC= 1.00D-01 BMatC= 1.33D-10 BMatP= 1.60D-09
 IDIUse=1 WtCom= 1.00D+00 WtEn= 0.00D+00
 Coeff-Com: -0.102D-05 0.173D-05 0.185D-04 0.268D-03-0.785D-03-0.468D-03
 Coeff-Com:  0.316D-02 0.811D-02-0.590D-02-0.113D+00 0.561D-01 0.105D+01
 Coeff:     -0.102D-05 0.173D-05 0.185D-04 0.268D-03-0.785D-03-0.468D-03
 Coeff:      0.316D-02 0.811D-02-0.590D-02-0.113D+00 0.561D-01 0.105D+01
 Gap=     0.252 Goal=   None    Shift=    0.000
 Gap=     0.252 Goal=   None    Shift=    0.000
 RMSDP=5.22D-08 MaxDP=3.58D-06 DE=-9.54D-10 OVMax= 8.67D-06

 Cycle  13  Pass 1  IDiag  1:
 RMSU=  1.77D-08    CP:  9.43D-01  2.13D+00  1.06D+00  1.70D+00  1.92D+00
                    CP:  1.56D+00  1.46D+00  1.56D+00  1.62D+00  1.69D+00
                    CP:  1.60D+00  1.37D+00
 E= -466.833064861049     Delta-E=       -0.000000000142 Rises=F Damp=F
 DIIS: error= 1.49D-07 at cycle  13 NSaved=  13.
 NSaved=13 IEnMin=13 EnMin= -466.833064861049     IErMin=13 ErrMin= 1.49D-07
 ErrMax= 1.49D-07  0.00D+00 EMaxC= 1.00D-01 BMatC= 3.05D-11 BMatP= 1.33D-10
 IDIUse=1 WtCom= 1.00D+00 WtEn= 0.00D+00
 Coeff-Com:  0.414D-04-0.896D-04-0.208D-04 0.853D-03-0.114D-02-0.192D-02
 Coeff-Com:  0.136D-02 0.136D-01 0.187D-01-0.960D-01-0.115D+00 0.241D+00
 Coeff-Com:  0.938D+00
 Coeff:      0.414D-04-0.896D-04-0.208D-04 0.853D-03-0.114D-02-0.192D-02
 Coeff:      0.136D-02 0.136D-01 0.187D-01-0.960D-01-0.115D+00 0.241D+00
 Coeff:      0.938D+00
 Gap=     0.252 Goal=   None    Shift=    0.000
 Gap=     0.252 Goal=   None    Shift=    0.000
 RMSDP=2.01D-08 MaxDP=9.43D-07 DE=-1.42D-10 OVMax= 3.35D-06

 Cycle  14  Pass 1  IDiag  1:
 RMSU=  7.59D-09    CP:  9.43D-01  2.13D+00  1.06D+00  1.70D+00  1.92D+00
                    CP:  1.56D+00  1.46D+00  1.56D+00  1.62D+00  1.71D+00
                    CP:  1.70D+00  1.57D+00  1.32D+00
 E= -466.833064861086     Delta-E=       -0.000000000037 Rises=F Damp=F
 DIIS: error= 8.14D-08 at cycle  14 NSaved=  14.
 NSaved=14 IEnMin=14 EnMin= -466.833064861086     IErMin=14 ErrMin= 8.14D-08
 ErrMax= 8.14D-08  0.00D+00 EMaxC= 1.00D-01 BMatC= 6.03D-12 BMatP= 3.05D-11
 IDIUse=1 WtCom= 1.00D+00 WtEn= 0.00D+00
 Coeff-Com:  0.756D-05-0.163D-04-0.486D-05 0.126D-03-0.109D-03-0.316D-03
 Coeff-Com: -0.195D-03 0.137D-02 0.528D-02-0.243D-02-0.330D-01-0.116D+00
 Coeff-Com:  0.207D+00 0.938D+00
 Coeff:      0.756D-05-0.163D-04-0.486D-05 0.126D-03-0.109D-03-0.316D-03
 Coeff:     -0.195D-03 0.137D-02 0.528D-02-0.243D-02-0.330D-01-0.116D+00
 Coeff:      0.207D+00 0.938D+00
 Gap=     0.252 Goal=   None    Shift=    0.000
 Gap=     0.252 Goal=   None    Shift=    0.000
 RMSDP=6.74D-09 MaxDP=2.97D-07 DE=-3.66D-11 OVMax= 1.54D-06

 Error on total polarization charges =  0.01164
 SCF Done:  E(UwB97XD) =  -466.833064861     A.U. after   14 cycles
            NFock= 14  Conv=0.67D-08     -V/T= 2.0062
 <Sx>= 0.0000 <Sy>= 0.0000 <Sz>= 0.0000 <S**2>= 1.0402 S= 0.6359
 <L.S>=  0.00000000000    
 KE= 4.639450497609D+02 PE=-2.469991262230D+03 EE= 8.449701658175D+02
 --------------------------------------------------------------------
 Variational PCM results
 =======================
 <psi(f)|   H    |psi(f)>                     (a.u.) =    -466.831842
 <psi(f)|H+V(f)/2|psi(f)>                     (a.u.) =    -466.833065
 (Polarized solute)-Solvent               (kcal/mol) =      -0.77
 --------------------------------------------------------------------
 Partition over spheres:
 Sphere  on Atom  Surface  Charge   GEl     GCav    GDR
    1      C1       7.78   0.011   -0.04    0.00    0.00
    2      C2       0.20  -0.000   -0.00    0.00    0.00
    3      H3       7.51  -0.010   -0.04    0.00    0.00
    4      H4       3.82  -0.004   -0.01    0.00    0.00
    5      C5       4.35   0.008   -0.04    0.00    0.00
    6      C6       0.18  -0.000   -0.00    0.00    0.00
    7      H7       5.48  -0.008   -0.03    0.00    0.00
    8      H8       3.65  -0.004   -0.01    0.00    0.00
    9      C9       3.38   0.002   -0.00    0.00    0.00
   10      H10      5.96  -0.005   -0.01    0.00    0.00
   11      H11      4.99  -0.003   -0.01    0.00    0.00
   12      C12      6.86   0.011   -0.06    0.00    0.00
   13      H13      7.51  -0.010   -0.03    0.00    0.00
   14      C14      7.24   0.010   -0.04    0.00    0.00
   15      H15      7.51  -0.010   -0.04    0.00    0.00
   16      C16      3.75   0.002    0.00    0.00    0.00
   17      H17      4.86  -0.004   -0.02    0.00    0.00
   18      H18      7.46  -0.008   -0.03    0.00    0.00
   19      C19      4.80   0.008   -0.04    0.00    0.00
   20      H20      5.17  -0.007   -0.03    0.00    0.00
   21      C21      6.68   0.011   -0.06    0.00    0.00
   22      H22      7.51  -0.010   -0.03    0.00    0.00
   23      C23      3.04   0.002   -0.00    0.00    0.00
   24      H24      4.15  -0.003   -0.01    0.00    0.00
   25      H25      7.14  -0.006   -0.01    0.00    0.00
   26      C26      3.75   0.002    0.00    0.00    0.00
   27      H27      7.46  -0.008   -0.03    0.00    0.00
   28      H28      4.63  -0.005   -0.02    0.00    0.00
 Added spheres:    72.00   0.025   -0.17    0.00    0.00
 --------------------------------------------------------------------
 After PCM corrections, the energy is  -466.833064861     a.u.
 --------------------------------------------------------------------
 Annihilation of the first spin contaminant:
 S**2 before annihilation     1.0402,   after     0.5267
 Leave Link  502 at Mon Aug  3 16:53:41 2020, MaxMem=  6442450944 cpu:            6036.1 elap:             254.0
 (Enter /scratch/scicomp/CentOS/7.3.1611/Haswell/software/Gaussian/g16/l601.exe)
 Copying SCF densities to generalized density rwf, IOpCl= 1 IROHF=0.

 **********************************************************************

            Population analysis using the SCF Density.

 **********************************************************************

 Alpha  occ. eigenvalues --  -10.29643 -10.29488 -10.28843 -10.28583 -10.28436
 Alpha  occ. eigenvalues --  -10.28392 -10.28214 -10.28143 -10.27954 -10.27932
 Alpha  occ. eigenvalues --  -10.27893 -10.27857  -0.95134  -0.92739  -0.85510
 Alpha  occ. eigenvalues --   -0.84540  -0.83587  -0.81227  -0.71155  -0.70552
 Alpha  occ. eigenvalues --   -0.69320  -0.67630  -0.60011  -0.59181  -0.58661
 Alpha  occ. eigenvalues --   -0.56296  -0.53552  -0.52695  -0.50758  -0.49173
 Alpha  occ. eigenvalues --   -0.48856  -0.48336  -0.48144  -0.47320  -0.46250
 Alpha  occ. eigenvalues --   -0.44763  -0.41515  -0.40882  -0.40015  -0.39222
 Alpha  occ. eigenvalues --   -0.38015  -0.37187  -0.34355  -0.25153
 Alpha virt. eigenvalues --    0.00077   0.10272   0.10536   0.12440   0.13145
 Alpha virt. eigenvalues --    0.14060   0.14671   0.15424   0.16051   0.16304
 Alpha virt. eigenvalues --    0.16949   0.17092   0.18380   0.19978   0.20314
 Alpha virt. eigenvalues --    0.21348   0.22190   0.22408   0.23445   0.24207
 Alpha virt. eigenvalues --    0.25067   0.25164   0.26228   0.26515   0.26852
 Alpha virt. eigenvalues --    0.28472   0.28948   0.29474   0.30534   0.31480
 Alpha virt. eigenvalues --    0.31503   0.31903   0.32189   0.32615   0.33845
 Alpha virt. eigenvalues --    0.34014   0.35516   0.35962   0.36597   0.37107
 Alpha virt. eigenvalues --    0.37851   0.38368   0.40900   0.41149   0.41762
 Alpha virt. eigenvalues --    0.43221   0.43721   0.45004   0.45424   0.45934
 Alpha virt. eigenvalues --    0.46483   0.46676   0.47646   0.48194   0.48378
 Alpha virt. eigenvalues --    0.48546   0.49057   0.49271   0.49827   0.50543
 Alpha virt. eigenvalues --    0.50817   0.51011   0.51310   0.52174   0.52779
 Alpha virt. eigenvalues --    0.52839   0.53927   0.54070   0.54678   0.55400
 Alpha virt. eigenvalues --    0.56016   0.56524   0.57468   0.58144   0.58257
 Alpha virt. eigenvalues --    0.58507   0.60700   0.61485   0.63783   0.65514
 Alpha virt. eigenvalues --    0.66492   0.67220   0.67614   0.69010   0.69531
 Alpha virt. eigenvalues --    0.70382   0.71511   0.74683   0.75177   0.75362
 Alpha virt. eigenvalues --    0.78902   0.79073   0.79844   0.81560   0.82031
 Alpha virt. eigenvalues --    0.82992   0.84199   0.86775   0.87317   0.88194
 Alpha virt. eigenvalues --    0.89773   0.90374   0.91967   0.93822   0.94809
 Alpha virt. eigenvalues --    0.96104   0.97507   0.97557   0.98872   0.99546
 Alpha virt. eigenvalues --    1.01521   1.01665   1.03822   1.04719   1.05429
 Alpha virt. eigenvalues --    1.06851   1.08535   1.09756   1.10105   1.10452
 Alpha virt. eigenvalues --    1.11680   1.14127   1.15584   1.16822   1.17285
 Alpha virt. eigenvalues --    1.18343   1.18923   1.19442   1.19659   1.20626
 Alpha virt. eigenvalues --    1.21663   1.23400   1.24853   1.25726   1.26551
 Alpha virt. eigenvalues --    1.26793   1.27934   1.28581   1.29270   1.29355
 Alpha virt. eigenvalues --    1.30372   1.30912   1.33224   1.33624   1.34692
 Alpha virt. eigenvalues --    1.35208   1.36443   1.36736   1.38093   1.38664
 Alpha virt. eigenvalues --    1.38953   1.39241   1.40078   1.41112   1.42014
 Alpha virt. eigenvalues --    1.42950   1.42981   1.44303   1.45153   1.46103
 Alpha virt. eigenvalues --    1.46446   1.47611   1.47693   1.50202   1.50667
 Alpha virt. eigenvalues --    1.51696   1.53914   1.53990   1.57240   1.57586
 Alpha virt. eigenvalues --    1.59143   1.60300   1.61420   1.62202   1.63445
 Alpha virt. eigenvalues --    1.66986   1.67201   1.68339   1.69319   1.69964
 Alpha virt. eigenvalues --    1.73558   1.74018   1.76833   1.77930   1.78492
 Alpha virt. eigenvalues --    1.80443   1.81269   1.83258   1.84995   1.87442
 Alpha virt. eigenvalues --    1.88530   1.90721   1.91725   1.92183   1.94420
 Alpha virt. eigenvalues --    1.96968   1.98517   2.01662   2.05020   2.06909
 Alpha virt. eigenvalues --    2.07675   2.08009   2.08537   2.11701   2.12212
 Alpha virt. eigenvalues --    2.13353   2.13734   2.16458   2.18016   2.18244
 Alpha virt. eigenvalues --    2.18995   2.19637   2.20477   2.22176   2.23960
 Alpha virt. eigenvalues --    2.25974   2.26856   2.28821   2.31778   2.32393
 Alpha virt. eigenvalues --    2.35006   2.36530   2.37403   2.40029   2.42204
 Alpha virt. eigenvalues --    2.45652   2.46438   2.46795   2.48553   2.50171
 Alpha virt. eigenvalues --    2.50813   2.54199   2.55240   2.56145   2.57391
 Alpha virt. eigenvalues --    2.57618   2.60421   2.60778   2.62950   2.63181
 Alpha virt. eigenvalues --    2.64398   2.64790   2.67116   2.67694   2.68436
 Alpha virt. eigenvalues --    2.69183   2.70782   2.72023   2.72835   2.73046
 Alpha virt. eigenvalues --    2.74129   2.74896   2.76119   2.77672   2.79956
 Alpha virt. eigenvalues --    2.80158   2.81911   2.82012   2.82226   2.82658
 Alpha virt. eigenvalues --    2.83472   2.85272   2.86446   2.86512   2.87563
 Alpha virt. eigenvalues --    2.87814   2.88182   2.89408   2.89988   2.90740
 Alpha virt. eigenvalues --    2.93271   2.93645   2.94325   2.95688   2.96707
 Alpha virt. eigenvalues --    2.98907   3.00414   3.00928   3.02391   3.03592
 Alpha virt. eigenvalues --    3.06161   3.06245   3.06625   3.07327   3.07966
 Alpha virt. eigenvalues --    3.09940   3.10268   3.11027   3.12091   3.12469
 Alpha virt. eigenvalues --    3.12810   3.14006   3.15171   3.15439   3.15995
 Alpha virt. eigenvalues --    3.16231   3.16793   3.17111   3.19321   3.20000
 Alpha virt. eigenvalues --    3.20681   3.20985   3.21602   3.22786   3.23734
 Alpha virt. eigenvalues --    3.24506   3.24938   3.25441   3.25626   3.26318
 Alpha virt. eigenvalues --    3.27209   3.28025   3.29039   3.31191   3.31411
 Alpha virt. eigenvalues --    3.32132   3.32519   3.32816   3.34488   3.35335
 Alpha virt. eigenvalues --    3.36153   3.36756   3.38122   3.38164   3.39670
 Alpha virt. eigenvalues --    3.39875   3.41002   3.41200   3.42036   3.42863
 Alpha virt. eigenvalues --    3.43715   3.44401   3.46049   3.46409   3.48831
 Alpha virt. eigenvalues --    3.49369   3.50317   3.50973   3.51196   3.51845
 Alpha virt. eigenvalues --    3.52897   3.54205   3.54964   3.56019   3.56871
 Alpha virt. eigenvalues --    3.57599   3.58228   3.59100   3.60398   3.61578
 Alpha virt. eigenvalues --    3.62859   3.62934   3.63363   3.65119   3.65360
 Alpha virt. eigenvalues --    3.67665   3.69448   3.71555   3.72440   3.72779
 Alpha virt. eigenvalues --    3.73742   3.78011   3.78507   3.79402   3.80914
 Alpha virt. eigenvalues --    3.82799   3.83088   3.83502   3.84436   3.84902
 Alpha virt. eigenvalues --    3.88310   3.89633   3.90312   3.91910   3.94410
 Alpha virt. eigenvalues --    3.95402   3.96030   3.96058   3.98471   4.02404
 Alpha virt. eigenvalues --    4.04164   4.05516   4.07592   4.09283   4.09381
 Alpha virt. eigenvalues --    4.11062   4.12505   4.13114   4.15302   4.17215
 Alpha virt. eigenvalues --    4.18426   4.20425   4.21730   4.23554   4.24592
 Alpha virt. eigenvalues --    4.24803   4.26670   4.27873   4.28426   4.29001
 Alpha virt. eigenvalues --    4.29445   4.35279   4.38664   4.39269   4.39608
 Alpha virt. eigenvalues --    4.41195   4.42567   4.44040   4.45956   4.49447
 Alpha virt. eigenvalues --    4.52269   4.54238   4.55749   4.56956   4.57222
 Alpha virt. eigenvalues --    4.58256   4.62082   4.63257   4.63869   4.67854
 Alpha virt. eigenvalues --    4.68871   4.69438   4.73024   4.74265   4.77168
 Alpha virt. eigenvalues --    4.79731   4.81508   4.83908   4.88633   4.89003
 Alpha virt. eigenvalues --    4.91634   4.91755   4.94781   4.95990   4.97886
 Alpha virt. eigenvalues --    5.01134   5.05912   5.06928   5.11194   5.12910
 Alpha virt. eigenvalues --    5.19754   5.22089   5.25049   5.25648   5.28697
 Alpha virt. eigenvalues --    5.32540   5.35570   5.37032   5.38115   5.40037
 Alpha virt. eigenvalues --    5.41085   5.44982   5.51320   5.52990   5.55613
 Alpha virt. eigenvalues --    5.62534   5.71865   5.73542   5.80368   5.81482
 Alpha virt. eigenvalues --    7.94210   7.95083   8.02707   8.04613   8.08038
 Alpha virt. eigenvalues --    8.10595   8.11556   8.15809   8.16447   8.22768
 Alpha virt. eigenvalues --    8.33094   8.36641  34.75106  34.75712  34.81726
 Alpha virt. eigenvalues --   34.82486  34.85966  34.88675  34.98462  35.00157
 Alpha virt. eigenvalues --   35.01320  35.04084  35.16704  35.22746
  Beta  occ. eigenvalues --  -10.29644 -10.29488 -10.28844 -10.28584 -10.28437
  Beta  occ. eigenvalues --  -10.28391 -10.28213 -10.28142 -10.27952 -10.27934
  Beta  occ. eigenvalues --  -10.27894 -10.27856  -0.95134  -0.92739  -0.85510
  Beta  occ. eigenvalues --   -0.84540  -0.83587  -0.81227  -0.71155  -0.70551
  Beta  occ. eigenvalues --   -0.69320  -0.67630  -0.60011  -0.59181  -0.58661
  Beta  occ. eigenvalues --   -0.56296  -0.53552  -0.52695  -0.50758  -0.49174
  Beta  occ. eigenvalues --   -0.48856  -0.48336  -0.48144  -0.47320  -0.46250
  Beta  occ. eigenvalues --   -0.44763  -0.41516  -0.40881  -0.40015  -0.39222
  Beta  occ. eigenvalues --   -0.38015  -0.37186  -0.34355  -0.25154
  Beta virt. eigenvalues --    0.00078   0.10272   0.10535   0.12440   0.13144
  Beta virt. eigenvalues --    0.14060   0.14672   0.15424   0.16051   0.16304
  Beta virt. eigenvalues --    0.16950   0.17091   0.18380   0.19978   0.20314
  Beta virt. eigenvalues --    0.21349   0.22190   0.22408   0.23446   0.24207
  Beta virt. eigenvalues --    0.25067   0.25164   0.26228   0.26515   0.26852
  Beta virt. eigenvalues --    0.28472   0.28948   0.29474   0.30534   0.31480
  Beta virt. eigenvalues --    0.31503   0.31903   0.32189   0.32615   0.33846
  Beta virt. eigenvalues --    0.34014   0.35515   0.35962   0.36597   0.37107
  Beta virt. eigenvalues --    0.37850   0.38368   0.40900   0.41148   0.41762
  Beta virt. eigenvalues --    0.43221   0.43721   0.45004   0.45424   0.45934
  Beta virt. eigenvalues --    0.46483   0.46676   0.47646   0.48194   0.48378
  Beta virt. eigenvalues --    0.48546   0.49057   0.49271   0.49827   0.50543
  Beta virt. eigenvalues --    0.50817   0.51010   0.51310   0.52174   0.52780
  Beta virt. eigenvalues --    0.52838   0.53927   0.54070   0.54678   0.55400
  Beta virt. eigenvalues --    0.56016   0.56524   0.57468   0.58145   0.58257
  Beta virt. eigenvalues --    0.58507   0.60700   0.61485   0.63783   0.65514
  Beta virt. eigenvalues --    0.66492   0.67220   0.67614   0.69010   0.69531
  Beta virt. eigenvalues --    0.70382   0.71511   0.74684   0.75177   0.75361
  Beta virt. eigenvalues --    0.78902   0.79073   0.79844   0.81560   0.82031
  Beta virt. eigenvalues --    0.82992   0.84199   0.86775   0.87317   0.88194
  Beta virt. eigenvalues --    0.89773   0.90374   0.91967   0.93822   0.94809
  Beta virt. eigenvalues --    0.96104   0.97507   0.97557   0.98872   0.99546
  Beta virt. eigenvalues --    1.01521   1.01666   1.03822   1.04719   1.05429
  Beta virt. eigenvalues --    1.06851   1.08535   1.09756   1.10105   1.10452
  Beta virt. eigenvalues --    1.11680   1.14127   1.15584   1.16822   1.17285
  Beta virt. eigenvalues --    1.18343   1.18923   1.19442   1.19659   1.20626
  Beta virt. eigenvalues --    1.21663   1.23400   1.24853   1.25726   1.26551
  Beta virt. eigenvalues --    1.26793   1.27934   1.28581   1.29271   1.29355
  Beta virt. eigenvalues --    1.30371   1.30912   1.33224   1.33624   1.34693
  Beta virt. eigenvalues --    1.35208   1.36442   1.36737   1.38093   1.38664
  Beta virt. eigenvalues --    1.38952   1.39241   1.40078   1.41112   1.42014
  Beta virt. eigenvalues --    1.42950   1.42981   1.44303   1.45153   1.46103
  Beta virt. eigenvalues --    1.46446   1.47611   1.47693   1.50202   1.50667
  Beta virt. eigenvalues --    1.51696   1.53914   1.53990   1.57240   1.57586
  Beta virt. eigenvalues --    1.59143   1.60300   1.61420   1.62202   1.63445
  Beta virt. eigenvalues --    1.66985   1.67201   1.68339   1.69319   1.69964
  Beta virt. eigenvalues --    1.73558   1.74018   1.76833   1.77930   1.78492
  Beta virt. eigenvalues --    1.80443   1.81269   1.83258   1.84995   1.87442
  Beta virt. eigenvalues --    1.88530   1.90721   1.91725   1.92182   1.94420
  Beta virt. eigenvalues --    1.96968   1.98517   2.01662   2.05020   2.06909
  Beta virt. eigenvalues --    2.07675   2.08009   2.08537   2.11701   2.12212
  Beta virt. eigenvalues --    2.13353   2.13734   2.16458   2.18016   2.18244
  Beta virt. eigenvalues --    2.18995   2.19637   2.20477   2.22176   2.23960
  Beta virt. eigenvalues --    2.25974   2.26856   2.28821   2.31778   2.32393
  Beta virt. eigenvalues --    2.35006   2.36530   2.37403   2.40029   2.42204
  Beta virt. eigenvalues --    2.45652   2.46438   2.46795   2.48553   2.50171
  Beta virt. eigenvalues --    2.50813   2.54199   2.55240   2.56145   2.57391
  Beta virt. eigenvalues --    2.57618   2.60421   2.60778   2.62950   2.63181
  Beta virt. eigenvalues --    2.64398   2.64790   2.67116   2.67694   2.68436
  Beta virt. eigenvalues --    2.69183   2.70782   2.72023   2.72835   2.73046
  Beta virt. eigenvalues --    2.74129   2.74896   2.76119   2.77672   2.79956
  Beta virt. eigenvalues --    2.80158   2.81911   2.82012   2.82226   2.82658
  Beta virt. eigenvalues --    2.83472   2.85272   2.86445   2.86513   2.87563
  Beta virt. eigenvalues --    2.87814   2.88182   2.89408   2.89988   2.90740
  Beta virt. eigenvalues --    2.93271   2.93645   2.94325   2.95688   2.96707
  Beta virt. eigenvalues --    2.98907   3.00414   3.00928   3.02391   3.03592
  Beta virt. eigenvalues --    3.06161   3.06245   3.06625   3.07327   3.07966
  Beta virt. eigenvalues --    3.09940   3.10268   3.11027   3.12091   3.12469
  Beta virt. eigenvalues --    3.12810   3.14006   3.15171   3.15439   3.15994
  Beta virt. eigenvalues --    3.16231   3.16793   3.17111   3.19321   3.19999
  Beta virt. eigenvalues --    3.20681   3.20985   3.21603   3.22786   3.23733
  Beta virt. eigenvalues --    3.24506   3.24939   3.25441   3.25626   3.26318
  Beta virt. eigenvalues --    3.27209   3.28025   3.29039   3.31191   3.31411
  Beta virt. eigenvalues --    3.32132   3.32519   3.32816   3.34488   3.35335
  Beta virt. eigenvalues --    3.36153   3.36756   3.38122   3.38164   3.39670
  Beta virt. eigenvalues --    3.39875   3.41002   3.41200   3.42036   3.42863
  Beta virt. eigenvalues --    3.43715   3.44401   3.46049   3.46409   3.48830
  Beta virt. eigenvalues --    3.49370   3.50317   3.50973   3.51195   3.51845
  Beta virt. eigenvalues --    3.52897   3.54205   3.54964   3.56019   3.56871
  Beta virt. eigenvalues --    3.57599   3.58227   3.59100   3.60398   3.61578
  Beta virt. eigenvalues --    3.62859   3.62934   3.63363   3.65119   3.65360
  Beta virt. eigenvalues --    3.67665   3.69448   3.71555   3.72440   3.72779
  Beta virt. eigenvalues --    3.73742   3.78011   3.78507   3.79402   3.80914
  Beta virt. eigenvalues --    3.82799   3.83089   3.83502   3.84436   3.84902
  Beta virt. eigenvalues --    3.88310   3.89633   3.90312   3.91910   3.94410
  Beta virt. eigenvalues --    3.95402   3.96030   3.96058   3.98471   4.02404
  Beta virt. eigenvalues --    4.04164   4.05516   4.07592   4.09283   4.09381
  Beta virt. eigenvalues --    4.11062   4.12505   4.13114   4.15302   4.17215
  Beta virt. eigenvalues --    4.18426   4.20425   4.21730   4.23554   4.24592
  Beta virt. eigenvalues --    4.24804   4.26670   4.27873   4.28426   4.29001
  Beta virt. eigenvalues --    4.29445   4.35279   4.38664   4.39269   4.39608
  Beta virt. eigenvalues --    4.41195   4.42567   4.44040   4.45956   4.49447
  Beta virt. eigenvalues --    4.52269   4.54238   4.55750   4.56955   4.57222
  Beta virt. eigenvalues --    4.58256   4.62082   4.63256   4.63870   4.67854
  Beta virt. eigenvalues --    4.68871   4.69438   4.73024   4.74265   4.77168
  Beta virt. eigenvalues --    4.79731   4.81508   4.83908   4.88633   4.89003
  Beta virt. eigenvalues --    4.91634   4.91755   4.94781   4.95990   4.97886
  Beta virt. eigenvalues --    5.01135   5.05912   5.06928   5.11194   5.12910
  Beta virt. eigenvalues --    5.19754   5.22089   5.25049   5.25648   5.28697
  Beta virt. eigenvalues --    5.32540   5.35570   5.37032   5.38115   5.40037
  Beta virt. eigenvalues --    5.41085   5.44982   5.51320   5.52990   5.55613
  Beta virt. eigenvalues --    5.62534   5.71865   5.73542   5.80367   5.81483
  Beta virt. eigenvalues --    7.94209   7.95084   8.02707   8.04613   8.08038
  Beta virt. eigenvalues --    8.10594   8.11556   8.15809   8.16447   8.22768
  Beta virt. eigenvalues --    8.33094   8.36641  34.75106  34.75712  34.81726
  Beta virt. eigenvalues --   34.82486  34.85966  34.88675  34.98462  35.00157
  Beta virt. eigenvalues --   35.01320  35.04084  35.16704  35.22746
          Condensed to atoms (all electrons):
               1          2          3          4          5          6
     1  C    5.253339   0.025251   0.430045  -0.003154   0.001142  -0.009568
     2  C    0.025251   5.294840  -0.001731   0.423684  -0.109484   0.281894
     3  H    0.430045  -0.001731   0.491213   0.000043  -0.000005   0.000181
     4  H   -0.003154   0.423684   0.000043   0.534961  -0.001892  -0.013212
     5  C    0.001142  -0.109484  -0.000005  -0.001892   5.323214   0.274810
     6  C   -0.009568   0.281894   0.000181  -0.013212   0.274810   5.294830
     7  H    0.000060   0.000204   0.000004   0.000209   0.431305  -0.033567
     8  H   -0.001704  -0.013210  -0.000109   0.002076  -0.049554   0.423676
     9  C    0.002226  -0.066584   0.000000  -0.008805  -0.051093   0.263208
    10  H   -0.000035   0.007461  -0.000001  -0.000284  -0.000703  -0.045241
    11  H   -0.000313  -0.005628   0.000002   0.000940   0.011736  -0.051769
    12  C   -0.000183   0.010102  -0.000001   0.004361   0.430553  -0.070202
    13  H   -0.000000  -0.000224  -0.000000  -0.000037  -0.029685   0.003841
    14  C    0.000066  -0.009560  -0.000000  -0.001709  -0.059124   0.025270
    15  H   -0.000000   0.000181  -0.000000  -0.000109   0.004360  -0.001732
    16  C   -0.000334   0.018816   0.000000   0.001963  -0.003344  -0.081405
    17  H    0.000041   0.002407  -0.000000  -0.003550   0.006123  -0.010847
    18  H    0.000002  -0.000350   0.000000   0.000366  -0.001778   0.012279
    19  C   -0.059127   0.274760   0.004363  -0.049568   0.008710  -0.109508
    20  H    0.004758  -0.033630  -0.000153  -0.005772  -0.000531   0.000200
    21  C    0.463046  -0.070228  -0.034562   0.007250  -0.000257   0.010113
    22  H   -0.030742   0.003841  -0.005504  -0.000147   0.000053  -0.000223
    23  C   -0.098957   0.263256   0.005618  -0.022210   0.014104  -0.066566
    24  H    0.013077  -0.051771  -0.000075  -0.003291   0.005597  -0.005635
    25  H   -0.000278  -0.045212  -0.000136  -0.005333  -0.000317   0.007458
    26  C    0.279058  -0.081393  -0.030667   0.009592  -0.009464   0.018803
    27  H   -0.030129   0.012275  -0.004102  -0.000178   0.000118  -0.000350
    28  H   -0.038496  -0.010832   0.000579  -0.000173  -0.001309   0.002408
               7          8          9         10         11         12
     1  C    0.000060  -0.001704   0.002226  -0.000035  -0.000313  -0.000183
     2  C    0.000204  -0.013210  -0.066584   0.007461  -0.005628   0.010102
     3  H    0.000004  -0.000109   0.000000  -0.000001   0.000002  -0.000001
     4  H    0.000209   0.002076  -0.008805  -0.000284   0.000940   0.004361
     5  C    0.431305  -0.049554  -0.051093  -0.000703   0.011736   0.430553
     6  C   -0.033567   0.423676   0.263208  -0.045241  -0.051769  -0.070202
     7  H    0.481946  -0.005771   0.003696   0.000222  -0.000073  -0.035029
     8  H   -0.005771   0.535094  -0.022269  -0.005336  -0.003290   0.007260
     9  C    0.003696  -0.022269   5.013784   0.412150   0.448054   0.027951
    10  H    0.000222  -0.005336   0.412150   0.556637  -0.016199   0.001353
    11  H   -0.000073  -0.003290   0.448054  -0.016199   0.531844  -0.005063
    12  C   -0.035029   0.007260   0.027951   0.001353  -0.005063   4.996896
    13  H   -0.004887  -0.000147   0.000273  -0.000134   0.000039   0.420889
    14  C    0.004760  -0.003157  -0.098954  -0.000277   0.013072   0.463014
    15  H   -0.000153   0.000043   0.005618  -0.000136  -0.000075  -0.034562
    16  C   -0.001355   0.009599   0.337706  -0.027441  -0.053743  -0.046671
    17  H   -0.000016  -0.000173  -0.029114   0.005298  -0.004597  -0.006599
    18  H    0.000061  -0.000178  -0.039015  -0.006380  -0.002825   0.004035
    19  C   -0.000531  -0.001900   0.014127  -0.000317   0.005588  -0.000260
    20  H    0.000003   0.000209   0.002725   0.000295  -0.002924  -0.000064
    21  C   -0.000064   0.004361  -0.003923  -0.000053   0.000340   0.000110
    22  H   -0.000002  -0.000037  -0.000063  -0.000003  -0.000013   0.000000
    23  C    0.002720  -0.008788   0.009239  -0.000251   0.000045  -0.003921
    24  H   -0.002922   0.000939   0.000046  -0.000019  -0.000011   0.000340
    25  H    0.000295  -0.000284  -0.000250   0.000016  -0.000019  -0.000053
    26  C   -0.001240   0.001959  -0.002215   0.000070   0.000055   0.001277
    27  H   -0.000030   0.000366   0.000032  -0.000001  -0.000003  -0.000012
    28  H    0.002174  -0.003547   0.000856   0.000008   0.000010  -0.000011
              13         14         15         16         17         18
     1  C   -0.000000   0.000066  -0.000000  -0.000334   0.000041   0.000002
     2  C   -0.000224  -0.009560   0.000181   0.018816   0.002407  -0.000350
     3  H   -0.000000  -0.000000  -0.000000   0.000000  -0.000000   0.000000
     4  H   -0.000037  -0.001709  -0.000109   0.001963  -0.003550   0.000366
     5  C   -0.029685  -0.059124   0.004360  -0.003344   0.006123  -0.001778
     6  C    0.003841   0.025270  -0.001732  -0.081405  -0.010847   0.012279
     7  H   -0.004887   0.004760  -0.000153  -0.001355  -0.000016   0.000061
     8  H   -0.000147  -0.003157   0.000043   0.009599  -0.000173  -0.000178
     9  C    0.000273  -0.098954   0.005618   0.337706  -0.029114  -0.039015
    10  H   -0.000134  -0.000277  -0.000136  -0.027441   0.005298  -0.006380
    11  H    0.000039   0.013072  -0.000075  -0.053743  -0.004597  -0.002825
    12  C    0.420889   0.463014  -0.034562  -0.046671  -0.006599   0.004035
    13  H    0.499907  -0.030732  -0.005503   0.004717  -0.000394  -0.000153
    14  C   -0.030732   5.253351   0.430050   0.279054  -0.038515  -0.030151
    15  H   -0.005503   0.430050   0.491210  -0.030667   0.000576  -0.004102
    16  C    0.004717   0.279054  -0.030667   4.968832   0.401148   0.415547
    17  H   -0.000394  -0.038515   0.000576   0.401148   0.583046  -0.023379
    18  H   -0.000153  -0.030151  -0.004102   0.415547  -0.023379   0.548302
    19  C    0.000053   0.001143  -0.000005  -0.009470  -0.001307   0.000118
    20  H   -0.000002   0.000060   0.000004  -0.001239   0.002177  -0.000030
    21  C    0.000000  -0.000183  -0.000001   0.001278  -0.000010  -0.000012
    22  H    0.000000  -0.000000  -0.000000   0.000003  -0.000006  -0.000001
    23  C   -0.000063   0.002226   0.000000  -0.002214   0.000856   0.000032
    24  H   -0.000013  -0.000313   0.000002   0.000055   0.000010  -0.000003
    25  H   -0.000003  -0.000035  -0.000001   0.000070   0.000008  -0.000001
    26  C    0.000003  -0.000334   0.000000   0.000450  -0.000049  -0.000001
    27  H   -0.000001   0.000002   0.000000  -0.000001   0.000001  -0.000000
    28  H   -0.000006   0.000041  -0.000000  -0.000049  -0.000003   0.000001
              19         20         21         22         23         24
     1  C   -0.059127   0.004758   0.463046  -0.030742  -0.098957   0.013077
     2  C    0.274760  -0.033630  -0.070228   0.003841   0.263256  -0.051771
     3  H    0.004363  -0.000153  -0.034562  -0.005504   0.005618  -0.000075
     4  H   -0.049568  -0.005772   0.007250  -0.000147  -0.022210  -0.003291
     5  C    0.008710  -0.000531  -0.000257   0.000053   0.014104   0.005597
     6  C   -0.109508   0.000200   0.010113  -0.000223  -0.066566  -0.005635
     7  H   -0.000531   0.000003  -0.000064  -0.000002   0.002720  -0.002922
     8  H   -0.001900   0.000209   0.004361  -0.000037  -0.008788   0.000939
     9  C    0.014127   0.002725  -0.003923  -0.000063   0.009239   0.000046
    10  H   -0.000317   0.000295  -0.000053  -0.000003  -0.000251  -0.000019
    11  H    0.005588  -0.002924   0.000340  -0.000013   0.000045  -0.000011
    12  C   -0.000260  -0.000064   0.000110   0.000000  -0.003921   0.000340
    13  H    0.000053  -0.000002   0.000000   0.000000  -0.000063  -0.000013
    14  C    0.001143   0.000060  -0.000183  -0.000000   0.002226  -0.000313
    15  H   -0.000005   0.000004  -0.000001  -0.000000   0.000000   0.000002
    16  C   -0.009470  -0.001239   0.001278   0.000003  -0.002214   0.000055
    17  H   -0.001307   0.002177  -0.000010  -0.000006   0.000856   0.000010
    18  H    0.000118  -0.000030  -0.000012  -0.000001   0.000032  -0.000003
    19  C    5.323285   0.431302   0.430614  -0.029685  -0.051090   0.011736
    20  H    0.431302   0.482060  -0.034971  -0.004888   0.003697  -0.000073
    21  C    0.430614  -0.034971   4.996842   0.420900   0.027972  -0.005064
    22  H   -0.029685  -0.004888   0.420900   0.499893   0.000273   0.000039
    23  C   -0.051090   0.003697   0.027972   0.000273   5.013568   0.448019
    24  H    0.011736  -0.000073  -0.005064   0.000039   0.448019   0.532028
    25  H   -0.000688   0.000223   0.001350  -0.000134   0.412150  -0.016229
    26  C   -0.003366  -0.001352  -0.046668   0.004717   0.337775  -0.053749
    27  H   -0.001776   0.000061   0.004033  -0.000153  -0.038996  -0.002824
    28  H    0.006126  -0.000016  -0.006617  -0.000394  -0.029106  -0.004600
              25         26         27         28
     1  C   -0.000278   0.279058  -0.030129  -0.038496
     2  C   -0.045212  -0.081393   0.012275  -0.010832
     3  H   -0.000136  -0.030667  -0.004102   0.000579
     4  H   -0.005333   0.009592  -0.000178  -0.000173
     5  C   -0.000317  -0.009464   0.000118  -0.001309
     6  C    0.007458   0.018803  -0.000350   0.002408
     7  H    0.000295  -0.001240  -0.000030   0.002174
     8  H   -0.000284   0.001959   0.000366  -0.003547
     9  C   -0.000250  -0.002215   0.000032   0.000856
    10  H    0.000016   0.000070  -0.000001   0.000008
    11  H   -0.000019   0.000055  -0.000003   0.000010
    12  C   -0.000053   0.001277  -0.000012  -0.000011
    13  H   -0.000003   0.000003  -0.000001  -0.000006
    14  C   -0.000035  -0.000334   0.000002   0.000041
    15  H   -0.000001   0.000000   0.000000  -0.000000
    16  C    0.000070   0.000450  -0.000001  -0.000049
    17  H    0.000008  -0.000049   0.000001  -0.000003
    18  H   -0.000001  -0.000001  -0.000000   0.000001
    19  C   -0.000688  -0.003366  -0.001776   0.006126
    20  H    0.000223  -0.001352   0.000061  -0.000016
    21  C    0.001350  -0.046668   0.004033  -0.006617
    22  H   -0.000134   0.004717  -0.000153  -0.000394
    23  C    0.412150   0.337775  -0.038996  -0.029106
    24  H   -0.016229  -0.053749  -0.002824  -0.004600
    25  H    0.556441  -0.027408  -0.006381   0.005295
    26  C   -0.027408   4.968816   0.415508   0.401164
    27  H   -0.006381   0.415508   0.548319  -0.023386
    28  H    0.005295   0.401164  -0.023386   0.582903
          Atomic-Atomic Spin Densities.
               1          2          3          4          5          6
     1  C   -0.684347  -0.005521   0.001055  -0.000060   0.000254  -0.005530
     2  C   -0.005521   0.123852  -0.000187  -0.003187  -0.053218   0.000013
     3  H    0.001055  -0.000187   0.024729   0.000002   0.000002   0.000030
     4  H   -0.000060  -0.003187   0.000002  -0.010667   0.002767   0.008327
     5  C    0.000254  -0.053218   0.000002   0.002767   0.771473  -0.035666
     6  C   -0.005530   0.000013   0.000030   0.008327  -0.035666  -0.123815
     7  H   -0.000000   0.000433   0.000000   0.000005  -0.002545   0.000432
     8  H    0.001714  -0.008333   0.000007   0.000000  -0.000255   0.003180
     9  C   -0.000092  -0.011790   0.000000  -0.000993  -0.004406   0.010822
    10  H   -0.000026   0.000407  -0.000000  -0.000001  -0.001697   0.000364
    11  H    0.000270   0.001088  -0.000000  -0.000036   0.000027   0.001642
    12  C    0.000081   0.008420  -0.000000  -0.001616  -0.008649   0.009149
    13  H    0.000000   0.000190  -0.000000  -0.000026  -0.001646   0.000419
    14  C    0.000000   0.005543  -0.000000  -0.001715  -0.059673   0.005533
    15  H    0.000000  -0.000030  -0.000000  -0.000007  -0.000420   0.000187
    16  C    0.000027  -0.001560   0.000000   0.001078   0.007311  -0.003093
    17  H   -0.000013  -0.003234   0.000000   0.000532   0.004276  -0.003118
    18  H    0.000001   0.000268   0.000000  -0.000044  -0.000223   0.000842
    19  C    0.059655   0.035668   0.000420   0.000258   0.000003   0.053184
    20  H    0.000303  -0.000437  -0.000007  -0.000342  -0.000080  -0.000436
    21  C   -0.007761  -0.009155  -0.000579   0.001057   0.000801  -0.008417
    22  H    0.000948  -0.000420  -0.000279   0.000024   0.000010  -0.000190
    23  C   -0.002828  -0.010829   0.000294  -0.004129  -0.001351   0.011790
    24  H   -0.000176  -0.001644  -0.000005   0.000240   0.002155  -0.001089
    25  H    0.000468  -0.000363   0.000004   0.000113  -0.000194  -0.000407
    26  C    0.033518   0.003084  -0.001123  -0.000142   0.000317   0.001549
    27  H    0.007392  -0.000841  -0.000234   0.000047   0.000019  -0.000268
    28  H    0.021536   0.003115   0.000139  -0.000202  -0.000103   0.003231
               7          8          9         10         11         12
     1  C   -0.000000   0.001714  -0.000092  -0.000026   0.000270   0.000081
     2  C    0.000433  -0.008333  -0.011790   0.000407   0.001088   0.008420
     3  H    0.000000   0.000007   0.000000  -0.000000  -0.000000  -0.000000
     4  H    0.000005   0.000000  -0.000993  -0.000001  -0.000036  -0.001616
     5  C   -0.002545  -0.000255  -0.004406  -0.001697   0.000027  -0.008649
     6  C    0.000432   0.003180   0.010822   0.000364   0.001642   0.009149
     7  H   -0.026087   0.000343  -0.000276  -0.000025   0.000007   0.001944
     8  H    0.000343   0.010672   0.004130  -0.000113  -0.000240  -0.001058
     9  C   -0.000276   0.004130   0.008614  -0.001310  -0.001050  -0.002664
    10  H   -0.000025  -0.000113  -0.001310   0.000146   0.000532   0.001045
    11  H    0.000007  -0.000240  -0.001050   0.000532  -0.000492  -0.000085
    12  C    0.001944  -0.001058  -0.002664   0.001045  -0.000085  -0.245373
    13  H    0.000282  -0.000024  -0.000145   0.000020  -0.000001   0.001926
    14  C   -0.000303   0.000059   0.002815  -0.000469   0.000176   0.007765
    15  H    0.000007  -0.000002  -0.000294  -0.000004   0.000005   0.000580
    16  C    0.000044   0.000143   0.006359   0.000596  -0.000185   0.003367
    17  H   -0.000021   0.000202  -0.002187   0.000204  -0.000487  -0.000691
    18  H    0.000002  -0.000047   0.002675  -0.000480   0.000267   0.000774
    19  C    0.000080  -0.002765   0.001353   0.000194  -0.002149  -0.000801
    20  H   -0.000000  -0.000005   0.000154   0.000015  -0.000165   0.000029
    21  C   -0.000029   0.001615  -0.000421  -0.000027   0.000173  -0.000000
    22  H   -0.000000   0.000026  -0.000014  -0.000000   0.000013  -0.000000
    23  C   -0.000154   0.000993   0.000000  -0.000008  -0.000170   0.000421
    24  H    0.000165   0.000036   0.000170  -0.000001  -0.000000  -0.000173
    25  H   -0.000015   0.000001   0.000008   0.000000   0.000001   0.000026
    26  C    0.000151  -0.001077  -0.000035   0.000011  -0.000043  -0.000235
    27  H    0.000006   0.000044   0.000008  -0.000000   0.000002   0.000008
    28  H   -0.000083  -0.000532  -0.000100   0.000004  -0.000040  -0.000132
              13         14         15         16         17         18
     1  C    0.000000   0.000000   0.000000   0.000027  -0.000013   0.000001
     2  C    0.000190   0.005543  -0.000030  -0.001560  -0.003234   0.000268
     3  H   -0.000000  -0.000000  -0.000000   0.000000   0.000000   0.000000
     4  H   -0.000026  -0.001715  -0.000007   0.001078   0.000532  -0.000044
     5  C   -0.001646  -0.059673  -0.000420   0.007311   0.004276  -0.000223
     6  C    0.000419   0.005533   0.000187  -0.003093  -0.003118   0.000842
     7  H    0.000282  -0.000303   0.000007   0.000044  -0.000021   0.000002
     8  H   -0.000024   0.000059  -0.000002   0.000143   0.000202  -0.000047
     9  C   -0.000145   0.002815  -0.000294   0.006359  -0.002187   0.002675
    10  H    0.000020  -0.000469  -0.000004   0.000596   0.000204  -0.000480
    11  H   -0.000001   0.000176   0.000005  -0.000185  -0.000487   0.000267
    12  C    0.001926   0.007765   0.000580   0.003367  -0.000691   0.000774
    13  H    0.008965  -0.000945   0.000279   0.000059  -0.000054   0.000021
    14  C   -0.000945   0.684330  -0.001056  -0.033492  -0.021554  -0.007387
    15  H    0.000279  -0.001056  -0.024729   0.001124  -0.000140   0.000234
    16  C    0.000059  -0.033492   0.001124  -0.034744   0.012471   0.004643
    17  H   -0.000054  -0.021554  -0.000140   0.012471   0.054301  -0.008604
    18  H    0.000021  -0.007387   0.000234   0.004643  -0.008604   0.020863
    19  C   -0.000010  -0.000255  -0.000003  -0.000316   0.000104  -0.000019
    20  H    0.000000   0.000000  -0.000000  -0.000151   0.000083  -0.000006
    21  C    0.000000  -0.000082   0.000000   0.000235   0.000133  -0.000008
    22  H    0.000000  -0.000000   0.000000   0.000004   0.000002  -0.000000
    23  C    0.000015   0.000092  -0.000000   0.000035   0.000100  -0.000008
    24  H   -0.000013  -0.000270   0.000000   0.000043   0.000040  -0.000002
    25  H    0.000000   0.000026   0.000000  -0.000011  -0.000004   0.000000
    26  C   -0.000004  -0.000027  -0.000000  -0.000000   0.000014  -0.000001
    27  H    0.000000  -0.000001  -0.000000   0.000001   0.000000   0.000000
    28  H   -0.000002   0.000013  -0.000000  -0.000014  -0.000000  -0.000000
              19         20         21         22         23         24
     1  C    0.059655   0.000303  -0.007761   0.000948  -0.002828  -0.000176
     2  C    0.035668  -0.000437  -0.009155  -0.000420  -0.010829  -0.001644
     3  H    0.000420  -0.000007  -0.000579  -0.000279   0.000294  -0.000005
     4  H    0.000258  -0.000342   0.001057   0.000024  -0.004129   0.000240
     5  C    0.000003  -0.000080   0.000801   0.000010  -0.001351   0.002155
     6  C    0.053184  -0.000436  -0.008417  -0.000190   0.011790  -0.001089
     7  H    0.000080  -0.000000  -0.000029  -0.000000  -0.000154   0.000165
     8  H   -0.002765  -0.000005   0.001615   0.000026   0.000993   0.000036
     9  C    0.001353   0.000154  -0.000421  -0.000014   0.000000   0.000170
    10  H    0.000194   0.000015  -0.000027  -0.000000  -0.000008  -0.000001
    11  H   -0.002149  -0.000165   0.000173   0.000013  -0.000170  -0.000000
    12  C   -0.000801   0.000029  -0.000000  -0.000000   0.000421  -0.000173
    13  H   -0.000010   0.000000   0.000000   0.000000   0.000015  -0.000013
    14  C   -0.000255   0.000000  -0.000082  -0.000000   0.000092  -0.000270
    15  H   -0.000003  -0.000000   0.000000   0.000000  -0.000000   0.000000
    16  C   -0.000316  -0.000151   0.000235   0.000004   0.000035   0.000043
    17  H    0.000104   0.000083   0.000133   0.000002   0.000100   0.000040
    18  H   -0.000019  -0.000006  -0.000008  -0.000000  -0.000008  -0.000002
    19  C   -0.771463   0.002546   0.008662   0.001647   0.004404  -0.000028
    20  H    0.002546   0.026091  -0.001943  -0.000283   0.000277  -0.000007
    21  C    0.008662  -0.001943   0.245364  -0.001928   0.002674   0.000085
    22  H    0.001647  -0.000283  -0.001928  -0.008966   0.000145   0.000001
    23  C    0.004404   0.000277   0.002674   0.000145  -0.008609   0.001048
    24  H   -0.000028  -0.000007   0.000085   0.000001   0.001048   0.000494
    25  H    0.001697   0.000025  -0.001044  -0.000020   0.001309  -0.000532
    26  C   -0.007300  -0.000044  -0.003380  -0.000060  -0.006353   0.000186
    27  H    0.000222  -0.000002  -0.000775  -0.000021  -0.002671  -0.000267
    28  H   -0.004272   0.000021   0.000694   0.000054   0.002181   0.000486
              25         26         27         28
     1  C    0.000468   0.033518   0.007392   0.021536
     2  C   -0.000363   0.003084  -0.000841   0.003115
     3  H    0.000004  -0.001123  -0.000234   0.000139
     4  H    0.000113  -0.000142   0.000047  -0.000202
     5  C   -0.000194   0.000317   0.000019  -0.000103
     6  C   -0.000407   0.001549  -0.000268   0.003231
     7  H   -0.000015   0.000151   0.000006  -0.000083
     8  H    0.000001  -0.001077   0.000044  -0.000532
     9  C    0.000008  -0.000035   0.000008  -0.000100
    10  H    0.000000   0.000011  -0.000000   0.000004
    11  H    0.000001  -0.000043   0.000002  -0.000040
    12  C    0.000026  -0.000235   0.000008  -0.000132
    13  H    0.000000  -0.000004   0.000000  -0.000002
    14  C    0.000026  -0.000027  -0.000001   0.000013
    15  H    0.000000  -0.000000  -0.000000  -0.000000
    16  C   -0.000011  -0.000000   0.000001  -0.000014
    17  H   -0.000004   0.000014   0.000000  -0.000000
    18  H    0.000000  -0.000001   0.000000  -0.000000
    19  C    0.001697  -0.007300   0.000222  -0.004272
    20  H    0.000025  -0.000044  -0.000002   0.000021
    21  C   -0.001044  -0.003380  -0.000775   0.000694
    22  H   -0.000020  -0.000060  -0.000021   0.000054
    23  C    0.001309  -0.006353  -0.002671   0.002181
    24  H   -0.000532   0.000186  -0.000267   0.000486
    25  H   -0.000146  -0.000595   0.000480  -0.000204
    26  C   -0.000595   0.034728  -0.004651  -0.012460
    27  H    0.000480  -0.004651  -0.020863   0.008602
    28  H   -0.000204  -0.012460   0.008602  -0.054287
 Mulliken charges and spin densities:
               1          2
     1  C   -0.199092  -0.579131
     2  C   -0.119135   0.071334
     3  H    0.144997   0.024269
     4  H    0.133980  -0.008713
     5  C   -0.193288   0.619288
     6  C   -0.119146  -0.071335
     7  H    0.157982  -0.025637
     8  H    0.133873   0.008714
     9  C   -0.219407   0.011332
    10  H    0.119300  -0.000623
    11  H    0.134818  -0.000938
    12  C   -0.165510  -0.225941
    13  H    0.142261   0.009309
    14  C   -0.199064   0.579122
    15  H    0.145002  -0.024270
    16  C   -0.181304  -0.036027
    17  H    0.116868   0.032355
    18  H    0.127615   0.013762
    19  C   -0.193328  -0.619284
    20  H    0.157873   0.025638
    21  C   -0.165596   0.225944
    22  H    0.142274  -0.009309
    23  C   -0.219389  -0.011331
    24  H    0.134707   0.000940
    25  H    0.119456   0.000623
    26  C   -0.181339   0.036029
    27  H    0.127608  -0.013763
    28  H    0.116981  -0.032357
 Sum of Mulliken charges =  -0.00000  -0.00000
 Mulliken charges and spin densities with hydrogens summed into heavy atoms:
               1          2
     1  C   -0.054094  -0.554862
     2  C    0.014845   0.062621
     5  C   -0.035306   0.593651
     6  C    0.014727  -0.062621
     9  C    0.034712   0.009771
    12  C   -0.023249  -0.216632
    14  C   -0.054062   0.554852
    16  C    0.063179   0.010090
    19  C   -0.035454  -0.593646
    21  C   -0.023322   0.216635
    23  C    0.034774  -0.009768
    26  C    0.063250  -0.010090
 Electronic spatial extent (au):  <R**2>=           2178.1367
 Charge=             -0.0000 electrons
 Dipole moment (field-independent basis, Debye):
    X=             -0.0003    Y=              0.0010    Z=              0.0001  Tot=              0.0010
 Quadrupole moment (field-independent basis, Debye-Ang):
   XX=            -72.1121   YY=            -71.2091   ZZ=            -76.3068
   XY=             -2.5554   XZ=             -2.9326   YZ=             -0.2504
 Traceless Quadrupole moment (field-independent basis, Debye-Ang):
   XX=              1.0973   YY=              2.0002   ZZ=             -3.0975
   XY=             -2.5554   XZ=             -2.9326   YZ=             -0.2504
 Octapole moment (field-independent basis, Debye-Ang**2):
  XXX=              0.0006  YYY=              0.0027  ZZZ=             -0.0036  XYY=              0.0002
  XXY=              0.0031  XXZ=              0.0006  XZZ=             -0.0033  YZZ=              0.0026
  YYZ=              0.0027  XYZ=              0.0023
 Hexadecapole moment (field-independent basis, Debye-Ang**3):
 XXXX=          -2012.9288 YYYY=           -641.0466 ZZZZ=           -297.3337 XXXY=            -89.2584
 XXXZ=           -110.8311 YYYX=            -60.5821 YYYZ=              0.9394 ZZZX=            -61.4491
 ZZZY=             -6.6201 XXYY=           -441.5412 XXZZ=           -413.9726 YYZZ=           -171.0468
 XXYZ=            -19.7423 YYXZ=            -24.1743 ZZXY=            -40.6103
 N-N= 6.942429817908D+02 E-N=-2.469991275297D+03  KE= 4.639450497609D+02
                          Isotropic Fermi Contact Couplings
        Atom                 a.u.       MegaHertz       Gauss      10(-4) cm-1
     1  C(13)             -0.04425     -24.87526      -8.87611      -8.29749
     2  C(13)              0.06061      34.06972      12.15693      11.36444
     3  H(1)               0.00870      19.44477       6.93838       6.48608
     4  H(1)              -0.00454     -10.13810      -3.61753      -3.38171
     5  C(13)              0.04840      27.20790       9.70846       9.07558
     6  C(13)             -0.06061     -34.07038     -12.15716     -11.36466
     7  H(1)              -0.00936     -20.91183      -7.46186      -6.97544
     8  H(1)               0.00454      10.13801       3.61749       3.38168
     9  C(13)              0.00415       2.33503       0.83320       0.77888
    10  H(1)              -0.00046      -1.03566      -0.36955      -0.34546
    11  H(1)              -0.00032      -0.71204      -0.25407      -0.23751
    12  C(13)             -0.04303     -24.18520      -8.62988      -8.06731
    13  H(1)               0.00303       6.77192       2.41639       2.25887
    14  C(13)              0.04425      24.87532       8.87613       8.29751
    15  H(1)              -0.00870     -19.44457      -6.93831      -6.48601
    16  C(13)             -0.01820     -10.22802      -3.64961      -3.41170
    17  H(1)               0.01571      35.10342      12.52577      11.70924
    18  H(1)               0.00656      14.66205       5.23178       4.89073
    19  C(13)             -0.04840     -27.20651      -9.70796      -9.07511
    20  H(1)               0.00936      20.91100       7.46156       6.97516
    21  C(13)              0.04303      24.18476       8.62972       8.06717
    22  H(1)              -0.00303      -6.77184      -2.41636      -2.25884
    23  C(13)             -0.00415      -2.33444      -0.83299      -0.77869
    24  H(1)               0.00032       0.71205       0.25408       0.23751
    25  H(1)               0.00046       1.03563       0.36954       0.34545
    26  C(13)              0.01820      10.22760       3.64946       3.41156
    27  H(1)              -0.00656     -14.66338      -5.23226      -4.89118
    28  H(1)              -0.01571     -35.10774     -12.52732     -11.71068
 --------------------------------------------------------
       Center         ----  Spin Dipole Couplings  ----
                      3XX-RR        3YY-RR        3ZZ-RR
 --------------------------------------------------------
     1   Atom        0.132825      0.342561     -0.475386
     2   Atom       -0.006563     -0.032050      0.038613
     3   Atom       -0.033651      0.043520     -0.009869
     4   Atom       -0.002395     -0.005488      0.007883
     5   Atom       -0.237089     -0.355294      0.592383
     6   Atom        0.006564      0.032052     -0.038616
     7   Atom       -0.018654      0.016831      0.001822
     8   Atom        0.002394      0.005489     -0.007883
     9   Atom       -0.001180      0.008112     -0.006932
    10   Atom       -0.004211      0.003648      0.000562
    11   Atom       -0.005758      0.006990     -0.001232
    12   Atom        0.071612      0.099632     -0.171244
    13   Atom        0.007009     -0.001919     -0.005090
    14   Atom       -0.132827     -0.342560      0.475387
    15   Atom        0.033650     -0.043519      0.009869
    16   Atom       -0.005176      0.002645      0.002531
    17   Atom       -0.008281      0.008960     -0.000679
    18   Atom       -0.006219      0.010454     -0.004236
    19   Atom        0.237084      0.355282     -0.592366
    20   Atom        0.018653     -0.016830     -0.001823
    21   Atom       -0.071608     -0.099629      0.171237
    22   Atom       -0.007008      0.001918      0.005090
    23   Atom        0.001180     -0.008112      0.006932
    24   Atom        0.005758     -0.006990      0.001232
    25   Atom        0.004210     -0.003648     -0.000562
    26   Atom        0.005177     -0.002642     -0.002536
    27   Atom        0.006218     -0.010454      0.004236
    28   Atom        0.008282     -0.008960      0.000677
 --------------------------------------------------------
                        XY            XZ            YZ
 --------------------------------------------------------
     1   Atom        0.001841     -0.399008      0.007336
     2   Atom        0.008989      0.045549      0.021129
     3   Atom       -0.008176      0.017547      0.004808
     4   Atom       -0.005120      0.004619      0.008746
     5   Atom       -0.044415      0.349428     -0.088370
     6   Atom       -0.008990     -0.045551     -0.021132
     7   Atom       -0.043334      0.004003      0.014552
     8   Atom        0.005120     -0.004619     -0.008747
     9   Atom       -0.013453     -0.012404      0.002990
    10   Atom       -0.001122     -0.003490     -0.005558
    11   Atom        0.004596     -0.008105     -0.000052
    12   Atom       -0.008583     -0.127597      0.022601
    13   Atom       -0.007401     -0.007750      0.003131
    14   Atom       -0.001841      0.399002     -0.007336
    15   Atom        0.008176     -0.017547     -0.004809
    16   Atom        0.001893      0.006513     -0.000482
    17   Atom        0.004474      0.001746      0.005285
    18   Atom       -0.002496     -0.000799     -0.002621
    19   Atom        0.044411     -0.349411      0.088362
    20   Atom        0.043333     -0.004003     -0.014551
    21   Atom        0.008585      0.127594     -0.022599
    22   Atom        0.007401      0.007750     -0.003131
    23   Atom        0.013453      0.012405     -0.002990
    24   Atom       -0.004596      0.008105      0.000052
    25   Atom        0.001122      0.003490      0.005558
    26   Atom       -0.001894     -0.006517      0.000480
    27   Atom        0.002497      0.000799      0.002621
    28   Atom       -0.004474     -0.001747     -0.005285
 --------------------------------------------------------


 ---------------------------------------------------------------------------------
              Anisotropic Spin Dipole Couplings in Principal Axis System
 ---------------------------------------------------------------------------------

       Atom             a.u.   MegaHertz   Gauss  10(-4) cm-1        Axes

              Baa    -0.6730   -90.313   -32.226   -30.125  0.4437 -0.0073  0.8961
     1 C(13)  Bbb     0.3302    44.309    15.811    14.780  0.8892  0.1282 -0.4392
              Bcc     0.3428    46.004    16.415    15.345 -0.1117  0.9917  0.0634
 
              Baa    -0.0395    -5.301    -1.892    -1.768  0.4122  0.7899 -0.4540
     2 C(13)  Bbb    -0.0323    -4.338    -1.548    -1.447  0.7556 -0.5748 -0.3140
              Bcc     0.0718     9.639     3.439     3.215  0.5090  0.2136  0.8338
 
              Baa    -0.0440   -23.467    -8.374    -7.828  0.8778  0.1077 -0.4667
     3 H(1)   Bbb    -0.0006    -0.303    -0.108    -0.101  0.4703 -0.0090  0.8825
              Bcc     0.0445    23.770     8.482     7.929 -0.0908  0.9941  0.0586
 
              Baa    -0.0137    -7.331    -2.616    -2.445  0.5091  0.7546 -0.4140
     4 H(1)   Bbb     0.0013     0.674     0.240     0.225  0.8487 -0.5203  0.0952
              Bcc     0.0125     6.658     2.376     2.221  0.1435  0.3998  0.9053
 
              Baa    -0.3758   -50.429   -17.994   -16.821  0.6925  0.6969 -0.1863
     5 C(13)  Bbb    -0.3531   -47.378   -16.906   -15.804 -0.6349  0.7115  0.3012
              Bcc     0.7289    97.807    34.900    32.625  0.3424 -0.0903  0.9352
 
              Baa    -0.0718    -9.640    -3.440    -3.215  0.5090  0.2137  0.8338
     6 C(13)  Bbb     0.0323     4.338     1.548     1.447  0.7557 -0.5748 -0.3140
              Bcc     0.0395     5.301     1.892     1.768  0.4122  0.7899 -0.4540
 
              Baa    -0.0503   -26.835    -9.575    -8.951  0.7976  0.5622 -0.2183
     7 H(1)   Bbb     0.0022     1.183     0.422     0.395  0.3005 -0.0568  0.9521
              Bcc     0.0481    25.651     9.153     8.556 -0.5229  0.8250  0.2143
 
              Baa    -0.0125    -6.658    -2.376    -2.221  0.1435  0.3998  0.9053
     8 H(1)   Bbb    -0.0013    -0.674    -0.240    -0.225  0.8487 -0.5203  0.0952
              Bcc     0.0137     7.332     2.616     2.446  0.5091  0.7546 -0.4140
 
              Baa    -0.0185    -2.485    -0.887    -0.829  0.6910  0.2740  0.6689
     9 C(13)  Bbb    -0.0027    -0.368    -0.131    -0.123 -0.3790 -0.6507  0.6580
              Bcc     0.0213     2.854     1.018     0.952 -0.6156  0.7081  0.3459
 
              Baa    -0.0075    -3.979    -1.420    -1.327  0.7379  0.3602  0.5707
    10 H(1)   Bbb    -0.0005    -0.293    -0.105    -0.098  0.6662 -0.5243 -0.5304
              Bcc     0.0080     4.272     1.524     1.425  0.1082  0.7716 -0.6268
 
              Baa    -0.0126    -6.722    -2.398    -2.242  0.8004 -0.1863  0.5698
    11 H(1)   Bbb     0.0032     1.713     0.611     0.571 -0.4147  0.5144  0.7506
              Bcc     0.0094     5.009     1.787     1.671  0.4330  0.8370 -0.3345
 
              Baa    -0.2269   -30.446   -10.864   -10.156  0.3912 -0.0533  0.9188
    12 C(13)  Bbb     0.0923    12.385     4.419     4.131  0.4255  0.8957 -0.1292
              Bcc     0.1346    18.061     6.445     6.024  0.8160 -0.4415 -0.3731
 
              Baa    -0.0089    -4.760    -1.699    -1.588  0.4772  0.1148  0.8713
    13 H(1)   Bbb    -0.0058    -3.069    -1.095    -1.024  0.3350  0.8928 -0.3011
              Bcc     0.0147     7.829     2.794     2.611  0.8125 -0.4355 -0.3876
 
              Baa    -0.3428   -46.003   -16.415   -15.345 -0.1117  0.9917  0.0634
    14 C(13)  Bbb    -0.3302   -44.309   -15.810   -14.780  0.8892  0.1282 -0.4392
              Bcc     0.6730    90.312    32.226    30.125  0.4437 -0.0073  0.8961
 
              Baa    -0.0445   -23.769    -8.482    -7.929 -0.0908  0.9941  0.0586
    15 H(1)   Bbb     0.0006     0.303     0.108     0.101  0.4703 -0.0090  0.8825
              Bcc     0.0440    23.467     8.373     7.828  0.8778  0.1077 -0.4667
 
              Baa    -0.0092    -1.233    -0.440    -0.411  0.8605 -0.1574 -0.4846
    16 C(13)  Bbb     0.0029     0.385     0.137     0.128  0.0615  0.9762 -0.2078
              Bcc     0.0063     0.849     0.303     0.283  0.5058  0.1490  0.8497
 
              Baa    -0.0094    -5.016    -1.790    -1.673  0.9737 -0.2194 -0.0620
    17 H(1)   Bbb    -0.0030    -1.603    -0.572    -0.535 -0.0304 -0.3943  0.9185
              Bcc     0.0124     6.619     2.362     2.208  0.2260  0.8924  0.3906
 
              Baa    -0.0071    -3.800    -1.356    -1.268  0.8891  0.1885  0.4171
    18 H(1)   Bbb    -0.0041    -2.186    -0.780    -0.729 -0.4381  0.0860  0.8948
              Bcc     0.0112     5.986     2.136     1.997 -0.1328  0.9783 -0.1590
 
              Baa    -0.7288   -97.803   -34.899   -32.624  0.3424 -0.0903  0.9352
    19 C(13)  Bbb     0.3531    47.376    16.905    15.803 -0.6349  0.7114  0.3012
              Bcc     0.3758    50.427    17.994    16.821  0.6925  0.6969 -0.1863
 
              Baa    -0.0481   -25.650    -9.153    -8.556 -0.5229  0.8250  0.2143
    20 H(1)   Bbb    -0.0022    -1.184    -0.422    -0.395  0.3005 -0.0568  0.9521
              Bcc     0.0503    26.834     9.575     8.951  0.7976  0.5622 -0.2183
 
              Baa    -0.1346   -18.061    -6.444    -6.024  0.8160 -0.4415 -0.3731
    21 C(13)  Bbb    -0.0923   -12.384    -4.419    -4.131  0.4256  0.8957 -0.1292
              Bcc     0.2269    30.445    10.863    10.155  0.3912 -0.0533  0.9188
 
              Baa    -0.0147    -7.829    -2.794    -2.611  0.8124 -0.4356 -0.3876
    22 H(1)   Bbb     0.0058     3.068     1.095     1.023  0.3350  0.8928 -0.3011
              Bcc     0.0089     4.760     1.699     1.588  0.4772  0.1148  0.8713
 
              Baa    -0.0213    -2.854    -1.018    -0.952 -0.6156  0.7081  0.3459
    23 C(13)  Bbb     0.0027     0.368     0.131     0.123 -0.3789 -0.6508  0.6580
              Bcc     0.0185     2.485     0.887     0.829  0.6910  0.2740  0.6689
 
              Baa    -0.0094    -5.009    -1.787    -1.671  0.4330  0.8370 -0.3345
    24 H(1)   Bbb    -0.0032    -1.713    -0.611    -0.571 -0.4147  0.5145  0.7506
              Bcc     0.0126     6.722     2.399     2.242  0.8004 -0.1863  0.5698
 
              Baa    -0.0080    -4.272    -1.524    -1.425  0.1082  0.7716 -0.6268
    25 H(1)   Bbb     0.0005     0.293     0.105     0.098  0.6662 -0.5243 -0.5304
              Bcc     0.0075     3.979     1.420     1.327  0.7379  0.3602  0.5707
 
              Baa    -0.0063    -0.849    -0.303    -0.283  0.5057  0.1491  0.8497
    26 C(13)  Bbb    -0.0029    -0.384    -0.137    -0.128  0.0615  0.9762 -0.2079
              Bcc     0.0092     1.234     0.440     0.412  0.8605 -0.1574 -0.4845
 
              Baa    -0.0112    -5.986    -2.136    -1.997 -0.1328  0.9783 -0.1590
    27 H(1)   Bbb     0.0041     2.186     0.780     0.729 -0.4381  0.0860  0.8948
              Bcc     0.0071     3.800     1.356     1.268  0.8891  0.1885  0.4172
 
              Baa    -0.0124    -6.619    -2.362    -2.208  0.2260  0.8924  0.3907
    28 H(1)   Bbb     0.0030     1.603     0.572     0.535 -0.0303 -0.3944  0.9184
              Bcc     0.0094     5.016     1.790     1.673  0.9737 -0.2194 -0.0620
 

 ---------------------------------------------------------------------------------

 No NMR shielding tensors so no spin-rotation constants.
 Leave Link  601 at Mon Aug  3 16:53:41 2020, MaxMem=  6442450944 cpu:               8.2 elap:               0.4
 (Enter /scratch/scicomp/CentOS/7.3.1611/Haswell/software/Gaussian/g16/l9999.exe)
 1\1\GINC-ATLAS-205\SP\UwB97XD\def2TZVP\C12H16\BOCHEN\03-Aug-2020\0\\#p
  uwb97xd guess=mix def2tzvp # scrf=(iefpcm,solvent=Cyclohexane,read) n
 osym 6d 10f\\endo-2 xp-pcm for eta=3\\0,1\C,0,-3.119495,-0.424944,0.24
 8623\C,0,-0.424245,-0.121866,-0.714774\H,0,-4.087821,-0.54642,0.718451
 \H,0,0.329403,-0.107658,-1.504901\C,0,1.115717,1.433579,0.663678\C,0,0
 .424245,0.121866,0.714774\H,0,0.572069,2.33357,0.922475\H,0,-0.329403,
 0.107658,1.504901\C,0,1.449468,-0.996358,0.973459\H,0,1.860814,-0.8687
 63,1.97862\H,0,0.95495,-1.969025,0.953713\C,0,2.394417,1.530763,0.1270
 3\H,0,2.83084,2.513824,-0.012217\C,0,3.119495,0.424944,-0.248623\H,0,4
 .087821,0.54642,-0.718451\C,0,2.592866,-0.960276,-0.042448\H,0,2.24915
 3,-1.362262,-1.005025\H,0,3.400748,-1.625122,0.274929\C,0,-1.115717,-1
 .43358,-0.663678\H,0,-0.572069,-2.33357,-0.922475\C,0,-2.394417,-1.530
 763,-0.12703\H,0,-2.83084,-2.513824,0.012217\C,0,-1.449468,0.996358,-0
 .973459\H,0,-0.95495,1.969025,-0.953713\H,0,-1.860814,0.868763,-1.9786
 2\C,0,-2.592866,0.960276,0.042448\H,0,-3.400748,1.625122,-0.274929\H,0
 ,-2.249153,1.362262,1.005025\\Version=ES64L-G16RevB.01\HF=-466.8330649
 \S2=1.040248\S2-1=0.\S2A=0.526696\RMSD=6.744e-09\Dipole=-0.0001118,0.0
 003749,0.0000282\Quadrupole=0.8158003,1.4871093,-2.3029096,-1.8998519,
 -2.1803161,-0.1861719\PG=CI [X(C12H16)]\\@


 THEORY:  SUPPOSITION WHICH HAS SCIENTIFIC BASIS,
          BUT NOT EXPERIMENTALLY PROVEN.
 FACT:    A THEORY WHICH HAS BEEN PROVEN BY ENOUGH 
          MONEY TO PAY FOR THE EXPERIMENTS.

                          --  THE WIZARD OF ID
 Job cpu time:       0 days  1 hours 42 minutes  1.5 seconds.
 Elapsed time:       0 days  0 hours  4 minutes 17.9 seconds.
 File lengths (MBytes):  RWF=    620 Int=      0 D2E=      0 Chk=     23 Scr=      1
 Normal termination of Gaussian 16 at Mon Aug  3 16:53:42 2020.
