 Entering Gaussian System, Link 0=g16
 Input=meso-TS_16_2_pcm.com
 Output=meso-TS_16_2_pcm.log
 Initial command:
 /scratch/scicomp/CentOS/7.3.1611/Haswell/software/Gaussian/g16/l1.exe "/scratch/bochen/cyclohexadiene-dimerization/wb97xd-def2tzvp/xp-pcm/meso/Gau-41578.inp" -scrdir="/scratch/bochen/cyclohexadiene-dimerization/wb97xd-def2tzvp/xp-pcm/meso/"
 Entering Link 1 = /scratch/scicomp/CentOS/7.3.1611/Haswell/software/Gaussian/g16/l1.exe PID=     41579.
  
 Copyright (c) 1988-2017, Gaussian, Inc.  All Rights Reserved.
  
 This is part of the Gaussian(R) 16 program.  It is based on
 the Gaussian(R) 09 system (copyright 2009, Gaussian, Inc.),
 the Gaussian(R) 03 system (copyright 2003, Gaussian, Inc.),
 the Gaussian(R) 98 system (copyright 1998, Gaussian, Inc.),
 the Gaussian(R) 94 system (copyright 1995, Gaussian, Inc.),
 the Gaussian 92(TM) system (copyright 1992, Gaussian, Inc.),
 the Gaussian 90(TM) system (copyright 1990, Gaussian, Inc.),
 the Gaussian 88(TM) system (copyright 1988, Gaussian, Inc.),
 the Gaussian 86(TM) system (copyright 1986, Carnegie Mellon
 University), and the Gaussian 82(TM) system (copyright 1983,
 Carnegie Mellon University). Gaussian is a federally registered
 trademark of Gaussian, Inc.
  
 This software contains proprietary and confidential information,
 including trade secrets, belonging to Gaussian, Inc.
  
 This software is provided under written license and may be
 used, copied, transmitted, or stored only in accord with that
 written license.
  
 The following legend is applicable only to US Government
 contracts under FAR:
  
                    RESTRICTED RIGHTS LEGEND
  
 Use, reproduction and disclosure by the US Government is
 subject to restrictions as set forth in subparagraphs (a)
 and (c) of the Commercial Computer Software - Restricted
 Rights clause in FAR 52.227-19.
  
 Gaussian, Inc.
 340 Quinnipiac St., Bldg. 40, Wallingford CT 06492
  
  
 ---------------------------------------------------------------
 Warning -- This program may not be used in any manner that
 competes with the business of Gaussian, Inc. or will provide
 assistance to any competitor of Gaussian, Inc.  The licensee
 of this program is prohibited from giving any competitor of
 Gaussian, Inc. access to this program.  By using this program,
 the user acknowledges that Gaussian, Inc. is engaged in the
 business of creating and licensing software in the field of
 computational chemistry and represents and warrants to the
 licensee that it is not a competitor of Gaussian, Inc. and that
 it will not use this program in any manner prohibited above.
 ---------------------------------------------------------------
  

 Cite this work as:
 Gaussian 16, Revision B.01,
 M. J. Frisch, G. W. Trucks, H. B. Schlegel, G. E. Scuseria, 
 M. A. Robb, J. R. Cheeseman, G. Scalmani, V. Barone, 
 G. A. Petersson, H. Nakatsuji, X. Li, M. Caricato, A. V. Marenich, 
 J. Bloino, B. G. Janesko, R. Gomperts, B. Mennucci, H. P. Hratchian, 
 J. V. Ortiz, A. F. Izmaylov, J. L. Sonnenberg, D. Williams-Young, 
 F. Ding, F. Lipparini, F. Egidi, J. Goings, B. Peng, A. Petrone, 
 T. Henderson, D. Ranasinghe, V. G. Zakrzewski, J. Gao, N. Rega, 
 G. Zheng, W. Liang, M. Hada, M. Ehara, K. Toyota, R. Fukuda, 
 J. Hasegawa, M. Ishida, T. Nakajima, Y. Honda, O. Kitao, H. Nakai, 
 T. Vreven, K. Throssell, J. A. Montgomery, Jr., J. E. Peralta, 
 F. Ogliaro, M. J. Bearpark, J. J. Heyd, E. N. Brothers, K. N. Kudin, 
 V. N. Staroverov, T. A. Keith, R. Kobayashi, J. Normand, 
 K. Raghavachari, A. P. Rendell, J. C. Burant, S. S. Iyengar, 
 J. Tomasi, M. Cossi, J. M. Millam, M. Klene, C. Adamo, R. Cammi, 
 J. W. Ochterski, R. L. Martin, K. Morokuma, O. Farkas, 
 J. B. Foresman, and D. J. Fox, Gaussian, Inc., Wallingford CT, 2016.
 
 ******************************************
 Gaussian 16:  ES64L-G16RevB.01 20-Dec-2017
                 3-Aug-2020 
 ******************************************
 %nproc=24
 Will use up to   24 processors via shared memory.
 %mem=48GB
 ----------------------------------------------------------------------
 #p uwb97xd guess=mix def2tzvp # scrf=(iefpcm,solvent=Cyclohexane,read)
  nosym 6d 10f
 ----------------------------------------------------------------------
 1/38=1,40=2,172=1/1;
 2/12=2,15=1,17=6,18=5,40=1/2;
 3/5=44,7=101,8=22,11=2,25=1,30=1,70=2203,72=17,74=-58,116=2/1,2,3;
 4/13=-1/1;
 5/5=2,38=5,53=17/2;
 6/7=2,8=2,9=2,10=2,28=1/1;
 99/5=1,9=1/99;
 Leave Link    1 at Mon Aug  3 15:43:02 2020, MaxMem=  6442450944 cpu:               1.6 elap:               0.1
 (Enter /scratch/scicomp/CentOS/7.3.1611/Haswell/software/Gaussian/g16/l101.exe)
 -----------------------
 endo-2 xp-pcm for eta=3
 -----------------------
 Symbolic Z-matrix:
 Charge =  0 Multiplicity = 1
 6                    -3.12005  -0.4373    0.2476 
 6                    -0.58277  -0.20812  -0.98603 
 1                    -4.08404  -0.54942   0.73016 
 1                     0.37636  -0.11924  -1.47614 
 6                     1.09293   1.40724   0.6957 
 6                     0.58277   0.20812   0.98603 
 1                     0.51446   2.30912   0.84998 
 1                    -0.37636   0.11924   1.47614 
 6                     1.47344  -0.99988   0.99811 
 1                     1.93024  -1.00781   1.99558 
 1                     0.90089  -1.92228   0.91786 
 6                     2.4216    1.5163    0.11107 
 1                     2.83016   2.50512  -0.06074 
 6                     3.12005   0.4373   -0.2476 
 1                     4.08404   0.54942  -0.73016 
 6                     2.59126  -0.95682  -0.04573 
 1                     2.2484   -1.35251  -1.0098 
 1                     3.40057  -1.6201    0.26691 
 6                    -1.09293  -1.40724  -0.6957 
 1                    -0.51446  -2.30912  -0.84998 
 6                    -2.4216   -1.5163   -0.11107 
 1                    -2.83016  -2.50512   0.06074 
 6                    -1.47344   0.99988  -0.99811 
 1                    -0.90089   1.92228  -0.91786 
 1                    -1.93024   1.00781  -1.99558 
 6                    -2.59126   0.95682   0.04573 
 1                    -3.40057   1.6201   -0.26691 
 1                    -2.2484    1.35252   1.0098 
 
 ITRead=  0  0  0  0  0  0  0  0  0  0  0  0  0  0  0  0  0  0  0  0
 ITRead=  0  0  0  0  0  0  0  0
 MicOpt= -1 -1 -1 -1 -1 -1 -1 -1 -1 -1 -1 -1 -1 -1 -1 -1 -1 -1 -1 -1
 MicOpt= -1 -1 -1 -1 -1 -1 -1 -1
 NAtoms=     28 NQM=       28 NQMF=       0 NMMI=      0 NMMIF=      0
                NMic=       0 NMicF=      0.
                    Isotopes and Nuclear Properties:
 (Nuclear quadrupole moments (NQMom) in fm**2, nuclear magnetic moments (NMagM)
  in nuclear magnetons)

  Atom         1           2           3           4           5           6           7           8           9          10
 IAtWgt=          12          12           1           1          12          12           1           1          12           1
 AtmWgt=  12.0000000  12.0000000   1.0078250   1.0078250  12.0000000  12.0000000   1.0078250   1.0078250  12.0000000   1.0078250
 NucSpn=           0           0           1           1           0           0           1           1           0           1
 AtZEff=  -0.0000000  -0.0000000  -0.0000000  -0.0000000  -0.0000000  -0.0000000  -0.0000000  -0.0000000  -0.0000000  -0.0000000
 NQMom=    0.0000000   0.0000000   0.0000000   0.0000000   0.0000000   0.0000000   0.0000000   0.0000000   0.0000000   0.0000000
 NMagM=    0.0000000   0.0000000   2.7928460   2.7928460   0.0000000   0.0000000   2.7928460   2.7928460   0.0000000   2.7928460
 AtZNuc=   6.0000000   6.0000000   1.0000000   1.0000000   6.0000000   6.0000000   1.0000000   1.0000000   6.0000000   1.0000000

  Atom        11          12          13          14          15          16          17          18          19          20
 IAtWgt=           1          12           1          12           1          12           1           1          12           1
 AtmWgt=   1.0078250  12.0000000   1.0078250  12.0000000   1.0078250  12.0000000   1.0078250   1.0078250  12.0000000   1.0078250
 NucSpn=           1           0           1           0           1           0           1           1           0           1
 AtZEff=  -0.0000000  -0.0000000  -0.0000000  -0.0000000  -0.0000000  -0.0000000  -0.0000000  -0.0000000  -0.0000000  -0.0000000
 NQMom=    0.0000000   0.0000000   0.0000000   0.0000000   0.0000000   0.0000000   0.0000000   0.0000000   0.0000000   0.0000000
 NMagM=    2.7928460   0.0000000   2.7928460   0.0000000   2.7928460   0.0000000   2.7928460   2.7928460   0.0000000   2.7928460
 AtZNuc=   1.0000000   6.0000000   1.0000000   6.0000000   1.0000000   6.0000000   1.0000000   1.0000000   6.0000000   1.0000000

  Atom        21          22          23          24          25          26          27          28
 IAtWgt=          12           1          12           1           1          12           1           1
 AtmWgt=  12.0000000   1.0078250  12.0000000   1.0078250   1.0078250  12.0000000   1.0078250   1.0078250
 NucSpn=           0           1           0           1           1           0           1           1
 AtZEff=  -0.0000000  -0.0000000  -0.0000000  -0.0000000  -0.0000000  -0.0000000  -0.0000000  -0.0000000
 NQMom=    0.0000000   0.0000000   0.0000000   0.0000000   0.0000000   0.0000000   0.0000000   0.0000000
 NMagM=    0.0000000   2.7928460   0.0000000   2.7928460   2.7928460   0.0000000   2.7928460   2.7928460
 AtZNuc=   6.0000000   1.0000000   6.0000000   1.0000000   1.0000000   6.0000000   1.0000000   1.0000000
 Leave Link  101 at Mon Aug  3 15:43:02 2020, MaxMem=  6442450944 cpu:               2.4 elap:               0.1
 (Enter /scratch/scicomp/CentOS/7.3.1611/Haswell/software/Gaussian/g16/l202.exe)
                          Input orientation:                          
 ---------------------------------------------------------------------
 Center     Atomic      Atomic             Coordinates (Angstroms)
 Number     Number       Type             X           Y           Z
 ---------------------------------------------------------------------
      1          6           0       -3.120053   -0.437296    0.247601
      2          6           0       -0.582765   -0.208122   -0.986031
      3          1           0       -4.084035   -0.549421    0.730161
      4          1           0        0.376360   -0.119236   -1.476138
      5          6           0        1.092928    1.407235    0.695695
      6          6           0        0.582765    0.208122    0.986031
      7          1           0        0.514464    2.309116    0.849982
      8          1           0       -0.376360    0.119237    1.476138
      9          6           0        1.473441   -0.999882    0.998114
     10          1           0        1.930236   -1.007810    1.995578
     11          1           0        0.900886   -1.922279    0.917856
     12          6           0        2.421602    1.516304    0.111065
     13          1           0        2.830156    2.505119   -0.060741
     14          6           0        3.120053    0.437296   -0.247601
     15          1           0        4.084035    0.549421   -0.730161
     16          6           0        2.591259   -0.956820   -0.045733
     17          1           0        2.248403   -1.352514   -1.009798
     18          1           0        3.400569   -1.620098    0.266906
     19          6           0       -1.092928   -1.407235   -0.695695
     20          1           0       -0.514464   -2.309116   -0.849982
     21          6           0       -2.421602   -1.516304   -0.111065
     22          1           0       -2.830156   -2.505120    0.060741
     23          6           0       -1.473441    0.999882   -0.998114
     24          1           0       -0.900886    1.922279   -0.917856
     25          1           0       -1.930236    1.007810   -1.995578
     26          6           0       -2.591259    0.956820    0.045733
     27          1           0       -3.400569    1.620098   -0.266906
     28          1           0       -2.248403    1.352515    1.009798
 ---------------------------------------------------------------------
                    Distance matrix (angstroms):
                    1          2          3          4          5
     1  C    0.000000
     2  C    2.830583   0.000000
     3  H    1.083835   3.914166   0.000000
     4  H    3.911182   1.080753   4.994791   0.000000
     5  C    4.620854   2.871503   5.534495   2.749626   0.000000
     6  C    3.830497   2.328250   4.734803   2.492397   1.335078
     7  H    4.595145   3.303232   5.415883   3.365531   1.082504
     8  H    3.057267   2.492397   3.840630   3.056042   2.104005
     9  C    4.688279   2.965080   5.582137   2.846234   2.455699
    10  H    5.374600   3.980536   6.163023   3.906009   2.867616
    11  H    4.338475   2.960463   5.173916   3.042581   3.342439
    12  C    5.877511   3.633660   6.853744   3.062225   1.455700
    13  H    6.645139   4.457114   7.600117   3.861567   2.189864
    14  C    6.320527   3.830497   7.336792   3.057267   2.437176
    15  H    7.336792   4.734803   8.370028   3.840630   3.422810
    16  C    5.742389   3.393985   6.732573   2.766475   2.895422
    17  H    5.589186   3.053803   6.616055   2.289758   3.443841
    18  H    6.627059   4.408001   7.574975   3.799556   3.830641
    19  C    2.437176   1.335078   3.422810   2.104006   3.825595
    20  H    3.390795   2.106502   4.281964   2.445652   4.334062
    21  C    1.334441   2.420377   2.099097   3.412303   4.642183
    22  H    2.096390   3.379748   2.417663   4.282077   5.576762
    23  C    2.515674   1.500908   3.493204   2.214203   3.101802
    24  H    3.442468   2.155100   4.354044   2.472007   2.616125
    25  H    2.921617   2.076862   3.807029   2.619243   4.067187
    26  C    1.504637   2.540802   2.228359   3.504390   3.768097
    27  H    2.139223   3.435047   2.483562   4.330441   4.600372
    28  H    2.131699   3.032041   2.658026   3.903243   3.356508
                    6          7          8          9         10
     6  C    0.000000
     7  H    2.106502   0.000000
     8  H    1.080753   2.445651   0.000000
     9  C    1.500908   3.448340   2.214204   0.000000
    10  H    2.076862   3.784019   2.619244   1.097114   0.000000
    11  H    2.155100   4.249545   2.472008   1.088612   1.748514
    12  C    2.420377   2.193564   3.412303   2.831441   3.188100
    13  H    3.379747   2.496049   4.282076   3.904726   4.168810
    14  C    2.830583   3.390795   3.911182   2.515674   2.921617
    15  H    3.914166   4.281964   4.994791   3.493204   3.807029
    16  C    2.540802   3.972621   3.504390   1.530029   2.146276
    17  H    3.032040   4.457899   3.903243   2.180969   3.041765
    18  H    3.435047   4.910021   4.330441   2.152477   2.350549
    19  C    2.871503   4.334062   2.749626   3.101802   4.067187
    20  H    3.303232   5.027588   3.365532   3.013523   3.970789
    21  C    3.633660   4.917106   3.062225   4.082687   4.861585
    22  H    4.457115   5.914918   3.861569   4.654606   5.352276
    23  C    2.965080   3.013523   2.846234   4.082658   4.957624
    24  H    2.960463   2.297414   3.042580   4.224618   5.008869
    25  H    3.980536   3.970789   3.906009   4.957624   5.907224
    26  C    3.393985   3.481528   2.766475   4.610585   5.301470
    27  H    4.408001   4.129124   3.799556   5.676314   6.359419
    28  H    3.053803   2.928150   2.289758   4.402957   4.899380
                   11         12         13         14         15
    11  H    0.000000
    12  C    3.845431   0.000000
    13  H    4.927635   1.083600   0.000000
    14  C    3.442468   1.334441   2.096389   0.000000
    15  H    4.354044   2.099097   2.417662   1.083835   0.000000
    16  C    2.172090   2.483890   3.470204   1.504637   2.228359
    17  H    2.419976   3.084874   4.015032   2.131698   2.658025
    18  H    2.600666   3.289328   4.177336   2.139223   2.483562
    19  C    2.616125   4.642183   5.576761   4.620854   5.534495
    20  H    2.297414   4.917106   5.914917   4.595145   5.415883
    21  C    3.501774   5.718626   6.614782   5.877511   6.853744
    22  H    3.872341   6.614782   7.560184   6.645139   7.600117
    23  C    4.224618   4.082687   4.654606   4.688279   5.582137
    24  H    4.625673   3.501774   3.872341   4.338475   5.173916
    25  H    5.008869   4.861585   5.352276   5.374600   6.163023
    26  C    4.609218   5.044409   5.639176   5.742389   6.732573
    27  H    5.696895   5.835350   6.296642   6.627059   7.574975
    28  H    4.544310   4.758518   5.316607   5.589186   6.616055
                   16         17         18         19         20
    16  C    0.000000
    17  H    1.097062   0.000000
    18  H    1.092091   1.740420   0.000000
    19  C    3.768097   3.356508   4.600372   0.000000
    20  H    3.481528   2.928150   4.129124   1.082504   0.000000
    21  C    5.044409   4.758518   5.835350   1.455700   2.193564
    22  H    5.639176   5.316608   6.296642   2.189865   2.496050
    23  C    4.610585   4.402957   5.676314   2.455699   3.448340
    24  H    4.609218   4.544309   5.696895   3.342439   4.249545
    25  H    5.301470   4.899379   6.359419   2.867616   3.784019
    26  C    5.525294   5.465299   6.526211   2.895422   3.972621
    27  H    6.526211   6.426445   7.552437   3.830641   4.910021
    28  H    5.465300   5.622919   6.426445   3.443842   4.457899
                   21         22         23         24         25
    21  C    0.000000
    22  H    1.083601   0.000000
    23  C    2.831441   3.904726   0.000000
    24  H    3.845431   4.927636   1.088612   0.000000
    25  H    3.188100   4.168811   1.097114   1.748514   0.000000
    26  C    2.483890   3.470205   1.530029   2.172090   2.146276
    27  H    3.289328   4.177337   2.152477   2.600666   2.350549
    28  H    3.084875   4.015033   2.180969   2.419976   3.041765
                   26         27         28
    26  C    0.000000
    27  H    1.092091   0.000000
    28  H    1.097062   1.740420   0.000000
 Symmetry turned off by external request.
 Stoichiometry    C12H16
 Framework group  CI[X(C12H16)]
 Deg. of freedom    39
 Full point group                 CI      NOp   2
 Rotational constants (GHZ):           1.9090571           0.6281678           0.5500551
 Leave Link  202 at Mon Aug  3 15:43:02 2020, MaxMem=  6442450944 cpu:               0.3 elap:               0.0
 (Enter /scratch/scicomp/CentOS/7.3.1611/Haswell/software/Gaussian/g16/l301.exe)
 Standard basis: def2TZVP (6D, 10F)
 Ernie: Thresh=  0.10000D-02 Tol=  0.10000D-05 Strict=F.
   528 basis functions,   740 primitive gaussians,   528 cartesian basis functions
    44 alpha electrons       44 beta electrons
       nuclear repulsion energy       689.1723014786 Hartrees.
 IExCor= 4639 DFT=T Ex+Corr=wB97XD ExCW=0 ScaHFX=  1.000000
 ScaDFX=  1.000000  1.000000  1.000000  1.000000 ScalE2=  1.000000  1.000000
 IRadAn=      5 IRanWt=     -1 IRanGd=            0 ICorTp=0 IEmpDi=121
 HFx  wShort=  0.000000 wLong=  0.200000 cFull=  0.222036 cShort=  0.000000 cLong=  0.777964
 DFx  wShort=  0.000000 wLong=  0.200000 cFull=  0.000000 cShort=  0.000000 cLong=  1.000000
 NAtoms=   28 NActive=   28 NUniq=   28 SFac= 1.00D+00 NAtFMM=   60 NAOKFM=F Big=F
 Integral buffers will be    131072 words long.
 Raffenetti 2 integral format.
 Two-electron integral symmetry is turned off.
 R6Disp:  Grimme-D2 Dispersion energy=       -0.0229707258 Hartrees.
 Nuclear repulsion after empirical dispersion term =      689.1493307528 Hartrees.
 Using the following non-standard input for PCM:
 norep pcmdoc geomview  nodis nocav g03defaults tsare=0.075
 Warning! Using old PCM defaults because the g03defaults keyword was found.
 These settings can be overridden by following keywords.
 nsfe=28
 NVESolv=36  SolvMW=84.1595   Rsolv=2.815
 eps=2.0165 RhoS=0.7781
 --- end of non-standard input.
 Reading user-defined spheres from input:
 ISph  on   Nord    Re0     Alpha      Xe            Ye            Ze
 --- end of user-defined spheres data.
 ------------------------------------------------------------------------------
 Polarizable Continuum Model (PCM)
 =================================
 Model                : PCM.
 Atomic radii         : UA0 (Simple United Atom Topological Model).
 Polarization charges : Total charges.
 Charge compensation  : None.
 Solution method      : On-the-fly selection.
 Cavity type          : SES (Solvent Excluding Surface) (Alpha=1.000).
 Cavity algorithm     : GePol (RMin=0.200 OFac=0.890).
                        User-defined sphere list used, NSphG=   28.
                        Tesserae with average area of 0.075 Ang**2.
                        Smoothing algorithm: None.
                        Polarization charges: point-like.
                        Self-potential: constant (ISelfS= 1).
                        Self-field    : global E.n sum rule (ISelfD= 3).
 Solvent              : CycloHexane, Eps=   2.016500 Eps(inf)=   2.035188
                        RSolv=   2.815000 Ang.
 ------------------------------------------------------------------------------
 GePol: Number of generator spheres                  =      28
 GePol: Total number of spheres                      =     186
 GePol: Number of exposed spheres                    =     140 ( 75.27%)
 GePol: Number of tesserae                           =    4678
 GePol: Average area of tesserae                     =       0.05 Ang**2
 GePol: Minimum area of tessera                      =   0.10D-02 Ang**2
 GePol: Maximum area of tessera                      =    0.12705 Ang**2
 GePol: Number of small tesserae                     =       0
 GePol: Fraction of small tesserae (<1% of avg)      =       0.00%
 GePol: Total count of vertices                      =   16621
 GePol: Maximum number of vertices in a tessera      =       7
 GePol: Cavity surface area                          =    218.457 Ang**2
 GePol: Cavity volume                                =    246.590 Ang**3
 Leave Link  301 at Mon Aug  3 15:43:03 2020, MaxMem=  6442450944 cpu:               7.9 elap:               0.4
 (Enter /scratch/scicomp/CentOS/7.3.1611/Haswell/software/Gaussian/g16/l302.exe)
 NPDir=0 NMtPBC=     1 NCelOv=     1 NCel=       1 NClECP=     1 NCelD=      1
         NCelK=      1 NCelE2=     1 NClLst=     1 CellRange=     0.0.
 One-electron integrals computed using PRISM.
   1 Symmetry operations used in ECPInt.
 ECPInt:  NShTT=   19306 NPrTT=   56928 LenC2=   18514 LenP2D=   42212.
 LDataN:  DoStor=T MaxTD1= 6 Len=  172
 NBasis=   528 RedAO= T EigKep=  2.03D-05  NBF=   528
 NBsUse=   528 1.00D-06 EigRej= -1.00D+00 NBFU=   528
 Precomputing XC quadrature grid using
 IXCGrd= 4 IRadAn=           5 IRanWt=          -1 IRanGd=           0 AccXCQ= 0.00D+00.
 Generated NRdTot=       0 NPtTot=           0 NUsed=           0 NTot=          32
 NSgBfM=   526   526   526   526   526 MxSgAt=    28 MxSgA2=    28.
 Leave Link  302 at Mon Aug  3 15:43:03 2020, MaxMem=  6442450944 cpu:              12.7 elap:               0.6
 (Enter /scratch/scicomp/CentOS/7.3.1611/Haswell/software/Gaussian/g16/l303.exe)
 DipDrv:  MaxL=1.
 Leave Link  303 at Mon Aug  3 15:43:03 2020, MaxMem=  6442450944 cpu:               1.5 elap:               0.1
 (Enter /scratch/scicomp/CentOS/7.3.1611/Haswell/software/Gaussian/g16/l401.exe)
 ExpMin= 9.52D-02 ExpMax= 1.36D+04 ExpMxC= 4.63D+02 IAcc=3 IRadAn=         5 AccDes= 0.00D+00
 Harris functional with IExCor= 4639 and IRadAn=       5 diagonalized for initial guess.
 HarFok:  IExCor= 4639 AccDes= 0.00D+00 IRadAn=         5 IDoV= 1 UseB2=F ITyADJ=14
 ICtDFT=  3500011 ScaDFX=  1.000000  1.000000  1.000000  1.000000
 FoFCou: FMM=F IPFlag=           0 FMFlag=      100000 FMFlg1=           0
         NFxFlg=           0 DoJE=T BraDBF=F KetDBF=T FulRan=T
         wScrn=  0.000000 ICntrl=       500 IOpCl=  0 I1Cent=   200000004 NGrid=           0
         NMat0=    1 NMatS0=      1 NMatT0=    0 NMatD0=    1 NMtDS0=    0 NMtDT0=    0
 Symmetry not used in FoFCou.
 Harris En= -444.630828018821    
 JPrj=0 DoOrth=F DoCkMO=T.
 Mixing orbitals, IMix= 1 IMixAn=  0 NRI=1 NE=   44 Coef=  7.07106781D-01  7.07106781D-01
 Mixing orbitals, IMix= 1 IMixAn=  0 NRI=1 NE=   44 Coef= -7.07106781D-01  7.07106781D-01
 Initial guess <Sx>= 0.0000 <Sy>= 0.0000 <Sz>= 0.0000 <S**2>= 1.0000 S= 0.6180
 Leave Link  401 at Mon Aug  3 15:43:06 2020, MaxMem=  6442450944 cpu:              49.6 elap:               2.1
 (Enter /scratch/scicomp/CentOS/7.3.1611/Haswell/software/Gaussian/g16/l502.exe)
 Two-electron integral symmetry not used.
 UHF open shell SCF:
 Using DIIS extrapolation, IDIIS=  1040.
 NGot=  6442450944 LenX=  6441877030 LenY=  6441597718
 Requested convergence on RMS density matrix=1.00D-08 within 128 cycles.
 Requested convergence on MAX density matrix=1.00D-06.
 Requested convergence on             energy=1.00D-06.
 No special actions if energy rises.
 Fock matrices will be formed incrementally for  20 cycles.

 Cycle   1  Pass 1  IDiag  1:
 FoFJK:  IHMeth= 1 ICntrl=       0 DoSepK=T KAlg= 0 I1Cent=           0 FoldK=F
 IRaf=         1 NMat=       1 IRICut=       1 DoRegI=T DoRafI=F ISym2E= 0 IDoP0=0 IntGTp=1.
 FoFCou: FMM=F IPFlag=           0 FMFlag=      100000 FMFlg1=           0
         NFxFlg=           0 DoJE=T BraDBF=F KetDBF=F FulRan=T
         wScrn=  0.000000 ICntrl=       500 IOpCl=  0 I1Cent=           0 NGrid=           0
         NMat0=    1 NMatS0=      1 NMatT0=    0 NMatD0=    1 NMtDS0=    0 NMtDT0=    0
 Symmetry not used in FoFCou.
 Inv3:  Mode=1 IEnd=    65651052.
 Iteration    1 A*A^-1 deviation from unit magnitude is 3.77D-15 for    223.
 Iteration    1 A*A^-1 deviation from orthogonality  is 8.15D-15 for   2715   2480.
 Iteration    1 A^-1*A deviation from unit magnitude is 3.77D-15 for    223.
 Iteration    1 A^-1*A deviation from orthogonality  is 2.44D-15 for   3685   2425.
 E= -466.599237815454    
 DIIS: error= 5.44D-02 at cycle   1 NSaved=   1.
 NSaved= 1 IEnMin= 1 EnMin= -466.599237815454     IErMin= 1 ErrMin= 5.44D-02
 ErrMax= 5.44D-02  0.00D+00 EMaxC= 1.00D-01 BMatC= 4.10D+00 BMatP= 4.10D+00
 IDIUse=3 WtCom= 4.56D-01 WtEn= 5.44D-01
 Coeff-Com:  0.100D+01
 Coeff-En:   0.100D+01
 Coeff:      0.100D+01
 Gap=     0.193 Goal=   None    Shift=    0.000
 Gap=     0.193 Goal=   None    Shift=    0.000
 GapD=    0.193 DampG=1.000 DampE=0.500 DampFc=0.5000 IDamp=-1.
 Damping current iteration by 5.00D-01
 RMSDP=1.57D-03 MaxDP=9.18D-02              OVMax= 2.76D-01

 Cycle   2  Pass 1  IDiag  1:
 RMSU=  7.63D-04    CP:  9.70D-01
 E= -466.695128749198     Delta-E=       -0.095890933744 Rises=F Damp=T
 DIIS: error= 2.59D-02 at cycle   2 NSaved=   2.
 NSaved= 2 IEnMin= 2 EnMin= -466.695128749198     IErMin= 2 ErrMin= 2.59D-02
 ErrMax= 2.59D-02  0.00D+00 EMaxC= 1.00D-01 BMatC= 9.30D-01 BMatP= 4.10D+00
 IDIUse=3 WtCom= 7.41D-01 WtEn= 2.59D-01
 Coeff-Com: -0.866D+00 0.187D+01
 Coeff-En:   0.000D+00 0.100D+01
 Coeff:     -0.642D+00 0.164D+01
 Gap=     0.252 Goal=   None    Shift=    0.000
 Gap=     0.252 Goal=   None    Shift=    0.000
 RMSDP=1.10D-03 MaxDP=4.86D-02 DE=-9.59D-02 OVMax= 1.26D-01

 Cycle   3  Pass 1  IDiag  1:
 RMSU=  6.45D-04    CP:  9.27D-01  2.11D+00
 E= -466.813451245689     Delta-E=       -0.118322496491 Rises=F Damp=F
 DIIS: error= 7.10D-03 at cycle   3 NSaved=   3.
 NSaved= 3 IEnMin= 3 EnMin= -466.813451245689     IErMin= 3 ErrMin= 7.10D-03
 ErrMax= 7.10D-03  0.00D+00 EMaxC= 1.00D-01 BMatC= 2.40D-02 BMatP= 9.30D-01
 IDIUse=3 WtCom= 9.29D-01 WtEn= 7.10D-02
 Coeff-Com: -0.321D+00 0.689D+00 0.631D+00
 Coeff-En:   0.000D+00 0.000D+00 0.100D+01
 Coeff:     -0.298D+00 0.640D+00 0.658D+00
 Gap=     0.267 Goal=   None    Shift=    0.000
 Gap=     0.267 Goal=   None    Shift=    0.000
 RMSDP=2.39D-04 MaxDP=1.46D-02 DE=-1.18D-01 OVMax= 6.50D-02

 Cycle   4  Pass 1  IDiag  1:
 RMSU=  2.17D-04    CP:  9.19D-01  2.22D+00  9.71D-01
 E= -466.824152812469     Delta-E=       -0.010701566779 Rises=F Damp=F
 DIIS: error= 5.04D-03 at cycle   4 NSaved=   4.
 NSaved= 4 IEnMin= 4 EnMin= -466.824152812469     IErMin= 4 ErrMin= 5.04D-03
 ErrMax= 5.04D-03  0.00D+00 EMaxC= 1.00D-01 BMatC= 2.12D-03 BMatP= 2.40D-02
 IDIUse=3 WtCom= 9.50D-01 WtEn= 5.04D-02
 Coeff-Com:  0.982D-01-0.210D+00-0.281D-01 0.114D+01
 Coeff-En:   0.000D+00 0.000D+00 0.000D+00 0.100D+01
 Coeff:      0.932D-01-0.200D+00-0.267D-01 0.113D+01
 Gap=     0.276 Goal=   None    Shift=    0.000
 Gap=     0.276 Goal=   None    Shift=    0.000
 RMSDP=2.26D-04 MaxDP=9.41D-03 DE=-1.07D-02 OVMax= 7.89D-02

 Cycle   5  Pass 1  IDiag  1:
 RMSU=  9.26D-05    CP:  9.12D-01  2.28D+00  1.20D+00  1.61D+00
 E= -466.829072445445     Delta-E=       -0.004919632977 Rises=F Damp=F
 DIIS: error= 2.94D-03 at cycle   5 NSaved=   5.
 NSaved= 5 IEnMin= 5 EnMin= -466.829072445445     IErMin= 5 ErrMin= 2.94D-03
 ErrMax= 2.94D-03  0.00D+00 EMaxC= 1.00D-01 BMatC= 1.11D-03 BMatP= 2.12D-03
 IDIUse=3 WtCom= 9.71D-01 WtEn= 2.94D-02
 Coeff-Com:  0.905D-01-0.195D+00-0.118D+00 0.476D+00 0.746D+00
 Coeff-En:   0.000D+00 0.000D+00 0.000D+00 0.000D+00 0.100D+01
 Coeff:      0.879D-01-0.189D+00-0.114D+00 0.462D+00 0.753D+00
 Gap=     0.280 Goal=   None    Shift=    0.000
 Gap=     0.280 Goal=   None    Shift=    0.000
 RMSDP=1.13D-04 MaxDP=5.32D-03 DE=-4.92D-03 OVMax= 4.12D-02

 Cycle   6  Pass 1  IDiag  1:
 RMSU=  3.86D-05    CP:  9.09D-01  2.29D+00  1.26D+00  2.00D+00  1.46D+00
 E= -466.830984320604     Delta-E=       -0.001911875159 Rises=F Damp=F
 DIIS: error= 2.02D-03 at cycle   6 NSaved=   6.
 NSaved= 6 IEnMin= 6 EnMin= -466.830984320604     IErMin= 6 ErrMin= 2.02D-03
 ErrMax= 2.02D-03  0.00D+00 EMaxC= 1.00D-01 BMatC= 5.42D-04 BMatP= 1.11D-03
 IDIUse=3 WtCom= 9.80D-01 WtEn= 2.02D-02
 Coeff-Com: -0.569D-01 0.122D+00 0.497D-01-0.427D+00 0.141D-01 0.130D+01
 Coeff-En:   0.000D+00 0.000D+00 0.000D+00 0.000D+00 0.000D+00 0.100D+01
 Coeff:     -0.558D-01 0.120D+00 0.487D-01-0.418D+00 0.138D-01 0.129D+01
 Gap=     0.277 Goal=   None    Shift=    0.000
 Gap=     0.277 Goal=   None    Shift=    0.000
 RMSDP=1.15D-04 MaxDP=4.54D-03 DE=-1.91D-03 OVMax= 4.40D-02

 Cycle   7  Pass 1  IDiag  1:
 RMSU=  3.14D-05    CP:  9.06D-01  2.29D+00  1.31D+00  2.33D+00  2.17D+00
                    CP:  1.93D+00
 E= -466.832683159961     Delta-E=       -0.001698839357 Rises=F Damp=F
 DIIS: error= 1.39D-03 at cycle   7 NSaved=   7.
 NSaved= 7 IEnMin= 7 EnMin= -466.832683159961     IErMin= 7 ErrMin= 1.39D-03
 ErrMax= 1.39D-03  0.00D+00 EMaxC= 1.00D-01 BMatC= 3.24D-04 BMatP= 5.42D-04
 IDIUse=3 WtCom= 9.86D-01 WtEn= 1.39D-02
 Coeff-Com: -0.178D-01 0.387D-01 0.465D-01 0.110D+00-0.446D+00-0.101D+01
 Coeff-Com:  0.228D+01
 Coeff-En:   0.000D+00 0.000D+00 0.000D+00 0.000D+00 0.000D+00 0.000D+00
 Coeff-En:   0.100D+01
 Coeff:     -0.175D-01 0.382D-01 0.459D-01 0.108D+00-0.440D+00-0.993D+00
 Coeff:      0.226D+01
 Gap=     0.275 Goal=   None    Shift=    0.000
 Gap=     0.275 Goal=   None    Shift=    0.000
 RMSDP=1.51D-04 MaxDP=6.29D-03 DE=-1.70D-03 OVMax= 5.99D-02

 Cycle   8  Pass 1  IDiag  1:
 RMSU=  3.46D-05    CP:  9.03D-01  2.29D+00  1.36D+00  2.70D+00  3.00D+00
                    CP:  3.00D+00  2.90D+00
 E= -466.834455819396     Delta-E=       -0.001772659435 Rises=F Damp=F
 DIIS: error= 8.28D-04 at cycle   8 NSaved=   8.
 NSaved= 8 IEnMin= 8 EnMin= -466.834455819396     IErMin= 8 ErrMin= 8.28D-04
 ErrMax= 8.28D-04  0.00D+00 EMaxC= 1.00D-01 BMatC= 1.47D-04 BMatP= 3.24D-04
 IDIUse=3 WtCom= 9.92D-01 WtEn= 8.28D-03
 Coeff-Com:  0.420D-01-0.904D-01-0.234D-01 0.425D+00-0.114D+00-0.138D+01
 Coeff-Com:  0.674D+00 0.146D+01
 Coeff-En:   0.000D+00 0.000D+00 0.000D+00 0.000D+00 0.000D+00 0.000D+00
 Coeff-En:   0.000D+00 0.100D+01
 Coeff:      0.417D-01-0.897D-01-0.232D-01 0.422D+00-0.113D+00-0.137D+01
 Coeff:      0.669D+00 0.146D+01
 Gap=     0.277 Goal=   None    Shift=    0.000
 Gap=     0.277 Goal=   None    Shift=    0.000
 RMSDP=1.40D-04 MaxDP=6.20D-03 DE=-1.77D-03 OVMax= 5.67D-02

 Cycle   9  Pass 1  IDiag  1:
 RMSU=  8.97D-05    CP:  9.00D-01  2.29D+00  1.40D+00  3.00D+00  3.00D+00
                    CP:  3.00D+00  3.00D+00  3.00D+00
 E= -466.835405949210     Delta-E=       -0.000950129815 Rises=F Damp=F
 DIIS: error= 4.09D-04 at cycle   9 NSaved=   9.
 NSaved= 9 IEnMin= 9 EnMin= -466.835405949210     IErMin= 9 ErrMin= 4.09D-04
 ErrMax= 4.09D-04  0.00D+00 EMaxC= 1.00D-01 BMatC= 4.69D-05 BMatP= 1.47D-04
 IDIUse=3 WtCom= 9.96D-01 WtEn= 4.09D-03
 Coeff-Com:  0.307D-01-0.662D-01-0.287D-01 0.212D+00 0.753D-01-0.432D+00
 Coeff-Com: -0.329D+00 0.679D+00 0.859D+00
 Coeff-En:   0.000D+00 0.000D+00 0.000D+00 0.000D+00 0.000D+00 0.000D+00
 Coeff-En:   0.000D+00 0.000D+00 0.100D+01
 Coeff:      0.306D-01-0.660D-01-0.286D-01 0.211D+00 0.750D-01-0.430D+00
 Coeff:     -0.328D+00 0.676D+00 0.860D+00
 Gap=     0.277 Goal=   None    Shift=    0.000
 Gap=     0.277 Goal=   None    Shift=    0.000
 RMSDP=6.00D-05 MaxDP=2.73D-03 DE=-9.50D-04 OVMax= 2.43D-02

 Cycle  10  Pass 1  IDiag  1:
 RMSU=  4.18D-05    CP:  8.98D-01  2.29D+00  1.42D+00  3.00D+00  3.00D+00
                    CP:  3.00D+00  3.00D+00  3.00D+00  1.45D+00
 E= -466.835599796725     Delta-E=       -0.000193847515 Rises=F Damp=F
 DIIS: error= 2.24D-04 at cycle  10 NSaved=  10.
 NSaved=10 IEnMin=10 EnMin= -466.835599796725     IErMin=10 ErrMin= 2.24D-04
 ErrMax= 2.24D-04  0.00D+00 EMaxC= 1.00D-01 BMatC= 9.27D-06 BMatP= 4.69D-05
 IDIUse=3 WtCom= 9.98D-01 WtEn= 2.24D-03
 Coeff-Com: -0.273D-02 0.598D-02-0.128D-02-0.574D-01 0.325D-01 0.254D+00
 Coeff-Com: -0.193D+00-0.357D+00 0.200D-01 0.130D+01
 Coeff-En:   0.000D+00 0.000D+00 0.000D+00 0.000D+00 0.000D+00 0.000D+00
 Coeff-En:   0.000D+00 0.000D+00 0.000D+00 0.100D+01
 Coeff:     -0.273D-02 0.597D-02-0.127D-02-0.573D-01 0.325D-01 0.254D+00
 Coeff:     -0.193D+00-0.356D+00 0.199D-01 0.130D+01
 Gap=     0.276 Goal=   None    Shift=    0.000
 Gap=     0.276 Goal=   None    Shift=    0.000
 RMSDP=4.57D-05 MaxDP=1.93D-03 DE=-1.94D-04 OVMax= 1.86D-02

 Cycle  11  Pass 1  IDiag  1:
 RMSU=  6.80D-06    CP:  8.97D-01  2.29D+00  1.44D+00  3.00D+00  3.00D+00
                    CP:  3.00D+00  3.00D+00  3.00D+00  1.77D+00  1.78D+00
 E= -466.835659685985     Delta-E=       -0.000059889260 Rises=F Damp=F
 DIIS: error= 5.82D-05 at cycle  11 NSaved=  11.
 NSaved=11 IEnMin=11 EnMin= -466.835659685985     IErMin=11 ErrMin= 5.82D-05
 ErrMax= 5.82D-05  0.00D+00 EMaxC= 1.00D-01 BMatC= 1.88D-06 BMatP= 9.27D-06
 IDIUse=1 WtCom= 1.00D+00 WtEn= 0.00D+00
 Coeff-Com: -0.375D-02 0.811D-02 0.248D-02-0.383D-01 0.552D-04 0.120D+00
 Coeff-Com: -0.108D-01-0.212D+00-0.131D+00 0.476D+00 0.788D+00
 Coeff:     -0.375D-02 0.811D-02 0.248D-02-0.383D-01 0.552D-04 0.120D+00
 Coeff:     -0.108D-01-0.212D+00-0.131D+00 0.476D+00 0.788D+00
 Gap=     0.275 Goal=   None    Shift=    0.000
 Gap=     0.275 Goal=   None    Shift=    0.000
 RMSDP=1.15D-05 MaxDP=4.53D-04 DE=-5.99D-05 OVMax= 4.63D-03

 Cycle  12  Pass 1  IDiag  1:
 RMSU=  2.54D-06    CP:  8.97D-01  2.29D+00  1.44D+00  3.00D+00  3.00D+00
                    CP:  3.00D+00  3.00D+00  3.00D+00  1.85D+00  1.97D+00
                    CP:  1.33D+00
 E= -466.835663684525     Delta-E=       -0.000003998540 Rises=F Damp=F
 DIIS: error= 1.87D-05 at cycle  12 NSaved=  12.
 NSaved=12 IEnMin=12 EnMin= -466.835663684525     IErMin=12 ErrMin= 1.87D-05
 ErrMax= 1.87D-05  0.00D+00 EMaxC= 1.00D-01 BMatC= 2.03D-07 BMatP= 1.88D-06
 IDIUse=1 WtCom= 1.00D+00 WtEn= 0.00D+00
 Coeff-Com:  0.212D-02-0.459D-02-0.129D-02 0.213D-01-0.209D-02-0.690D-01
 Coeff-Com:  0.283D-01 0.875D-01 0.189D-01-0.252D+00 0.274D-01 0.114D+01
 Coeff:      0.212D-02-0.459D-02-0.129D-02 0.213D-01-0.209D-02-0.690D-01
 Coeff:      0.283D-01 0.875D-01 0.189D-01-0.252D+00 0.274D-01 0.114D+01
 Gap=     0.275 Goal=   None    Shift=    0.000
 Gap=     0.275 Goal=   None    Shift=    0.000
 RMSDP=2.86D-06 MaxDP=1.67D-04 DE=-4.00D-06 OVMax= 8.29D-04

 Cycle  13  Pass 1  IDiag  1:
 RMSU=  1.03D-06    CP:  8.97D-01  2.29D+00  1.44D+00  3.00D+00  3.00D+00
                    CP:  3.00D+00  3.00D+00  3.00D+00  1.87D+00  2.00D+00
                    CP:  1.50D+00  1.62D+00
 E= -466.835663977652     Delta-E=       -0.000000293127 Rises=F Damp=F
 DIIS: error= 5.07D-06 at cycle  13 NSaved=  13.
 NSaved=13 IEnMin=13 EnMin= -466.835663977652     IErMin=13 ErrMin= 5.07D-06
 ErrMax= 5.07D-06  0.00D+00 EMaxC= 1.00D-01 BMatC= 1.82D-08 BMatP= 2.03D-07
 IDIUse=1 WtCom= 1.00D+00 WtEn= 0.00D+00
 Coeff-Com:  0.448D-03-0.964D-03-0.269D-03 0.460D-02-0.874D-03-0.162D-01
 Coeff-Com:  0.761D-02 0.233D-01 0.682D-02-0.755D-01-0.505D-01 0.196D+00
 Coeff-Com:  0.906D+00
 Coeff:      0.448D-03-0.964D-03-0.269D-03 0.460D-02-0.874D-03-0.162D-01
 Coeff:      0.761D-02 0.233D-01 0.682D-02-0.755D-01-0.505D-01 0.196D+00
 Coeff:      0.906D+00
 Gap=     0.275 Goal=   None    Shift=    0.000
 Gap=     0.275 Goal=   None    Shift=    0.000
 RMSDP=9.68D-07 MaxDP=4.26D-05 DE=-2.93D-07 OVMax= 3.60D-04

 Cycle  14  Pass 1  IDiag  1:
 RMSU=  3.42D-07    CP:  8.97D-01  2.29D+00  1.44D+00  3.00D+00  3.00D+00
                    CP:  3.00D+00  3.00D+00  3.00D+00  1.87D+00  2.01D+00
                    CP:  1.55D+00  1.66D+00  1.06D+00
 E= -466.835664010183     Delta-E=       -0.000000032531 Rises=F Damp=F
 DIIS: error= 2.27D-06 at cycle  14 NSaved=  14.
 NSaved=14 IEnMin=14 EnMin= -466.835664010183     IErMin=14 ErrMin= 2.27D-06
 ErrMax= 2.27D-06  0.00D+00 EMaxC= 1.00D-01 BMatC= 3.17D-09 BMatP= 1.82D-08
 IDIUse=1 WtCom= 1.00D+00 WtEn= 0.00D+00
 Coeff-Com: -0.145D-03 0.314D-03 0.129D-03-0.122D-02-0.247D-03 0.319D-02
 Coeff-Com:  0.271D-03-0.485D-02-0.266D-02 0.103D-01-0.293D-02-0.619D-01
 Coeff-Com:  0.421D-01 0.102D+01
 Coeff:     -0.145D-03 0.314D-03 0.129D-03-0.122D-02-0.247D-03 0.319D-02
 Coeff:      0.271D-03-0.485D-02-0.266D-02 0.103D-01-0.293D-02-0.619D-01
 Coeff:      0.421D-01 0.102D+01
 Gap=     0.275 Goal=   None    Shift=    0.000
 Gap=     0.275 Goal=   None    Shift=    0.000
 RMSDP=2.55D-07 MaxDP=1.26D-05 DE=-3.25D-08 OVMax= 7.94D-05

 Cycle  15  Pass 1  IDiag  1:
 RMSU=  1.03D-07    CP:  8.97D-01  2.29D+00  1.44D+00  3.00D+00  3.00D+00
                    CP:  3.00D+00  3.00D+00  3.00D+00  1.88D+00  2.02D+00
                    CP:  1.55D+00  1.66D+00  1.07D+00  1.41D+00
 E= -466.835664014290     Delta-E=       -0.000000004107 Rises=F Damp=F
 DIIS: error= 1.55D-06 at cycle  15 NSaved=  15.
 NSaved=15 IEnMin=15 EnMin= -466.835664014290     IErMin=15 ErrMin= 1.55D-06
 ErrMax= 1.55D-06  0.00D+00 EMaxC= 1.00D-01 BMatC= 1.14D-09 BMatP= 3.17D-09
 IDIUse=1 WtCom= 1.00D+00 WtEn= 0.00D+00
 Coeff-Com: -0.532D-04 0.114D-03 0.316D-04-0.569D-03 0.183D-03 0.207D-02
 Coeff-Com: -0.122D-02-0.350D-02-0.735D-03 0.142D-01 0.101D-01-0.418D-01
 Coeff-Com: -0.213D+00 0.109D+00 0.113D+01
 Coeff:     -0.532D-04 0.114D-03 0.316D-04-0.569D-03 0.183D-03 0.207D-02
 Coeff:     -0.122D-02-0.350D-02-0.735D-03 0.142D-01 0.101D-01-0.418D-01
 Coeff:     -0.213D+00 0.109D+00 0.113D+01
 Gap=     0.275 Goal=   None    Shift=    0.000
 Gap=     0.275 Goal=   None    Shift=    0.000
 RMSDP=1.07D-07 MaxDP=5.44D-06 DE=-4.11D-09 OVMax= 2.14D-05

 Cycle  16  Pass 1  IDiag  1:
 RMSU=  6.14D-08    CP:  8.97D-01  2.29D+00  1.44D+00  3.00D+00  3.00D+00
                    CP:  3.00D+00  3.00D+00  3.00D+00  1.87D+00  2.01D+00
                    CP:  1.55D+00  1.65D+00  1.09D+00  1.58D+00  1.53D+00
 E= -466.835664016086     Delta-E=       -0.000000001796 Rises=F Damp=F
 DIIS: error= 1.01D-06 at cycle  16 NSaved=  16.
 NSaved=16 IEnMin=16 EnMin= -466.835664016086     IErMin=16 ErrMin= 1.01D-06
 ErrMax= 1.01D-06  0.00D+00 EMaxC= 1.00D-01 BMatC= 3.40D-10 BMatP= 1.14D-09
 IDIUse=1 WtCom= 1.00D+00 WtEn= 0.00D+00
 Coeff-Com:  0.472D-06-0.120D-05 0.226D-05 0.104D-03 0.406D-04-0.214D-03
 Coeff-Com: -0.194D-03 0.541D-03 0.400D-03-0.101D-02 0.790D-03 0.745D-02
 Coeff-Com: -0.266D-01-0.244D+00 0.680D-01 0.119D+01
 Coeff:      0.472D-06-0.120D-05 0.226D-05 0.104D-03 0.406D-04-0.214D-03
 Coeff:     -0.194D-03 0.541D-03 0.400D-03-0.101D-02 0.790D-03 0.745D-02
 Coeff:     -0.266D-01-0.244D+00 0.680D-01 0.119D+01
 Gap=     0.275 Goal=   None    Shift=    0.000
 Gap=     0.275 Goal=   None    Shift=    0.000
 RMSDP=7.56D-08 MaxDP=3.31D-06 DE=-1.80D-09 OVMax= 1.73D-05

 Cycle  17  Pass 1  IDiag  1:
 RMSU=  3.19D-08    CP:  8.97D-01  2.29D+00  1.44D+00  3.00D+00  3.00D+00
                    CP:  3.00D+00  3.00D+00  3.00D+00  1.87D+00  2.01D+00
                    CP:  1.55D+00  1.66D+00  1.10D+00  1.61D+00  1.86D+00
                    CP:  1.82D+00
 E= -466.835664016785     Delta-E=       -0.000000000699 Rises=F Damp=F
 DIIS: error= 5.29D-07 at cycle  17 NSaved=  17.
 NSaved=17 IEnMin=17 EnMin= -466.835664016785     IErMin=17 ErrMin= 5.29D-07
 ErrMax= 5.29D-07  0.00D+00 EMaxC= 1.00D-01 BMatC= 9.11D-11 BMatP= 3.40D-10
 IDIUse=1 WtCom= 1.00D+00 WtEn= 0.00D+00
 Coeff-Com: -0.836D-05 0.183D-04 0.888D-05-0.403D-04-0.484D-04-0.830D-07
 Coeff-Com:  0.109D-03 0.445D-03 0.529D-04-0.305D-02-0.263D-02 0.115D-01
 Coeff-Com:  0.691D-01-0.468D-01-0.418D+00 0.104D+00 0.128D+01
 Coeff:     -0.836D-05 0.183D-04 0.888D-05-0.403D-04-0.484D-04-0.830D-07
 Coeff:      0.109D-03 0.445D-03 0.529D-04-0.305D-02-0.263D-02 0.115D-01
 Coeff:      0.691D-01-0.468D-01-0.418D+00 0.104D+00 0.128D+01
 Gap=     0.275 Goal=   None    Shift=    0.000
 Gap=     0.275 Goal=   None    Shift=    0.000
 RMSDP=5.44D-08 MaxDP=2.36D-06 DE=-6.99D-10 OVMax= 1.29D-05

 Cycle  18  Pass 1  IDiag  1:
 RMSU=  1.71D-08    CP:  8.97D-01  2.29D+00  1.44D+00  3.00D+00  3.00D+00
                    CP:  3.00D+00  3.00D+00  3.00D+00  1.87D+00  2.01D+00
                    CP:  1.55D+00  1.66D+00  1.10D+00  1.59D+00  2.08D+00
                    CP:  2.42D+00  1.54D+00
 E= -466.835664016979     Delta-E=       -0.000000000194 Rises=F Damp=F
 DIIS: error= 1.61D-07 at cycle  18 NSaved=  18.
 NSaved=18 IEnMin=18 EnMin= -466.835664016979     IErMin=18 ErrMin= 1.61D-07
 ErrMax= 1.61D-07  0.00D+00 EMaxC= 1.00D-01 BMatC= 1.19D-11 BMatP= 9.11D-11
 IDIUse=1 WtCom= 1.00D+00 WtEn= 0.00D+00
 Coeff-Com: -0.375D-05 0.810D-05 0.373D-05-0.381D-04-0.184D-04 0.510D-04
 Coeff-Com:  0.415D-04 0.502D-04-0.317D-04-0.687D-03-0.759D-03 0.296D-02
 Coeff-Com:  0.239D-01 0.150D-01-0.134D+00-0.119D+00 0.353D+00 0.858D+00
 Coeff:     -0.375D-05 0.810D-05 0.373D-05-0.381D-04-0.184D-04 0.510D-04
 Coeff:      0.415D-04 0.502D-04-0.317D-04-0.687D-03-0.759D-03 0.296D-02
 Coeff:      0.239D-01 0.150D-01-0.134D+00-0.119D+00 0.353D+00 0.858D+00
 Gap=     0.275 Goal=   None    Shift=    0.000
 Gap=     0.275 Goal=   None    Shift=    0.000
 RMSDP=1.48D-08 MaxDP=7.74D-07 DE=-1.94D-10 OVMax= 4.35D-06

 Cycle  19  Pass 1  IDiag  1:
 RMSU=  4.99D-09    CP:  8.97D-01  2.29D+00  1.44D+00  3.00D+00  3.00D+00
                    CP:  3.00D+00  3.00D+00  3.00D+00  1.87D+00  2.01D+00
                    CP:  1.55D+00  1.66D+00  1.10D+00  1.59D+00  2.11D+00
                    CP:  2.53D+00  1.71D+00  1.32D+00
 E= -466.835664017000     Delta-E=       -0.000000000020 Rises=F Damp=F
 DIIS: error= 6.91D-08 at cycle  19 NSaved=  19.
 NSaved=19 IEnMin=19 EnMin= -466.835664017000     IErMin=19 ErrMin= 6.91D-08
 ErrMax= 6.91D-08  0.00D+00 EMaxC= 1.00D-01 BMatC= 2.79D-12 BMatP= 1.19D-11
 IDIUse=1 WtCom= 1.00D+00 WtEn= 0.00D+00
 Coeff-Com: -0.997D-06 0.210D-05 0.120D-05-0.103D-04-0.262D-05 0.168D-04
 Coeff-Com:  0.193D-04-0.453D-04-0.391D-04 0.131D-03 0.105D-03-0.415D-03
 Coeff-Com: -0.126D-02 0.111D-01 0.139D-01-0.545D-01-0.780D-01 0.324D+00
 Coeff-Com:  0.785D+00
 Coeff:     -0.997D-06 0.210D-05 0.120D-05-0.103D-04-0.262D-05 0.168D-04
 Coeff:      0.193D-04-0.453D-04-0.391D-04 0.131D-03 0.105D-03-0.415D-03
 Coeff:     -0.126D-02 0.111D-01 0.139D-01-0.545D-01-0.780D-01 0.324D+00
 Coeff:      0.785D+00
 Gap=     0.275 Goal=   None    Shift=    0.000
 Gap=     0.275 Goal=   None    Shift=    0.000
 RMSDP=4.44D-09 MaxDP=2.42D-07 DE=-2.03D-11 OVMax= 1.23D-06

 Error on total polarization charges =  0.01175
 SCF Done:  E(UwB97XD) =  -466.835664017     A.U. after   19 cycles
            NFock= 19  Conv=0.44D-08     -V/T= 2.0055
 <Sx>= 0.0000 <Sy>= 0.0000 <Sz>= 0.0000 <S**2>= 0.0000 S= 0.0000
 <L.S>=  0.00000000000    
 KE= 4.642991980129D+02 PE=-2.460102540135D+03 EE= 8.398183473523D+02
 --------------------------------------------------------------------
 Variational PCM results
 =======================
 <psi(f)|   H    |psi(f)>                     (a.u.) =    -466.834163
 <psi(f)|H+V(f)/2|psi(f)>                     (a.u.) =    -466.835664
 (Polarized solute)-Solvent               (kcal/mol) =      -0.94
 --------------------------------------------------------------------
 Partition over spheres:
 Sphere  on Atom  Surface  Charge   GEl     GCav    GDR
    1      C1       7.22   0.011   -0.05    0.00    0.00
    2      C2       3.12   0.004   -0.02    0.00    0.00
    3      H3       7.52  -0.010   -0.03    0.00    0.00
    4      H4       2.23  -0.003   -0.01    0.00    0.00
    5      C5       4.74   0.009   -0.06    0.00    0.00
    6      C6       3.16   0.004   -0.02    0.00    0.00
    7      H7       4.38  -0.006   -0.03    0.00    0.00
    8      H8       2.22  -0.003   -0.01    0.00    0.00
    9      C9       3.36   0.002    0.00    0.00    0.00
   10      H10      6.29  -0.006   -0.01    0.00    0.00
   11      H11      3.91  -0.003   -0.01    0.00    0.00
   12      C12      7.01   0.011   -0.06    0.00    0.00
   13      H13      7.50  -0.010   -0.03    0.00    0.00
   14      C14      6.69   0.011   -0.05    0.00    0.00
   15      H15      7.52  -0.010   -0.03    0.00    0.00
   16      C16      3.48   0.001    0.00    0.00    0.00
   17      H17      3.89  -0.004   -0.02    0.00    0.00
   18      H18      7.41  -0.008   -0.03    0.00    0.00
   19      C19      4.98   0.009   -0.06    0.00    0.00
   20      H20      4.39  -0.006   -0.02    0.00    0.00
   21      C21      7.04   0.011   -0.07    0.00    0.00
   22      H22      7.52  -0.010   -0.03    0.00    0.00
   23      C23      3.29   0.002    0.00    0.00    0.00
   24      H24      4.02  -0.003   -0.01    0.00    0.00
   25      H25      6.29  -0.006   -0.01    0.00    0.00
   26      C26      3.30   0.001    0.00    0.00    0.00
   27      H27      7.33  -0.008   -0.03    0.00    0.00
   28      H28      4.08  -0.004   -0.02    0.00    0.00
 Added spheres:    74.56   0.012   -0.22    0.00    0.00
 --------------------------------------------------------------------
 After PCM corrections, the energy is  -466.835664017     a.u.
 --------------------------------------------------------------------
 Annihilation of the first spin contaminant:
 S**2 before annihilation     0.0000,   after    -0.0000
 Leave Link  502 at Mon Aug  3 15:48:50 2020, MaxMem=  6442450944 cpu:            8183.4 elap:             344.0
 (Enter /scratch/scicomp/CentOS/7.3.1611/Haswell/software/Gaussian/g16/l601.exe)
 Copying SCF densities to generalized density rwf, IOpCl= 1 IROHF=0.

 **********************************************************************

            Population analysis using the SCF Density.

 **********************************************************************

 Alpha  occ. eigenvalues --  -10.28629 -10.28628 -10.28472 -10.28472 -10.28260
 Alpha  occ. eigenvalues --  -10.28260 -10.28207 -10.28207 -10.28015 -10.28015
 Alpha  occ. eigenvalues --  -10.27187 -10.27186  -0.94864  -0.93524  -0.84981
 Alpha  occ. eigenvalues --   -0.84441  -0.83690  -0.83417  -0.71741  -0.70946
 Alpha  occ. eigenvalues --   -0.68614  -0.67852  -0.60038  -0.59951  -0.57865
 Alpha  occ. eigenvalues --   -0.56414  -0.53599  -0.53132  -0.51142  -0.50858
 Alpha  occ. eigenvalues --   -0.49912  -0.49000  -0.47751  -0.47046  -0.46105
 Alpha  occ. eigenvalues --   -0.44827  -0.41584  -0.41046  -0.39976  -0.39308
 Alpha  occ. eigenvalues --   -0.39160  -0.38473  -0.30650  -0.25869
 Alpha virt. eigenvalues --    0.01675   0.06859   0.10470   0.12389   0.13432
 Alpha virt. eigenvalues --    0.14532   0.14798   0.15618   0.15827   0.16208
 Alpha virt. eigenvalues --    0.16496   0.17439   0.17463   0.18497   0.19922
 Alpha virt. eigenvalues --    0.20974   0.21412   0.22846   0.23384   0.24104
 Alpha virt. eigenvalues --    0.24517   0.25251   0.26178   0.26551   0.27558
 Alpha virt. eigenvalues --    0.28657   0.29140   0.29625   0.30347   0.30603
 Alpha virt. eigenvalues --    0.30895   0.31633   0.32507   0.32996   0.34078
 Alpha virt. eigenvalues --    0.34398   0.35028   0.35722   0.36364   0.37472
 Alpha virt. eigenvalues --    0.37975   0.38732   0.41337   0.41786   0.42246
 Alpha virt. eigenvalues --    0.43866   0.44006   0.44169   0.44779   0.45480
 Alpha virt. eigenvalues --    0.46694   0.47742   0.48154   0.48480   0.48781
 Alpha virt. eigenvalues --    0.48842   0.48895   0.49184   0.49943   0.50165
 Alpha virt. eigenvalues --    0.50378   0.50561   0.52018   0.52297   0.52930
 Alpha virt. eigenvalues --    0.52974   0.54288   0.54519   0.55089   0.55386
 Alpha virt. eigenvalues --    0.56793   0.57273   0.58052   0.59385   0.60232
 Alpha virt. eigenvalues --    0.60677   0.61220   0.61816   0.63521   0.63636
 Alpha virt. eigenvalues --    0.66245   0.66579   0.67869   0.68374   0.68999
 Alpha virt. eigenvalues --    0.70219   0.72068   0.73673   0.75640   0.76398
 Alpha virt. eigenvalues --    0.77495   0.78296   0.78742   0.80509   0.81897
 Alpha virt. eigenvalues --    0.83034   0.83839   0.85043   0.85065   0.87691
 Alpha virt. eigenvalues --    0.89158   0.90567   0.92020   0.93843   0.94242
 Alpha virt. eigenvalues --    0.95181   0.97403   0.97473   0.98673   1.00014
 Alpha virt. eigenvalues --    1.01914   1.02713   1.04075   1.04955   1.05316
 Alpha virt. eigenvalues --    1.07223   1.07799   1.08397   1.09591   1.11314
 Alpha virt. eigenvalues --    1.12416   1.13236   1.14982   1.16487   1.16713
 Alpha virt. eigenvalues --    1.17317   1.18885   1.19126   1.19460   1.19625
 Alpha virt. eigenvalues --    1.20193   1.21450   1.23764   1.25356   1.25814
 Alpha virt. eigenvalues --    1.26302   1.26878   1.28215   1.28968   1.29382
 Alpha virt. eigenvalues --    1.30610   1.30640   1.32697   1.32883   1.33352
 Alpha virt. eigenvalues --    1.34771   1.34855   1.36706   1.37886   1.38999
 Alpha virt. eigenvalues --    1.39520   1.39949   1.40450   1.41187   1.42641
 Alpha virt. eigenvalues --    1.42758   1.43184   1.43254   1.44639   1.45128
 Alpha virt. eigenvalues --    1.45195   1.45716   1.47825   1.48830   1.49025
 Alpha virt. eigenvalues --    1.50702   1.52805   1.53645   1.56850   1.57079
 Alpha virt. eigenvalues --    1.57906   1.59035   1.60270   1.60725   1.62076
 Alpha virt. eigenvalues --    1.63709   1.64580   1.64838   1.65963   1.68150
 Alpha virt. eigenvalues --    1.69223   1.72139   1.76360   1.76363   1.76653
 Alpha virt. eigenvalues --    1.79991   1.82131   1.82393   1.84575   1.86004
 Alpha virt. eigenvalues --    1.88954   1.89852   1.90583   1.93624   1.93721
 Alpha virt. eigenvalues --    1.95139   1.96956   1.97332   2.01157   2.01394
 Alpha virt. eigenvalues --    2.05008   2.05834   2.08736   2.11540   2.12320
 Alpha virt. eigenvalues --    2.12581   2.14766   2.15931   2.16981   2.18681
 Alpha virt. eigenvalues --    2.18686   2.19243   2.19684   2.24087   2.24390
 Alpha virt. eigenvalues --    2.24664   2.25307   2.26077   2.29683   2.32079
 Alpha virt. eigenvalues --    2.36358   2.36463   2.38917   2.41251   2.43004
 Alpha virt. eigenvalues --    2.44376   2.47282   2.47903   2.48025   2.50114
 Alpha virt. eigenvalues --    2.50252   2.52007   2.52608   2.54695   2.56882
 Alpha virt. eigenvalues --    2.59505   2.60703   2.61423   2.62650   2.62721
 Alpha virt. eigenvalues --    2.64628   2.64755   2.65343   2.67052   2.68202
 Alpha virt. eigenvalues --    2.69384   2.70479   2.71546   2.72714   2.74663
 Alpha virt. eigenvalues --    2.75022   2.75103   2.75544   2.75678   2.77011
 Alpha virt. eigenvalues --    2.79463   2.79923   2.81175   2.81913   2.82312
 Alpha virt. eigenvalues --    2.82319   2.83680   2.84330   2.84424   2.85872
 Alpha virt. eigenvalues --    2.86324   2.88246   2.88589   2.89800   2.91614
 Alpha virt. eigenvalues --    2.92561   2.93852   2.94763   2.94866   2.97054
 Alpha virt. eigenvalues --    2.97582   2.98180   2.99621   3.00385   3.00567
 Alpha virt. eigenvalues --    3.01530   3.02167   3.04014   3.04222   3.06970
 Alpha virt. eigenvalues --    3.07038   3.08298   3.09291   3.10665   3.11026
 Alpha virt. eigenvalues --    3.11800   3.12533   3.13347   3.14575   3.15687
 Alpha virt. eigenvalues --    3.15701   3.16288   3.17210   3.17514   3.19737
 Alpha virt. eigenvalues --    3.20160   3.20602   3.20747   3.21665   3.22492
 Alpha virt. eigenvalues --    3.23491   3.23658   3.23752   3.25323   3.25405
 Alpha virt. eigenvalues --    3.25667   3.27756   3.27802   3.28670   3.29506
 Alpha virt. eigenvalues --    3.29910   3.30845   3.31641   3.31711   3.33471
 Alpha virt. eigenvalues --    3.33592   3.34145   3.35745   3.36439   3.36911
 Alpha virt. eigenvalues --    3.37235   3.38046   3.39244   3.41994   3.42091
 Alpha virt. eigenvalues --    3.43995   3.44070   3.44922   3.45651   3.46702
 Alpha virt. eigenvalues --    3.47526   3.47699   3.47803   3.48518   3.49425
 Alpha virt. eigenvalues --    3.51536   3.52155   3.52608   3.52916   3.54651
 Alpha virt. eigenvalues --    3.55384   3.56423   3.57089   3.57876   3.60292
 Alpha virt. eigenvalues --    3.62169   3.62737   3.63286   3.63796   3.63929
 Alpha virt. eigenvalues --    3.65024   3.67682   3.68371   3.70364   3.70681
 Alpha virt. eigenvalues --    3.71405   3.72750   3.74470   3.78862   3.79142
 Alpha virt. eigenvalues --    3.80902   3.81043   3.82395   3.83013   3.83807
 Alpha virt. eigenvalues --    3.84389   3.86360   3.88852   3.90394   3.90522
 Alpha virt. eigenvalues --    3.92454   3.94765   3.96498   4.00187   4.00918
 Alpha virt. eigenvalues --    4.02649   4.04531   4.06054   4.06179   4.09402
 Alpha virt. eigenvalues --    4.09409   4.11471   4.12828   4.12944   4.13965
 Alpha virt. eigenvalues --    4.14882   4.15944   4.18087   4.18699   4.20471
 Alpha virt. eigenvalues --    4.21264   4.22895   4.24954   4.28160   4.28455
 Alpha virt. eigenvalues --    4.30201   4.31977   4.32605   4.33547   4.38136
 Alpha virt. eigenvalues --    4.38829   4.39757   4.41643   4.43875   4.48508
 Alpha virt. eigenvalues --    4.48757   4.49637   4.50494   4.54366   4.54996
 Alpha virt. eigenvalues --    4.56886   4.60862   4.62022   4.67858   4.68363
 Alpha virt. eigenvalues --    4.71192   4.72936   4.73809   4.76442   4.78906
 Alpha virt. eigenvalues --    4.81089   4.82464   4.82888   4.85873   4.87106
 Alpha virt. eigenvalues --    4.90282   4.91321   4.93629   4.93778   4.97560
 Alpha virt. eigenvalues --    4.98774   5.05450   5.06732   5.11520   5.11927
 Alpha virt. eigenvalues --    5.17577   5.20155   5.21342   5.22417   5.24984
 Alpha virt. eigenvalues --    5.28097   5.36127   5.38189   5.40356   5.42392
 Alpha virt. eigenvalues --    5.46306   5.46364   5.51546   5.56924   5.71486
 Alpha virt. eigenvalues --    5.72433   5.76451   5.77784   5.96634   6.02175
 Alpha virt. eigenvalues --    7.95261   7.95667   8.03552   8.03771   8.05362
 Alpha virt. eigenvalues --    8.09935   8.11329   8.14660   8.19250   8.19531
 Alpha virt. eigenvalues --    8.34953   8.38425  34.77631  34.77782  34.81423
 Alpha virt. eigenvalues --   34.81464  34.84892  34.91785  34.97334  35.00022
 Alpha virt. eigenvalues --   35.02627  35.03415  35.17183  35.20149
  Beta  occ. eigenvalues --  -10.28629 -10.28628 -10.28472 -10.28472 -10.28260
  Beta  occ. eigenvalues --  -10.28260 -10.28207 -10.28207 -10.28015 -10.28015
  Beta  occ. eigenvalues --  -10.27187 -10.27186  -0.94864  -0.93524  -0.84981
  Beta  occ. eigenvalues --   -0.84441  -0.83690  -0.83417  -0.71741  -0.70946
  Beta  occ. eigenvalues --   -0.68614  -0.67852  -0.60038  -0.59951  -0.57865
  Beta  occ. eigenvalues --   -0.56414  -0.53599  -0.53132  -0.51142  -0.50858
  Beta  occ. eigenvalues --   -0.49912  -0.49000  -0.47751  -0.47046  -0.46105
  Beta  occ. eigenvalues --   -0.44827  -0.41584  -0.41046  -0.39976  -0.39308
  Beta  occ. eigenvalues --   -0.39160  -0.38473  -0.30650  -0.25869
  Beta virt. eigenvalues --    0.01675   0.06859   0.10470   0.12389   0.13432
  Beta virt. eigenvalues --    0.14532   0.14798   0.15618   0.15827   0.16208
  Beta virt. eigenvalues --    0.16496   0.17439   0.17463   0.18497   0.19922
  Beta virt. eigenvalues --    0.20974   0.21412   0.22846   0.23384   0.24104
  Beta virt. eigenvalues --    0.24517   0.25251   0.26178   0.26551   0.27558
  Beta virt. eigenvalues --    0.28657   0.29140   0.29625   0.30347   0.30603
  Beta virt. eigenvalues --    0.30895   0.31633   0.32507   0.32996   0.34078
  Beta virt. eigenvalues --    0.34398   0.35028   0.35722   0.36364   0.37472
  Beta virt. eigenvalues --    0.37975   0.38732   0.41337   0.41786   0.42246
  Beta virt. eigenvalues --    0.43866   0.44006   0.44169   0.44779   0.45480
  Beta virt. eigenvalues --    0.46694   0.47742   0.48154   0.48480   0.48781
  Beta virt. eigenvalues --    0.48842   0.48895   0.49184   0.49943   0.50165
  Beta virt. eigenvalues --    0.50378   0.50561   0.52018   0.52297   0.52930
  Beta virt. eigenvalues --    0.52974   0.54288   0.54519   0.55089   0.55386
  Beta virt. eigenvalues --    0.56793   0.57273   0.58052   0.59385   0.60232
  Beta virt. eigenvalues --    0.60677   0.61220   0.61816   0.63521   0.63636
  Beta virt. eigenvalues --    0.66245   0.66579   0.67869   0.68374   0.68999
  Beta virt. eigenvalues --    0.70219   0.72068   0.73673   0.75640   0.76398
  Beta virt. eigenvalues --    0.77495   0.78296   0.78742   0.80509   0.81897
  Beta virt. eigenvalues --    0.83034   0.83839   0.85043   0.85065   0.87691
  Beta virt. eigenvalues --    0.89158   0.90567   0.92020   0.93843   0.94242
  Beta virt. eigenvalues --    0.95181   0.97403   0.97473   0.98673   1.00014
  Beta virt. eigenvalues --    1.01914   1.02713   1.04075   1.04955   1.05316
  Beta virt. eigenvalues --    1.07223   1.07799   1.08397   1.09591   1.11314
  Beta virt. eigenvalues --    1.12416   1.13236   1.14982   1.16487   1.16713
  Beta virt. eigenvalues --    1.17317   1.18885   1.19126   1.19460   1.19625
  Beta virt. eigenvalues --    1.20193   1.21450   1.23764   1.25356   1.25814
  Beta virt. eigenvalues --    1.26302   1.26878   1.28215   1.28968   1.29382
  Beta virt. eigenvalues --    1.30610   1.30640   1.32697   1.32883   1.33352
  Beta virt. eigenvalues --    1.34771   1.34855   1.36706   1.37886   1.38999
  Beta virt. eigenvalues --    1.39520   1.39949   1.40450   1.41187   1.42641
  Beta virt. eigenvalues --    1.42758   1.43184   1.43254   1.44639   1.45128
  Beta virt. eigenvalues --    1.45195   1.45716   1.47825   1.48830   1.49025
  Beta virt. eigenvalues --    1.50702   1.52805   1.53645   1.56850   1.57079
  Beta virt. eigenvalues --    1.57906   1.59035   1.60270   1.60725   1.62076
  Beta virt. eigenvalues --    1.63709   1.64580   1.64838   1.65963   1.68150
  Beta virt. eigenvalues --    1.69223   1.72139   1.76360   1.76363   1.76653
  Beta virt. eigenvalues --    1.79991   1.82131   1.82393   1.84575   1.86004
  Beta virt. eigenvalues --    1.88954   1.89852   1.90583   1.93624   1.93721
  Beta virt. eigenvalues --    1.95139   1.96956   1.97332   2.01157   2.01394
  Beta virt. eigenvalues --    2.05008   2.05834   2.08736   2.11540   2.12320
  Beta virt. eigenvalues --    2.12581   2.14766   2.15931   2.16981   2.18681
  Beta virt. eigenvalues --    2.18686   2.19243   2.19684   2.24087   2.24390
  Beta virt. eigenvalues --    2.24664   2.25307   2.26077   2.29683   2.32079
  Beta virt. eigenvalues --    2.36358   2.36463   2.38917   2.41251   2.43004
  Beta virt. eigenvalues --    2.44376   2.47282   2.47903   2.48025   2.50114
  Beta virt. eigenvalues --    2.50252   2.52007   2.52608   2.54695   2.56882
  Beta virt. eigenvalues --    2.59505   2.60703   2.61423   2.62650   2.62721
  Beta virt. eigenvalues --    2.64628   2.64755   2.65343   2.67052   2.68202
  Beta virt. eigenvalues --    2.69384   2.70479   2.71546   2.72714   2.74663
  Beta virt. eigenvalues --    2.75022   2.75103   2.75544   2.75678   2.77011
  Beta virt. eigenvalues --    2.79463   2.79923   2.81175   2.81913   2.82312
  Beta virt. eigenvalues --    2.82319   2.83680   2.84330   2.84424   2.85872
  Beta virt. eigenvalues --    2.86324   2.88246   2.88589   2.89800   2.91614
  Beta virt. eigenvalues --    2.92561   2.93852   2.94763   2.94866   2.97054
  Beta virt. eigenvalues --    2.97582   2.98180   2.99621   3.00385   3.00567
  Beta virt. eigenvalues --    3.01530   3.02167   3.04014   3.04222   3.06970
  Beta virt. eigenvalues --    3.07038   3.08298   3.09291   3.10665   3.11026
  Beta virt. eigenvalues --    3.11800   3.12533   3.13347   3.14575   3.15687
  Beta virt. eigenvalues --    3.15701   3.16288   3.17210   3.17514   3.19737
  Beta virt. eigenvalues --    3.20160   3.20602   3.20747   3.21665   3.22492
  Beta virt. eigenvalues --    3.23491   3.23658   3.23752   3.25323   3.25405
  Beta virt. eigenvalues --    3.25667   3.27756   3.27802   3.28670   3.29506
  Beta virt. eigenvalues --    3.29910   3.30845   3.31641   3.31711   3.33471
  Beta virt. eigenvalues --    3.33592   3.34145   3.35745   3.36439   3.36911
  Beta virt. eigenvalues --    3.37235   3.38046   3.39244   3.41994   3.42091
  Beta virt. eigenvalues --    3.43995   3.44070   3.44922   3.45651   3.46702
  Beta virt. eigenvalues --    3.47526   3.47699   3.47803   3.48518   3.49425
  Beta virt. eigenvalues --    3.51536   3.52155   3.52608   3.52916   3.54651
  Beta virt. eigenvalues --    3.55384   3.56423   3.57089   3.57876   3.60292
  Beta virt. eigenvalues --    3.62169   3.62737   3.63286   3.63796   3.63929
  Beta virt. eigenvalues --    3.65024   3.67682   3.68371   3.70364   3.70681
  Beta virt. eigenvalues --    3.71405   3.72750   3.74470   3.78862   3.79142
  Beta virt. eigenvalues --    3.80902   3.81043   3.82395   3.83013   3.83807
  Beta virt. eigenvalues --    3.84389   3.86360   3.88852   3.90394   3.90522
  Beta virt. eigenvalues --    3.92454   3.94765   3.96498   4.00187   4.00918
  Beta virt. eigenvalues --    4.02649   4.04531   4.06054   4.06179   4.09402
  Beta virt. eigenvalues --    4.09409   4.11471   4.12828   4.12944   4.13965
  Beta virt. eigenvalues --    4.14882   4.15944   4.18087   4.18699   4.20471
  Beta virt. eigenvalues --    4.21264   4.22895   4.24954   4.28160   4.28455
  Beta virt. eigenvalues --    4.30201   4.31977   4.32605   4.33547   4.38136
  Beta virt. eigenvalues --    4.38829   4.39757   4.41643   4.43875   4.48508
  Beta virt. eigenvalues --    4.48757   4.49637   4.50494   4.54366   4.54996
  Beta virt. eigenvalues --    4.56886   4.60862   4.62022   4.67858   4.68363
  Beta virt. eigenvalues --    4.71192   4.72936   4.73809   4.76442   4.78906
  Beta virt. eigenvalues --    4.81089   4.82464   4.82888   4.85873   4.87106
  Beta virt. eigenvalues --    4.90282   4.91321   4.93629   4.93778   4.97560
  Beta virt. eigenvalues --    4.98774   5.05450   5.06732   5.11520   5.11927
  Beta virt. eigenvalues --    5.17577   5.20155   5.21342   5.22417   5.24984
  Beta virt. eigenvalues --    5.28097   5.36127   5.38189   5.40356   5.42392
  Beta virt. eigenvalues --    5.46306   5.46364   5.51546   5.56924   5.71486
  Beta virt. eigenvalues --    5.72433   5.76451   5.77784   5.96634   6.02175
  Beta virt. eigenvalues --    7.95261   7.95667   8.03552   8.03771   8.05362
  Beta virt. eigenvalues --    8.09935   8.11329   8.14660   8.19250   8.19531
  Beta virt. eigenvalues --    8.34953   8.38425  34.77631  34.77782  34.81423
  Beta virt. eigenvalues --   34.81464  34.84892  34.91785  34.97334  35.00022
  Beta virt. eigenvalues --   35.02627  35.03415  35.17183  35.20149
          Condensed to atoms (all electrons):
               1          2          3          4          5          6
     1  C    5.148001  -0.005263   0.425708  -0.002163   0.001630  -0.009954
     2  C   -0.005263   5.394181  -0.002354   0.425019  -0.083487  -0.012634
     3  H    0.425708  -0.002354   0.497687   0.000039  -0.000048   0.000049
     4  H   -0.002163   0.425019   0.000039   0.469294  -0.017933   0.000067
     5  C    0.001630  -0.083487  -0.000048  -0.017933   5.215095   0.508905
     6  C   -0.009954  -0.012634   0.000049   0.000067   0.508905   5.394072
     7  H    0.000239  -0.003248   0.000002  -0.000039   0.435480  -0.031866
     8  H   -0.001235   0.000070  -0.000109   0.000527  -0.032868   0.425021
     9  C    0.002986  -0.020291  -0.000010  -0.004421  -0.064972   0.232308
    10  H   -0.000046   0.002839  -0.000001  -0.000491  -0.007340  -0.046613
    11  H    0.000145  -0.007974   0.000004   0.000646   0.010072  -0.059753
    12  C   -0.000198   0.020707   0.000001   0.006672   0.280485  -0.066565
    13  H   -0.000001   0.000211   0.000000   0.000063  -0.039656   0.005596
    14  C    0.000147  -0.009956  -0.000000  -0.001232  -0.043252  -0.005235
    15  H   -0.000000   0.000049  -0.000000  -0.000109   0.007112  -0.002358
    16  C   -0.000541   0.017132   0.000001   0.000271  -0.004507  -0.065017
    17  H    0.000001   0.001356  -0.000000  -0.004826   0.010903  -0.003473
    18  H    0.000003   0.000148   0.000000   0.000473  -0.003137   0.012276
    19  C   -0.043270   0.508857   0.007106  -0.032853  -0.030299  -0.083476
    20  H    0.004782  -0.031929  -0.000128  -0.005343   0.000160  -0.003245
    21  C    0.576508  -0.066533  -0.033444   0.005343   0.004136   0.020701
    22  H   -0.029411   0.005586  -0.006747  -0.000072   0.000056   0.000211
    23  C   -0.088909   0.232268   0.005794  -0.012451   0.010325  -0.020295
    24  H    0.013171  -0.059744  -0.000102  -0.004082   0.000897  -0.007975
    25  H    0.005847  -0.046647  -0.000011  -0.001666   0.000813   0.002840
    26  C    0.276025  -0.065040  -0.032125   0.005164  -0.010323   0.017140
    27  H   -0.033607   0.012281  -0.004277  -0.000086   0.000384   0.000148
    28  H   -0.031337  -0.003479   0.001269  -0.000221  -0.004568   0.001357
               7          8          9         10         11         12
     1  C    0.000239  -0.001235   0.002986  -0.000046   0.000145  -0.000198
     2  C   -0.003248   0.000070  -0.020291   0.002839  -0.007974   0.020707
     3  H    0.000002  -0.000109  -0.000010  -0.000001   0.000004   0.000001
     4  H   -0.000039   0.000527  -0.004421  -0.000491   0.000646   0.006672
     5  C    0.435480  -0.032868  -0.064972  -0.007340   0.010072   0.280485
     6  C   -0.031866   0.425021   0.232308  -0.046613  -0.059753  -0.066565
     7  H    0.484315  -0.005345   0.003543  -0.000167  -0.000030  -0.035943
     8  H   -0.005345   0.469322  -0.012445  -0.001665  -0.004084   0.005343
     9  C    0.003543  -0.012445   4.972031   0.395019   0.463914   0.035240
    10  H   -0.000167  -0.001665   0.395019   0.579523  -0.021574   0.000889
    11  H   -0.000030  -0.004084   0.463914  -0.021574   0.531096  -0.004689
    12  C   -0.035943   0.005343   0.035240   0.000889  -0.004689   5.023582
    13  H   -0.003763  -0.000072  -0.000077  -0.000094   0.000034   0.427702
    14  C    0.004785  -0.002164  -0.088924   0.005838   0.013174   0.576440
    15  H   -0.000128   0.000039   0.005795  -0.000011  -0.000102  -0.033485
    16  C   -0.001339   0.005166   0.347906  -0.024647  -0.054969  -0.051516
    17  H    0.000012  -0.000221  -0.028981   0.007060  -0.007516  -0.014658
    18  H    0.000040  -0.000086  -0.042341  -0.010378  -0.000844   0.005232
    19  C    0.000161  -0.017933   0.010310   0.000814   0.000893   0.004135
    20  H    0.000007  -0.000039   0.003330   0.000410  -0.002656  -0.000151
    21  C   -0.000151   0.006674  -0.003587  -0.000135   0.000036  -0.000459
    22  H   -0.000002   0.000063  -0.000107  -0.000000  -0.000020  -0.000001
    23  C    0.003333  -0.004429   0.003005  -0.000115   0.000340  -0.003592
    24  H   -0.002659   0.000646   0.000340  -0.000031  -0.000011   0.000036
    25  H    0.000410  -0.000491  -0.000115   0.000015  -0.000031  -0.000135
    26  C   -0.002067   0.000276  -0.001636   0.000070  -0.000157   0.001240
    27  H   -0.000015   0.000473   0.000006  -0.000000  -0.000000  -0.000041
    28  H    0.002117  -0.004825   0.000478   0.000009  -0.000001   0.000294
              13         14         15         16         17         18
     1  C   -0.000001   0.000147  -0.000000  -0.000541   0.000001   0.000003
     2  C    0.000211  -0.009956   0.000049   0.017132   0.001356   0.000148
     3  H    0.000000  -0.000000  -0.000000   0.000001  -0.000000   0.000000
     4  H    0.000063  -0.001232  -0.000109   0.000271  -0.004826   0.000473
     5  C   -0.039656  -0.043252   0.007112  -0.004507   0.010903  -0.003137
     6  C    0.005596  -0.005235  -0.002358  -0.065017  -0.003473   0.012276
     7  H   -0.003763   0.004785  -0.000128  -0.001339   0.000012   0.000040
     8  H   -0.000072  -0.002164   0.000039   0.005166  -0.000221  -0.000086
     9  C   -0.000077  -0.088924   0.005795   0.347906  -0.028981  -0.042341
    10  H   -0.000094   0.005838  -0.000011  -0.024647   0.007060  -0.010378
    11  H    0.000034   0.013174  -0.000102  -0.054969  -0.007516  -0.000844
    12  C    0.427702   0.576440  -0.033485  -0.051516  -0.014658   0.005232
    13  H    0.497116  -0.029393  -0.006749   0.005196  -0.000448  -0.000132
    14  C   -0.029393   5.148116   0.425737   0.276025  -0.031347  -0.033591
    15  H   -0.006749   0.425737   0.497684  -0.032112   0.001268  -0.004275
    16  C    0.005196   0.276025  -0.032112   4.953931   0.394398   0.427088
    17  H   -0.000448  -0.031347   0.001268   0.394398   0.585179  -0.022919
    18  H   -0.000132  -0.033591  -0.004275   0.427088  -0.022919   0.545045
    19  C    0.000056   0.001631  -0.000048  -0.010320  -0.004566   0.000384
    20  H   -0.000002   0.000239   0.000002  -0.002065   0.002117  -0.000015
    21  C   -0.000001  -0.000198   0.000001   0.001239   0.000294  -0.000041
    22  H    0.000000  -0.000001   0.000000   0.000010  -0.000001  -0.000001
    23  C   -0.000107   0.002986  -0.000010  -0.001636   0.000477   0.000006
    24  H   -0.000021   0.000145   0.000004  -0.000157  -0.000001  -0.000000
    25  H   -0.000000  -0.000046  -0.000001   0.000070   0.000009  -0.000000
    26  C    0.000010  -0.000541   0.000001   0.000623   0.000006  -0.000003
    27  H   -0.000001   0.000003   0.000000  -0.000003   0.000001  -0.000000
    28  H   -0.000001   0.000001  -0.000000   0.000006  -0.000013   0.000001
              19         20         21         22         23         24
     1  C   -0.043270   0.004782   0.576508  -0.029411  -0.088909   0.013171
     2  C    0.508857  -0.031929  -0.066533   0.005586   0.232268  -0.059744
     3  H    0.007106  -0.000128  -0.033444  -0.006747   0.005794  -0.000102
     4  H   -0.032853  -0.005343   0.005343  -0.000072  -0.012451  -0.004082
     5  C   -0.030299   0.000160   0.004136   0.000056   0.010325   0.000897
     6  C   -0.083476  -0.003245   0.020701   0.000211  -0.020295  -0.007975
     7  H    0.000161   0.000007  -0.000151  -0.000002   0.003333  -0.002659
     8  H   -0.017933  -0.000039   0.006674   0.000063  -0.004429   0.000646
     9  C    0.010310   0.003330  -0.003587  -0.000107   0.003005   0.000340
    10  H    0.000814   0.000410  -0.000135  -0.000000  -0.000115  -0.000031
    11  H    0.000893  -0.002656   0.000036  -0.000020   0.000340  -0.000011
    12  C    0.004135  -0.000151  -0.000459  -0.000001  -0.003592   0.000036
    13  H    0.000056  -0.000002  -0.000001   0.000000  -0.000107  -0.000021
    14  C    0.001631   0.000239  -0.000198  -0.000001   0.002986   0.000145
    15  H   -0.000048   0.000002   0.000001   0.000000  -0.000010   0.000004
    16  C   -0.010320  -0.002065   0.001239   0.000010  -0.001636  -0.000157
    17  H   -0.004566   0.002117   0.000294  -0.000001   0.000477  -0.000001
    18  H    0.000384  -0.000015  -0.000041  -0.000001   0.000006  -0.000000
    19  C    5.215075   0.435509   0.280540  -0.039623  -0.064938   0.010065
    20  H    0.435509   0.484294  -0.035911  -0.003762   0.003542  -0.000030
    21  C    0.280540  -0.035911   5.023563   0.427698   0.035222  -0.004687
    22  H   -0.039623  -0.003762   0.427698   0.497080  -0.000077   0.000034
    23  C   -0.064938   0.003542   0.035222  -0.000077   4.972027   0.463905
    24  H    0.010065  -0.000030  -0.004687   0.000034   0.463905   0.531075
    25  H   -0.007324  -0.000167   0.000877  -0.000094   0.395038  -0.021573
    26  C   -0.004485  -0.001337  -0.051528   0.005194   0.347902  -0.054949
    27  H   -0.003142   0.000040   0.005245  -0.000132  -0.042335  -0.000846
    28  H    0.010910   0.000012  -0.014674  -0.000449  -0.028980  -0.007514
              25         26         27         28
     1  C    0.005847   0.276025  -0.033607  -0.031337
     2  C   -0.046647  -0.065040   0.012281  -0.003479
     3  H   -0.000011  -0.032125  -0.004277   0.001269
     4  H   -0.001666   0.005164  -0.000086  -0.000221
     5  C    0.000813  -0.010323   0.000384  -0.004568
     6  C    0.002840   0.017140   0.000148   0.001357
     7  H    0.000410  -0.002067  -0.000015   0.002117
     8  H   -0.000491   0.000276   0.000473  -0.004825
     9  C   -0.000115  -0.001636   0.000006   0.000478
    10  H    0.000015   0.000070  -0.000000   0.000009
    11  H   -0.000031  -0.000157  -0.000000  -0.000001
    12  C   -0.000135   0.001240  -0.000041   0.000294
    13  H   -0.000000   0.000010  -0.000001  -0.000001
    14  C   -0.000046  -0.000541   0.000003   0.000001
    15  H   -0.000001   0.000001   0.000000  -0.000000
    16  C    0.000070   0.000623  -0.000003   0.000006
    17  H    0.000009   0.000006   0.000001  -0.000013
    18  H   -0.000000  -0.000003  -0.000000   0.000001
    19  C   -0.007324  -0.004485  -0.003142   0.010910
    20  H   -0.000167  -0.001337   0.000040   0.000012
    21  C    0.000877  -0.051528   0.005245  -0.014674
    22  H   -0.000094   0.005194  -0.000132  -0.000449
    23  C    0.395038   0.347902  -0.042335  -0.028980
    24  H   -0.021573  -0.054949  -0.000846  -0.007514
    25  H    0.579546  -0.024659  -0.010376   0.007060
    26  C   -0.024659   4.953994   0.427090   0.394405
    27  H   -0.010376   0.427090   0.545028  -0.022918
    28  H    0.007060   0.394405  -0.022918   0.585158
          Atomic-Atomic Spin Densities.
               1          2          3          4          5          6
     1  C    0.000000   0.000000   0.000000  -0.000000  -0.000000  -0.000000
     2  C    0.000000   0.000000   0.000000  -0.000000  -0.000000  -0.000000
     3  H    0.000000   0.000000  -0.000000   0.000000   0.000000   0.000000
     4  H   -0.000000  -0.000000   0.000000   0.000000   0.000000   0.000000
     5  C   -0.000000  -0.000000   0.000000   0.000000   0.000001  -0.000000
     6  C   -0.000000  -0.000000   0.000000   0.000000  -0.000000  -0.000000
     7  H    0.000000  -0.000000  -0.000000  -0.000000   0.000000  -0.000000
     8  H    0.000000  -0.000000   0.000000   0.000000   0.000000   0.000000
     9  C    0.000000  -0.000000  -0.000000  -0.000000   0.000000  -0.000000
    10  H   -0.000000   0.000000  -0.000000  -0.000000  -0.000000  -0.000000
    11  H   -0.000000  -0.000000   0.000000   0.000000   0.000000   0.000000
    12  C    0.000000   0.000000  -0.000000   0.000000  -0.000000  -0.000000
    13  H    0.000000   0.000000  -0.000000  -0.000000   0.000000  -0.000000
    14  C   -0.000000   0.000000   0.000000  -0.000000  -0.000000  -0.000000
    15  H   -0.000000  -0.000000  -0.000000  -0.000000   0.000000  -0.000000
    16  C    0.000000   0.000000  -0.000000  -0.000000  -0.000000   0.000000
    17  H   -0.000000  -0.000000   0.000000  -0.000000   0.000000  -0.000000
    18  H    0.000000   0.000000  -0.000000   0.000000  -0.000000   0.000000
    19  C    0.000000   0.000000  -0.000000  -0.000000  -0.000000   0.000000
    20  H   -0.000000   0.000000   0.000000  -0.000000   0.000000   0.000000
    21  C    0.000000  -0.000000  -0.000000   0.000000   0.000000  -0.000000
    22  H   -0.000000   0.000000  -0.000000   0.000000   0.000000  -0.000000
    23  C   -0.000000   0.000000  -0.000000  -0.000000   0.000000   0.000000
    24  H   -0.000000  -0.000000   0.000000   0.000000  -0.000000   0.000000
    25  H    0.000000   0.000000  -0.000000  -0.000000  -0.000000  -0.000000
    26  C   -0.000000  -0.000000   0.000000   0.000000  -0.000000  -0.000000
    27  H   -0.000000  -0.000000   0.000000   0.000000  -0.000000  -0.000000
    28  H    0.000000   0.000000  -0.000000  -0.000000   0.000000   0.000000
               7          8          9         10         11         12
     1  C    0.000000   0.000000   0.000000  -0.000000  -0.000000   0.000000
     2  C   -0.000000  -0.000000  -0.000000   0.000000  -0.000000   0.000000
     3  H   -0.000000   0.000000  -0.000000  -0.000000   0.000000  -0.000000
     4  H   -0.000000   0.000000  -0.000000  -0.000000   0.000000   0.000000
     5  C    0.000000   0.000000   0.000000  -0.000000   0.000000  -0.000000
     6  C   -0.000000   0.000000  -0.000000  -0.000000   0.000000  -0.000000
     7  H    0.000000   0.000000  -0.000000   0.000000  -0.000000  -0.000000
     8  H    0.000000  -0.000000   0.000000   0.000000  -0.000000  -0.000000
     9  C   -0.000000   0.000000  -0.000000   0.000000  -0.000000  -0.000000
    10  H    0.000000   0.000000   0.000000  -0.000000   0.000000   0.000000
    11  H   -0.000000  -0.000000  -0.000000   0.000000  -0.000000  -0.000000
    12  C   -0.000000  -0.000000  -0.000000   0.000000  -0.000000   0.000001
    13  H    0.000000  -0.000000   0.000000   0.000000  -0.000000  -0.000000
    14  C    0.000000   0.000000   0.000000  -0.000000   0.000000  -0.000000
    15  H   -0.000000  -0.000000   0.000000   0.000000  -0.000000   0.000000
    16  C   -0.000000  -0.000000   0.000000   0.000000  -0.000000   0.000000
    17  H    0.000000   0.000000   0.000000  -0.000000  -0.000000  -0.000000
    18  H    0.000000  -0.000000  -0.000000  -0.000000   0.000000  -0.000000
    19  C   -0.000000  -0.000000  -0.000000   0.000000   0.000000  -0.000000
    20  H    0.000000   0.000000  -0.000000  -0.000000  -0.000000  -0.000000
    21  C    0.000000  -0.000000   0.000000   0.000000  -0.000000  -0.000000
    22  H    0.000000   0.000000   0.000000  -0.000000   0.000000  -0.000000
    23  C    0.000000   0.000000  -0.000000   0.000000  -0.000000  -0.000000
    24  H    0.000000  -0.000000   0.000000  -0.000000   0.000000   0.000000
    25  H    0.000000   0.000000  -0.000000   0.000000   0.000000  -0.000000
    26  C   -0.000000   0.000000   0.000000  -0.000000   0.000000   0.000000
    27  H    0.000000  -0.000000   0.000000  -0.000000  -0.000000   0.000000
    28  H   -0.000000   0.000000  -0.000000   0.000000  -0.000000  -0.000000
              13         14         15         16         17         18
     1  C    0.000000  -0.000000  -0.000000   0.000000  -0.000000   0.000000
     2  C    0.000000   0.000000  -0.000000   0.000000  -0.000000   0.000000
     3  H   -0.000000   0.000000  -0.000000  -0.000000   0.000000  -0.000000
     4  H   -0.000000  -0.000000  -0.000000  -0.000000  -0.000000   0.000000
     5  C    0.000000  -0.000000   0.000000  -0.000000   0.000000  -0.000000
     6  C   -0.000000  -0.000000  -0.000000   0.000000  -0.000000   0.000000
     7  H    0.000000   0.000000  -0.000000  -0.000000   0.000000   0.000000
     8  H   -0.000000   0.000000  -0.000000  -0.000000   0.000000  -0.000000
     9  C    0.000000   0.000000   0.000000   0.000000   0.000000  -0.000000
    10  H    0.000000  -0.000000   0.000000   0.000000  -0.000000  -0.000000
    11  H   -0.000000   0.000000  -0.000000  -0.000000  -0.000000   0.000000
    12  C   -0.000000  -0.000000   0.000000   0.000000  -0.000000  -0.000000
    13  H   -0.000000   0.000000   0.000000  -0.000000   0.000000   0.000000
    14  C    0.000000  -0.000000  -0.000000   0.000000  -0.000000   0.000000
    15  H    0.000000  -0.000000   0.000000  -0.000000   0.000000  -0.000000
[...]
     2  C    0.000000  -0.000000  -0.000000   0.000000
     3  H   -0.000000   0.000000   0.000000  -0.000000
     4  H   -0.000000   0.000000   0.000000  -0.000000
     5  C   -0.000000  -0.000000  -0.000000   0.000000
     6  C   -0.000000  -0.000000  -0.000000   0.000000
     7  H    0.000000  -0.000000   0.000000  -0.000000
     8  H    0.000000   0.000000  -0.000000   0.000000
     9  C   -0.000000   0.000000   0.000000  -0.000000
    10  H    0.000000  -0.000000  -0.000000   0.000000
    11  H    0.000000   0.000000  -0.000000  -0.000000
    12  C   -0.000000   0.000000   0.000000  -0.000000
    13  H    0.000000   0.000000   0.000000  -0.000000
    14  C    0.000000  -0.000000  -0.000000   0.000000
    15  H    0.000000   0.000000   0.000000  -0.000000
    16  C    0.000000  -0.000000  -0.000000   0.000000
    17  H   -0.000000  -0.000000   0.000000  -0.000000
    18  H    0.000000   0.000000   0.000000  -0.000000
    19  C    0.000000   0.000000   0.000000  -0.000000
    20  H   -0.000000   0.000000  -0.000000  -0.000000
    21  C   -0.000000  -0.000000   0.000000   0.000000
    22  H   -0.000000   0.000000  -0.000000  -0.000000
    23  C   -0.000000  -0.000000   0.000000  -0.000000
    24  H   -0.000000   0.000000  -0.000000   0.000000
    25  H    0.000000  -0.000000   0.000000   0.000000
    26  C   -0.000000   0.000000  -0.000000   0.000000
    27  H    0.000000  -0.000000   0.000000   0.000000
    28  H    0.000000   0.000000   0.000000  -0.000000
 Mulliken charges and spin densities:
               1          2
     1  C   -0.209258   0.000000
     2  C   -0.202124   0.000000
     3  H    0.141697  -0.000000
     4  H    0.174408   0.000000
     5  C   -0.144063   0.000001
     6  C   -0.202234  -0.000000
     7  H    0.152318   0.000000
     8  H    0.174390  -0.000000
     9  C   -0.208304  -0.000000
    10  H    0.120823   0.000000
    11  H    0.144057  -0.000000
    12  C   -0.176563   0.000001
    13  H    0.144533  -0.000000
    14  C   -0.209386  -0.000000
    15  H    0.141698   0.000000
    16  C   -0.180230  -0.000000
    17  H    0.115889   0.000000
    18  H    0.127069  -0.000000
    19  C   -0.144167  -0.000001
    20  H    0.152335  -0.000000
    21  C   -0.176728  -0.000000
    22  H    0.144565   0.000000
    23  C   -0.208298   0.000000
    24  H    0.144066   0.000000
    25  H    0.120814  -0.000000
    26  C   -0.180290   0.000000
    27  H    0.127081   0.000000
    28  H    0.115902  -0.000000
 Sum of Mulliken charges =  -0.00000  -0.00000
 Mulliken charges and spin densities with hydrogens summed into heavy atoms:
               1          2
     1  C   -0.067561   0.000000
     2  C   -0.027716   0.000001
     5  C    0.008255   0.000001
     6  C   -0.027844  -0.000001
     9  C    0.056576  -0.000000
    12  C   -0.032030   0.000000
    14  C   -0.067689  -0.000000
    16  C    0.062728  -0.000000
    19  C    0.008168  -0.000001
    21  C   -0.032163  -0.000000
    23  C    0.056582   0.000000
    26  C    0.062694   0.000000
 Electronic spatial extent (au):  <R**2>=           2209.7627
 Charge=             -0.0000 electrons
 Dipole moment (field-independent basis, Debye):
    X=              0.0002    Y=             -0.0008    Z=             -0.0003  Tot=              0.0008
 Quadrupole moment (field-independent basis, Debye-Ang):
   XX=            -72.3682   YY=            -69.9857   ZZ=            -77.1211
   XY=             -3.3013   XZ=             -3.2317   YZ=             -1.3954
 Traceless Quadrupole moment (field-independent basis, Debye-Ang):
   XX=              0.7901   YY=              3.1727   ZZ=             -3.9628
   XY=             -3.3013   XZ=             -3.2317   YZ=             -1.3954
 Octapole moment (field-independent basis, Debye-Ang**2):
  XXX=              0.0067  YYY=             -0.0054  ZZZ=              0.0004  XYY=             -0.0029
  XXY=             -0.0045  XXZ=             -0.0028  XZZ=              0.0008  YZZ=             -0.0008
  YYZ=             -0.0012  XYZ=             -0.0018
 Hexadecapole moment (field-independent basis, Debye-Ang**3):
 XXXX=          -2043.1479 YYYY=           -625.7368 ZZZZ=           -337.0095 XXXY=           -101.9284
 XXXZ=           -120.6348 YYYX=            -58.1369 YYYZ=             -2.2316 ZZZX=            -70.3509
 ZZZY=            -11.8149 XXYY=           -442.8208 XXZZ=           -420.8931 YYZZ=           -175.6907
 XXYZ=            -20.5438 YYXZ=            -25.9883 ZZXY=            -42.3224
 N-N= 6.891493307528D+02 E-N=-2.460102541539D+03  KE= 4.642991980129D+02
                          Isotropic Fermi Contact Couplings
        Atom                 a.u.       MegaHertz       Gauss      10(-4) cm-1
     1  C(13)              0.00000       0.00003       0.00001       0.00001
     2  C(13)             -0.00000      -0.00008      -0.00003      -0.00003
     3  H(1)              -0.00000      -0.00002      -0.00001      -0.00001
     4  H(1)               0.00000       0.00015       0.00005       0.00005
     5  C(13)             -0.00000      -0.00003      -0.00001      -0.00001
     6  C(13)              0.00000       0.00009       0.00003       0.00003
     7  H(1)               0.00000       0.00005       0.00002       0.00002
     8  H(1)              -0.00000      -0.00015      -0.00005      -0.00005
     9  C(13)             -0.00000      -0.00004      -0.00001      -0.00001
    10  H(1)               0.00000       0.00002       0.00001       0.00001
    11  H(1)              -0.00000      -0.00003      -0.00001      -0.00001
    12  C(13)              0.00000       0.00009       0.00003       0.00003
    13  H(1)              -0.00000      -0.00014      -0.00005      -0.00005
    14  C(13)             -0.00000      -0.00003      -0.00001      -0.00001
    15  H(1)               0.00000       0.00002       0.00001       0.00001
    16  C(13)             -0.00000      -0.00005      -0.00002      -0.00002
    17  H(1)               0.00000       0.00002       0.00001       0.00001
    18  H(1)              -0.00000      -0.00003      -0.00001      -0.00001
    19  C(13)              0.00000       0.00003       0.00001       0.00001
    20  H(1)              -0.00000      -0.00005      -0.00002      -0.00002
    21  C(13)             -0.00000      -0.00009      -0.00003      -0.00003
    22  H(1)               0.00000       0.00014       0.00005       0.00005
    23  C(13)              0.00000       0.00004       0.00001       0.00001
    24  H(1)               0.00000       0.00003       0.00001       0.00001
    25  H(1)              -0.00000      -0.00002      -0.00001      -0.00001
    26  C(13)              0.00000       0.00005       0.00002       0.00002
    27  H(1)               0.00000       0.00002       0.00001       0.00001
    28  H(1)              -0.00000      -0.00002      -0.00001      -0.00001
 --------------------------------------------------------
       Center         ----  Spin Dipole Couplings  ----
                      3XX-RR        3YY-RR        3ZZ-RR
 --------------------------------------------------------
     1   Atom       -0.000000     -0.000000      0.000000
     2   Atom       -0.000000     -0.000000      0.000001
     3   Atom       -0.000000     -0.000000      0.000000
     4   Atom       -0.000000     -0.000000      0.000000
     5   Atom       -0.000000     -0.000001      0.000001
     6   Atom        0.000000      0.000000     -0.000001
     7   Atom        0.000000     -0.000000      0.000000
     8   Atom        0.000000      0.000000     -0.000000
     9   Atom       -0.000000     -0.000000      0.000000
    10   Atom       -0.000000      0.000000     -0.000000
    11   Atom       -0.000000      0.000000      0.000000
    12   Atom       -0.000000      0.000000     -0.000000
    13   Atom       -0.000000      0.000000     -0.000000
    14   Atom        0.000000      0.000000     -0.000000
    15   Atom        0.000000      0.000000     -0.000000
    16   Atom       -0.000000      0.000000     -0.000000
    17   Atom        0.000000      0.000000     -0.000000
    18   Atom       -0.000000      0.000000      0.000000
    19   Atom        0.000000      0.000001     -0.000001
    20   Atom       -0.000000      0.000000     -0.000000
    21   Atom        0.000000     -0.000000      0.000000
    22   Atom        0.000000     -0.000000      0.000000
    23   Atom        0.000000      0.000000     -0.000000
    24   Atom        0.000000     -0.000000     -0.000000
    25   Atom        0.000000     -0.000000      0.000000
    26   Atom        0.000000     -0.000000      0.000000
    27   Atom        0.000000     -0.000000     -0.000000
    28   Atom       -0.000000     -0.000000      0.000000
 --------------------------------------------------------
                        XY            XZ            YZ
 --------------------------------------------------------
     1   Atom       -0.000000      0.000000     -0.000000
     2   Atom        0.000000      0.000001      0.000000
     3   Atom        0.000000     -0.000000     -0.000000
     4   Atom       -0.000000     -0.000000      0.000000
     5   Atom        0.000000      0.000001      0.000000
     6   Atom       -0.000000     -0.000001     -0.000000
     7   Atom       -0.000000      0.000000      0.000000
     8   Atom        0.000000      0.000000     -0.000000
     9   Atom        0.000000     -0.000000      0.000000
    10   Atom        0.000000     -0.000000     -0.000000
    11   Atom        0.000000     -0.000000      0.000000
    12   Atom        0.000000      0.000000     -0.000000
    13   Atom        0.000000     -0.000000     -0.000000
    14   Atom        0.000000     -0.000000      0.000000
    15   Atom       -0.000000      0.000000      0.000000
    16   Atom       -0.000000     -0.000000     -0.000000
    17   Atom       -0.000000     -0.000000     -0.000000
    18   Atom        0.000000     -0.000000      0.000000
    19   Atom       -0.000000     -0.000001     -0.000000
    20   Atom        0.000000     -0.000000     -0.000000
    21   Atom       -0.000000     -0.000000      0.000000
    22   Atom       -0.000000      0.000000      0.000000
    23   Atom       -0.000000      0.000000     -0.000000
    24   Atom       -0.000000      0.000000     -0.000000
    25   Atom       -0.000000      0.000000      0.000000
    26   Atom        0.000000      0.000000      0.000000
    27   Atom       -0.000000      0.000000     -0.000000
    28   Atom        0.000000      0.000000      0.000000
 --------------------------------------------------------


 ---------------------------------------------------------------------------------
              Anisotropic Spin Dipole Couplings in Principal Axis System
 ---------------------------------------------------------------------------------

       Atom             a.u.   MegaHertz   Gauss  10(-4) cm-1        Axes

              Baa    -0.0000    -0.000    -0.000    -0.000 -0.1548  0.9400  0.3039
     1 C(13)  Bbb    -0.0000    -0.000    -0.000    -0.000  0.9261  0.2452 -0.2867
              Bcc     0.0000     0.000     0.000     0.000  0.3441 -0.2370  0.9085
 
              Baa    -0.0000    -0.000    -0.000    -0.000  0.8696 -0.1643 -0.4656
     2 C(13)  Bbb    -0.0000    -0.000    -0.000    -0.000  0.0467  0.9661 -0.2537
              Bcc     0.0000     0.000     0.000     0.000  0.4915  0.1989  0.8479
 
              Baa    -0.0000    -0.000    -0.000    -0.000  0.8860 -0.4620  0.0394
     3 H(1)   Bbb    -0.0000    -0.000    -0.000    -0.000  0.4154  0.8286  0.3753
              Bcc     0.0000     0.000     0.000     0.000 -0.2060 -0.3162  0.9261
 
              Baa    -0.0000    -0.000    -0.000    -0.000  0.9536  0.2979 -0.0430
     4 H(1)   Bbb    -0.0000    -0.000    -0.000    -0.000 -0.2958  0.9013 -0.3164
              Bcc     0.0000     0.000     0.000     0.000 -0.0554  0.3144  0.9477
 
              Baa    -0.0000    -0.000    -0.000    -0.000 -0.6070  0.7920  0.0649
     5 C(13)  Bbb    -0.0000    -0.000    -0.000    -0.000  0.7088  0.5765 -0.4065
              Bcc     0.0000     0.000     0.000     0.000  0.3594  0.2008  0.9113
 
              Baa    -0.0000    -0.000    -0.000    -0.000  0.4955  0.2007  0.8451
     6 C(13)  Bbb     0.0000     0.000     0.000     0.000  0.0453  0.9656 -0.2559
              Bcc     0.0000     0.000     0.000     0.000  0.8674 -0.1651 -0.4694
 
              Baa    -0.0000    -0.000    -0.000    -0.000  0.6469  0.6630 -0.3767
     7 H(1)   Bbb     0.0000     0.000     0.000     0.000 -0.0764  0.5478  0.8331
              Bcc     0.0000     0.000     0.000     0.000  0.7587 -0.5102  0.4051
 
              Baa    -0.0000    -0.000    -0.000    -0.000 -0.0472  0.3259  0.9442
     8 H(1)   Bbb     0.0000     0.000     0.000     0.000 -0.2889  0.9004 -0.3252
              Bcc     0.0000     0.000     0.000     0.000  0.9562  0.2881 -0.0516
 
              Baa    -0.0000    -0.000    -0.000    -0.000  0.7082 -0.6709  0.2198
     9 C(13)  Bbb     0.0000     0.000     0.000     0.000  0.0963  0.4002  0.9114
              Bcc     0.0000     0.000     0.000     0.000  0.6994  0.6242 -0.3480
 
              Baa    -0.0000    -0.000    -0.000    -0.000  0.6190 -0.0085  0.7853
    10 H(1)   Bbb     0.0000     0.000     0.000     0.000  0.6784 -0.4979 -0.5402
              Bcc     0.0000     0.000     0.000     0.000  0.3956  0.8672 -0.3025
 
              Baa    -0.0000    -0.000    -0.000    -0.000  0.9326 -0.0946  0.3483
    11 H(1)   Bbb     0.0000     0.000     0.000     0.000  0.0842  0.9954  0.0448
              Bcc     0.0000     0.000     0.000     0.000 -0.3510 -0.0124  0.9363
 
              Baa    -0.0000    -0.000    -0.000    -0.000  0.6574 -0.4721 -0.5873
    12 C(13)  Bbb     0.0000     0.000     0.000     0.000  0.7192  0.1604  0.6760
              Bcc     0.0000     0.000     0.000     0.000  0.2250  0.8668 -0.4450
 
              Baa    -0.0000    -0.000    -0.000    -0.000  0.7522 -0.5065 -0.4214
    13 H(1)   Bbb    -0.0000    -0.000    -0.000    -0.000  0.4470 -0.0776  0.8912
              Bcc     0.0000     0.000     0.000     0.000  0.4841  0.8587 -0.1681
 
              Baa    -0.0000    -0.000    -0.000    -0.000  0.3740 -0.1891  0.9079
    14 C(13)  Bbb     0.0000     0.000     0.000     0.000  0.9025  0.2996 -0.3094
              Bcc     0.0000     0.000     0.000     0.000 -0.2136  0.9351  0.2827
 
              Baa    -0.0000    -0.000    -0.000    -0.000 -0.2874 -0.2905  0.9127
    15 H(1)   Bbb     0.0000     0.000     0.000     0.000  0.7303  0.5501  0.4051
              Bcc     0.0000     0.000     0.000     0.000 -0.6198  0.7829  0.0541
 
              Baa    -0.0000    -0.000    -0.000    -0.000  0.5435  0.5528  0.6316
    16 C(13)  Bbb     0.0000     0.000     0.000     0.000  0.8209 -0.5071 -0.2626
              Bcc     0.0000     0.000     0.000     0.000 -0.1751 -0.6612  0.7295
 
              Baa    -0.0000    -0.000    -0.000    -0.000  0.1575  0.2333  0.9596
    17 H(1)   Bbb     0.0000     0.000     0.000     0.000  0.9148  0.3316 -0.2308
              Bcc     0.0000     0.000     0.000     0.000 -0.3720  0.9141 -0.1612
 
              Baa    -0.0000    -0.000    -0.000    -0.000  0.8753 -0.4059  0.2627
    18 H(1)   Bbb     0.0000     0.000     0.000     0.000 -0.4696 -0.5840  0.6621
              Bcc     0.0000     0.000     0.000     0.000  0.1153  0.7030  0.7018
 
              Baa    -0.0000    -0.000    -0.000    -0.000  0.3597  0.1970  0.9120
    19 C(13)  Bbb     0.0000     0.000     0.000     0.000  0.7167  0.5676 -0.4052
              Bcc     0.0000     0.000     0.000     0.000 -0.5975  0.7994  0.0629
 
              Baa    -0.0000    -0.000    -0.000    -0.000  0.7584 -0.5197  0.3934
    20 H(1)   Bbb    -0.0000    -0.000    -0.000    -0.000 -0.0661  0.5391  0.8397
              Bcc     0.0000     0.000     0.000     0.000  0.6485  0.6628 -0.3744
 
              Baa    -0.0000    -0.000    -0.000    -0.000  0.3187  0.8885 -0.3301
    21 C(13)  Bbb    -0.0000    -0.000    -0.000    -0.000  0.7434 -0.0182  0.6686
              Bcc     0.0000     0.000     0.000     0.000 -0.5880  0.4585  0.6663
 
              Baa    -0.0000    -0.000    -0.000    -0.000  0.4849  0.8582 -0.1681
    22 H(1)   Bbb     0.0000     0.000     0.000     0.000  0.4998 -0.1142  0.8586
              Bcc     0.0000     0.000     0.000     0.000  0.7176 -0.5004 -0.4843
 
              Baa    -0.0000    -0.000    -0.000    -0.000  0.7005  0.6246 -0.3451
    23 C(13)  Bbb    -0.0000    -0.000    -0.000    -0.000  0.0907  0.4018  0.9112
              Bcc     0.0000     0.000     0.000     0.000  0.7078 -0.6696  0.2249
 
              Baa    -0.0000    -0.000    -0.000    -0.000 -0.3593 -0.0238  0.9329
    24 H(1)   Bbb    -0.0000    -0.000    -0.000    -0.000  0.1124  0.9913  0.0686
              Bcc     0.0000     0.000     0.000     0.000  0.9264 -0.1295  0.3535
 
              Baa    -0.0000    -0.000    -0.000    -0.000  0.4174  0.8523 -0.3153
    25 H(1)   Bbb    -0.0000    -0.000    -0.000    -0.000  0.6541 -0.5227 -0.5468
              Bcc     0.0000     0.000     0.000     0.000  0.6309 -0.0220  0.7756
 
              Baa    -0.0000    -0.000    -0.000    -0.000 -0.1566 -0.6692  0.7264
    26 C(13)  Bbb    -0.0000    -0.000    -0.000    -0.000  0.8269 -0.4910 -0.2740
              Bcc     0.0000     0.000     0.000     0.000  0.5400  0.5578  0.6303
 
              Baa    -0.0000    -0.000    -0.000    -0.000  0.1477  0.7529  0.6413
    27 H(1)   Bbb    -0.0000    -0.000    -0.000    -0.000 -0.4421 -0.5298  0.7238
              Bcc     0.0000     0.000     0.000     0.000  0.8847 -0.3904  0.2546
 
              Baa    -0.0000    -0.000    -0.000    -0.000 -0.3348  0.9272 -0.1682
    28 H(1)   Bbb    -0.0000    -0.000    -0.000    -0.000  0.9301  0.2964 -0.2171
              Bcc     0.0000     0.000     0.000     0.000  0.1514  0.2291  0.9615
 

 ---------------------------------------------------------------------------------

 No NMR shielding tensors so no spin-rotation constants.
 Leave Link  601 at Mon Aug  3 15:48:50 2020, MaxMem=  6442450944 cpu:               7.9 elap:               0.4
 (Enter /scratch/scicomp/CentOS/7.3.1611/Haswell/software/Gaussian/g16/l9999.exe)
 1\1\GINC-ATLAS-205\SP\UwB97XD\def2TZVP\C12H16\BOCHEN\03-Aug-2020\0\\#p
  uwb97xd guess=mix def2tzvp # scrf=(iefpcm,solvent=Cyclohexane,read) n
 osym 6d 10f\\endo-2 xp-pcm for eta=3\\0,1\C,0,-3.120053,-0.437296,0.24
 7601\C,0,-0.582765,-0.208122,-0.986031\H,0,-4.084035,-0.549421,0.73016
 1\H,0,0.37636,-0.119236,-1.476138\C,0,1.092928,1.407235,0.695695\C,0,0
 .582765,0.208122,0.986031\H,0,0.514464,2.309116,0.849982\H,0,-0.37636,
 0.119237,1.476138\C,0,1.473441,-0.999882,0.998114\H,0,1.930236,-1.0078
 1,1.995578\H,0,0.900886,-1.922279,0.917856\C,0,2.421602,1.516304,0.111
 065\H,0,2.830156,2.505119,-0.060741\C,0,3.120053,0.437296,-0.247601\H,
 0,4.084035,0.549421,-0.730161\C,0,2.591259,-0.95682,-0.045733\H,0,2.24
 8403,-1.352514,-1.009798\H,0,3.400569,-1.620098,0.266906\C,0,-1.092928
 ,-1.407235,-0.695695\H,0,-0.514464,-2.309116,-0.849982\C,0,-2.421602,-
 1.516304,-0.111065\H,0,-2.830156,-2.50512,0.060741\C,0,-1.473441,0.999
 882,-0.998114\H,0,-0.900886,1.922279,-0.917856\H,0,-1.930236,1.00781,-
 1.995578\C,0,-2.591259,0.95682,0.045733\H,0,-3.400569,1.620098,-0.2669
 06\H,0,-2.248403,1.352515,1.009798\\Version=ES64L-G16RevB.01\HF=-466.8
 35664\S2=0.\S2-1=0.\S2A=0.\RMSD=4.440e-09\Dipole=0.0000599,-0.0003123,
 -0.0001003\Quadrupole=0.5874291,2.3588043,-2.9462334,-2.4544121,-2.402
 6883,-1.0374814\PG=CI [X(C12H16)]\\@


 We make a living by what we get,
 we make a life by what we give.
                   -- Sir Winston Churchill
 Job cpu time:       0 days  2 hours 17 minutes 49.5 seconds.
 Elapsed time:       0 days  0 hours  5 minutes 48.0 seconds.
 File lengths (MBytes):  RWF=    635 Int=      0 D2E=      0 Chk=     23 Scr=      1
 Normal termination of Gaussian 16 at Mon Aug  3 15:48:50 2020.
