 Entering Gaussian System, Link 0=g16
 Input=meso-TS_79_2_xp-Ger.com
 Output=meso-TS_79_2_xp-Ger.log
 Initial command:
 /scratch/scicomp/CentOS/7.3.1611/Haswell/software/Gaussian/g16/l1.exe "/scratch/bochen/cyclohexadiene-dimerization/wb97xd-def2tzvp/xp-pcm/meso/Gau-166102.inp" -scrdir="/scratch/bochen/cyclohexadiene-dimerization/wb97xd-def2tzvp/xp-pcm/meso/"
 Entering Link 1 = /scratch/scicomp/CentOS/7.3.1611/Haswell/software/Gaussian/g16/l1.exe PID=    166105.
  
 Copyright (c) 1988-2017, Gaussian, Inc.  All Rights Reserved.
  
 This is part of the Gaussian(R) 16 program.  It is based on
 the Gaussian(R) 09 system (copyright 2009, Gaussian, Inc.),
 the Gaussian(R) 03 system (copyright 2003, Gaussian, Inc.),
 the Gaussian(R) 98 system (copyright 1998, Gaussian, Inc.),
 the Gaussian(R) 94 system (copyright 1995, Gaussian, Inc.),
 the Gaussian 92(TM) system (copyright 1992, Gaussian, Inc.),
 the Gaussian 90(TM) system (copyright 1990, Gaussian, Inc.),
 the Gaussian 88(TM) system (copyright 1988, Gaussian, Inc.),
 the Gaussian 86(TM) system (copyright 1986, Carnegie Mellon
 University), and the Gaussian 82(TM) system (copyright 1983,
 Carnegie Mellon University). Gaussian is a federally registered
 trademark of Gaussian, Inc.
  
 This software contains proprietary and confidential information,
 including trade secrets, belonging to Gaussian, Inc.
  
 This software is provided under written license and may be
 used, copied, transmitted, or stored only in accord with that
 written license.
  
 The following legend is applicable only to US Government
 contracts under FAR:
  
                    RESTRICTED RIGHTS LEGEND
  
 Use, reproduction and disclosure by the US Government is
 subject to restrictions as set forth in subparagraphs (a)
 and (c) of the Commercial Computer Software - Restricted
 Rights clause in FAR 52.227-19.
  
 Gaussian, Inc.
 340 Quinnipiac St., Bldg. 40, Wallingford CT 06492
  
  
 ---------------------------------------------------------------
 Warning -- This program may not be used in any manner that
 competes with the business of Gaussian, Inc. or will provide
 assistance to any competitor of Gaussian, Inc.  The licensee
 of this program is prohibited from giving any competitor of
 Gaussian, Inc. access to this program.  By using this program,
 the user acknowledges that Gaussian, Inc. is engaged in the
 business of creating and licensing software in the field of
 computational chemistry and represents and warrants to the
 licensee that it is not a competitor of Gaussian, Inc. and that
 it will not use this program in any manner prohibited above.
 ---------------------------------------------------------------
  

 Cite this work as:
 Gaussian 16, Revision B.01,
 M. J. Frisch, G. W. Trucks, H. B. Schlegel, G. E. Scuseria, 
 M. A. Robb, J. R. Cheeseman, G. Scalmani, V. Barone, 
 G. A. Petersson, H. Nakatsuji, X. Li, M. Caricato, A. V. Marenich, 
 J. Bloino, B. G. Janesko, R. Gomperts, B. Mennucci, H. P. Hratchian, 
 J. V. Ortiz, A. F. Izmaylov, J. L. Sonnenberg, D. Williams-Young, 
 F. Ding, F. Lipparini, F. Egidi, J. Goings, B. Peng, A. Petrone, 
 T. Henderson, D. Ranasinghe, V. G. Zakrzewski, J. Gao, N. Rega, 
 G. Zheng, W. Liang, M. Hada, M. Ehara, K. Toyota, R. Fukuda, 
 J. Hasegawa, M. Ishida, T. Nakajima, Y. Honda, O. Kitao, H. Nakai, 
 T. Vreven, K. Throssell, J. A. Montgomery, Jr., J. E. Peralta, 
 F. Ogliaro, M. J. Bearpark, J. J. Heyd, E. N. Brothers, K. N. Kudin, 
 V. N. Staroverov, T. A. Keith, R. Kobayashi, J. Normand, 
 K. Raghavachari, A. P. Rendell, J. C. Burant, S. S. Iyengar, 
 J. Tomasi, M. Cossi, J. M. Millam, M. Klene, C. Adamo, R. Cammi, 
 J. W. Ochterski, R. L. Martin, K. Morokuma, O. Farkas, 
 J. B. Foresman, and D. J. Fox, Gaussian, Inc., Wallingford CT, 2016.
 
 ******************************************
 Gaussian 16:  ES64L-G16RevB.01 20-Dec-2017
                 3-Aug-2020 
 ******************************************
 %chk=meso-TS_79_2_xp-12.chk
 %nproc=24
 Will use up to   24 processors via shared memory.
 %mem=48GB
 ----------------------------------------------------------------------
 #p uwb97xd guess=mix def2tzvp # scrf=(iefpcm,solvent=Cyclohexane,read)
  nosym 6d 10f
 ----------------------------------------------------------------------
 1/38=1,40=2,172=1/1;
 2/12=2,15=1,17=6,18=5,40=1/2;
 3/5=44,7=101,8=22,11=2,25=1,30=1,70=2203,72=17,74=-58,116=2/1,2,3;
 4/13=-1/1;
 5/5=2,38=5,53=17/2;
 6/7=2,8=2,9=2,10=2,28=1/1;
 99/5=1,9=1/99;
 Leave Link    1 at Mon Aug  3 20:21:06 2020, MaxMem=  6442450944 cpu:               3.7 elap:               0.2
 (Enter /scratch/scicomp/CentOS/7.3.1611/Haswell/software/Gaussian/g16/l101.exe)
 -----------------------
 endo-2 xp-pcm for eta=3
 -----------------------
 Symbolic Z-matrix:
 Charge =  0 Multiplicity = 1
 6                    -3.11503  -0.43856   0.28545 
 6                    -0.82883  -0.27675  -1.3806 
 1                    -4.02662  -0.51469   0.86675 
 1                     0.08895  -0.20593  -1.95195 
 6                     1.23629   1.4433    0.88738 
 6                     0.82883   0.27675   1.3806 
 1                     0.65234   2.3428    1.04303 
 1                    -0.08895   0.20593   1.95195 
 6                     1.6547   -0.967     1.21694 
 1                     2.27971  -1.0777    2.11289 
 1                     1.00719  -1.84479   1.18574 
 6                     2.48793   1.53631   0.13365 
 1                     2.88985   2.51741  -0.08943 
 6                     3.11503   0.43856  -0.28545 
 1                     4.02662   0.51469  -0.86675 
 6                     2.54072  -0.9282   -0.03041 
 1                     1.95523  -1.22372  -0.90966 
 1                     3.3399   -1.66615   0.05955 
 6                    -1.23629  -1.4433   -0.88738 
 1                    -0.65234  -2.3428   -1.04303 
 6                    -2.48793  -1.53631  -0.13365 
 1                    -2.88985  -2.51741   0.08943 
 6                    -1.6547    0.967    -1.21694 
 1                    -1.00719   1.84479  -1.18574 
 1                    -2.27971   1.0777   -2.11289 
 6                    -2.54072   0.9282    0.03041 
 1                    -3.3399    1.66615  -0.05955 
 1                    -1.95523   1.22372   0.90966 
 
 ITRead=  0  0  0  0  0  0  0  0  0  0  0  0  0  0  0  0  0  0  0  0
 ITRead=  0  0  0  0  0  0  0  0
 MicOpt= -1 -1 -1 -1 -1 -1 -1 -1 -1 -1 -1 -1 -1 -1 -1 -1 -1 -1 -1 -1
 MicOpt= -1 -1 -1 -1 -1 -1 -1 -1
 NAtoms=     28 NQM=       28 NQMF=       0 NMMI=      0 NMMIF=      0
                NMic=       0 NMicF=      0.
                    Isotopes and Nuclear Properties:
 (Nuclear quadrupole moments (NQMom) in fm**2, nuclear magnetic moments (NMagM)
  in nuclear magnetons)

  Atom         1           2           3           4           5           6           7           8           9          10
 IAtWgt=          12          12           1           1          12          12           1           1          12           1
 AtmWgt=  12.0000000  12.0000000   1.0078250   1.0078250  12.0000000  12.0000000   1.0078250   1.0078250  12.0000000   1.0078250
 NucSpn=           0           0           1           1           0           0           1           1           0           1
 AtZEff=  -0.0000000  -0.0000000  -0.0000000  -0.0000000  -0.0000000  -0.0000000  -0.0000000  -0.0000000  -0.0000000  -0.0000000
 NQMom=    0.0000000   0.0000000   0.0000000   0.0000000   0.0000000   0.0000000   0.0000000   0.0000000   0.0000000   0.0000000
 NMagM=    0.0000000   0.0000000   2.7928460   2.7928460   0.0000000   0.0000000   2.7928460   2.7928460   0.0000000   2.7928460
 AtZNuc=   6.0000000   6.0000000   1.0000000   1.0000000   6.0000000   6.0000000   1.0000000   1.0000000   6.0000000   1.0000000

  Atom        11          12          13          14          15          16          17          18          19          20
 IAtWgt=           1          12           1          12           1          12           1           1          12           1
 AtmWgt=   1.0078250  12.0000000   1.0078250  12.0000000   1.0078250  12.0000000   1.0078250   1.0078250  12.0000000   1.0078250
 NucSpn=           1           0           1           0           1           0           1           1           0           1
 AtZEff=  -0.0000000  -0.0000000  -0.0000000  -0.0000000  -0.0000000  -0.0000000  -0.0000000  -0.0000000  -0.0000000  -0.0000000
 NQMom=    0.0000000   0.0000000   0.0000000   0.0000000   0.0000000   0.0000000   0.0000000   0.0000000   0.0000000   0.0000000
 NMagM=    2.7928460   0.0000000   2.7928460   0.0000000   2.7928460   0.0000000   2.7928460   2.7928460   0.0000000   2.7928460
 AtZNuc=   1.0000000   6.0000000   1.0000000   6.0000000   1.0000000   6.0000000   1.0000000   1.0000000   6.0000000   1.0000000

  Atom        21          22          23          24          25          26          27          28
 IAtWgt=          12           1          12           1           1          12           1           1
 AtmWgt=  12.0000000   1.0078250  12.0000000   1.0078250   1.0078250  12.0000000   1.0078250   1.0078250
 NucSpn=           0           1           0           1           1           0           1           1
 AtZEff=  -0.0000000  -0.0000000  -0.0000000  -0.0000000  -0.0000000  -0.0000000  -0.0000000  -0.0000000
 NQMom=    0.0000000   0.0000000   0.0000000   0.0000000   0.0000000   0.0000000   0.0000000   0.0000000
 NMagM=    0.0000000   2.7928460   0.0000000   2.7928460   2.7928460   0.0000000   2.7928460   2.7928460
 AtZNuc=   6.0000000   1.0000000   6.0000000   1.0000000   1.0000000   6.0000000   1.0000000   1.0000000
 Leave Link  101 at Mon Aug  3 20:21:07 2020, MaxMem=  6442450944 cpu:               2.4 elap:               0.1
 (Enter /scratch/scicomp/CentOS/7.3.1611/Haswell/software/Gaussian/g16/l202.exe)
                          Input orientation:                          
 ---------------------------------------------------------------------
 Center     Atomic      Atomic             Coordinates (Angstroms)
 Number     Number       Type             X           Y           Z
 ---------------------------------------------------------------------
      1          6           0       -3.115030   -0.438560    0.285445
      2          6           0       -0.828832   -0.276745   -1.380600
      3          1           0       -4.026619   -0.514692    0.866746
      4          1           0        0.088953   -0.205930   -1.951950
      5          6           0        1.236290    1.443298    0.887382
      6          6           0        0.828832    0.276745    1.380600
      7          1           0        0.652342    2.342795    1.043029
      8          1           0       -0.088953    0.205930    1.951950
      9          6           0        1.654704   -0.967003    1.216943
     10          1           0        2.279712   -1.077701    2.112893
     11          1           0        1.007187   -1.844793    1.185737
     12          6           0        2.487931    1.536308    0.133650
     13          1           0        2.889851    2.517413   -0.089428
     14          6           0        3.115030    0.438560   -0.285445
     15          1           0        4.026619    0.514692   -0.866746
     16          6           0        2.540720   -0.928204   -0.030413
     17          1           0        1.955227   -1.223717   -0.909655
     18          1           0        3.339904   -1.666148    0.059554
     19          6           0       -1.236290   -1.443298   -0.887382
     20          1           0       -0.652342   -2.342795   -1.043029
     21          6           0       -2.487931   -1.536308   -0.133650
     22          1           0       -2.889851   -2.517413    0.089428
     23          6           0       -1.654704    0.967003   -1.216943
     24          1           0       -1.007187    1.844793   -1.185737
     25          1           0       -2.279712    1.077701   -2.112893
     26          6           0       -2.540720    0.928204    0.030413
     27          1           0       -3.339904    1.666148   -0.059554
     28          1           0       -1.955227    1.223717    0.909655
 ---------------------------------------------------------------------
                    Distance matrix (angstroms):
                    1          2          3          4          5
     1  C    0.000000
     2  C    2.833477   0.000000
     3  H    1.083836   3.915741   0.000000
     4  H    3.914787   1.083414   4.997831   0.000000
     5  C    4.778881   3.516677   5.615368   3.478238   0.000000
     6  C    4.155126   3.267786   4.946294   3.447649   1.330463
     7  H    4.743729   3.863916   5.485343   3.972821   1.083659
     8  H    3.514221   3.447649   4.147551   3.929595   2.102535
     9  C    4.888487   3.659459   5.710049   3.615618   2.468447
    10  H    5.731606   4.744372   6.452881   4.699187   2.990994
    11  H    4.447549   3.523610   5.216333   3.657062   3.309539
    12  C    5.942753   4.071981   6.869017   3.624944   1.464025
    13  H    6.703499   4.827323   7.612193   4.327888   2.200487
    14  C    6.317349   4.155126   7.296532   3.514221   2.432013
    15  H    7.296532   4.946294   8.301763   4.147551   3.424209
    16  C    5.685686   3.687992   6.641222   3.197678   2.857955
    17  H    5.268040   2.978176   6.280191   2.367540   3.295327
    18  H    6.574509   4.624159   7.499538   4.092318   3.844365
    19  C    2.432013   1.330463   3.424209   2.102535   4.194744
    20  H    3.384640   2.100873   4.286601   2.437591   4.650583
    21  C    1.331895   2.427755   2.100489   3.422930   4.877538
    22  H    2.100180   3.380736   2.430505   4.287593   5.774859
    23  C    2.522960   1.501918   3.487572   2.226285   3.607338
    24  H    3.438180   2.137921   4.347048   2.448279   3.080943
    25  H    2.957842   2.115616   3.803373   2.698923   4.636548
    26  C    1.504300   2.524563   2.233674   3.482988   3.907112
    27  H    2.144618   3.438819   2.466916   4.340841   4.678451
    28  H    2.120836   2.960645   2.704547   3.796228   3.199139
                    6          7          8          9         10
     6  C    0.000000
     7  H    2.100873   0.000000
     8  H    1.083414   2.437591   0.000000
     9  C    1.501918   3.462620   2.226285   0.000000
    10  H    2.115616   3.936081   2.698923   1.098005   0.000000
    11  H    2.137921   4.205018   2.448279   1.091223   1.751390
    12  C    2.427755   2.201540   3.422930   2.852079   3.285392
    13  H    3.380736   2.513841   4.287593   3.920886   4.259969
    14  C    2.833477   3.384640   3.914787   2.522960   2.957842
    15  H    3.915741   4.286601   4.997831   3.487572   3.803373
    16  C    2.524563   3.926536   3.482988   1.530499   2.164309
    17  H    2.960645   4.269718   3.796228   2.163015   3.043420
    18  H    3.438819   4.925631   4.340841   2.160614   2.384634
    19  C    3.516677   4.650583   3.478238   3.607338   4.636548
    20  H    3.863916   5.292314   3.972821   3.510376   4.489682
    21  C    4.071981   5.127702   3.624944   4.394273   5.290340
    22  H    4.827323   6.089180   4.327888   4.932346   5.735117
    23  C    3.659459   3.510376   3.615618   4.540524   5.545111
    24  H    3.523610   2.823020   3.657062   4.556834   5.497785
    25  H    4.744372   4.489682   4.699187   5.545111   6.579618
    26  C    3.687992   3.636221   3.197678   4.754077   5.621116
    27  H    4.624159   4.196614   4.092318   5.788699   6.620296
    28  H    2.978176   2.840694   2.367540   4.233826   4.967798
                   11         12         13         14         15
    11  H    0.000000
    12  C    3.838142   0.000000
    13  H    4.919279   1.083453   0.000000
    14  C    3.438180   1.331895   2.100180   0.000000
    15  H    4.347048   2.100489   2.430505   1.083836   0.000000
    16  C    2.161222   2.470531   3.463763   1.504300   2.233674
    17  H    2.382264   2.998332   3.942378   2.120836   2.704547
    18  H    2.596492   3.314675   4.210336   2.144618   2.466916
    19  C    3.080943   4.877538   5.774859   4.778881   5.615368
    20  H    2.823020   5.127702   6.089180   4.743729   5.485343
    21  C    3.748572   5.854197   6.734623   5.942753   6.869017
    22  H    4.103805   6.734623   7.667230   6.703499   7.612193
    23  C    4.556834   4.394273   4.932346   4.888487   5.710049
    24  H    4.826452   3.748572   4.103805   4.447549   5.216333
    25  H    5.497785   5.290340   5.735117   5.731606   6.452881
    26  C    4.648863   5.066338   5.659598   5.685686   6.641222
    27  H    5.724915   5.832482   6.287718   6.574509   7.499538
    28  H    4.274093   4.521233   5.113374   5.268040   6.280191
                   16         17         18         19         20
    16  C    0.000000
    17  H    1.096903   0.000000
    18  H    1.091490   1.747124   0.000000
    19  C    3.907112   3.199139   4.678451   0.000000
    20  H    3.636221   2.840694   4.196614   1.083659   0.000000
    21  C    5.066338   4.521233   5.832482   1.464025   2.201540
    22  H    5.659598   5.113374   6.287718   2.200487   2.513841
    23  C    4.754077   4.233826   5.788699   2.468447   3.462620
    24  H    4.648863   4.274093   5.724915   3.309539   4.205018
    25  H    5.621116   4.967798   6.620296   2.990994   3.936081
    26  C    5.410266   5.072281   6.427538   2.857955   3.926536
    27  H    6.427538   6.091995   7.465803   3.844365   4.925631
    28  H    5.072281   4.958979   6.091995   3.295327   4.269718
                   21         22         23         24         25
    21  C    0.000000
    22  H    1.083453   0.000000
    23  C    2.852079   3.920886   0.000000
    24  H    3.838142   4.919279   1.091223   0.000000
    25  H    3.285392   4.259969   1.098005   1.751390   0.000000
    26  C    2.470531   3.463763   1.530499   2.161222   2.164309
    27  H    3.314675   4.210336   2.160614   2.596492   2.384634
    28  H    2.998332   3.942378   2.163015   2.382264   3.043420
                   26         27         28
    26  C    0.000000
    27  H    1.091490   0.000000
    28  H    1.096903   1.747124   0.000000
 Symmetry turned off by external request.
 Stoichiometry    C12H16
 Framework group  CI[X(C12H16)]
 Deg. of freedom    39
 Full point group                 CI      NOp   2
 Rotational constants (GHZ):           1.6660577           0.5704748           0.5267456
 Leave Link  202 at Mon Aug  3 20:21:07 2020, MaxMem=  6442450944 cpu:               0.3 elap:               0.0
 (Enter /scratch/scicomp/CentOS/7.3.1611/Haswell/software/Gaussian/g16/l301.exe)
 Standard basis: def2TZVP (6D, 10F)
 Ernie: Thresh=  0.10000D-02 Tol=  0.10000D-05 Strict=F.
   528 basis functions,   740 primitive gaussians,   528 cartesian basis functions
    44 alpha electrons       44 beta electrons
       nuclear repulsion energy       668.5605671062 Hartrees.
 IExCor= 4639 DFT=T Ex+Corr=wB97XD ExCW=0 ScaHFX=  1.000000
 ScaDFX=  1.000000  1.000000  1.000000  1.000000 ScalE2=  1.000000  1.000000
 IRadAn=      5 IRanWt=     -1 IRanGd=            0 ICorTp=0 IEmpDi=121
 HFx  wShort=  0.000000 wLong=  0.200000 cFull=  0.222036 cShort=  0.000000 cLong=  0.777964
 DFx  wShort=  0.000000 wLong=  0.200000 cFull=  0.000000 cShort=  0.000000 cLong=  1.000000
 NAtoms=   28 NActive=   28 NUniq=   28 SFac= 1.00D+00 NAtFMM=   60 NAOKFM=F Big=F
 Integral buffers will be    131072 words long.
 Raffenetti 2 integral format.
 Two-electron integral symmetry is turned off.
 R6Disp:  Grimme-D2 Dispersion energy=       -0.0208476668 Hartrees.
 Nuclear repulsion after empirical dispersion term =      668.5397194395 Hartrees.
 Using the following non-standard input for PCM:
 qrep pcmdoc geomview  nodis nocav g03defaults tsare=0.075
 Warning! Using old PCM defaults because the g03defaults keyword was found.
 These settings can be overridden by following keywords.
 nsfe=28
 NVESolv=36  SolvMW=84.1595   Rsolv=2.815
 eps=2.0165 RhoS=0.778099999999998
 --- end of non-standard input.
 Reading user-defined spheres from input:
 ISph  on   Nord    Re0     Alpha      Xe            Ye            Ze
 --- end of user-defined spheres data.
 ------------------------------------------------------------------------------
 Polarizable Continuum Model (PCM)
 =================================
 Model                : PCM.
 Atomic radii         : UA0 (Simple United Atom Topological Model).
 Polarization charges : Total charges.
 Charge compensation  : None.
 Solution method      : On-the-fly selection.
 Cavity type          : SES (Solvent Excluding Surface) (Alpha=1.000).
 Cavity algorithm     : GePol (RMin=0.200 OFac=0.890).
                        User-defined sphere list used, NSphG=   28.
                        Tesserae with average area of 0.075 Ang**2.
                        Smoothing algorithm: None.
                        Polarization charges: point-like.
                        Self-potential: constant (ISelfS= 1).
                        Self-field    : global E.n sum rule (ISelfD= 3).
 Solvent              : CycloHexane, Eps=   2.016500 Eps(inf)=   2.035188
                        RSolv=   2.815000 Ang.
 ------------------------------------------------------------------------------
 GePol: Number of generator spheres                  =      28
 GePol: Total number of spheres                      =     186
 GePol: Number of exposed spheres                    =     127 ( 68.28%)
 GePol: Number of tesserae                           =    4771
 GePol: Average area of tesserae                     =       0.05 Ang**2
 GePol: Minimum area of tessera                      =   0.10D-02 Ang**2
 GePol: Maximum area of tessera                      =    0.12594 Ang**2
 GePol: Number of small tesserae                     =       0
 GePol: Fraction of small tesserae (<1% of avg)      =       0.00%
 GePol: Total count of vertices                      =   16898
 GePol: Maximum number of vertices in a tessera      =       7
 GePol: Cavity surface area                          =    225.328 Ang**2
 GePol: Cavity volume                                =    258.055 Ang**3
 Leave Link  301 at Mon Aug  3 20:21:07 2020, MaxMem=  6442450944 cpu:               8.4 elap:               0.4
 (Enter /scratch/scicomp/CentOS/7.3.1611/Haswell/software/Gaussian/g16/l302.exe)
 NPDir=0 NMtPBC=     1 NCelOv=     1 NCel=       1 NClECP=     1 NCelD=      1
         NCelK=      1 NCelE2=     1 NClLst=     1 CellRange=     0.0.
 One-electron integrals computed using PRISM.
   1 Symmetry operations used in ECPInt.
 ECPInt:  NShTT=   19306 NPrTT=   56928 LenC2=   18448 LenP2D=   41666.
 LDataN:  DoStor=T MaxTD1= 6 Len=  172
 NBasis=   528 RedAO= T EigKep=  2.05D-05  NBF=   528
 NBsUse=   528 1.00D-06 EigRej= -1.00D+00 NBFU=   528
 Precomputing XC quadrature grid using
 IXCGrd= 4 IRadAn=           5 IRanWt=          -1 IRanGd=           0 AccXCQ= 0.00D+00.
 Generated NRdTot=       0 NPtTot=           0 NUsed=           0 NTot=          32
 NSgBfM=   526   526   526   526   526 MxSgAt=    28 MxSgA2=    28.
 Leave Link  302 at Mon Aug  3 20:21:08 2020, MaxMem=  6442450944 cpu:              12.7 elap:               0.6
 (Enter /scratch/scicomp/CentOS/7.3.1611/Haswell/software/Gaussian/g16/l303.exe)
 DipDrv:  MaxL=1.
 Leave Link  303 at Mon Aug  3 20:21:08 2020, MaxMem=  6442450944 cpu:               1.5 elap:               0.1
 (Enter /scratch/scicomp/CentOS/7.3.1611/Haswell/software/Gaussian/g16/l401.exe)
 ExpMin= 9.52D-02 ExpMax= 1.36D+04 ExpMxC= 4.63D+02 IAcc=3 IRadAn=         5 AccDes= 0.00D+00
 Harris functional with IExCor= 4639 and IRadAn=       5 diagonalized for initial guess.
 HarFok:  IExCor= 4639 AccDes= 0.00D+00 IRadAn=         5 IDoV= 1 UseB2=F ITyADJ=14
 ICtDFT=  3500011 ScaDFX=  1.000000  1.000000  1.000000  1.000000
 FoFCou: FMM=F IPFlag=           0 FMFlag=      100000 FMFlg1=           0
         NFxFlg=           0 DoJE=T BraDBF=F KetDBF=T FulRan=T
         wScrn=  0.000000 ICntrl=       500 IOpCl=  0 I1Cent=   200000004 NGrid=           0
         NMat0=    1 NMatS0=      1 NMatT0=    0 NMatD0=    1 NMtDS0=    0 NMtDT0=    0
 Symmetry not used in FoFCou.
 Harris En= -444.661141288774    
 JPrj=0 DoOrth=F DoCkMO=T.
 Mixing orbitals, IMix= 1 IMixAn=  0 NRI=1 NE=   44 Coef=  7.07106781D-01  7.07106781D-01
 Mixing orbitals, IMix= 1 IMixAn=  0 NRI=1 NE=   44 Coef= -7.07106781D-01  7.07106781D-01
 Initial guess <Sx>= 0.0000 <Sy>= 0.0000 <Sz>= 0.0000 <S**2>= 1.0000 S= 0.6180
 Leave Link  401 at Mon Aug  3 20:21:10 2020, MaxMem=  6442450944 cpu:              48.4 elap:               2.1
 (Enter /scratch/scicomp/CentOS/7.3.1611/Haswell/software/Gaussian/g16/l502.exe)
 Two-electron integral symmetry not used.
 UHF open shell SCF:
 Using DIIS extrapolation, IDIIS=  1040.
 NGot=  6442450944 LenX=  6441877030 LenY=  6441597718
 Requested convergence on RMS density matrix=1.00D-08 within 128 cycles.
 Requested convergence on MAX density matrix=1.00D-06.
 Requested convergence on             energy=1.00D-06.
 No special actions if energy rises.
 Fock matrices will be formed incrementally for  20 cycles.

 Cycle   1  Pass 1  IDiag  1:
 FoFJK:  IHMeth= 1 ICntrl=       0 DoSepK=T KAlg= 0 I1Cent=           0 FoldK=F
 IRaf=         1 NMat=       1 IRICut=       1 DoRegI=T DoRafI=F ISym2E= 0 IDoP0=0 IntGTp=1.
 FoFCou: FMM=F IPFlag=           0 FMFlag=      100000 FMFlg1=           0
         NFxFlg=           0 DoJE=T BraDBF=F KetDBF=F FulRan=T
         wScrn=  0.000000 ICntrl=       500 IOpCl=  0 I1Cent=           0 NGrid=           0
         NMat0=    1 NMatS0=      1 NMatT0=    0 NMatD0=    1 NMtDS0=    0 NMtDT0=    0
 Symmetry not used in FoFCou.
 Inv3:  Mode=1 IEnd=    68287323.
 Iteration    1 A*A^-1 deviation from unit magnitude is 4.66D-15 for   2654.
 Iteration    1 A*A^-1 deviation from orthogonality  is 2.33D-15 for    188    119.
 Iteration    1 A^-1*A deviation from unit magnitude is 3.44D-15 for   2266.
 Iteration    1 A^-1*A deviation from orthogonality  is 2.17D-15 for   2653   2545.
 E= -466.563138047716    
 DIIS: error= 5.36D-02 at cycle   1 NSaved=   1.
 NSaved= 1 IEnMin= 1 EnMin= -466.563138047716     IErMin= 1 ErrMin= 5.36D-02
 ErrMax= 5.36D-02  0.00D+00 EMaxC= 1.00D-01 BMatC= 4.12D+00 BMatP= 4.12D+00
 IDIUse=3 WtCom= 4.64D-01 WtEn= 5.36D-01
 Coeff-Com:  0.100D+01
 Coeff-En:   0.100D+01
 Coeff:      0.100D+01
 Gap=     0.179 Goal=   None    Shift=    0.000
 Gap=     0.179 Goal=   None    Shift=    0.000
 GapD=    0.179 DampG=1.000 DampE=0.500 DampFc=0.5000 IDamp=-1.
 Damping current iteration by 5.00D-01
 RMSDP=1.71D-03 MaxDP=9.34D-02              OVMax= 3.67D-01

 Cycle   2  Pass 1  IDiag  1:
 RMSU=  8.20D-04    CP:  9.61D-01
 E= -466.679053628398     Delta-E=       -0.115915580682 Rises=F Damp=T
 DIIS: error= 2.56D-02 at cycle   2 NSaved=   2.
 NSaved= 2 IEnMin= 2 EnMin= -466.679053628398     IErMin= 2 ErrMin= 2.56D-02
 ErrMax= 2.56D-02  0.00D+00 EMaxC= 1.00D-01 BMatC= 9.38D-01 BMatP= 4.12D+00
 IDIUse=3 WtCom= 7.44D-01 WtEn= 2.56D-01
 Coeff-Com: -0.870D+00 0.187D+01
 Coeff-En:   0.000D+00 0.100D+01
 Coeff:     -0.647D+00 0.165D+01
 Gap=     0.285 Goal=   None    Shift=    0.000
 Gap=     0.285 Goal=   None    Shift=    0.000
 RMSDP=1.22D-03 MaxDP=4.93D-02 DE=-1.16D-01 OVMax= 1.39D-01

 Cycle   3  Pass 1  IDiag  1:
 RMSU=  5.85D-04    CP:  9.02D-01  2.23D+00
 E= -466.831541166149     Delta-E=       -0.152487537750 Rises=F Damp=F
 DIIS: error= 7.83D-03 at cycle   3 NSaved=   3.
 NSaved= 3 IEnMin= 3 EnMin= -466.831541166149     IErMin= 3 ErrMin= 7.83D-03
 ErrMax= 7.83D-03  0.00D+00 EMaxC= 1.00D-01 BMatC= 2.30D-02 BMatP= 9.38D-01
 IDIUse=3 WtCom= 9.22D-01 WtEn= 7.83D-02
 Coeff-Com: -0.309D+00 0.662D+00 0.647D+00
 Coeff-En:   0.000D+00 0.000D+00 0.100D+01
 Coeff:     -0.285D+00 0.611D+00 0.674D+00
 Gap=     0.308 Goal=   None    Shift=    0.000
 Gap=     0.308 Goal=   None    Shift=    0.000
 RMSDP=2.04D-04 MaxDP=9.93D-03 DE=-1.52D-01 OVMax= 6.38D-02

 Cycle   4  Pass 1  IDiag  1:
 RMSU=  1.86D-04    CP:  8.95D-01  2.32D+00  1.02D+00
 E= -466.841960647941     Delta-E=       -0.010419481793 Rises=F Damp=F
 DIIS: error= 5.05D-03 at cycle   4 NSaved=   4.
 NSaved= 4 IEnMin= 4 EnMin= -466.841960647941     IErMin= 4 ErrMin= 5.05D-03
 ErrMax= 5.05D-03  0.00D+00 EMaxC= 1.00D-01 BMatC= 2.00D-03 BMatP= 2.30D-02
 IDIUse=3 WtCom= 9.49D-01 WtEn= 5.05D-02
 Coeff-Com:  0.151D+00-0.324D+00-0.809D-01 0.125D+01
 Coeff-En:   0.000D+00 0.000D+00 0.000D+00 0.100D+01
 Coeff:      0.144D+00-0.308D+00-0.768D-01 0.124D+01
 Gap=     0.319 Goal=   None    Shift=    0.000
 Gap=     0.319 Goal=   None    Shift=    0.000
 RMSDP=2.09D-04 MaxDP=1.15D-02 DE=-1.04D-02 OVMax= 7.55D-02

 Cycle   5  Pass 1  IDiag  1:
 RMSU=  8.10D-05    CP:  8.88D-01  2.37D+00  1.25D+00  1.65D+00
 E= -466.846462157948     Delta-E=       -0.004501510007 Rises=F Damp=F
 DIIS: error= 2.16D-03 at cycle   5 NSaved=   5.
 NSaved= 5 IEnMin= 5 EnMin= -466.846462157948     IErMin= 5 ErrMin= 2.16D-03
 ErrMax= 2.16D-03  0.00D+00 EMaxC= 1.00D-01 BMatC= 7.50D-04 BMatP= 2.00D-03
 IDIUse=3 WtCom= 9.78D-01 WtEn= 2.16D-02
 Coeff-Com:  0.483D-01-0.104D+00-0.551D-01 0.263D+00 0.848D+00
 Coeff-En:   0.000D+00 0.000D+00 0.000D+00 0.000D+00 0.100D+01
 Coeff:      0.473D-01-0.102D+00-0.540D-01 0.257D+00 0.851D+00
 Gap=     0.321 Goal=   None    Shift=    0.000
 Gap=     0.321 Goal=   None    Shift=    0.000
 RMSDP=7.14D-05 MaxDP=2.81D-03 DE=-4.50D-03 OVMax= 2.64D-02

 Cycle   6  Pass 1  IDiag  1:
 RMSU=  3.02D-05    CP:  8.87D-01  2.38D+00  1.29D+00  1.91D+00  1.43D+00
 E= -466.847763624582     Delta-E=       -0.001301466634 Rises=F Damp=F
 DIIS: error= 1.49D-03 at cycle   6 NSaved=   6.
 NSaved= 6 IEnMin= 6 EnMin= -466.847763624582     IErMin= 6 ErrMin= 1.49D-03
 ErrMax= 1.49D-03  0.00D+00 EMaxC= 1.00D-01 BMatC= 5.02D-04 BMatP= 7.50D-04
 IDIUse=3 WtCom= 9.85D-01 WtEn= 1.49D-02
 Coeff-Com: -0.857D-01 0.184D+00 0.567D-01-0.648D+00 0.123D+00 0.137D+01
 Coeff-En:   0.000D+00 0.000D+00 0.000D+00 0.000D+00 0.000D+00 0.100D+01
 Coeff:     -0.845D-01 0.181D+00 0.559D-01-0.638D+00 0.121D+00 0.136D+01
 Gap=     0.317 Goal=   None    Shift=    0.000
 Gap=     0.317 Goal=   None    Shift=    0.000
 RMSDP=9.77D-05 MaxDP=3.92D-03 DE=-1.30D-03 OVMax= 3.65D-02

 Cycle   7  Pass 1  IDiag  1:
 RMSU=  2.95D-05    CP:  8.85D-01  2.38D+00  1.33D+00  2.20D+00  2.16D+00
                    CP:  2.32D+00
 E= -466.849334836778     Delta-E=       -0.001571212195 Rises=F Damp=F
 DIIS: error= 1.03D-03 at cycle   7 NSaved=   7.
 NSaved= 7 IEnMin= 7 EnMin= -466.849334836778     IErMin= 7 ErrMin= 1.03D-03
 ErrMax= 1.03D-03  0.00D+00 EMaxC= 1.00D-01 BMatC= 2.48D-04 BMatP= 5.02D-04
 IDIUse=3 WtCom= 9.90D-01 WtEn= 1.03D-02
 Coeff-Com: -0.231D-01 0.500D-01 0.394D-01-0.886D-03-0.805D+00-0.298D+00
 Coeff-Com:  0.204D+01
 Coeff-En:   0.000D+00 0.000D+00 0.000D+00 0.000D+00 0.000D+00 0.000D+00
 Coeff-En:   0.100D+01
 Coeff:     -0.228D-01 0.495D-01 0.390D-01-0.877D-03-0.797D+00-0.295D+00
 Coeff:      0.203D+01
 Gap=     0.318 Goal=   None    Shift=    0.000
 Gap=     0.318 Goal=   None    Shift=    0.000
 RMSDP=1.31D-04 MaxDP=6.08D-03 DE=-1.57D-03 OVMax= 4.85D-02

 Cycle   8  Pass 1  IDiag  1:
 RMSU=  5.77D-05    CP:  8.83D-01  2.38D+00  1.36D+00  2.50D+00  3.00D+00
                    CP:  3.00D+00  2.66D+00
 E= -466.850621153007     Delta-E=       -0.001286316230 Rises=F Damp=F
 DIIS: error= 3.57D-04 at cycle   8 NSaved=   8.
 NSaved= 8 IEnMin= 8 EnMin= -466.850621153007     IErMin= 8 ErrMin= 3.57D-04
 ErrMax= 3.57D-04  0.00D+00 EMaxC= 1.00D-01 BMatC= 5.39D-05 BMatP= 2.48D-04
 IDIUse=3 WtCom= 9.96D-01 WtEn= 3.57D-03
 Coeff-Com:  0.244D-01-0.523D-01-0.668D-02 0.256D+00-0.264D+00-0.605D+00
 Coeff-Com:  0.552D+00 0.110D+01
 Coeff-En:   0.000D+00 0.000D+00 0.000D+00 0.000D+00 0.000D+00 0.000D+00
 Coeff-En:   0.000D+00 0.100D+01
 Coeff:      0.243D-01-0.521D-01-0.665D-02 0.255D+00-0.263D+00-0.603D+00
 Coeff:      0.551D+00 0.110D+01
 Gap=     0.319 Goal=   None    Shift=    0.000
 Gap=     0.319 Goal=   None    Shift=    0.000
 RMSDP=5.59D-05 MaxDP=2.67D-03 DE=-1.29D-03 OVMax= 2.03D-02

 Cycle   9  Pass 1  IDiag  1:
 RMSU=  3.04D-05    CP:  8.82D-01  2.38D+00  1.38D+00  2.59D+00  3.00D+00
                    CP:  3.00D+00  3.00D+00  1.65D+00
 E= -466.850817220140     Delta-E=       -0.000196067133 Rises=F Damp=F
 DIIS: error= 1.09D-04 at cycle   9 NSaved=   9.
 NSaved= 9 IEnMin= 9 EnMin= -466.850817220140     IErMin= 9 ErrMin= 1.09D-04
 ErrMax= 1.09D-04  0.00D+00 EMaxC= 1.00D-01 BMatC= 7.61D-06 BMatP= 5.39D-05
 IDIUse=3 WtCom= 9.99D-01 WtEn= 1.09D-03
 Coeff-Com:  0.112D-01-0.240D-01-0.763D-02 0.776D-01 0.397D-01-0.135D+00
 Coeff-Com: -0.139D+00 0.272D+00 0.905D+00
 Coeff-En:   0.000D+00 0.000D+00 0.000D+00 0.000D+00 0.000D+00 0.000D+00
 Coeff-En:   0.000D+00 0.000D+00 0.100D+01
 Coeff:      0.111D-01-0.240D-01-0.762D-02 0.775D-01 0.396D-01-0.134D+00
 Coeff:     -0.139D+00 0.272D+00 0.905D+00
 Gap=     0.319 Goal=   None    Shift=    0.000
 Gap=     0.319 Goal=   None    Shift=    0.000
 RMSDP=1.31D-05 MaxDP=6.40D-04 DE=-1.96D-04 OVMax= 4.93D-03

 Cycle  10  Pass 1  IDiag  1:
 RMSU=  4.55D-06    CP:  8.82D-01  2.38D+00  1.38D+00  2.61D+00  3.00D+00
                    CP:  3.00D+00  3.00D+00  1.79D+00  1.26D+00
 E= -466.850830861266     Delta-E=       -0.000013641126 Rises=F Damp=F
 DIIS: error= 4.49D-05 at cycle  10 NSaved=  10.
 NSaved=10 IEnMin=10 EnMin= -466.850830861266     IErMin=10 ErrMin= 4.49D-05
 ErrMax= 4.49D-05  0.00D+00 EMaxC= 1.00D-01 BMatC= 1.09D-06 BMatP= 7.61D-06
 IDIUse=1 WtCom= 1.00D+00 WtEn= 0.00D+00
 Coeff-Com: -0.211D-02 0.457D-02-0.103D-03-0.309D-01 0.434D-01 0.790D-01
 Coeff-Com: -0.969D-01-0.178D+00 0.141D+00 0.104D+01
 Coeff:     -0.211D-02 0.457D-02-0.103D-03-0.309D-01 0.434D-01 0.790D-01
 Coeff:     -0.969D-01-0.178D+00 0.141D+00 0.104D+01
 Gap=     0.318 Goal=   None    Shift=    0.000
 Gap=     0.318 Goal=   None    Shift=    0.000
 RMSDP=5.43D-06 MaxDP=2.53D-04 DE=-1.36D-05 OVMax= 2.03D-03

 Cycle  11  Pass 1  IDiag  1:
 RMSU=  2.02D-06    CP:  8.82D-01  2.38D+00  1.38D+00  2.62D+00  3.00D+00
                    CP:  3.00D+00  3.00D+00  1.83D+00  1.37D+00  1.42D+00
 E= -466.850832491484     Delta-E=       -0.000001630218 Rises=F Damp=F
 DIIS: error= 1.62D-05 at cycle  11 NSaved=  11.
 NSaved=11 IEnMin=11 EnMin= -466.850832491484     IErMin=11 ErrMin= 1.62D-05
 ErrMax= 1.62D-05  0.00D+00 EMaxC= 1.00D-01 BMatC= 1.87D-07 BMatP= 1.09D-06
 IDIUse=1 WtCom= 1.00D+00 WtEn= 0.00D+00
 Coeff-Com: -0.105D-02 0.226D-02 0.239D-03-0.118D-01 0.101D-01 0.274D-01
 Coeff-Com: -0.170D-01-0.654D-01-0.162D-01 0.295D+00 0.776D+00
 Coeff:     -0.105D-02 0.226D-02 0.239D-03-0.118D-01 0.101D-01 0.274D-01
 Coeff:     -0.170D-01-0.654D-01-0.162D-01 0.295D+00 0.776D+00
 Gap=     0.318 Goal=   None    Shift=    0.000
 Gap=     0.318 Goal=   None    Shift=    0.000
 RMSDP=7.53D-07 MaxDP=3.97D-05 DE=-1.63D-06 OVMax= 1.47D-04

 Cycle  12  Pass 1  IDiag  1:
 RMSU=  5.55D-07    CP:  8.82D-01  2.38D+00  1.38D+00  2.62D+00  3.00D+00
                    CP:  3.00D+00  3.00D+00  1.84D+00  1.37D+00  1.47D+00
                    CP:  1.18D+00
 E= -466.850832612683     Delta-E=       -0.000000121199 Rises=F Damp=F
 DIIS: error= 1.14D-05 at cycle  12 NSaved=  12.
 NSaved=12 IEnMin=12 EnMin= -466.850832612683     IErMin=12 ErrMin= 1.14D-05
 ErrMax= 1.14D-05  0.00D+00 EMaxC= 1.00D-01 BMatC= 6.91D-08 BMatP= 1.87D-07
 IDIUse=1 WtCom= 1.00D+00 WtEn= 0.00D+00
 Coeff-Com:  0.383D-03-0.832D-03 0.729D-05 0.604D-02-0.847D-02-0.158D-01
 Coeff-Com:  0.224D-01 0.337D-01-0.455D-01-0.232D+00 0.286D+00 0.954D+00
 Coeff:      0.383D-03-0.832D-03 0.729D-05 0.604D-02-0.847D-02-0.158D-01
 Coeff:      0.224D-01 0.337D-01-0.455D-01-0.232D+00 0.286D+00 0.954D+00
 Gap=     0.319 Goal=   None    Shift=    0.000
 Gap=     0.319 Goal=   None    Shift=    0.000
 RMSDP=5.91D-07 MaxDP=2.64D-05 DE=-1.21D-07 OVMax= 1.29D-04

 Cycle  13  Pass 1  IDiag  1:
 RMSU=  3.53D-07    CP:  8.82D-01  2.38D+00  1.38D+00  2.62D+00  3.00D+00
                    CP:  3.00D+00  3.00D+00  1.83D+00  1.37D+00  1.48D+00
                    CP:  1.34D+00  1.54D+00
 E= -466.850832685181     Delta-E=       -0.000000072498 Rises=F Damp=F
 DIIS: error= 6.53D-06 at cycle  13 NSaved=  13.
 NSaved=13 IEnMin=13 EnMin= -466.850832685181     IErMin=13 ErrMin= 6.53D-06
 ErrMax= 6.53D-06  0.00D+00 EMaxC= 1.00D-01 BMatC= 1.37D-08 BMatP= 6.91D-08
 IDIUse=1 WtCom= 1.00D+00 WtEn= 0.00D+00
 Coeff-Com: -0.490D-04 0.108D-03 0.605D-04-0.458D-03 0.544D-03 0.635D-03
 Coeff-Com: -0.245D-02 0.137D-02 0.903D-02-0.599D-03-0.220D+00-0.192D+00
 Coeff-Com:  0.140D+01
 Coeff:     -0.490D-04 0.108D-03 0.605D-04-0.458D-03 0.544D-03 0.635D-03
 Coeff:     -0.245D-02 0.137D-02 0.903D-02-0.599D-03-0.220D+00-0.192D+00
 Coeff:      0.140D+01
 Gap=     0.319 Goal=   None    Shift=    0.000
 Gap=     0.319 Goal=   None    Shift=    0.000
 RMSDP=3.89D-07 MaxDP=2.08D-05 DE=-7.25D-08 OVMax= 9.72D-05

 Cycle  14  Pass 1  IDiag  1:
 RMSU=  2.38D-07    CP:  8.82D-01  2.38D+00  1.38D+00  2.62D+00  3.00D+00
                    CP:  3.00D+00  3.00D+00  1.83D+00  1.37D+00  1.50D+00
                    CP:  1.39D+00  1.88D+00  1.57D+00
 E= -466.850832714931     Delta-E=       -0.000000029750 Rises=F Damp=F
 DIIS: error= 3.39D-06 at cycle  14 NSaved=  14.
 NSaved=14 IEnMin=14 EnMin= -466.850832714931     IErMin=14 ErrMin= 3.39D-06
 ErrMax= 3.39D-06  0.00D+00 EMaxC= 1.00D-01 BMatC= 3.88D-09 BMatP= 1.37D-08
 IDIUse=1 WtCom= 1.00D+00 WtEn= 0.00D+00
 Coeff-Com: -0.141D-03 0.304D-03 0.484D-04-0.177D-02 0.202D-02 0.429D-02
 Coeff-Com: -0.601D-02-0.851D-02 0.138D-01 0.638D-01-0.115D+00-0.302D+00
 Coeff-Com:  0.140D+00 0.121D+01
 Coeff:     -0.141D-03 0.304D-03 0.484D-04-0.177D-02 0.202D-02 0.429D-02
 Coeff:     -0.601D-02-0.851D-02 0.138D-01 0.638D-01-0.115D+00-0.302D+00
 Coeff:      0.140D+00 0.121D+01
 Gap=     0.319 Goal=   None    Shift=    0.000
 Gap=     0.319 Goal=   None    Shift=    0.000
 RMSDP=2.55D-07 MaxDP=1.19D-05 DE=-2.98D-08 OVMax= 6.44D-05

 Cycle  15  Pass 1  IDiag  1:
 RMSU=  8.33D-08    CP:  8.82D-01  2.38D+00  1.38D+00  2.62D+00  3.00D+00
                    CP:  3.00D+00  3.00D+00  1.83D+00  1.37D+00  1.51D+00
                    CP:  1.40D+00  2.01D+00  1.92D+00  1.78D+00
 E= -466.850832723408     Delta-E=       -0.000000008477 Rises=F Damp=F
 DIIS: error= 1.19D-06 at cycle  15 NSaved=  15.
 NSaved=15 IEnMin=15 EnMin= -466.850832723408     IErMin=15 ErrMin= 1.19D-06
 ErrMax= 1.19D-06  0.00D+00 EMaxC= 1.00D-01 BMatC= 6.34D-10 BMatP= 3.88D-09
 IDIUse=1 WtCom= 1.00D+00 WtEn= 0.00D+00
 Coeff-Com:  0.122D-04-0.268D-04-0.250D-04 0.329D-04 0.115D-03 0.158D-03
 Coeff-Com: -0.408D-03-0.836D-03 0.964D-03 0.885D-02 0.324D-01-0.699D-02
 Coeff-Com: -0.325D+00 0.219D+00 0.107D+01
 Coeff:      0.122D-04-0.268D-04-0.250D-04 0.329D-04 0.115D-03 0.158D-03
 Coeff:     -0.408D-03-0.836D-03 0.964D-03 0.885D-02 0.324D-01-0.699D-02
 Coeff:     -0.325D+00 0.219D+00 0.107D+01
 Gap=     0.319 Goal=   None    Shift=    0.000
 Gap=     0.319 Goal=   None    Shift=    0.000
 RMSDP=1.18D-07 MaxDP=5.19D-06 DE=-8.48D-09 OVMax= 2.71D-05

 Cycle  16  Pass 1  IDiag  1:
 RMSU=  3.81D-08    CP:  8.82D-01  2.38D+00  1.38D+00  2.62D+00  3.00D+00
                    CP:  3.00D+00  3.00D+00  1.83D+00  1.37D+00  1.51D+00
                    CP:  1.40D+00  2.03D+00  2.05D+00  2.15D+00  1.44D+00
 E= -466.850832724462     Delta-E=       -0.000000001054 Rises=F Damp=F
 DIIS: error= 2.08D-07 at cycle  16 NSaved=  16.
 NSaved=16 IEnMin=16 EnMin= -466.850832724462     IErMin=16 ErrMin= 2.08D-07
 ErrMax= 2.08D-07  0.00D+00 EMaxC= 1.00D-01 BMatC= 5.32D-11 BMatP= 6.34D-10
 IDIUse=1 WtCom= 1.00D+00 WtEn= 0.00D+00
 Coeff-Com:  0.699D-05-0.152D-04-0.732D-05 0.849D-04-0.814D-04-0.151D-03
 Coeff-Com:  0.233D-03 0.279D-03-0.888D-03-0.246D-02 0.169D-01 0.210D-01
 Coeff-Com: -0.834D-01-0.511D-01 0.242D+00 0.858D+00
 Coeff:      0.699D-05-0.152D-04-0.732D-05 0.849D-04-0.814D-04-0.151D-03
 Coeff:      0.233D-03 0.279D-03-0.888D-03-0.246D-02 0.169D-01 0.210D-01
 Coeff:     -0.834D-01-0.511D-01 0.242D+00 0.858D+00
 Gap=     0.319 Goal=   None    Shift=    0.000
 Gap=     0.319 Goal=   None    Shift=    0.000
 RMSDP=2.41D-08 MaxDP=1.03D-06 DE=-1.05D-09 OVMax= 3.84D-06

 Cycle  17  Pass 1  IDiag  1:
 RMSU=  1.09D-08    CP:  8.82D-01  2.38D+00  1.38D+00  2.62D+00  3.00D+00
                    CP:  3.00D+00  3.00D+00  1.83D+00  1.37D+00  1.51D+00
                    CP:  1.40D+00  2.03D+00  2.05D+00  2.19D+00  1.54D+00
                    CP:  1.33D+00
 E= -466.850832724499     Delta-E=       -0.000000000037 Rises=F Damp=F
 DIIS: error= 8.87D-08 at cycle  17 NSaved=  17.
 NSaved=17 IEnMin=17 EnMin= -466.850832724499     IErMin=17 ErrMin= 8.87D-08
 ErrMax= 8.87D-08  0.00D+00 EMaxC= 1.00D-01 BMatC= 6.94D-12 BMatP= 5.32D-11
 IDIUse=1 WtCom= 1.00D+00 WtEn= 0.00D+00
 Coeff-Com: -0.364D-06 0.841D-06 0.127D-05 0.198D-05-0.192D-04-0.770D-05
 Coeff-Com:  0.413D-04 0.120D-03-0.254D-03-0.134D-02-0.186D-02 0.331D-02
 Coeff-Com:  0.329D-01-0.375D-01-0.115D+00 0.138D+00 0.982D+00
 Coeff:     -0.364D-06 0.841D-06 0.127D-05 0.198D-05-0.192D-04-0.770D-05
 Coeff:      0.413D-04 0.120D-03-0.254D-03-0.134D-02-0.186D-02 0.331D-02
 Coeff:      0.329D-01-0.375D-01-0.115D+00 0.138D+00 0.982D+00
 Gap=     0.319 Goal=   None    Shift=    0.000
 Gap=     0.319 Goal=   None    Shift=    0.000
 RMSDP=8.93D-09 MaxDP=3.06D-07 DE=-3.73D-11 OVMax= 1.24D-06

 Error on total polarization charges =  0.01122
 SCF Done:  E(UwB97XD) =  -466.850832724     A.U. after   17 cycles
            NFock= 17  Conv=0.89D-08     -V/T= 2.0058
 <Sx>= 0.0000 <Sy>= 0.0000 <Sz>= 0.0000 <S**2>= 0.0000 S= 0.0000
 <L.S>=  0.00000000000    
 KE= 4.641695492727D+02 PE=-2.419001488323D+03 EE= 8.194413868859D+02
 --------------------------------------------------------------------
 Variational PCM results
 =======================
 <psi(f)|   H    |psi(f)>                     (a.u.) =    -466.858525
 <psi(f)|H+V(f)/2|psi(f)>                     (a.u.) =    -466.860024
 Total free energy in solution:
 - with all non electrostatic terms           (a.u.) =    -466.850833
 --------------------------------------------------------------------
 (Polarized solute)-Solvent               (kcal/mol) =      -0.94
 --------------------------------------------------------------------
 Quantum repulsion energy                 (kcal/mol) =       5.77
 Total non electrostatic                  (kcal/mol) =       5.77
 --------------------------------------------------------------------
 Partition over spheres:
 Sphere  on Atom  Surface  Charge   GEl     GCav    GDR
    1               6.93   0.010   -0.05    0.00    0.00
    2               4.80   0.007   -0.04    0.00    0.00
    3               7.52  -0.010   -0.04    0.00    0.00
    4               3.33  -0.005   -0.01    0.00    0.00
    5               4.62   0.008   -0.06    0.00    0.00
    6               4.64   0.007   -0.04    0.00    0.00
    7               5.05  -0.007   -0.03    0.00    0.00
    8               3.90  -0.006   -0.02    0.00    0.00
    9               3.60   0.002    0.00    0.00    0.00
   10               7.16  -0.007   -0.01    0.00    0.00
   11               3.33  -0.003   -0.01    0.00    0.00
   12               6.35   0.010   -0.06    0.00    0.00
   13               7.52  -0.010   -0.03    0.00    0.00
   14               6.93   0.010   -0.05    0.00    0.00
   15               7.52  -0.010   -0.04    0.00    0.00
   16               3.73   0.002    0.00    0.00    0.00
   17               2.54  -0.002   -0.00    0.00    0.00
   18               7.44  -0.008   -0.03    0.00    0.00
   19               5.08   0.009   -0.06    0.00    0.00
   20               5.06  -0.007   -0.03    0.00    0.00
   21               6.47   0.010   -0.06    0.00    0.00
   22               7.51  -0.010   -0.03    0.00    0.00
   23               3.60   0.002    0.00    0.00    0.00
   24               3.33  -0.003   -0.01    0.00    0.00
   25               7.15  -0.007   -0.01    0.00    0.00
   26               3.45   0.002    0.00    0.00    0.00
   27               7.44  -0.008   -0.03    0.00    0.00
   28               2.21  -0.002   -0.01    0.00    0.00
 Added spheres:    77.13   0.015   -0.21    0.00    0.00
 --------------------------------------------------------------------
 After PCM corrections, the energy is  -466.850832724     a.u.
 --------------------------------------------------------------------
 Annihilation of the first spin contaminant:
 S**2 before annihilation     0.0000,   after    -0.0000
 Leave Link  502 at Mon Aug  3 20:26:21 2020, MaxMem=  6442450944 cpu:            7383.1 elap:             310.4
 (Enter /scratch/scicomp/CentOS/7.3.1611/Haswell/software/Gaussian/g16/l601.exe)
 Copying SCF densities to generalized density rwf, IOpCl= 1 IROHF=0.

 **********************************************************************

            Population analysis using the SCF Density.

 **********************************************************************

 Alpha  occ. eigenvalues --  -10.28243 -10.28242 -10.28136 -10.28135 -10.28095
 Alpha  occ. eigenvalues --  -10.28093 -10.28040 -10.28038 -10.27804 -10.27802
 Alpha  occ. eigenvalues --  -10.27548 -10.27545  -0.93975  -0.93610  -0.83966
 Alpha  occ. eigenvalues --   -0.83944  -0.83781  -0.83591  -0.71120  -0.71112
 Alpha  occ. eigenvalues --   -0.67804  -0.67785  -0.59613  -0.59478  -0.57326
 Alpha  occ. eigenvalues --   -0.56812  -0.53258  -0.52566  -0.50770  -0.50710
 Alpha  occ. eigenvalues --   -0.49840  -0.49421  -0.47153  -0.46884  -0.45022
 Alpha  occ. eigenvalues --   -0.44851  -0.41076  -0.40930  -0.39497  -0.39124
 Alpha  occ. eigenvalues --   -0.39099  -0.38959  -0.29625  -0.27759
 Alpha virt. eigenvalues --    0.04094   0.04745   0.11366   0.12912   0.14262
 Alpha virt. eigenvalues --    0.15214   0.15290   0.16244   0.16399   0.16901
 Alpha virt. eigenvalues --    0.17743   0.17753   0.18068   0.19202   0.20883
 Alpha virt. eigenvalues --    0.21660   0.22459   0.23422   0.23670   0.24335
 Alpha virt. eigenvalues --    0.25722   0.26469   0.26629   0.27549   0.28551
 Alpha virt. eigenvalues --    0.28736   0.29533   0.29657   0.30482   0.31025
 Alpha virt. eigenvalues --    0.31807   0.32292   0.32467   0.32751   0.33306
 Alpha virt. eigenvalues --    0.33842   0.34561   0.35560   0.35904   0.37886
 Alpha virt. eigenvalues --    0.37987   0.38642   0.40412   0.41536   0.41836
 Alpha virt. eigenvalues --    0.42064   0.43645   0.44527   0.45751   0.46349
 Alpha virt. eigenvalues --    0.46640   0.46894   0.48185   0.48617   0.48798
 Alpha virt. eigenvalues --    0.49157   0.49618   0.49910   0.50314   0.50444
 Alpha virt. eigenvalues --    0.51312   0.51354   0.51875   0.52421   0.53140
 Alpha virt. eigenvalues --    0.53310   0.53896   0.54915   0.55057   0.55693
 Alpha virt. eigenvalues --    0.57661   0.57775   0.58039   0.59765   0.59773
 Alpha virt. eigenvalues --    0.60367   0.61548   0.63116   0.63616   0.64549
 Alpha virt. eigenvalues --    0.64971   0.66755   0.68183   0.68788   0.69597
 Alpha virt. eigenvalues --    0.70944   0.72690   0.73409   0.73683   0.75413
 Alpha virt. eigenvalues --    0.76866   0.78391   0.78622   0.80821   0.81770
 Alpha virt. eigenvalues --    0.82228   0.82406   0.83434   0.86848   0.87015
 Alpha virt. eigenvalues --    0.87252   0.88916   0.91161   0.91513   0.92686
 Alpha virt. eigenvalues --    0.92696   0.95497   0.96392   0.98688   0.99239
 Alpha virt. eigenvalues --    1.01127   1.03430   1.04096   1.04181   1.04592
 Alpha virt. eigenvalues --    1.06836   1.07400   1.08617   1.09995   1.11643
 Alpha virt. eigenvalues --    1.13376   1.13564   1.14461   1.14880   1.15752
 Alpha virt. eigenvalues --    1.16333   1.16445   1.16965   1.19212   1.20573
 Alpha virt. eigenvalues --    1.21648   1.23049   1.23420   1.23819   1.24800
 Alpha virt. eigenvalues --    1.25171   1.25971   1.26966   1.27279   1.28704
 Alpha virt. eigenvalues --    1.29036   1.30525   1.32360   1.32597   1.32977
 Alpha virt. eigenvalues --    1.34662   1.34985   1.35601   1.37112   1.38718
 Alpha virt. eigenvalues --    1.38888   1.39556   1.40754   1.41059   1.42106
 Alpha virt. eigenvalues --    1.42142   1.42716   1.43940   1.45352   1.45463
 Alpha virt. eigenvalues --    1.45945   1.46667   1.46809   1.46933   1.48644
 Alpha virt. eigenvalues --    1.50278   1.50409   1.51476   1.53164   1.55664
 Alpha virt. eigenvalues --    1.56134   1.57567   1.57733   1.58502   1.60773
 Alpha virt. eigenvalues --    1.61063   1.62466   1.63209   1.64991   1.67237
 Alpha virt. eigenvalues --    1.68602   1.69581   1.70087   1.71871   1.75521
 Alpha virt. eigenvalues --    1.75778   1.79821   1.80771   1.82358   1.83346
 Alpha virt. eigenvalues --    1.86918   1.87979   1.89236   1.89622   1.91424
 Alpha virt. eigenvalues --    1.92399   1.95909   2.00163   2.01461   2.01462
 Alpha virt. eigenvalues --    2.04025   2.05005   2.06962   2.07594   2.08925
 Alpha virt. eigenvalues --    2.09054   2.11715   2.12349   2.13343   2.15497
 Alpha virt. eigenvalues --    2.18935   2.19665   2.20080   2.20525   2.22338
 Alpha virt. eigenvalues --    2.23079   2.23341   2.23867   2.25449   2.26191
 Alpha virt. eigenvalues --    2.28730   2.32141   2.37267   2.38026   2.40272
 Alpha virt. eigenvalues --    2.42564   2.46138   2.47095   2.48592   2.49544
 Alpha virt. eigenvalues --    2.50152   2.50346   2.52572   2.54176   2.54761
 Alpha virt. eigenvalues --    2.55168   2.57314   2.57500   2.60414   2.60705
 Alpha virt. eigenvalues --    2.62051   2.64130   2.64438   2.65276   2.66674
 Alpha virt. eigenvalues --    2.67795   2.68661   2.70207   2.72286   2.72432
 Alpha virt. eigenvalues --    2.73257   2.73328   2.74995   2.76048   2.76680
 Alpha virt. eigenvalues --    2.77585   2.77896   2.78912   2.80377   2.81127
 Alpha virt. eigenvalues --    2.81530   2.81888   2.82552   2.83867   2.84257
 Alpha virt. eigenvalues --    2.84930   2.85930   2.86991   2.88849   2.89008
 Alpha virt. eigenvalues --    2.89839   2.89971   2.92329   2.92755   2.93263
 Alpha virt. eigenvalues --    2.94377   2.94781   2.95048   2.96031   2.98783
 Alpha virt. eigenvalues --    3.01757   3.01952   3.03008   3.04049   3.06278
 Alpha virt. eigenvalues --    3.06627   3.08250   3.08854   3.09575   3.10985
 Alpha virt. eigenvalues --    3.12231   3.12473   3.12650   3.14006   3.14883
 Alpha virt. eigenvalues --    3.15045   3.17051   3.17312   3.18533   3.18812
 Alpha virt. eigenvalues --    3.19501   3.19620   3.20141   3.21065   3.21114
 Alpha virt. eigenvalues --    3.22463   3.22491   3.23487   3.23563   3.24284
 Alpha virt. eigenvalues --    3.25461   3.25976   3.27063   3.27951   3.28276
 Alpha virt. eigenvalues --    3.28873   3.29479   3.30014   3.31304   3.31422
 Alpha virt. eigenvalues --    3.32627   3.33052   3.33359   3.33747   3.34532
 Alpha virt. eigenvalues --    3.34877   3.35421   3.36137   3.37899   3.38581
 Alpha virt. eigenvalues --    3.38982   3.39285   3.41884   3.43742   3.43764
 Alpha virt. eigenvalues --    3.44926   3.45759   3.46418   3.46856   3.47125
 Alpha virt. eigenvalues --    3.48171   3.48837   3.49180   3.49487   3.51209
 Alpha virt. eigenvalues --    3.51464   3.51795   3.53415   3.53949   3.54150
 Alpha virt. eigenvalues --    3.54790   3.55605   3.59617   3.59761   3.61434
 Alpha virt. eigenvalues --    3.63260   3.64576   3.64612   3.64865   3.64979
 Alpha virt. eigenvalues --    3.67801   3.68558   3.69993   3.71574   3.71761
 Alpha virt. eigenvalues --    3.73821   3.76221   3.76358   3.78041   3.78486
 Alpha virt. eigenvalues --    3.84121   3.84722   3.85189   3.86232   3.86416
 Alpha virt. eigenvalues --    3.87755   3.89322   3.90150   3.92548   3.93625
 Alpha virt. eigenvalues --    3.94110   3.95404   3.99250   3.99268   4.01724
 Alpha virt. eigenvalues --    4.04022   4.08186   4.09203   4.09308   4.10788
 Alpha virt. eigenvalues --    4.11929   4.12723   4.13243   4.15801   4.18217
 Alpha virt. eigenvalues --    4.19300   4.20211   4.21873   4.22716   4.22976
 Alpha virt. eigenvalues --    4.24892   4.27076   4.30992   4.31148   4.33417
 Alpha virt. eigenvalues --    4.35522   4.36867   4.37353   4.39355   4.39886
 Alpha virt. eigenvalues --    4.43718   4.45148   4.45609   4.47254   4.48514
 Alpha virt. eigenvalues --    4.48544   4.59181   4.60590   4.61525   4.64627
 Alpha virt. eigenvalues --    4.69305   4.69563   4.71579   4.73445   4.74253
 Alpha virt. eigenvalues --    4.74921   4.76874   4.77956   4.79421   4.82101
 Alpha virt. eigenvalues --    4.83770   4.84469   4.89082   4.89173   4.94310
 Alpha virt. eigenvalues --    4.94500   4.95159   4.96976   5.05347   5.08510
 Alpha virt. eigenvalues --    5.09496   5.10914   5.17965   5.19025   5.23162
 Alpha virt. eigenvalues --    5.23854   5.29120   5.31650   5.39747   5.40288
 Alpha virt. eigenvalues --    5.43523   5.44799   5.48141   5.48743   5.66277
 Alpha virt. eigenvalues --    5.70042   5.74763   5.76464   5.91611   5.96960
 Alpha virt. eigenvalues --    7.94175   7.95822   8.02161   8.02256   8.05981
 Alpha virt. eigenvalues --    8.07384   8.11153   8.11212   8.17355   8.18224
 Alpha virt. eigenvalues --    8.33620   8.35846  34.76325  34.77931  34.81081
 Alpha virt. eigenvalues --   34.82089  34.84844  34.87129  34.97468  34.97870
 Alpha virt. eigenvalues --   35.00374  35.01401  35.15326  35.18481
  Beta  occ. eigenvalues --  -10.28243 -10.28242 -10.28136 -10.28135 -10.28095
  Beta  occ. eigenvalues --  -10.28093 -10.28040 -10.28038 -10.27804 -10.27802
  Beta  occ. eigenvalues --  -10.27548 -10.27545  -0.93975  -0.93610  -0.83966
  Beta  occ. eigenvalues --   -0.83944  -0.83781  -0.83591  -0.71120  -0.71112
  Beta  occ. eigenvalues --   -0.67804  -0.67785  -0.59613  -0.59478  -0.57326
  Beta  occ. eigenvalues --   -0.56812  -0.53258  -0.52566  -0.50770  -0.50710
  Beta  occ. eigenvalues --   -0.49840  -0.49421  -0.47153  -0.46884  -0.45022
  Beta  occ. eigenvalues --   -0.44851  -0.41076  -0.40930  -0.39497  -0.39124
  Beta  occ. eigenvalues --   -0.39099  -0.38959  -0.29625  -0.27759
  Beta virt. eigenvalues --    0.04094   0.04745   0.11366   0.12912   0.14262
  Beta virt. eigenvalues --    0.15214   0.15290   0.16244   0.16399   0.16901
  Beta virt. eigenvalues --    0.17743   0.17753   0.18068   0.19202   0.20883
  Beta virt. eigenvalues --    0.21660   0.22459   0.23422   0.23670   0.24335
  Beta virt. eigenvalues --    0.25722   0.26469   0.26629   0.27549   0.28551
  Beta virt. eigenvalues --    0.28736   0.29533   0.29657   0.30482   0.31025
  Beta virt. eigenvalues --    0.31807   0.32292   0.32467   0.32751   0.33306
  Beta virt. eigenvalues --    0.33842   0.34561   0.35560   0.35904   0.37886
  Beta virt. eigenvalues --    0.37987   0.38642   0.40412   0.41536   0.41836
  Beta virt. eigenvalues --    0.42064   0.43645   0.44527   0.45751   0.46349
  Beta virt. eigenvalues --    0.46640   0.46894   0.48185   0.48617   0.48798
  Beta virt. eigenvalues --    0.49157   0.49618   0.49910   0.50314   0.50444
  Beta virt. eigenvalues --    0.51312   0.51354   0.51875   0.52421   0.53140
  Beta virt. eigenvalues --    0.53310   0.53896   0.54915   0.55057   0.55693
  Beta virt. eigenvalues --    0.57661   0.57775   0.58039   0.59765   0.59773
  Beta virt. eigenvalues --    0.60367   0.61548   0.63116   0.63616   0.64549
  Beta virt. eigenvalues --    0.64971   0.66755   0.68183   0.68788   0.69597
  Beta virt. eigenvalues --    0.70944   0.72690   0.73409   0.73683   0.75413
  Beta virt. eigenvalues --    0.76866   0.78391   0.78622   0.80821   0.81770
  Beta virt. eigenvalues --    0.82228   0.82406   0.83434   0.86848   0.87015
  Beta virt. eigenvalues --    0.87252   0.88916   0.91161   0.91513   0.92686
  Beta virt. eigenvalues --    0.92696   0.95497   0.96392   0.98688   0.99239
  Beta virt. eigenvalues --    1.01127   1.03430   1.04096   1.04181   1.04592
  Beta virt. eigenvalues --    1.06836   1.07400   1.08617   1.09995   1.11643
  Beta virt. eigenvalues --    1.13376   1.13564   1.14461   1.14880   1.15752
  Beta virt. eigenvalues --    1.16333   1.16445   1.16965   1.19212   1.20573
  Beta virt. eigenvalues --    1.21648   1.23049   1.23420   1.23819   1.24800
  Beta virt. eigenvalues --    1.25171   1.25971   1.26966   1.27279   1.28704
  Beta virt. eigenvalues --    1.29036   1.30525   1.32360   1.32597   1.32977
  Beta virt. eigenvalues --    1.34662   1.34985   1.35601   1.37112   1.38718
  Beta virt. eigenvalues --    1.38888   1.39556   1.40754   1.41059   1.42106
  Beta virt. eigenvalues --    1.42142   1.42716   1.43940   1.45352   1.45463
  Beta virt. eigenvalues --    1.45945   1.46667   1.46809   1.46933   1.48644
  Beta virt. eigenvalues --    1.50278   1.50409   1.51476   1.53164   1.55664
  Beta virt. eigenvalues --    1.56134   1.57567   1.57733   1.58502   1.60773
  Beta virt. eigenvalues --    1.61063   1.62466   1.63209   1.64991   1.67237
  Beta virt. eigenvalues --    1.68602   1.69581   1.70087   1.71871   1.75521
  Beta virt. eigenvalues --    1.75778   1.79821   1.80771   1.82358   1.83346
  Beta virt. eigenvalues --    1.86918   1.87979   1.89236   1.89622   1.91424
  Beta virt. eigenvalues --    1.92399   1.95909   2.00163   2.01461   2.01462
  Beta virt. eigenvalues --    2.04025   2.05005   2.06962   2.07594   2.08925
  Beta virt. eigenvalues --    2.09054   2.11715   2.12349   2.13343   2.15497
  Beta virt. eigenvalues --    2.18935   2.19665   2.20080   2.20525   2.22338
  Beta virt. eigenvalues --    2.23079   2.23341   2.23867   2.25449   2.26191
  Beta virt. eigenvalues --    2.28730   2.32141   2.37267   2.38026   2.40272
  Beta virt. eigenvalues --    2.42564   2.46138   2.47095   2.48592   2.49544
  Beta virt. eigenvalues --    2.50152   2.50346   2.52572   2.54176   2.54761
  Beta virt. eigenvalues --    2.55168   2.57314   2.57500   2.60414   2.60705
  Beta virt. eigenvalues --    2.62051   2.64130   2.64438   2.65276   2.66674
  Beta virt. eigenvalues --    2.67795   2.68661   2.70207   2.72286   2.72432
  Beta virt. eigenvalues --    2.73257   2.73328   2.74995   2.76048   2.76680
  Beta virt. eigenvalues --    2.77585   2.77896   2.78912   2.80377   2.81127
  Beta virt. eigenvalues --    2.81530   2.81888   2.82552   2.83867   2.84257
  Beta virt. eigenvalues --    2.84930   2.85930   2.86991   2.88849   2.89008
  Beta virt. eigenvalues --    2.89839   2.89971   2.92329   2.92755   2.93263
  Beta virt. eigenvalues --    2.94377   2.94781   2.95048   2.96031   2.98783
  Beta virt. eigenvalues --    3.01757   3.01952   3.03008   3.04049   3.06278
  Beta virt. eigenvalues --    3.06627   3.08250   3.08854   3.09575   3.10985
  Beta virt. eigenvalues --    3.12231   3.12473   3.12650   3.14006   3.14883
  Beta virt. eigenvalues --    3.15045   3.17051   3.17312   3.18533   3.18812
  Beta virt. eigenvalues --    3.19501   3.19620   3.20141   3.21065   3.21114
  Beta virt. eigenvalues --    3.22463   3.22491   3.23487   3.23563   3.24284
  Beta virt. eigenvalues --    3.25461   3.25976   3.27063   3.27951   3.28276
  Beta virt. eigenvalues --    3.28873   3.29479   3.30014   3.31304   3.31422
  Beta virt. eigenvalues --    3.32627   3.33052   3.33359   3.33747   3.34532
  Beta virt. eigenvalues --    3.34877   3.35421   3.36137   3.37899   3.38581
  Beta virt. eigenvalues --    3.38982   3.39285   3.41884   3.43742   3.43764
  Beta virt. eigenvalues --    3.44926   3.45759   3.46418   3.46856   3.47125
  Beta virt. eigenvalues --    3.48171   3.48837   3.49180   3.49487   3.51209
  Beta virt. eigenvalues --    3.51464   3.51795   3.53415   3.53949   3.54150
  Beta virt. eigenvalues --    3.54790   3.55605   3.59617   3.59761   3.61434
  Beta virt. eigenvalues --    3.63260   3.64576   3.64612   3.64865   3.64979
  Beta virt. eigenvalues --    3.67801   3.68558   3.69993   3.71574   3.71761
  Beta virt. eigenvalues --    3.73821   3.76221   3.76358   3.78041   3.78486
  Beta virt. eigenvalues --    3.84121   3.84722   3.85189   3.86232   3.86416
  Beta virt. eigenvalues --    3.87755   3.89322   3.90150   3.92548   3.93625
  Beta virt. eigenvalues --    3.94110   3.95404   3.99250   3.99268   4.01724
  Beta virt. eigenvalues --    4.04022   4.08186   4.09203   4.09308   4.10788
  Beta virt. eigenvalues --    4.11929   4.12723   4.13243   4.15801   4.18217
  Beta virt. eigenvalues --    4.19300   4.20211   4.21873   4.22716   4.22976
  Beta virt. eigenvalues --    4.24892   4.27076   4.30992   4.31148   4.33417
  Beta virt. eigenvalues --    4.35522   4.36867   4.37353   4.39355   4.39886
  Beta virt. eigenvalues --    4.43718   4.45148   4.45609   4.47254   4.48514
  Beta virt. eigenvalues --    4.48544   4.59181   4.60590   4.61525   4.64627
  Beta virt. eigenvalues --    4.69305   4.69563   4.71579   4.73445   4.74253
  Beta virt. eigenvalues --    4.74921   4.76874   4.77956   4.79421   4.82101
  Beta virt. eigenvalues --    4.83770   4.84469   4.89082   4.89173   4.94310
  Beta virt. eigenvalues --    4.94500   4.95159   4.96976   5.05347   5.08510
  Beta virt. eigenvalues --    5.09496   5.10914   5.17965   5.19025   5.23162
  Beta virt. eigenvalues --    5.23854   5.29120   5.31650   5.39747   5.40288
  Beta virt. eigenvalues --    5.43523   5.44799   5.48141   5.48743   5.66277
  Beta virt. eigenvalues --    5.70042   5.74763   5.76464   5.91611   5.96960
  Beta virt. eigenvalues --    7.94175   7.95822   8.02161   8.02256   8.05981
  Beta virt. eigenvalues --    8.07384   8.11153   8.11212   8.17355   8.18224
  Beta virt. eigenvalues --    8.33620   8.35846  34.76325  34.77931  34.81081
  Beta virt. eigenvalues --   34.82089  34.84844  34.87129  34.97468  34.97870
  Beta virt. eigenvalues --   35.00374  35.01401  35.15326  35.18481
          Condensed to atoms (all electrons):
               1          2          3          4          5          6
     1  C    5.144208   0.010435   0.421653  -0.001808   0.000161  -0.002918
     2  C    0.010435   5.249637  -0.001692   0.423443  -0.017462  -0.038828
     3  H    0.421653  -0.001692   0.490574   0.000028  -0.000040  -0.000040
     4  H   -0.001808   0.423443   0.000028   0.473386  -0.001232   0.001192
     5  C    0.000161  -0.017462  -0.000040  -0.001232   5.103334   0.538365
     6  C   -0.002918  -0.038828  -0.000040   0.001192   0.538365   5.250503
     7  H    0.000197  -0.000753  -0.000000  -0.000049   0.422568  -0.027353
     8  H   -0.000470   0.001204   0.000006  -0.000013  -0.040698   0.423384
     9  C    0.000877   0.000375  -0.000002  -0.000674  -0.071749   0.258376
    10  H   -0.000015  -0.000252  -0.000001  -0.000038  -0.003125  -0.034580
    11  H   -0.000014  -0.001184  -0.000000   0.000029   0.007631  -0.051464
    12  C   -0.000077   0.005869   0.000002   0.000746   0.308934  -0.073245
    13  H   -0.000001   0.000021   0.000000  -0.000007  -0.033341   0.003938
    14  C    0.000107  -0.002918  -0.000000  -0.000452  -0.064456   0.010498
    15  H   -0.000000  -0.000040  -0.000000   0.000006   0.006426  -0.001690
    16  C   -0.000508   0.006690  -0.000001   0.000541   0.008626  -0.071366
    17  H   -0.000074  -0.001507  -0.000001  -0.000479   0.010286  -0.001695
    18  H    0.000001   0.000593   0.000000   0.000088  -0.002784   0.011223
    19  C   -0.064413   0.538711   0.006424  -0.040787   0.000090  -0.017500
    20  H    0.003226  -0.027013  -0.000096  -0.004768   0.000109  -0.000755
    21  C    0.581625  -0.073154  -0.030647   0.005383   0.000417   0.005891
    22  H   -0.023605   0.004002  -0.005313  -0.000062   0.000008   0.000022
    23  C   -0.083379   0.258481   0.004636  -0.014164   0.002053   0.000392
    24  H    0.012894  -0.051452  -0.000095  -0.003966   0.002461  -0.001185
    25  H    0.004731  -0.034624  -0.000004  -0.000177   0.000212  -0.000253
    26  C    0.279532  -0.071211  -0.026775   0.003630  -0.001617   0.006702
    27  H   -0.039668   0.011212  -0.004493  -0.000103   0.000345   0.000592
    28  H   -0.036256  -0.001690   0.001065  -0.000125  -0.002038  -0.001520
               7          8          9         10         11         12
     1  C    0.000197  -0.000470   0.000877  -0.000015  -0.000014  -0.000077
     2  C   -0.000753   0.001204   0.000375  -0.000252  -0.001184   0.005869
     3  H   -0.000000   0.000006  -0.000002  -0.000001  -0.000000   0.000002
     4  H   -0.000049  -0.000013  -0.000674  -0.000038   0.000029   0.000746
     5  C    0.422568  -0.040698  -0.071749  -0.003125   0.007631   0.308934
     6  C   -0.027353   0.423384   0.258376  -0.034580  -0.051464  -0.073245
     7  H    0.478847  -0.004756   0.002965  -0.000265  -0.000031  -0.028028
     8  H   -0.004756   0.472914  -0.014100  -0.000179  -0.003963   0.005371
     9  C    0.002965  -0.014100   4.940378   0.386029   0.448675   0.036662
    10  H   -0.000265  -0.000179   0.386029   0.569264  -0.019959   0.001513
    11  H   -0.000031  -0.003963   0.448675  -0.019959   0.536519  -0.003968
    12  C   -0.028028   0.005371   0.036662   0.001513  -0.003968   5.004238
    13  H   -0.003007  -0.000062  -0.000203  -0.000055   0.000027   0.422501
    14  C    0.003179  -0.001801  -0.083520   0.004745   0.012897   0.581396
    15  H   -0.000096   0.000028   0.004639  -0.000004  -0.000095  -0.030706
    16  C   -0.000576   0.003616   0.362211  -0.025666  -0.051186  -0.064834
    17  H    0.000028  -0.000125  -0.035785   0.007031  -0.007752  -0.014519
    18  H    0.000028  -0.000103  -0.045136  -0.007420  -0.001553   0.006397
    19  C    0.000110  -0.001233   0.001999   0.000210   0.002514   0.000422
    20  H    0.000006  -0.000049   0.001129   0.000065  -0.000379  -0.000078
    21  C   -0.000079   0.000748  -0.000051   0.000020  -0.000343  -0.000226
    22  H   -0.000000  -0.000006  -0.000027  -0.000001   0.000001  -0.000000
    23  C    0.001139  -0.000679  -0.000020  -0.000004   0.000016  -0.000038
    24  H   -0.000381   0.000030   0.000018   0.000003  -0.000011  -0.000339
    25  H    0.000065  -0.000038  -0.000004   0.000001   0.000003   0.000020
    26  C   -0.000951   0.000544  -0.000501   0.000033  -0.000004   0.000463
    27  H   -0.000016   0.000088  -0.000021   0.000001  -0.000001  -0.000048
    28  H    0.001200  -0.000499   0.000289  -0.000007   0.000027   0.000587
              13         14         15         16         17         18
     1  C   -0.000001   0.000107  -0.000000  -0.000508  -0.000074   0.000001
     2  C    0.000021  -0.002918  -0.000040   0.006690  -0.001507   0.000593
     3  H    0.000000  -0.000000  -0.000000  -0.000001  -0.000001   0.000000
     4  H   -0.000007  -0.000452   0.000006   0.000541  -0.000479   0.000088
     5  C   -0.033341  -0.064456   0.006426   0.008626   0.010286  -0.002784
     6  C    0.003938   0.010498  -0.001690  -0.071366  -0.001695   0.011223
     7  H   -0.003007   0.003179  -0.000096  -0.000576   0.000028   0.000028
     8  H   -0.000062  -0.001801   0.000028   0.003616  -0.000125  -0.000103
     9  C   -0.000203  -0.083520   0.004639   0.362211  -0.035785  -0.045136
    10  H   -0.000055   0.004745  -0.000004  -0.025666   0.007031  -0.007420
    11  H    0.000027   0.012897  -0.000095  -0.051186  -0.007752  -0.001553
    12  C    0.422501   0.581396  -0.030706  -0.064834  -0.014519   0.006397
    13  H    0.487812  -0.023880  -0.005317   0.003695  -0.000354  -0.000091
    14  C   -0.023880   5.144393   0.421693   0.279610  -0.036234  -0.039662
    15  H   -0.005317   0.421693   0.490589  -0.026772   0.001066  -0.004492
    16  C    0.003695   0.279610  -0.026772   4.926073   0.400802   0.437402
    17  H   -0.000354  -0.036234   0.001066   0.400802   0.589954  -0.021227
    18  H   -0.000091  -0.039662  -0.004492   0.437402  -0.021227   0.538045
    19  C    0.000008   0.000156  -0.000041  -0.001585  -0.002062   0.000346
    20  H   -0.000000   0.000196  -0.000000  -0.000945   0.001197  -0.000016
    21  C   -0.000000  -0.000077   0.000002   0.000466   0.000588  -0.000048
    22  H    0.000000  -0.000001   0.000000   0.000008  -0.000003  -0.000001
    23  C   -0.000027   0.000874  -0.000002  -0.000503   0.000288  -0.000021
    24  H    0.000002  -0.000015  -0.000000  -0.000003   0.000027  -0.000001
    25  H   -0.000001  -0.000015  -0.000001   0.000033  -0.000008   0.000001
    26  C    0.000008  -0.000508  -0.000001   0.000962   0.000130  -0.000001
    27  H   -0.000001   0.000001   0.000000  -0.000001   0.000003  -0.000000
    28  H   -0.000003  -0.000073  -0.000001   0.000129  -0.000026   0.000003
              19         20         21         22         23         24
     1  C   -0.064413   0.003226   0.581625  -0.023605  -0.083379   0.012894
     2  C    0.538711  -0.027013  -0.073154   0.004002   0.258481  -0.051452
     3  H    0.006424  -0.000096  -0.030647  -0.005313   0.004636  -0.000095
     4  H   -0.040787  -0.004768   0.005383  -0.000062  -0.014164  -0.003966
     5  C    0.000090   0.000109   0.000417   0.000008   0.002053   0.002461
     6  C   -0.017500  -0.000755   0.005891   0.000022   0.000392  -0.001185
     7  H    0.000110   0.000006  -0.000079  -0.000000   0.001139  -0.000381
     8  H   -0.001233  -0.000049   0.000748  -0.000006  -0.000679   0.000030
     9  C    0.001999   0.001129  -0.000051  -0.000027  -0.000020   0.000018
    10  H    0.000210   0.000065   0.000020  -0.000001  -0.000004   0.000003
    11  H    0.002514  -0.000379  -0.000343   0.000001   0.000016  -0.000011
    12  C    0.000422  -0.000078  -0.000226  -0.000000  -0.000038  -0.000339
    13  H    0.000008  -0.000000  -0.000000   0.000000  -0.000027   0.000002
    14  C    0.000156   0.000196  -0.000077  -0.000001   0.000874  -0.000015
    15  H   -0.000041  -0.000000   0.000002   0.000000  -0.000002  -0.000000
    16  C   -0.001585  -0.000945   0.000466   0.000008  -0.000503  -0.000003
    17  H   -0.002062   0.001197   0.000588  -0.000003   0.000288   0.000027
    18  H    0.000346  -0.000016  -0.000048  -0.000001  -0.000021  -0.000001
    19  C    5.103272   0.422292   0.308825  -0.033468  -0.071836   0.007629
    20  H    0.422292   0.478848  -0.028170  -0.003013   0.002962  -0.000032
    21  C    0.308825  -0.028170   5.004124   0.422274   0.036571  -0.003964
    22  H   -0.033468  -0.003013   0.422274   0.487703  -0.000204   0.000027
    23  C   -0.071836   0.002962   0.036571  -0.000204   4.940658   0.448789
    24  H    0.007629  -0.000032  -0.003964   0.000027   0.448789   0.536315
    25  H   -0.003096  -0.000265   0.001524  -0.000055   0.385989  -0.019944
    26  C    0.008533  -0.000582  -0.064879   0.003697   0.361916  -0.051220
    27  H   -0.002774   0.000028   0.006399  -0.000091  -0.045108  -0.001555
    28  H    0.010265   0.000028  -0.014468  -0.000353  -0.035852  -0.007734
              25         26         27         28
     1  C    0.004731   0.279532  -0.039668  -0.036256
     2  C   -0.034624  -0.071211   0.011212  -0.001690
     3  H   -0.000004  -0.026775  -0.004493   0.001065
     4  H   -0.000177   0.003630  -0.000103  -0.000125
     5  C    0.000212  -0.001617   0.000345  -0.002038
     6  C   -0.000253   0.006702   0.000592  -0.001520
     7  H    0.000065  -0.000951  -0.000016   0.001200
     8  H   -0.000038   0.000544   0.000088  -0.000499
     9  C   -0.000004  -0.000501  -0.000021   0.000289
    10  H    0.000001   0.000033   0.000001  -0.000007
    11  H    0.000003  -0.000004  -0.000001   0.000027
    12  C    0.000020   0.000463  -0.000048   0.000587
    13  H   -0.000001   0.000008  -0.000001  -0.000003
    14  C   -0.000015  -0.000508   0.000001  -0.000073
    15  H   -0.000001  -0.000001   0.000000  -0.000001
    16  C    0.000033   0.000962  -0.000001   0.000129
    17  H   -0.000008   0.000130   0.000003  -0.000026
    18  H    0.000001  -0.000001  -0.000000   0.000003
    19  C   -0.003096   0.008533  -0.002774   0.010265
    20  H   -0.000265  -0.000582   0.000028   0.000028
    21  C    0.001524  -0.064879   0.006399  -0.014468
    22  H   -0.000055   0.003697  -0.000091  -0.000353
    23  C    0.385989   0.361916  -0.045108  -0.035852
    24  H   -0.019944  -0.051220  -0.001555  -0.007734
    25  H    0.569280  -0.025632  -0.007423   0.007028
    26  C   -0.025632   4.926648   0.437372   0.400935
    27  H   -0.007423   0.437372   0.537993  -0.021243
    28  H    0.007028   0.400935  -0.021243   0.589765
          Atomic-Atomic Spin Densities.
               1          2          3          4          5          6
     1  C   -0.000001  -0.000000   0.000000   0.000000   0.000000  -0.000000
     2  C   -0.000000   0.000000   0.000000   0.000000  -0.000000  -0.000000
     3  H    0.000000   0.000000   0.000000  -0.000000  -0.000000   0.000000
     4  H    0.000000   0.000000  -0.000000   0.000000   0.000000  -0.000000
     5  C    0.000000  -0.000000  -0.000000   0.000000  -0.000001   0.000000
     6  C   -0.000000  -0.000000   0.000000  -0.000000   0.000000   0.000000
     7  H   -0.000000   0.000000   0.000000  -0.000000  -0.000000  -0.000000
     8  H    0.000000   0.000000  -0.000000  -0.000000  -0.000000  -0.000000
     9  C   -0.000000   0.000000  -0.000000  -0.000000   0.000000   0.000000
    10  H   -0.000000  -0.000000  -0.000000   0.000000  -0.000000   0.000000
    11  H    0.000000  -0.000000   0.000000   0.000000   0.000000  -0.000000
    12  C   -0.000000   0.000000   0.000000  -0.000000   0.000000  -0.000000
    13  H    0.000000   0.000000   0.000000  -0.000000   0.000000  -0.000000
    14  C   -0.000000   0.000000  -0.000000  -0.000000   0.000000   0.000000
    15  H    0.000000  -0.000000   0.000000   0.000000  -0.000000  -0.000000
    16  C   -0.000000   0.000000   0.000000   0.000000  -0.000000  -0.000000
    17  H   -0.000000  -0.000000  -0.000000   0.000000   0.000000   0.000000
    18  H   -0.000000   0.000000  -0.000000   0.000000   0.000000  -0.000000
    19  C    0.000000  -0.000000   0.000000   0.000000  -0.000000   0.000000
    20  H   -0.000000   0.000000   0.000000   0.000000  -0.000000  -0.000000
    21  C    0.000000  -0.000000  -0.000000  -0.000000   0.000000  -0.000000
    22  H   -0.000000   0.000000  -0.000000  -0.000000   0.000000  -0.000000
    23  C   -0.000000  -0.000000   0.000000  -0.000000  -0.000000  -0.000000
    24  H   -0.000000   0.000000  -0.000000   0.000000   0.000000   0.000000
    25  H   -0.000000  -0.000000   0.000000   0.000000  -0.000000   0.000000
    26  C    0.000000   0.000000  -0.000000  -0.000000   0.000000  -0.000000
    27  H    0.000000   0.000000  -0.000000   0.000000   0.000000   0.000000
    28  H    0.000000   0.000000  -0.000000   0.000000  -0.000000   0.000000
               7          8          9         10         11         12
     1  C   -0.000000   0.000000  -0.000000  -0.000000   0.000000  -0.000000
     2  C    0.000000   0.000000   0.000000  -0.000000  -0.000000   0.000000
     3  H    0.000000  -0.000000  -0.000000  -0.000000   0.000000   0.000000
     4  H   -0.000000  -0.000000  -0.000000   0.000000   0.000000  -0.000000
     5  C   -0.000000  -0.000000   0.000000  -0.000000   0.000000   0.000000
     6  C   -0.000000  -0.000000   0.000000   0.000000  -0.000000  -0.000000
     7  H    0.000000  -0.000000   0.000000  -0.000000  -0.000000  -0.000000
     8  H   -0.000000  -0.000000   0.000000  -0.000000   0.000000   0.000000
     9  C    0.000000   0.000000  -0.000001  -0.000000   0.000000  -0.000000
    10  H   -0.000000  -0.000000  -0.000000   0.000000  -0.000000   0.000000
    11  H   -0.000000   0.000000   0.000000  -0.000000   0.000000  -0.000000
    12  C   -0.000000   0.000000  -0.000000   0.000000  -0.000000   0.000000
    13  H    0.000000   0.000000   0.000000  -0.000000  -0.000000  -0.000000
    14  C    0.000000   0.000000   0.000000   0.000000   0.000000  -0.000000
    15  H   -0.000000   0.000000  -0.000000  -0.000000   0.000000   0.000000
    16  C   -0.000000   0.000000   0.000000  -0.000000  -0.000000   0.000000
    17  H   -0.000000  -0.000000   0.000000   0.000000  -0.000000   0.000000
    18  H    0.000000  -0.000000   0.000000   0.000000  -0.000000  -0.000000
    19  C    0.000000  -0.000000   0.000000   0.000000  -0.000000  -0.000000
    20  H    0.000000   0.000000  -0.000000  -0.000000   0.000000   0.000000
    21  C   -0.000000   0.000000  -0.000000   0.000000   0.000000  -0.000000
    22  H    0.000000  -0.000000  -0.000000  -0.000000   0.000000   0.000000
    23  C    0.000000   0.000000  -0.000000   0.000000   0.000000   0.000000
    24  H   -0.000000  -0.000000  -0.000000   0.000000  -0.000000  -0.000000
    25  H    0.000000  -0.000000   0.000000  -0.000000  -0.000000  -0.000000
    26  C   -0.000000  -0.000000   0.000000   0.000000  -0.000000  -0.000000
    27  H   -0.000000  -0.000000  -0.000000   0.000000  -0.000000  -0.000000
    28  H    0.000000  -0.000000   0.000000   0.000000  -0.000000  -0.000000
              13         14         15         16         17         18
     1  C    0.000000  -0.000000   0.000000  -0.000000  -0.000000  -0.000000
     2  C    0.000000   0.000000  -0.000000   0.000000  -0.000000   0.000000
     3  H    0.000000  -0.000000   0.000000   0.000000  -0.000000  -0.000000
     4  H   -0.000000  -0.000000   0.000000   0.000000   0.000000   0.000000
     5  C    0.000000   0.000000  -0.000000  -0.000000   0.000000   0.000000
     6  C   -0.000000   0.000000  -0.000000  -0.000000   0.000000  -0.000000
     7  H    0.000000   0.000000  -0.000000  -0.000000  -0.000000   0.000000
     8  H    0.000000   0.000000   0.000000   0.000000  -0.000000  -0.000000
     9  C    0.000000   0.000000  -0.000000   0.000000   0.000000   0.000000
    10  H   -0.000000   0.000000  -0.000000  -0.000000   0.000000   0.000000
    11  H   -0.000000   0.000000   0.000000  -0.000000  -0.000000  -0.000000
    12  C   -0.000000  -0.000000   0.000000   0.000000   0.000000  -0.000000
    13  H   -0.000000   0.000000   0.000000  -0.000000  -0.000000   0.000000
    14  C    0.000000   0.000000  -0.000000  -0.000000   0.000000  -0.000000
    15  H    0.000000  -0.000000  -0.000000  -0.000000   0.000000   0.000000
    16  C   -0.000000  -0.000000  -0.000000   0.000001  -0.000000  -0.000000
    17  H   -0.000000   0.000000   0.000000  -0.000000   0.000000   0.000000
    18  H    0.000000  -0.000000   0.000000  -0.000000   0.000000  -0.000000
    19  C   -0.000000   0.000000   0.000000  -0.000000   0.000000  -0.000000
    20  H   -0.000000   0.000000  -0.000000   0.000000  -0.000000   0.000000
    21  C   -0.000000   0.000000  -0.000000   0.000000   0.000000   0.000000
    22  H    0.000000  -0.000000  -0.000000   0.000000  -0.000000   0.000000
    23  C    0.000000   0.000000   0.000000  -0.000000  -0.000000   0.000000
    24  H   -0.000000  -0.000000  -0.000000   0.000000   0.000000   0.000000
    25  H    0.000000   0.000000   0.000000  -0.000000  -0.000000  -0.000000
    26  C   -0.000000   0.000000  -0.000000  -0.000000   0.000000   0.000000
    27  H   -0.000000   0.000000  -0.000000  -0.000000   0.000000   0.000000
    28  H    0.000000   0.000000   0.000000  -0.000000   0.000000  -0.000000
              19         20         21         22         23         24
     1  C    0.000000  -0.000000   0.000000  -0.000000  -0.000000  -0.000000
     2  C   -0.000000   0.000000  -0.000000   0.000000  -0.000000   0.000000
     3  H    0.000000   0.000000  -0.000000  -0.000000   0.000000  -0.000000
     4  H    0.000000   0.000000  -0.000000  -0.000000  -0.000000   0.000000
     5  C   -0.000000  -0.000000   0.000000   0.000000  -0.000000   0.000000
     6  C    0.000000  -0.000000  -0.000000  -0.000000  -0.000000   0.000000
     7  H    0.000000   0.000000  -0.000000   0.000000   0.000000  -0.000000
     8  H   -0.000000   0.000000   0.000000  -0.000000   0.000000  -0.000000
     9  C    0.000000  -0.000000  -0.000000  -0.000000  -0.000000  -0.000000
    10  H    0.000000  -0.000000   0.000000  -0.000000   0.000000   0.000000
    11  H   -0.000000   0.000000   0.000000   0.000000   0.000000  -0.000000
    12  C   -0.000000   0.000000  -0.000000   0.000000   0.000000  -0.000000
    13  H   -0.000000  -0.000000  -0.000000   0.000000   0.000000  -0.000000
    14  C    0.000000   0.000000   0.000000  -0.000000   0.000000  -0.000000
[...]
              25         26         27         28
     1  C   -0.000000   0.000000   0.000000   0.000000
     2  C   -0.000000   0.000000   0.000000   0.000000
     3  H    0.000000  -0.000000  -0.000000   0.000000
     4  H    0.000000  -0.000000   0.000000   0.000000
     5  C   -0.000000   0.000000   0.000000  -0.000000
     6  C    0.000000  -0.000000   0.000000   0.000000
     7  H    0.000000  -0.000000  -0.000000   0.000000
     8  H   -0.000000  -0.000000  -0.000000  -0.000000
     9  C    0.000000   0.000000  -0.000000   0.000000
    10  H   -0.000000   0.000000   0.000000   0.000000
    11  H   -0.000000  -0.000000  -0.000000  -0.000000
    12  C    0.000000  -0.000000  -0.000000  -0.000000
    13  H    0.000000  -0.000000  -0.000000   0.000000
    14  C    0.000000   0.000000   0.000000   0.000000
    15  H    0.000000  -0.000000  -0.000000   0.000000
    16  C   -0.000000  -0.000000  -0.000000  -0.000000
    17  H   -0.000000   0.000000   0.000000   0.000000
    18  H   -0.000000   0.000000   0.000000  -0.000000
    19  C    0.000000   0.000000   0.000000  -0.000000
    20  H    0.000000   0.000000  -0.000000   0.000000
    21  C    0.000000  -0.000000   0.000000  -0.000000
    22  H    0.000000   0.000000  -0.000000   0.000000
    23  C    0.000000  -0.000000  -0.000000  -0.000000
    24  H    0.000000   0.000000   0.000000   0.000000
    25  H   -0.000000   0.000000   0.000000  -0.000000
    26  C    0.000000  -0.000000  -0.000000   0.000000
    27  H    0.000000  -0.000000   0.000000   0.000000
    28  H   -0.000000   0.000000   0.000000  -0.000000
 Mulliken charges and spin densities:
               1          2
     1  C   -0.203980  -0.000002
     2  C   -0.198105   0.000001
     3  H    0.148685   0.000000
     4  H    0.169135  -0.000000
     5  C   -0.189308  -0.000002
     6  C   -0.200502   0.000002
     7  H    0.167403   0.000000
     8  H    0.169029  -0.000000
     9  C   -0.203366  -0.000001
    10  H    0.130727   0.000000
    11  H    0.137526   0.000000
    12  C   -0.164316   0.000001
    13  H    0.152549  -0.000000
    14  C   -0.203058  -0.000001
    15  H    0.148747   0.000000
    16  C   -0.190806   0.000001
    17  H    0.112549  -0.000000
    18  H    0.132861  -0.000000
    19  C   -0.190058  -0.000001
    20  H    0.166504  -0.000000
    21  C   -0.163770   0.000001
    22  H    0.152243   0.000000
    23  C   -0.205135   0.000001
    24  H    0.138182  -0.000000
    25  H    0.130798  -0.000000
    26  C   -0.190149  -0.000000
    27  H    0.132436   0.000000
    28  H    0.113179  -0.000000
 Sum of Mulliken charges =  -0.00000  -0.00000
 Mulliken charges and spin densities with hydrogens summed into heavy atoms:
               1          2
     1  C   -0.055296  -0.000002
     2  C   -0.028970   0.000001
     5  C   -0.021905  -0.000001
     6  C   -0.031473   0.000001
     9  C    0.064887  -0.000000
    12  C   -0.011767   0.000001
    14  C   -0.054311  -0.000001
    16  C    0.054604   0.000000
    19  C   -0.023554  -0.000001
    21  C   -0.011527   0.000002
    23  C    0.063846   0.000000
    26  C    0.055466  -0.000000
 Electronic spatial extent (au):  <R**2>=           2358.7289
 Charge=             -0.0000 electrons
 Dipole moment (field-independent basis, Debye):
    X=             -0.0020    Y=              0.0075    Z=              0.0029  Tot=              0.0082
 Quadrupole moment (field-independent basis, Debye-Ang):
   XX=            -70.6638   YY=            -68.0440   ZZ=            -74.7899
   XY=             -3.2489   XZ=             -4.0182   YZ=             -1.6867
 Traceless Quadrupole moment (field-independent basis, Debye-Ang):
   XX=              0.5021   YY=              3.1219   ZZ=             -3.6240
   XY=             -3.2489   XZ=             -4.0182   YZ=             -1.6867
 Octapole moment (field-independent basis, Debye-Ang**2):
  XXX=             -0.0080  YYY=              0.0703  ZZZ=              0.0028  XYY=              0.0065
  XXY=              0.0085  XXZ=              0.0133  XZZ=             -0.0114  YZZ=              0.0106
  YYZ=              0.0262  XYZ=             -0.0008
 Hexadecapole moment (field-independent basis, Debye-Ang**3):
 XXXX=          -2083.1191 YYYY=           -608.0326 ZZZZ=           -461.8156 XXXY=           -121.9033
 XXXZ=           -183.5351 YYYX=            -70.8719 YYYZ=            -11.3869 ZZZX=           -123.2474
 ZZZY=            -25.6502 XXYY=           -441.5290 XXZZ=           -442.3776 YYZZ=           -193.4126
 XXYZ=            -27.9938 YYXZ=            -43.6139 ZZXY=            -48.8167
 N-N= 6.685397194395D+02 E-N=-2.419679562751D+03  KE= 4.642834272721D+02
                          Isotropic Fermi Contact Couplings
        Atom                 a.u.       MegaHertz       Gauss      10(-4) cm-1
     1  C(13)             -0.00000      -0.00013      -0.00005      -0.00004
     2  C(13)              0.00000       0.00006       0.00002       0.00002
     3  H(1)               0.00000       0.00007       0.00003       0.00002
     4  H(1)              -0.00000      -0.00002      -0.00001      -0.00001
     5  C(13)             -0.00000      -0.00025      -0.00009      -0.00008
     6  C(13)              0.00000       0.00016       0.00006       0.00005
     7  H(1)               0.00000       0.00028       0.00010       0.00009
     8  H(1)              -0.00000      -0.00012      -0.00004      -0.00004
     9  C(13)             -0.00000      -0.00026      -0.00009      -0.00009
    10  H(1)               0.00000       0.00018       0.00007       0.00006
    11  H(1)               0.00000       0.00015       0.00005       0.00005
    12  C(13)              0.00000       0.00021       0.00007       0.00007
    13  H(1)              -0.00000      -0.00024      -0.00009      -0.00008
    14  C(13)             -0.00000      -0.00009      -0.00003      -0.00003
    15  H(1)               0.00000       0.00007       0.00002       0.00002
    16  C(13)              0.00000       0.00018       0.00006       0.00006
    17  H(1)              -0.00000      -0.00013      -0.00005      -0.00004
    18  H(1)              -0.00000      -0.00008      -0.00003      -0.00003
    19  C(13)              0.00000       0.00003       0.00001       0.00001
    20  H(1)              -0.00000      -0.00017      -0.00006      -0.00006
    21  C(13)              0.00000       0.00002       0.00001       0.00001
    22  H(1)               0.00000       0.00013       0.00005       0.00004
    23  C(13)              0.00000       0.00017       0.00006       0.00006
    24  H(1)              -0.00000      -0.00009      -0.00003      -0.00003
    25  H(1)              -0.00000      -0.00001      -0.00000      -0.00000
    26  C(13)             -0.00000      -0.00008      -0.00003      -0.00003
    27  H(1)               0.00000       0.00001       0.00000       0.00000
    28  H(1)              -0.00000      -0.00005      -0.00002      -0.00002
 --------------------------------------------------------
       Center         ----  Spin Dipole Couplings  ----
                      3XX-RR        3YY-RR        3ZZ-RR
 --------------------------------------------------------
     1   Atom       -0.000000      0.000001     -0.000001
     2   Atom        0.000000     -0.000001      0.000001
     3   Atom       -0.000000      0.000000     -0.000000
     4   Atom        0.000000     -0.000000      0.000000
     5   Atom       -0.000000      0.000000     -0.000000
     6   Atom       -0.000000     -0.000001      0.000001
     7   Atom        0.000000     -0.000000      0.000000
     8   Atom        0.000000     -0.000000     -0.000000
     9   Atom       -0.000000      0.000000     -0.000000
    10   Atom        0.000000      0.000000     -0.000000
    11   Atom       -0.000000     -0.000000      0.000000
    12   Atom        0.000000     -0.000000     -0.000000
    13   Atom       -0.000000      0.000000     -0.000000
    14   Atom        0.000001      0.000001     -0.000001
    15   Atom       -0.000000      0.000000      0.000000
    16   Atom        0.000000     -0.000000      0.000000
    17   Atom        0.000000     -0.000000      0.000000
    18   Atom        0.000000     -0.000000     -0.000000
    19   Atom        0.000000      0.000001     -0.000001
    20   Atom       -0.000000      0.000000     -0.000000
    21   Atom       -0.000000     -0.000001      0.000002
    22   Atom       -0.000000     -0.000000      0.000000
    23   Atom        0.000000     -0.000000      0.000000
    24   Atom       -0.000000      0.000000     -0.000000
    25   Atom       -0.000000     -0.000000      0.000000
    26   Atom       -0.000000      0.000000     -0.000000
    27   Atom        0.000000     -0.000000      0.000000
    28   Atom        0.000000     -0.000000      0.000000
 --------------------------------------------------------
                        XY            XZ            YZ
 --------------------------------------------------------
     1   Atom        0.000000     -0.000002      0.000000
     2   Atom        0.000000      0.000001      0.000000
     3   Atom       -0.000000      0.000000      0.000000
     4   Atom        0.000000     -0.000000      0.000000
     5   Atom       -0.000000     -0.000001     -0.000000
     6   Atom        0.000000      0.000001      0.000000
     7   Atom        0.000000     -0.000000     -0.000000
     8   Atom        0.000000     -0.000000      0.000000
     9   Atom       -0.000000      0.000000     -0.000000
    10   Atom       -0.000000     -0.000000      0.000000
    11   Atom       -0.000000     -0.000000     -0.000000
    12   Atom        0.000000      0.000001     -0.000000
    13   Atom        0.000000      0.000000     -0.000000
    14   Atom       -0.000000     -0.000001      0.000000
    15   Atom       -0.000000      0.000000     -0.000000
    16   Atom       -0.000000     -0.000000     -0.000000
    17   Atom       -0.000000      0.000000      0.000000
    18   Atom       -0.000000      0.000000     -0.000000
    19   Atom       -0.000000     -0.000001     -0.000000
    20   Atom        0.000000     -0.000000      0.000000
    21   Atom       -0.000000      0.000001      0.000000
    22   Atom        0.000000      0.000000     -0.000000
    23   Atom        0.000000     -0.000000      0.000000
    24   Atom        0.000000      0.000000      0.000000
    25   Atom       -0.000000      0.000000     -0.000000
    26   Atom        0.000000      0.000000      0.000000
    27   Atom        0.000000     -0.000000      0.000000
    28   Atom       -0.000000     -0.000000     -0.000000
 --------------------------------------------------------


 ---------------------------------------------------------------------------------
              Anisotropic Spin Dipole Couplings in Principal Axis System
 ---------------------------------------------------------------------------------

       Atom             a.u.   MegaHertz   Gauss  10(-4) cm-1        Axes

              Baa    -0.0000    -0.000    -0.000    -0.000  0.6537 -0.0843  0.7521
     1 C(13)  Bbb     0.0000     0.000     0.000     0.000  0.6224  0.6252 -0.4709
              Bcc     0.0000     0.000     0.000     0.000 -0.4305  0.7759  0.4611
 
              Baa    -0.0000    -0.000    -0.000    -0.000  0.7099 -0.5757 -0.4057
     2 C(13)  Bbb    -0.0000    -0.000    -0.000    -0.000  0.3436  0.7859 -0.5141
              Bcc     0.0000     0.000     0.000     0.000  0.6148  0.2255  0.7557
 
              Baa    -0.0000    -0.000    -0.000    -0.000 -0.5660 -0.1535  0.8100
     3 H(1)   Bbb     0.0000     0.000     0.000     0.000  0.8200 -0.0032  0.5724
              Bcc     0.0000     0.000     0.000     0.000 -0.0853  0.9881  0.1277
 
              Baa    -0.0000    -0.000    -0.000    -0.000 -0.1215  0.9752 -0.1849
     4 H(1)   Bbb    -0.0000    -0.000    -0.000    -0.000  0.8268  0.2026  0.5248
              Bcc     0.0000     0.000     0.000     0.000 -0.5493  0.0891  0.8309
 
              Baa    -0.0000    -0.000    -0.000    -0.000  0.6606  0.2604  0.7041
     5 C(13)  Bbb     0.0000     0.000     0.000     0.000 -0.5155  0.8392  0.1733
              Bcc     0.0000     0.000     0.000     0.000 -0.5458 -0.4775  0.6886
 
              Baa    -0.0000    -0.000    -0.000    -0.000  0.5670  0.7323 -0.3771
     6 C(13)  Bbb    -0.0000    -0.000    -0.000    -0.000  0.7388 -0.6546 -0.1603
              Bcc     0.0000     0.000     0.000     0.000  0.3642  0.1877  0.9122
 
              Baa    -0.0000    -0.000    -0.000    -0.000 -0.5372  0.8098  0.2359
     7 H(1)   Bbb     0.0000     0.000     0.000     0.000  0.5989  0.1694  0.7827
              Bcc     0.0000     0.000     0.000     0.000  0.5938  0.5618 -0.5760
 
              Baa    -0.0000    -0.000    -0.000    -0.000 -0.1222  0.9896 -0.0764
     8 H(1)   Bbb    -0.0000    -0.000    -0.000    -0.000  0.2749  0.1078  0.9554
              Bcc     0.0000     0.000     0.000     0.000  0.9537  0.0958 -0.2852
 
              Baa    -0.0000    -0.000    -0.000    -0.000  0.7597  0.1697 -0.6278
     9 C(13)  Bbb     0.0000     0.000     0.000     0.000  0.4256  0.6001  0.6773
              Bcc     0.0000     0.000     0.000     0.000 -0.4917  0.7817 -0.3837
 
              Baa    -0.0000    -0.000    -0.000    -0.000  0.4152 -0.0977  0.9045
    10 H(1)   Bbb     0.0000     0.000     0.000     0.000  0.7990  0.5145 -0.3113
              Bcc     0.0000     0.000     0.000     0.000 -0.4350  0.8519  0.2917
 
              Baa    -0.0000    -0.000    -0.000    -0.000  0.6582  0.7502  0.0625
    11 H(1)   Bbb     0.0000     0.000     0.000     0.000 -0.2110  0.1042  0.9719
              Bcc     0.0000     0.000     0.000     0.000  0.7227 -0.6529  0.2269
 
              Baa    -0.0000    -0.000    -0.000    -0.000 -0.5915  0.3625  0.7203
    12 C(13)  Bbb    -0.0000    -0.000    -0.000    -0.000  0.2652  0.9310 -0.2508
              Bcc     0.0000     0.000     0.000     0.000  0.7615 -0.0426  0.6468
 
              Baa    -0.0000    -0.000    -0.000    -0.000  0.6580 -0.4473 -0.6057
    13 H(1)   Bbb    -0.0000    -0.000    -0.000    -0.000  0.6806  0.0091  0.7326
              Bcc     0.0000     0.000     0.000     0.000  0.3222  0.8943 -0.3104
 
              Baa    -0.0000    -0.000    -0.000    -0.000  0.3074  0.0041  0.9516
    14 C(13)  Bbb     0.0000     0.000     0.000     0.000  0.4440  0.8838 -0.1473
              Bcc     0.0000     0.000     0.000     0.000  0.8416 -0.4678 -0.2699
 
              Baa    -0.0000    -0.000    -0.000    -0.000  0.9914  0.0781 -0.1054
    15 H(1)   Bbb     0.0000     0.000     0.000     0.000  0.1011  0.0579  0.9932
              Bcc     0.0000     0.000     0.000     0.000 -0.0837  0.9953 -0.0495
 
              Baa    -0.0000    -0.000    -0.000    -0.000  0.3966  0.8487  0.3498
    16 C(13)  Bbb    -0.0000    -0.000    -0.000    -0.000  0.6266 -0.5288  0.5725
              Bcc     0.0000     0.000     0.000     0.000 -0.6709  0.0079  0.7415
 
              Baa    -0.0000    -0.000    -0.000    -0.000  0.3108  0.8797 -0.3599
    17 H(1)   Bbb     0.0000     0.000     0.000     0.000  0.8586 -0.4223 -0.2907
              Bcc     0.0000     0.000     0.000     0.000  0.4077  0.2186  0.8866
 
              Baa    -0.0000    -0.000    -0.000    -0.000  0.6098  0.7752  0.1649
    18 H(1)   Bbb    -0.0000    -0.000    -0.000    -0.000 -0.2211 -0.0334  0.9747
              Bcc     0.0000     0.000     0.000     0.000  0.7611 -0.6308  0.1511
 
              Baa    -0.0000    -0.000    -0.000    -0.000  0.3301  0.1054  0.9380
    19 C(13)  Bbb     0.0000     0.000     0.000     0.000  0.8787  0.3288 -0.3461
              Bcc     0.0000     0.000     0.000     0.000 -0.3449  0.9385  0.0160
 
              Baa    -0.0000    -0.000    -0.000    -0.000  0.5844 -0.0417  0.8104
    20 H(1)   Bbb     0.0000     0.000     0.000     0.000  0.7856 -0.2211 -0.5779
              Bcc     0.0000     0.000     0.000     0.000  0.2033  0.9744 -0.0964
 
              Baa    -0.0000    -0.000    -0.000    -0.000  0.1460  0.9877 -0.0562
    21 C(13)  Bbb    -0.0000    -0.000    -0.000    -0.000  0.9133 -0.1564 -0.3760
              Bcc     0.0000     0.000     0.000     0.000  0.3802 -0.0036  0.9249
 
              Baa    -0.0000    -0.000    -0.000    -0.000  0.7154 -0.6283 -0.3057
    22 H(1)   Bbb     0.0000     0.000     0.000     0.000  0.3530  0.7026 -0.6179
              Bcc     0.0000     0.000     0.000     0.000  0.6030  0.3341  0.7244
 
              Baa    -0.0000    -0.000    -0.000    -0.000 -0.3904  0.8705 -0.2997
    23 C(13)  Bbb     0.0000     0.000     0.000     0.000  0.4789  0.4700  0.7414
              Bcc     0.0000     0.000     0.000     0.000  0.7863  0.1459 -0.6004
 
              Baa    -0.0000    -0.000    -0.000    -0.000  0.4672 -0.3147  0.8263
    24 H(1)   Bbb    -0.0000    -0.000    -0.000    -0.000  0.7644 -0.3259 -0.5563
              Bcc     0.0000     0.000     0.000     0.000  0.4443  0.8915  0.0883
 
              Baa    -0.0000    -0.000    -0.000    -0.000  0.7103  0.5890 -0.3854
    25 H(1)   Bbb    -0.0000    -0.000    -0.000    -0.000 -0.3319  0.7631  0.5545
              Bcc     0.0000     0.000     0.000     0.000  0.6207 -0.2659  0.7376
 
              Baa    -0.0000    -0.000    -0.000    -0.000 -0.6747 -0.0277  0.7376
    26 C(13)  Bbb     0.0000     0.000     0.000     0.000  0.6935 -0.3659  0.6206
              Bcc     0.0000     0.000     0.000     0.000  0.2527  0.9302  0.2661
 
              Baa    -0.0000    -0.000    -0.000    -0.000 -0.4180  0.8731 -0.2511
    27 H(1)   Bbb     0.0000     0.000     0.000     0.000  0.9052  0.4237 -0.0334
              Bcc     0.0000     0.000     0.000     0.000 -0.0772  0.2413  0.9674
 
              Baa    -0.0000    -0.000    -0.000    -0.000  0.6331  0.6786  0.3723
    28 H(1)   Bbb     0.0000     0.000     0.000     0.000 -0.1188 -0.3901  0.9131
              Bcc     0.0000     0.000     0.000     0.000  0.7649 -0.6223 -0.1664
 

 ---------------------------------------------------------------------------------

 No NMR shielding tensors so no spin-rotation constants.
 Leave Link  601 at Mon Aug  3 20:58:12 2020, MaxMem=  6442450944 cpu:               7.9 elap:               0.4
 (Enter /scratch/scicomp/CentOS/7.3.1611/Haswell/software/Gaussian/g16/l9999.exe)
 1\1\GINC-ATLAS-205\SP\UwB97XD\def2TZVP\C12H16\BOCHEN\03-Aug-2020\0\\#p
  uwb97xd guess=mix def2tzvp # scrf=(iefpcm,solvent=Cyclohexane,read) n
 osym 6d 10f\\endo-2 xp-pcm for eta=3\\0,1\C,0,-3.11503,-0.43856,0.2854
 45\C,0,-0.828832,-0.276745,-1.3806\H,0,-4.026619,-0.514692,0.866746\H,
 0,0.088953,-0.20593,-1.95195\C,0,1.23629,1.443298,0.887382\C,0,0.82883
 2,0.276745,1.3806\H,0,0.652342,2.342795,1.043029\H,0,-0.088953,0.20593
 ,1.95195\C,0,1.654704,-0.967003,1.216943\H,0,2.279712,-1.077701,2.1128
 93\H,0,1.007187,-1.844793,1.185737\C,0,2.487931,1.536308,0.13365\H,0,2
 .889851,2.517413,-0.089428\C,0,3.11503,0.43856,-0.285445\H,0,4.026619,
 0.514692,-0.866746\C,0,2.54072,-0.928204,-0.030413\H,0,1.955227,-1.223
 717,-0.909655\H,0,3.339904,-1.666148,0.059554\C,0,-1.23629,-1.443298,-
 0.887382\H,0,-0.652342,-2.342795,-1.043029\C,0,-2.487931,-1.536308,-0.
 13365\H,0,-2.889851,-2.517413,0.089428\C,0,-1.654704,0.967003,-1.21694
 3\H,0,-1.007187,1.844793,-1.185737\H,0,-2.279712,1.077701,-2.112893\C,
 0,-2.54072,0.928204,0.030413\H,0,-3.339904,1.666148,-0.059554\H,0,-1.9
 55227,1.223717,0.909655\\Version=ES64L-G16RevB.01\HF=-466.8114227\S2=0
 .\S2-1=0.\S2A=0.\RMSD=8.459e-09\Dipole=-0.0007864,0.0029373,0.0011218\
 Quadrupole=0.3733192,2.3210475,-2.6943667,-2.4154846,-2.9874592,-1.254
 0219\PG=CI [X(C12H16)]\\@


 ABALONE: AN EXPRESSION OF DISBELIEF.
 Job cpu time:       0 days  2 hours  5 minutes 34.9 seconds.
 Elapsed time:       0 days  0 hours  5 minutes 17.3 seconds.
 File lengths (MBytes):  RWF=    666 Int=      0 D2E=      0 Chk=     25 Scr=      1
 Normal termination of Gaussian 16 at Mon Aug  3 20:58:12 2020.
