 Entering Gaussian System, Link 0=g16
 Input=meso-TS_34_2_xp-Vc.com
 Output=meso-TS_34_2_xp-Vc.log
 Initial command:
 /scratch/scicomp/CentOS/7.3.1611/Haswell/software/Gaussian/g16/l1.exe "/scratch/bochen/cyclohexadiene-dimerization/wb97xd-def2tzvp/xp-pcm/meso/Gau-91314.inp" -scrdir="/scratch/bochen/cyclohexadiene-dimerization/wb97xd-def2tzvp/xp-pcm/meso/"
 Entering Link 1 = /scratch/scicomp/CentOS/7.3.1611/Haswell/software/Gaussian/g16/l1.exe PID=     91315.
  
 Copyright (c) 1988-2017, Gaussian, Inc.  All Rights Reserved.
  
 This is part of the Gaussian(R) 16 program.  It is based on
 the Gaussian(R) 09 system (copyright 2009, Gaussian, Inc.),
 the Gaussian(R) 03 system (copyright 2003, Gaussian, Inc.),
 the Gaussian(R) 98 system (copyright 1998, Gaussian, Inc.),
 the Gaussian(R) 94 system (copyright 1995, Gaussian, Inc.),
 the Gaussian 92(TM) system (copyright 1992, Gaussian, Inc.),
 the Gaussian 90(TM) system (copyright 1990, Gaussian, Inc.),
 the Gaussian 88(TM) system (copyright 1988, Gaussian, Inc.),
 the Gaussian 86(TM) system (copyright 1986, Carnegie Mellon
 University), and the Gaussian 82(TM) system (copyright 1983,
 Carnegie Mellon University). Gaussian is a federally registered
 trademark of Gaussian, Inc.
  
 This software contains proprietary and confidential information,
 including trade secrets, belonging to Gaussian, Inc.
  
 This software is provided under written license and may be
 used, copied, transmitted, or stored only in accord with that
 written license.
  
 The following legend is applicable only to US Government
 contracts under FAR:
  
                    RESTRICTED RIGHTS LEGEND
  
 Use, reproduction and disclosure by the US Government is
 subject to restrictions as set forth in subparagraphs (a)
 and (c) of the Commercial Computer Software - Restricted
 Rights clause in FAR 52.227-19.
  
 Gaussian, Inc.
 340 Quinnipiac St., Bldg. 40, Wallingford CT 06492
  
  
 ---------------------------------------------------------------
 Warning -- This program may not be used in any manner that
 competes with the business of Gaussian, Inc. or will provide
 assistance to any competitor of Gaussian, Inc.  The licensee
 of this program is prohibited from giving any competitor of
 Gaussian, Inc. access to this program.  By using this program,
 the user acknowledges that Gaussian, Inc. is engaged in the
 business of creating and licensing software in the field of
 computational chemistry and represents and warrants to the
 licensee that it is not a competitor of Gaussian, Inc. and that
 it will not use this program in any manner prohibited above.
 ---------------------------------------------------------------
  

 Cite this work as:
 Gaussian 16, Revision B.01,
 M. J. Frisch, G. W. Trucks, H. B. Schlegel, G. E. Scuseria, 
 M. A. Robb, J. R. Cheeseman, G. Scalmani, V. Barone, 
 G. A. Petersson, H. Nakatsuji, X. Li, M. Caricato, A. V. Marenich, 
 J. Bloino, B. G. Janesko, R. Gomperts, B. Mennucci, H. P. Hratchian, 
 J. V. Ortiz, A. F. Izmaylov, J. L. Sonnenberg, D. Williams-Young, 
 F. Ding, F. Lipparini, F. Egidi, J. Goings, B. Peng, A. Petrone, 
 T. Henderson, D. Ranasinghe, V. G. Zakrzewski, J. Gao, N. Rega, 
 G. Zheng, W. Liang, M. Hada, M. Ehara, K. Toyota, R. Fukuda, 
 J. Hasegawa, M. Ishida, T. Nakajima, Y. Honda, O. Kitao, H. Nakai, 
 T. Vreven, K. Throssell, J. A. Montgomery, Jr., J. E. Peralta, 
 F. Ogliaro, M. J. Bearpark, J. J. Heyd, E. N. Brothers, K. N. Kudin, 
 V. N. Staroverov, T. A. Keith, R. Kobayashi, J. Normand, 
 K. Raghavachari, A. P. Rendell, J. C. Burant, S. S. Iyengar, 
 J. Tomasi, M. Cossi, J. M. Millam, M. Klene, C. Adamo, R. Cammi, 
 J. W. Ochterski, R. L. Martin, K. Morokuma, O. Farkas, 
 J. B. Foresman, and D. J. Fox, Gaussian, Inc., Wallingford CT, 2016.
 
 ******************************************
 Gaussian 16:  ES64L-G16RevB.01 20-Dec-2017
                 3-Aug-2020 
 ******************************************
 %chk=meso-TS_34_2_xp-12.chk
 %nproc=24
 Will use up to   24 processors via shared memory.
 %mem=48GB
 ----------------------------------------------------------------------
 #p uwb97xd guess=mix def2tzvp # scrf=(iefpcm,solvent=Cyclohexane,read)
  nosym guess=only pop=none
 ----------------------------------------------------------------------
 1/38=1,40=2,172=1/1;
 2/12=2,15=1,17=6,18=5,40=1/2;
 3/5=44,7=101,11=2,25=1,30=1,70=2203,72=17,74=-58,89=1,116=2/1,2;
 4/13=-1/1;
 99/5=2/99;
 Leave Link    1 at Mon Aug  3 17:25:24 2020, MaxMem=  6442450944 cpu:               1.5 elap:               0.1
 (Enter /scratch/scicomp/CentOS/7.3.1611/Haswell/software/Gaussian/g16/l101.exe)
 -----------------------
 endo-2 xp-pcm for eta=3
 -----------------------
 Symbolic Z-matrix:
 Charge =  0 Multiplicity = 1
 6                    -3.1254   -0.44001   0.25208 
 6                    -0.65984  -0.23375  -1.12638 
 1                    -4.0842   -0.54329   0.74694 
 1                     0.30874  -0.14223  -1.59997 
 6                     1.12266   1.41712   0.73456 
 6                     0.65984   0.23375   1.12638 
 1                     0.53029   2.31465   0.8625 
 1                    -0.30874   0.14223   1.59997 
 6                     1.51058  -1.00068   1.04895 
 1                     1.99819  -1.10621   2.02633 
 1                     0.8883   -1.88631   0.92853 
 6                     2.43683   1.52333   0.10525 
 1                     2.84201   2.51025  -0.08409 
 6                     3.1254    0.44001  -0.25208 
 1                     4.0842    0.54329  -0.74694 
 6                     2.58587  -0.94855  -0.04222 
 1                     2.19129  -1.31899  -0.99644 
 1                     3.3991   -1.62877   0.21891 
 6                    -1.12266  -1.41712  -0.73456 
 1                    -0.53029  -2.31465  -0.8625 
 6                    -2.43683  -1.52333  -0.10525 
 1                    -2.84201  -2.51025   0.08409 
 6                    -1.51058   1.00068  -1.04895 
 1                    -0.8883    1.88631  -0.92853 
 1                    -1.99819   1.10621  -2.02633 
 6                    -2.58587   0.94855   0.04222 
 1                    -3.3991    1.62877  -0.21891 
 1                    -2.19129   1.31899   0.99644 
 
 ITRead=  0  0  0  0  0  0  0  0  0  0  0  0  0  0  0  0  0  0  0  0
 ITRead=  0  0  0  0  0  0  0  0
 MicOpt= -1 -1 -1 -1 -1 -1 -1 -1 -1 -1 -1 -1 -1 -1 -1 -1 -1 -1 -1 -1
 MicOpt= -1 -1 -1 -1 -1 -1 -1 -1
 NAtoms=     28 NQM=       28 NQMF=       0 NMMI=      0 NMMIF=      0
                NMic=       0 NMicF=      0.
                    Isotopes and Nuclear Properties:
 (Nuclear quadrupole moments (NQMom) in fm**2, nuclear magnetic moments (NMagM)
  in nuclear magnetons)

  Atom         1           2           3           4           5           6           7           8           9          10
 IAtWgt=          12          12           1           1          12          12           1           1          12           1
 AtmWgt=  12.0000000  12.0000000   1.0078250   1.0078250  12.0000000  12.0000000   1.0078250   1.0078250  12.0000000   1.0078250
 NucSpn=           0           0           1           1           0           0           1           1           0           1
 AtZEff=  -0.0000000  -0.0000000  -0.0000000  -0.0000000  -0.0000000  -0.0000000  -0.0000000  -0.0000000  -0.0000000  -0.0000000
 NQMom=    0.0000000   0.0000000   0.0000000   0.0000000   0.0000000   0.0000000   0.0000000   0.0000000   0.0000000   0.0000000
 NMagM=    0.0000000   0.0000000   2.7928460   2.7928460   0.0000000   0.0000000   2.7928460   2.7928460   0.0000000   2.7928460
 AtZNuc=   6.0000000   6.0000000   1.0000000   1.0000000   6.0000000   6.0000000   1.0000000   1.0000000   6.0000000   1.0000000

  Atom        11          12          13          14          15          16          17          18          19          20
 IAtWgt=           1          12           1          12           1          12           1           1          12           1
 AtmWgt=   1.0078250  12.0000000   1.0078250  12.0000000   1.0078250  12.0000000   1.0078250   1.0078250  12.0000000   1.0078250
 NucSpn=           1           0           1           0           1           0           1           1           0           1
 AtZEff=  -0.0000000  -0.0000000  -0.0000000  -0.0000000  -0.0000000  -0.0000000  -0.0000000  -0.0000000  -0.0000000  -0.0000000
 NQMom=    0.0000000   0.0000000   0.0000000   0.0000000   0.0000000   0.0000000   0.0000000   0.0000000   0.0000000   0.0000000
 NMagM=    2.7928460   0.0000000   2.7928460   0.0000000   2.7928460   0.0000000   2.7928460   2.7928460   0.0000000   2.7928460
 AtZNuc=   1.0000000   6.0000000   1.0000000   6.0000000   1.0000000   6.0000000   1.0000000   1.0000000   6.0000000   1.0000000

  Atom        21          22          23          24          25          26          27          28
 IAtWgt=          12           1          12           1           1          12           1           1
 AtmWgt=  12.0000000   1.0078250  12.0000000   1.0078250   1.0078250  12.0000000   1.0078250   1.0078250
 NucSpn=           0           1           0           1           1           0           1           1
 AtZEff=  -0.0000000  -0.0000000  -0.0000000  -0.0000000  -0.0000000  -0.0000000  -0.0000000  -0.0000000
 NQMom=    0.0000000   0.0000000   0.0000000   0.0000000   0.0000000   0.0000000   0.0000000   0.0000000
 NMagM=    0.0000000   2.7928460   0.0000000   2.7928460   2.7928460   0.0000000   2.7928460   2.7928460
 AtZNuc=   6.0000000   1.0000000   6.0000000   1.0000000   1.0000000   6.0000000   1.0000000   1.0000000
 Leave Link  101 at Mon Aug  3 17:25:25 2020, MaxMem=  6442450944 cpu:               2.4 elap:               0.1
 (Enter /scratch/scicomp/CentOS/7.3.1611/Haswell/software/Gaussian/g16/l202.exe)
                          Input orientation:                          
 ---------------------------------------------------------------------
 Center     Atomic      Atomic             Coordinates (Angstroms)
 Number     Number       Type             X           Y           Z
 ---------------------------------------------------------------------
      1          6           0       -3.125400   -0.440005    0.252083
      2          6           0       -0.659840   -0.233754   -1.126379
      3          1           0       -4.084200   -0.543289    0.746935
      4          1           0        0.308739   -0.142233   -1.599972
      5          6           0        1.122664    1.417123    0.734560
      6          6           0        0.659840    0.233754    1.126379
      7          1           0        0.530286    2.314651    0.862502
      8          1           0       -0.308739    0.142233    1.599972
      9          6           0        1.510582   -1.000676    1.048954
     10          1           0        1.998188   -1.106214    2.026331
     11          1           0        0.888300   -1.886305    0.928530
     12          6           0        2.436831    1.523333    0.105247
     13          1           0        2.842008    2.510246   -0.084086
     14          6           0        3.125400    0.440005   -0.252083
     15          1           0        4.084200    0.543289   -0.746935
     16          6           0        2.585867   -0.948552   -0.042215
     17          1           0        2.191291   -1.318993   -0.996443
     18          1           0        3.399102   -1.628770    0.218906
     19          6           0       -1.122664   -1.417123   -0.734560
     20          1           0       -0.530286   -2.314651   -0.862502
     21          6           0       -2.436831   -1.523333   -0.105247
     22          1           0       -2.842008   -2.510246    0.084086
     23          6           0       -1.510582    1.000676   -1.048954
     24          1           0       -0.888300    1.886305   -0.928530
     25          1           0       -1.998187    1.106214   -2.026331
     26          6           0       -2.585867    0.948552    0.042215
     27          1           0       -3.399102    1.628770   -0.218906
     28          1           0       -2.191291    1.318993    0.996443
 ---------------------------------------------------------------------
                    Distance matrix (angstroms):
                    1          2          3          4          5
     1  C    0.000000
     2  C    2.832258   0.000000
     3  H    1.083902   3.915528   0.000000
     4  H    3.913066   1.082041   4.996672   0.000000
     5  C    4.661304   3.060361   5.563704   2.923030   0.000000
     6  C    3.942891   2.652365   4.822208   2.774460   1.329696
     7  H    4.617876   3.444766   5.429057   3.485562   1.082976
     8  H    3.176379   2.774460   3.930867   3.271367   2.103140
     9  C    4.737266   3.167171   5.621566   3.032847   2.468821
    10  H    5.462870   4.214959   6.240928   4.115042   2.966891
    11  H    4.319624   3.057828   5.153875   3.125860   3.317407
    12  C    5.900396   3.767443   6.870701   3.195412   1.460942
    13  H    6.665354   4.569338   7.614921   3.968754   2.195733
    14  C    6.332543   3.942891   7.344606   3.176379   2.437042
    15  H    7.344606   4.822208   8.374668   3.930867   3.424779
    16  C    5.741411   3.495849   6.728803   2.874382   2.888038
    17  H    5.531604   3.053453   6.559182   2.300655   3.409496
    18  H    6.631997   4.497874   7.580032   3.881811   3.837386
    19  C    2.437042   1.329696   3.424779   2.103140   3.902917
    20  H    3.389869   2.101558   4.284660   2.442790   4.382806
    21  C    1.332446   2.421450   2.097743   3.417571   4.692714
    22  H    2.096290   3.377795   2.418952   4.286111   5.618360
    23  C    2.525054   1.501191   3.497507   2.218060   3.207543
    24  H    3.436594   2.141492   4.350159   2.449225   2.651410
    25  H    2.975327   2.096807   3.842306   2.657501   4.178384
    26  C    1.504404   2.544217   2.228726   3.502190   3.801592
    27  H    2.139293   3.434539   2.473873   4.334960   4.626041
    28  H    2.126195   3.043475   2.667106   3.889306   3.325734
                    6          7          8          9         10
     6  C    0.000000
     7  H    2.101558   0.000000
     8  H    1.082041   2.442790   0.000000
     9  C    1.501191   3.462245   2.218060   0.000000
    10  H    2.096808   3.900199   2.657501   1.097344   0.000000
    11  H    2.141492   4.216701   2.449225   1.089071   1.745153
    12  C    2.421450   2.198757   3.417571   2.849411   3.285953
    13  H    3.377795   2.505663   4.286111   3.922123   4.271379
    14  C    2.832258   3.389869   3.913066   2.525054   2.975327
    15  H    3.915528   4.284660   4.996672   3.497507   3.842305
    16  C    2.544217   3.961366   3.502190   1.532842   2.156179
    17  H    3.043475   4.406584   3.889306   2.179068   3.036400
    18  H    3.434539   4.918830   4.334960   2.156383   2.345722
    19  C    3.060361   4.382806   2.923030   3.207543   4.178385
    20  H    3.444766   5.052810   3.485562   3.089553   4.024780
    21  C    3.767443   4.946761   3.195412   4.145771   4.938320
    22  H    4.569338   5.937839   3.968754   4.706890   5.401029
    23  C    3.167171   3.089553   3.032847   4.187369   5.119358
    24  H    3.057828   2.324578   3.125860   4.242610   5.100803
    25  H    4.214958   4.024780   4.115042   5.119358   6.106547
    26  C    3.495849   3.499930   2.874382   4.646925   5.401142
    27  H    4.497874   4.132792   3.881811   5.711957   6.453833
    28  H    3.053453   2.901078   2.300655   4.368923   4.949145
                   11         12         13         14         15
    11  H    0.000000
    12  C    3.834237   0.000000
    13  H    4.916506   1.083519   0.000000
    14  C    3.436594   1.332446   2.096290   0.000000
    15  H    4.350159   2.097743   2.418952   1.083902   0.000000
    16  C    2.168746   2.480760   3.468522   1.504404   2.228726
    17  H    2.392728   3.058239   3.989850   2.126195   2.667106
    18  H    2.621835   3.297671   4.187316   2.139293   2.473873
    19  C    2.651410   4.692714   5.618360   4.661304   5.563704
    20  H    2.324578   4.946761   5.937839   4.617876   5.429057
    21  C    3.500991   5.751440   6.643519   5.900396   6.870701
    22  H    3.875253   6.643519   7.585622   6.665354   7.614921
    23  C    4.242610   4.145771   4.706890   4.737266   5.621566
    24  H    4.564818   3.500991   3.875253   4.319624   5.153875
    25  H    5.100802   4.938319   5.401029   5.462869   6.240927
    26  C    4.570755   5.055872   5.649484   5.741411   6.728803
    27  H    5.661641   5.845879   6.304493   6.631997   7.580032
    28  H    4.445495   4.717573   5.284007   5.531604   6.559182
                   16         17         18         19         20
    16  C    0.000000
    17  H    1.097027   0.000000
    18  H    1.091894   1.741219   0.000000
    19  C    3.801592   3.325734   4.626041   0.000000
    20  H    3.499930   2.901078   4.132792   1.082976   0.000000
    21  C    5.055872   4.717573   5.845879   1.460942   2.198757
    22  H    5.649484   5.284007   6.304493   2.195733   2.505663
    23  C    4.646925   4.368923   5.711957   2.468821   3.462245
    24  H    4.570755   4.445495   5.661641   3.317407   4.216701
    25  H    5.401142   4.949144   6.453833   2.966891   3.900199
    26  C    5.509352   5.389045   6.518716   2.888038   3.961366
    27  H    6.518716   6.367603   7.551081   3.837386   4.918830
    28  H    5.389045   5.489771   6.367603   3.409496   4.406584
                   21         22         23         24         25
    21  C    0.000000
    22  H    1.083519   0.000000
    23  C    2.849411   3.922123   0.000000
    24  H    3.834237   4.916506   1.089071   0.000000
    25  H    3.285953   4.271379   1.097343   1.745153   0.000000
    26  C    2.480760   3.468522   1.532842   2.168746   2.156179
    27  H    3.297671   4.187316   2.156383   2.621835   2.345722
    28  H    3.058239   3.989850   2.179068   2.392728   3.036400
                   26         27         28
    26  C    0.000000
    27  H    1.091894   0.000000
    28  H    1.097027   1.741219   0.000000
 Symmetry turned off by external request.
 Stoichiometry    C12H16
 Framework group  CI[X(C12H16)]
 Deg. of freedom    39
 Full point group                 CI      NOp   2
 Rotational constants (GHZ):           1.8309195           0.6121209           0.5434251
 Leave Link  202 at Mon Aug  3 17:25:25 2020, MaxMem=  6442450944 cpu:               0.3 elap:               0.0
 (Enter /scratch/scicomp/CentOS/7.3.1611/Haswell/software/Gaussian/g16/l301.exe)
 Standard basis: def2TZVP (5D, 7F)
 Ernie: Thresh=  0.10000D-02 Tol=  0.10000D-05 Strict=F.
   468 basis functions,   740 primitive gaussians,   528 cartesian basis functions
    44 alpha electrons       44 beta electrons
       nuclear repulsion energy       682.5226214968 Hartrees.
 IExCor= 4639 DFT=T Ex+Corr=wB97XD ExCW=0 ScaHFX=  1.000000
 ScaDFX=  1.000000  1.000000  1.000000  1.000000 ScalE2=  1.000000  1.000000
 IRadAn=      5 IRanWt=     -1 IRanGd=            0 ICorTp=0 IEmpDi=121
 HFx  wShort=  0.000000 wLong=  0.200000 cFull=  0.222036 cShort=  0.000000 cLong=  0.777964
 DFx  wShort=  0.000000 wLong=  0.200000 cFull=  0.000000 cShort=  0.000000 cLong=  1.000000
 NAtoms=   28 NActive=   28 NUniq=   28 SFac= 1.00D+00 NAtFMM=   60 NAOKFM=F Big=F
 Integral buffers will be    131072 words long.
 Raffenetti 2 integral format.
 Two-electron integral symmetry is turned off.
 R6Disp:  Grimme-D2 Dispersion energy=       -0.0227943531 Hartrees.
 Nuclear repulsion after empirical dispersion term =      682.4998271437 Hartrees.
 Using the following non-standard input for PCM:
 qrep pcmdoc geomview  nodis nocav g03defaults tsare=0.075
 Warning! Using old PCM defaults because the g03defaults keyword was found.
 These settings can be overridden by following keywords.
 nsfe=28
 NVESolv=36  SolvMW=84.1595   Rsolv=2.815
 eps=2.0165 RhoS=0.7781
 --- end of non-standard input.
 Reading user-defined spheres from input:
 ISph  on   Nord    Re0     Alpha      Xe            Ye            Ze
 --- end of user-defined spheres data.
 ------------------------------------------------------------------------------
 Polarizable Continuum Model (PCM)
 =================================
 Model                : PCM.
 Atomic radii         : UA0 (Simple United Atom Topological Model).
 Polarization charges : Total charges.
 Charge compensation  : None.
 Solution method      : On-the-fly selection.
 Cavity type          : SES (Solvent Excluding Surface) (Alpha=1.000).
 Cavity algorithm     : GePol (RMin=0.200 OFac=0.890).
                        User-defined sphere list used, NSphG=   28.
                        Tesserae with average area of 0.075 Ang**2.
                        Smoothing algorithm: None.
                        Polarization charges: point-like.
                        Self-potential: constant (ISelfS= 1).
                        Self-field    : global E.n sum rule (ISelfD= 3).
 Solvent              : CycloHexane, Eps=   2.016500 Eps(inf)=   2.035188
                        RSolv=   2.815000 Ang.
 ------------------------------------------------------------------------------
 GePol: Number of generator spheres                  =      28
 GePol: Total number of spheres                      =     191
 GePol: Number of exposed spheres                    =     138 ( 72.25%)
 GePol: Number of tesserae                           =    4714
 GePol: Average area of tesserae                     =       0.05 Ang**2
 GePol: Minimum area of tessera                      =   0.10D-02 Ang**2
 GePol: Maximum area of tessera                      =    0.12395 Ang**2
 GePol: Number of small tesserae                     =       0
 GePol: Fraction of small tesserae (<1% of avg)      =       0.00%
 GePol: Total count of vertices                      =   16733
 GePol: Maximum number of vertices in a tessera      =       7
 GePol: Cavity surface area                          =    220.126 Ang**2
 GePol: Cavity volume                                =    249.097 Ang**3
 Leave Link  301 at Mon Aug  3 17:25:25 2020, MaxMem=  6442450944 cpu:               8.2 elap:               0.4
 (Enter /scratch/scicomp/CentOS/7.3.1611/Haswell/software/Gaussian/g16/l302.exe)
 NPDir=0 NMtPBC=     1 NCelOv=     1 NCel=       1 NClECP=     1 NCelD=      1
         NCelK=      1 NCelE2=     1 NClLst=     1 CellRange=     0.0.
 One-electron integrals computed using PRISM.
   1 Symmetry operations used in ECPInt.
 ECPInt:  NShTT=   19306 NPrTT=   56928 LenC2=   18500 LenP2D=   42068.
 LDataN:  DoStor=T MaxTD1= 6 Len=  172
 NBasis=   468 RedAO= T EigKep=  2.29D-05  NBF=   468
 NBsUse=   468 1.00D-06 EigRej= -1.00D+00 NBFU=   468
 Precomputing XC quadrature grid using
 IXCGrd= 4 IRadAn=           5 IRanWt=          -1 IRanGd=           0 AccXCQ= 0.00D+00.
 Generated NRdTot=       0 NPtTot=           0 NUsed=           0 NTot=          32
 NSgBfM=   526   526   526   526   526 MxSgAt=    28 MxSgA2=    28.
 Leave Link  302 at Mon Aug  3 17:25:26 2020, MaxMem=  6442450944 cpu:              12.0 elap:               0.5
 (Enter /scratch/scicomp/CentOS/7.3.1611/Haswell/software/Gaussian/g16/l401.exe)
 ExpMin= 9.52D-02 ExpMax= 1.36D+04 ExpMxC= 4.63D+02 IAcc=3 IRadAn=         5 AccDes= 0.00D+00
 Harris functional with IExCor= 4639 and IRadAn=       5 diagonalized for initial guess.
 HarFok:  IExCor= 4639 AccDes= 0.00D+00 IRadAn=         5 IDoV= 1 UseB2=F ITyADJ=14
 ICtDFT=  3500011 ScaDFX=  1.000000  1.000000  1.000000  1.000000
 FoFCou: FMM=F IPFlag=           0 FMFlag=      100000 FMFlg1=           0
         NFxFlg=           0 DoJE=T BraDBF=F KetDBF=T FulRan=T
         wScrn=  0.000000 ICntrl=       500 IOpCl=  0 I1Cent=   200000004 NGrid=           0
         NMat0=    1 NMatS0=      1 NMatT0=    0 NMatD0=    1 NMtDS0=    0 NMtDT0=    0
 Symmetry not used in FoFCou.
 Harris En= -444.625940511959    
 JPrj=0 DoOrth=F DoCkMO=T.
 Mixing orbitals, IMix= 1 IMixAn=  0 NRI=1 NE=   44 Coef=  7.07106781D-01  7.07106781D-01
 Mixing orbitals, IMix= 1 IMixAn=  0 NRI=1 NE=   44 Coef= -7.07106781D-01  7.07106781D-01
 Initial guess <Sx>= 0.0000 <Sy>= 0.0000 <Sz>= 0.0000 <S**2>= 1.0000 S= 0.6180
 Leave Link  401 at Mon Aug  3 17:25:28 2020, MaxMem=  6442450944 cpu:              47.8 elap:               2.1
 (Enter /scratch/scicomp/CentOS/7.3.1611/Haswell/software/Gaussian/g16/l9999.exe)

 This type of calculation cannot be archived.


 The impersonal hand of government can
 never replace the helping hand of a neighbor.
                        -- Hubert H. Humphrey
 Job cpu time:       0 days  0 hours  1 minutes 13.2 seconds.
 Elapsed time:       0 days  0 hours  0 minutes  3.3 seconds.
 File lengths (MBytes):  RWF=    407 Int=      0 D2E=      0 Chk=      1 Scr=      1
 Normal termination of Gaussian 16 at Mon Aug  3 17:25:28 2020.
 Initial command:
 /scratch/scicomp/CentOS/7.3.1611/Haswell/software/Gaussian/g16/l1.exe "/scratch/bochen/cyclohexadiene-dimerization/wb97xd-def2tzvp/xp-pcm/meso/Gau-91314.inp" -scrdir="/scratch/bochen/cyclohexadiene-dimerization/wb97xd-def2tzvp/xp-pcm/meso/"
 Entering Link 1 = /scratch/scicomp/CentOS/7.3.1611/Haswell/software/Gaussian/g16/l1.exe PID=     91479.
  
 Copyright (c) 1988-2017, Gaussian, Inc.  All Rights Reserved.
  
 This is part of the Gaussian(R) 16 program.  It is based on
 the Gaussian(R) 09 system (copyright 2009, Gaussian, Inc.),
 the Gaussian(R) 03 system (copyright 2003, Gaussian, Inc.),
 the Gaussian(R) 98 system (copyright 1998, Gaussian, Inc.),
 the Gaussian(R) 94 system (copyright 1995, Gaussian, Inc.),
 the Gaussian 92(TM) system (copyright 1992, Gaussian, Inc.),
 the Gaussian 90(TM) system (copyright 1990, Gaussian, Inc.),
 the Gaussian 88(TM) system (copyright 1988, Gaussian, Inc.),
 the Gaussian 86(TM) system (copyright 1986, Carnegie Mellon
 University), and the Gaussian 82(TM) system (copyright 1983,
 Carnegie Mellon University). Gaussian is a federally registered
 trademark of Gaussian, Inc.
  
 This software contains proprietary and confidential information,
 including trade secrets, belonging to Gaussian, Inc.
  
 This software is provided under written license and may be
 used, copied, transmitted, or stored only in accord with that
 written license.
  
 The following legend is applicable only to US Government
 contracts under FAR:
  
                    RESTRICTED RIGHTS LEGEND
  
 Use, reproduction and disclosure by the US Government is
 subject to restrictions as set forth in subparagraphs (a)
 and (c) of the Commercial Computer Software - Restricted
 Rights clause in FAR 52.227-19.
  
 Gaussian, Inc.
 340 Quinnipiac St., Bldg. 40, Wallingford CT 06492
  
  
 ---------------------------------------------------------------
 Warning -- This program may not be used in any manner that
 competes with the business of Gaussian, Inc. or will provide
 assistance to any competitor of Gaussian, Inc.  The licensee
 of this program is prohibited from giving any competitor of
 Gaussian, Inc. access to this program.  By using this program,
 the user acknowledges that Gaussian, Inc. is engaged in the
 business of creating and licensing software in the field of
 computational chemistry and represents and warrants to the
 licensee that it is not a competitor of Gaussian, Inc. and that
 it will not use this program in any manner prohibited above.
 ---------------------------------------------------------------
  

 Cite this work as:
 Gaussian 16, Revision B.01,
 M. J. Frisch, G. W. Trucks, H. B. Schlegel, G. E. Scuseria, 
 M. A. Robb, J. R. Cheeseman, G. Scalmani, V. Barone, 
 G. A. Petersson, H. Nakatsuji, X. Li, M. Caricato, A. V. Marenich, 
 J. Bloino, B. G. Janesko, R. Gomperts, B. Mennucci, H. P. Hratchian, 
 J. V. Ortiz, A. F. Izmaylov, J. L. Sonnenberg, D. Williams-Young, 
 F. Ding, F. Lipparini, F. Egidi, J. Goings, B. Peng, A. Petrone, 
 T. Henderson, D. Ranasinghe, V. G. Zakrzewski, J. Gao, N. Rega, 
 G. Zheng, W. Liang, M. Hada, M. Ehara, K. Toyota, R. Fukuda, 
 J. Hasegawa, M. Ishida, T. Nakajima, Y. Honda, O. Kitao, H. Nakai, 
 T. Vreven, K. Throssell, J. A. Montgomery, Jr., J. E. Peralta, 
 F. Ogliaro, M. J. Bearpark, J. J. Heyd, E. N. Brothers, K. N. Kudin, 
 V. N. Staroverov, T. A. Keith, R. Kobayashi, J. Normand, 
 K. Raghavachari, A. P. Rendell, J. C. Burant, S. S. Iyengar, 
 J. Tomasi, M. Cossi, J. M. Millam, M. Klene, C. Adamo, R. Cammi, 
 J. W. Ochterski, R. L. Martin, K. Morokuma, O. Farkas, 
 J. B. Foresman, and D. J. Fox, Gaussian, Inc., Wallingford CT, 2016.
 
 ******************************************
 Gaussian 16:  ES64L-G16RevB.01 20-Dec-2017
                 3-Aug-2020 
 ******************************************
 %chk=meso-TS_34_2_xp-115.chk
 %nproc=24
 Will use up to   24 processors via shared memory.
 %mem=48GB
 ----------------------------------------------------------------------
 #p uwb97xd guess=mix def2tzvp # scrf=(iefpcm,solvent=Cyclohexane,read)
  nosym guess=only pop=none
 ----------------------------------------------------------------------
 1/38=1,40=2,172=1/1;
 2/12=2,15=1,17=6,18=5,40=1/2;
 3/5=44,7=101,11=2,25=1,30=1,70=2203,72=17,74=-58,89=1,116=2/1,2;
 4/13=-1/1;
 99/5=2/99;
 Leave Link    1 at Mon Aug  3 17:25:28 2020, MaxMem=  6442450944 cpu:               1.9 elap:               0.1
 (Enter /scratch/scicomp/CentOS/7.3.1611/Haswell/software/Gaussian/g16/l101.exe)
 -----------------------
 endo-2 xp-pcm for eta=3
 -----------------------
 Symbolic Z-matrix:
 Charge =  0 Multiplicity = 1
 6                    -3.1254   -0.44001   0.25208 
 6                    -0.65984  -0.23375  -1.12638 
 1                    -4.0842   -0.54329   0.74694 
 1                     0.30874  -0.14223  -1.59997 
 6                     1.12266   1.41712   0.73456 
 6                     0.65984   0.23375   1.12638 
 1                     0.53029   2.31465   0.8625 
 1                    -0.30874   0.14223   1.59997 
 6                     1.51058  -1.00068   1.04895 
 1                     1.99819  -1.10621   2.02633 
 1                     0.8883   -1.88631   0.92853 
 6                     2.43683   1.52333   0.10525 
 1                     2.84201   2.51025  -0.08409 
 6                     3.1254    0.44001  -0.25208 
 1                     4.0842    0.54329  -0.74694 
 6                     2.58587  -0.94855  -0.04222 
 1                     2.19129  -1.31899  -0.99644 
 1                     3.3991   -1.62877   0.21891 
 6                    -1.12266  -1.41712  -0.73456 
 1                    -0.53029  -2.31465  -0.8625 
 6                    -2.43683  -1.52333  -0.10525 
 1                    -2.84201  -2.51025   0.08409 
 6                    -1.51058   1.00068  -1.04895 
 1                    -0.8883    1.88631  -0.92853 
 1                    -1.99819   1.10621  -2.02633 
 6                    -2.58587   0.94855   0.04222 
 1                    -3.3991    1.62877  -0.21891 
 1                    -2.19129   1.31899   0.99644 
 
 ITRead=  0  0  0  0  0  0  0  0  0  0  0  0  0  0  0  0  0  0  0  0
 ITRead=  0  0  0  0  0  0  0  0
 MicOpt= -1 -1 -1 -1 -1 -1 -1 -1 -1 -1 -1 -1 -1 -1 -1 -1 -1 -1 -1 -1
 MicOpt= -1 -1 -1 -1 -1 -1 -1 -1
 NAtoms=     28 NQM=       28 NQMF=       0 NMMI=      0 NMMIF=      0
                NMic=       0 NMicF=      0.
                    Isotopes and Nuclear Properties:
 (Nuclear quadrupole moments (NQMom) in fm**2, nuclear magnetic moments (NMagM)
  in nuclear magnetons)

  Atom         1           2           3           4           5           6           7           8           9          10
 IAtWgt=          12          12           1           1          12          12           1           1          12           1
 AtmWgt=  12.0000000  12.0000000   1.0078250   1.0078250  12.0000000  12.0000000   1.0078250   1.0078250  12.0000000   1.0078250
 NucSpn=           0           0           1           1           0           0           1           1           0           1
 AtZEff=  -0.0000000  -0.0000000  -0.0000000  -0.0000000  -0.0000000  -0.0000000  -0.0000000  -0.0000000  -0.0000000  -0.0000000
 NQMom=    0.0000000   0.0000000   0.0000000   0.0000000   0.0000000   0.0000000   0.0000000   0.0000000   0.0000000   0.0000000
 NMagM=    0.0000000   0.0000000   2.7928460   2.7928460   0.0000000   0.0000000   2.7928460   2.7928460   0.0000000   2.7928460
 AtZNuc=   6.0000000   6.0000000   1.0000000   1.0000000   6.0000000   6.0000000   1.0000000   1.0000000   6.0000000   1.0000000

  Atom        11          12          13          14          15          16          17          18          19          20
 IAtWgt=           1          12           1          12           1          12           1           1          12           1
 AtmWgt=   1.0078250  12.0000000   1.0078250  12.0000000   1.0078250  12.0000000   1.0078250   1.0078250  12.0000000   1.0078250
 NucSpn=           1           0           1           0           1           0           1           1           0           1
 AtZEff=  -0.0000000  -0.0000000  -0.0000000  -0.0000000  -0.0000000  -0.0000000  -0.0000000  -0.0000000  -0.0000000  -0.0000000
 NQMom=    0.0000000   0.0000000   0.0000000   0.0000000   0.0000000   0.0000000   0.0000000   0.0000000   0.0000000   0.0000000
 NMagM=    2.7928460   0.0000000   2.7928460   0.0000000   2.7928460   0.0000000   2.7928460   2.7928460   0.0000000   2.7928460
 AtZNuc=   1.0000000   6.0000000   1.0000000   6.0000000   1.0000000   6.0000000   1.0000000   1.0000000   6.0000000   1.0000000

  Atom        21          22          23          24          25          26          27          28
 IAtWgt=          12           1          12           1           1          12           1           1
 AtmWgt=  12.0000000   1.0078250  12.0000000   1.0078250   1.0078250  12.0000000   1.0078250   1.0078250
 NucSpn=           0           1           0           1           1           0           1           1
 AtZEff=  -0.0000000  -0.0000000  -0.0000000  -0.0000000  -0.0000000  -0.0000000  -0.0000000  -0.0000000
 NQMom=    0.0000000   0.0000000   0.0000000   0.0000000   0.0000000   0.0000000   0.0000000   0.0000000
 NMagM=    0.0000000   2.7928460   0.0000000   2.7928460   2.7928460   0.0000000   2.7928460   2.7928460
 AtZNuc=   6.0000000   1.0000000   6.0000000   1.0000000   1.0000000   6.0000000   1.0000000   1.0000000
 Leave Link  101 at Mon Aug  3 17:25:28 2020, MaxMem=  6442450944 cpu:               2.4 elap:               0.1
 (Enter /scratch/scicomp/CentOS/7.3.1611/Haswell/software/Gaussian/g16/l202.exe)
                          Input orientation:                          
 ---------------------------------------------------------------------
 Center     Atomic      Atomic             Coordinates (Angstroms)
 Number     Number       Type             X           Y           Z
 ---------------------------------------------------------------------
      1          6           0       -3.125400   -0.440005    0.252083
      2          6           0       -0.659840   -0.233754   -1.126379
      3          1           0       -4.084200   -0.543289    0.746935
      4          1           0        0.308739   -0.142233   -1.599972
      5          6           0        1.122664    1.417123    0.734560
      6          6           0        0.659840    0.233754    1.126379
      7          1           0        0.530286    2.314651    0.862502
      8          1           0       -0.308739    0.142233    1.599972
      9          6           0        1.510582   -1.000676    1.048954
     10          1           0        1.998188   -1.106214    2.026331
     11          1           0        0.888300   -1.886305    0.928530
     12          6           0        2.436831    1.523333    0.105247
     13          1           0        2.842008    2.510246   -0.084086
     14          6           0        3.125400    0.440005   -0.252083
     15          1           0        4.084200    0.543289   -0.746935
     16          6           0        2.585867   -0.948552   -0.042215
     17          1           0        2.191291   -1.318993   -0.996443
     18          1           0        3.399102   -1.628770    0.218906
     19          6           0       -1.122664   -1.417123   -0.734560
     20          1           0       -0.530286   -2.314651   -0.862502
     21          6           0       -2.436831   -1.523333   -0.105247
     22          1           0       -2.842008   -2.510246    0.084086
     23          6           0       -1.510582    1.000676   -1.048954
     24          1           0       -0.888300    1.886305   -0.928530
     25          1           0       -1.998187    1.106214   -2.026331
     26          6           0       -2.585867    0.948552    0.042215
     27          1           0       -3.399102    1.628770   -0.218906
     28          1           0       -2.191291    1.318993    0.996443
 ---------------------------------------------------------------------
                    Distance matrix (angstroms):
                    1          2          3          4          5
     1  C    0.000000
     2  C    2.832258   0.000000
     3  H    1.083902   3.915528   0.000000
     4  H    3.913066   1.082041   4.996672   0.000000
     5  C    4.661304   3.060361   5.563704   2.923030   0.000000
     6  C    3.942891   2.652365   4.822208   2.774460   1.329696
     7  H    4.617876   3.444766   5.429057   3.485562   1.082976
     8  H    3.176379   2.774460   3.930867   3.271367   2.103140
     9  C    4.737266   3.167171   5.621566   3.032847   2.468821
    10  H    5.462870   4.214959   6.240928   4.115042   2.966891
    11  H    4.319624   3.057828   5.153875   3.125860   3.317407
    12  C    5.900396   3.767443   6.870701   3.195412   1.460942
    13  H    6.665354   4.569338   7.614921   3.968754   2.195733
    14  C    6.332543   3.942891   7.344606   3.176379   2.437042
    15  H    7.344606   4.822208   8.374668   3.930867   3.424779
    16  C    5.741411   3.495849   6.728803   2.874382   2.888038
    17  H    5.531604   3.053453   6.559182   2.300655   3.409496
    18  H    6.631997   4.497874   7.580032   3.881811   3.837386
    19  C    2.437042   1.329696   3.424779   2.103140   3.902917
    20  H    3.389869   2.101558   4.284660   2.442790   4.382806
    21  C    1.332446   2.421450   2.097743   3.417571   4.692714
    22  H    2.096290   3.377795   2.418952   4.286111   5.618360
    23  C    2.525054   1.501191   3.497507   2.218060   3.207543
    24  H    3.436594   2.141492   4.350159   2.449225   2.651410
    25  H    2.975327   2.096807   3.842306   2.657501   4.178384
    26  C    1.504404   2.544217   2.228726   3.502190   3.801592
    27  H    2.139293   3.434539   2.473873   4.334960   4.626041
    28  H    2.126195   3.043475   2.667106   3.889306   3.325734
                    6          7          8          9         10
     6  C    0.000000
     7  H    2.101558   0.000000
     8  H    1.082041   2.442790   0.000000
     9  C    1.501191   3.462245   2.218060   0.000000
    10  H    2.096808   3.900199   2.657501   1.097344   0.000000
    11  H    2.141492   4.216701   2.449225   1.089071   1.745153
    12  C    2.421450   2.198757   3.417571   2.849411   3.285953
    13  H    3.377795   2.505663   4.286111   3.922123   4.271379
    14  C    2.832258   3.389869   3.913066   2.525054   2.975327
    15  H    3.915528   4.284660   4.996672   3.497507   3.842305
    16  C    2.544217   3.961366   3.502190   1.532842   2.156179
    17  H    3.043475   4.406584   3.889306   2.179068   3.036400
    18  H    3.434539   4.918830   4.334960   2.156383   2.345722
    19  C    3.060361   4.382806   2.923030   3.207543   4.178385
    20  H    3.444766   5.052810   3.485562   3.089553   4.024780
    21  C    3.767443   4.946761   3.195412   4.145771   4.938320
    22  H    4.569338   5.937839   3.968754   4.706890   5.401029
    23  C    3.167171   3.089553   3.032847   4.187369   5.119358
    24  H    3.057828   2.324578   3.125860   4.242610   5.100803
    25  H    4.214958   4.024780   4.115042   5.119358   6.106547
    26  C    3.495849   3.499930   2.874382   4.646925   5.401142
    27  H    4.497874   4.132792   3.881811   5.711957   6.453833
    28  H    3.053453   2.901078   2.300655   4.368923   4.949145
                   11         12         13         14         15
    11  H    0.000000
    12  C    3.834237   0.000000
    13  H    4.916506   1.083519   0.000000
    14  C    3.436594   1.332446   2.096290   0.000000
    15  H    4.350159   2.097743   2.418952   1.083902   0.000000
    16  C    2.168746   2.480760   3.468522   1.504404   2.228726
    17  H    2.392728   3.058239   3.989850   2.126195   2.667106
    18  H    2.621835   3.297671   4.187316   2.139293   2.473873
    19  C    2.651410   4.692714   5.618360   4.661304   5.563704
    20  H    2.324578   4.946761   5.937839   4.617876   5.429057
    21  C    3.500991   5.751440   6.643519   5.900396   6.870701
    22  H    3.875253   6.643519   7.585622   6.665354   7.614921
    23  C    4.242610   4.145771   4.706890   4.737266   5.621566
    24  H    4.564818   3.500991   3.875253   4.319624   5.153875
    25  H    5.100802   4.938319   5.401029   5.462869   6.240927
    26  C    4.570755   5.055872   5.649484   5.741411   6.728803
    27  H    5.661641   5.845879   6.304493   6.631997   7.580032
    28  H    4.445495   4.717573   5.284007   5.531604   6.559182
                   16         17         18         19         20
    16  C    0.000000
    17  H    1.097027   0.000000
    18  H    1.091894   1.741219   0.000000
    19  C    3.801592   3.325734   4.626041   0.000000
    20  H    3.499930   2.901078   4.132792   1.082976   0.000000
    21  C    5.055872   4.717573   5.845879   1.460942   2.198757
    22  H    5.649484   5.284007   6.304493   2.195733   2.505663
    23  C    4.646925   4.368923   5.711957   2.468821   3.462245
    24  H    4.570755   4.445495   5.661641   3.317407   4.216701
    25  H    5.401142   4.949144   6.453833   2.966891   3.900199
    26  C    5.509352   5.389045   6.518716   2.888038   3.961366
    27  H    6.518716   6.367603   7.551081   3.837386   4.918830
    28  H    5.389045   5.489771   6.367603   3.409496   4.406584
                   21         22         23         24         25
    21  C    0.000000
    22  H    1.083519   0.000000
    23  C    2.849411   3.922123   0.000000
    24  H    3.834237   4.916506   1.089071   0.000000
    25  H    3.285953   4.271379   1.097343   1.745153   0.000000
    26  C    2.480760   3.468522   1.532842   2.168746   2.156179
    27  H    3.297671   4.187316   2.156383   2.621835   2.345722
    28  H    3.058239   3.989850   2.179068   2.392728   3.036400
                   26         27         28
    26  C    0.000000
    27  H    1.091894   0.000000
    28  H    1.097027   1.741219   0.000000
 Symmetry turned off by external request.
 Stoichiometry    C12H16
 Framework group  CI[X(C12H16)]
 Deg. of freedom    39
 Full point group                 CI      NOp   2
 Rotational constants (GHZ):           1.8309195           0.6121209           0.5434251
 Leave Link  202 at Mon Aug  3 17:25:29 2020, MaxMem=  6442450944 cpu:               0.3 elap:               0.0
 (Enter /scratch/scicomp/CentOS/7.3.1611/Haswell/software/Gaussian/g16/l301.exe)
 Standard basis: def2TZVP (5D, 7F)
 Ernie: Thresh=  0.10000D-02 Tol=  0.10000D-05 Strict=F.
   468 basis functions,   740 primitive gaussians,   528 cartesian basis functions
    44 alpha electrons       44 beta electrons
       nuclear repulsion energy       682.5226214968 Hartrees.
 IExCor= 4639 DFT=T Ex+Corr=wB97XD ExCW=0 ScaHFX=  1.000000
 ScaDFX=  1.000000  1.000000  1.000000  1.000000 ScalE2=  1.000000  1.000000
 IRadAn=      5 IRanWt=     -1 IRanGd=            0 ICorTp=0 IEmpDi=121
 HFx  wShort=  0.000000 wLong=  0.200000 cFull=  0.222036 cShort=  0.000000 cLong=  0.777964
 DFx  wShort=  0.000000 wLong=  0.200000 cFull=  0.000000 cShort=  0.000000 cLong=  1.000000
 NAtoms=   28 NActive=   28 NUniq=   28 SFac= 1.00D+00 NAtFMM=   60 NAOKFM=F Big=F
 Integral buffers will be    131072 words long.
 Raffenetti 2 integral format.
 Two-electron integral symmetry is turned off.
 R6Disp:  Grimme-D2 Dispersion energy=       -0.0227943531 Hartrees.
 Nuclear repulsion after empirical dispersion term =      682.4998271437 Hartrees.
 Using the following non-standard input for PCM:
 qrep pcmdoc geomview  nodis nocav g03defaults tsare=0.075
 Warning! Using old PCM defaults because the g03defaults keyword was found.
 These settings can be overridden by following keywords.
 nsfe=28
 NVESolv=36  SolvMW=84.1595   Rsolv=2.815
 eps=2.0165 RhoS=0.7781
 --- end of non-standard input.
 Reading user-defined spheres from input:
 ISph  on   Nord    Re0     Alpha      Xe            Ye            Ze
 --- end of user-defined spheres data.
 ------------------------------------------------------------------------------
 Polarizable Continuum Model (PCM)
 =================================
 Model                : PCM.
 Atomic radii         : UA0 (Simple United Atom Topological Model).
 Polarization charges : Total charges.
 Charge compensation  : None.
 Solution method      : On-the-fly selection.
 Cavity type          : SES (Solvent Excluding Surface) (Alpha=1.000).
 Cavity algorithm     : GePol (RMin=0.200 OFac=0.890).
                        User-defined sphere list used, NSphG=   28.
                        Tesserae with average area of 0.075 Ang**2.
                        Smoothing algorithm: None.
                        Polarization charges: point-like.
                        Self-potential: constant (ISelfS= 1).
                        Self-field    : global E.n sum rule (ISelfD= 3).
 Solvent              : CycloHexane, Eps=   2.016500 Eps(inf)=   2.035188
                        RSolv=   2.815000 Ang.
 ------------------------------------------------------------------------------
 GePol: Number of generator spheres                  =      28
 GePol: Total number of spheres                      =     193
 GePol: Number of exposed spheres                    =     133 ( 68.91%)
 GePol: Number of tesserae                           =    4691
 GePol: Average area of tesserae                     =       0.05 Ang**2
 GePol: Minimum area of tessera                      =   0.10D-02 Ang**2
 GePol: Maximum area of tessera                      =    0.10342 Ang**2
 GePol: Number of small tesserae                     =       0
 GePol: Fraction of small tesserae (<1% of avg)      =       0.00%
 GePol: Total count of vertices                      =   16577
 GePol: Maximum number of vertices in a tessera      =       7
 GePol: Cavity surface area                          =    213.154 Ang**2
 GePol: Cavity volume                                =    233.449 Ang**3
 Leave Link  301 at Mon Aug  3 17:25:29 2020, MaxMem=  6442450944 cpu:               7.7 elap:               0.4
 (Enter /scratch/scicomp/CentOS/7.3.1611/Haswell/software/Gaussian/g16/l302.exe)
 NPDir=0 NMtPBC=     1 NCelOv=     1 NCel=       1 NClECP=     1 NCelD=      1
         NCelK=      1 NCelE2=     1 NClLst=     1 CellRange=     0.0.
 One-electron integrals computed using PRISM.
   1 Symmetry operations used in ECPInt.
 ECPInt:  NShTT=   19306 NPrTT=   56928 LenC2=   18500 LenP2D=   42068.
 LDataN:  DoStor=T MaxTD1= 6 Len=  172
 NBasis=   468 RedAO= T EigKep=  2.29D-05  NBF=   468
 NBsUse=   468 1.00D-06 EigRej= -1.00D+00 NBFU=   468
 Precomputing XC quadrature grid using
 IXCGrd= 4 IRadAn=           5 IRanWt=          -1 IRanGd=           0 AccXCQ= 0.00D+00.
 Generated NRdTot=       0 NPtTot=           0 NUsed=           0 NTot=          32
 NSgBfM=   526   526   526   526   526 MxSgAt=    28 MxSgA2=    28.
 Leave Link  302 at Mon Aug  3 17:25:30 2020, MaxMem=  6442450944 cpu:              11.9 elap:               0.5
 (Enter /scratch/scicomp/CentOS/7.3.1611/Haswell/software/Gaussian/g16/l401.exe)
 ExpMin= 9.52D-02 ExpMax= 1.36D+04 ExpMxC= 4.63D+02 IAcc=3 IRadAn=         5 AccDes= 0.00D+00
 Harris functional with IExCor= 4639 and IRadAn=       5 diagonalized for initial guess.
 HarFok:  IExCor= 4639 AccDes= 0.00D+00 IRadAn=         5 IDoV= 1 UseB2=F ITyADJ=14
 ICtDFT=  3500011 ScaDFX=  1.000000  1.000000  1.000000  1.000000
 FoFCou: FMM=F IPFlag=           0 FMFlag=      100000 FMFlg1=           0
         NFxFlg=           0 DoJE=T BraDBF=F KetDBF=T FulRan=T
         wScrn=  0.000000 ICntrl=       500 IOpCl=  0 I1Cent=   200000004 NGrid=           0
         NMat0=    1 NMatS0=      1 NMatT0=    0 NMatD0=    1 NMtDS0=    0 NMtDT0=    0
 Symmetry not used in FoFCou.
 Harris En= -444.625940511959    
 JPrj=0 DoOrth=F DoCkMO=T.
 Mixing orbitals, IMix= 1 IMixAn=  0 NRI=1 NE=   44 Coef=  7.07106781D-01  7.07106781D-01
 Mixing orbitals, IMix= 1 IMixAn=  0 NRI=1 NE=   44 Coef= -7.07106781D-01  7.07106781D-01
 Initial guess <Sx>= 0.0000 <Sy>= 0.0000 <Sz>= 0.0000 <S**2>= 1.0000 S= 0.6180
 Leave Link  401 at Mon Aug  3 17:25:32 2020, MaxMem=  6442450944 cpu:              47.8 elap:               2.1
 (Enter /scratch/scicomp/CentOS/7.3.1611/Haswell/software/Gaussian/g16/l9999.exe)

 This type of calculation cannot be archived.


 WE ARE PERHAPS NOT FAR REMOVED FROM THE TIME WHEN WE SHALL BE ABLE TO SUBMIT
 THE BULK OF CHEMICAL PHENOMENA TO CALCULATION.

            -- JOSEPH LOUIS GAY-LUSSAC
               MEMOIRES DE LA SOCIETE D'ARCUEIL, 2, 207 (1808)
 Job cpu time:       0 days  0 hours  1 minutes 12.9 seconds.
 Elapsed time:       0 days  0 hours  0 minutes  3.3 seconds.
 File lengths (MBytes):  RWF=    402 Int=      0 D2E=      0 Chk=      1 Scr=      1
 Normal termination of Gaussian 16 at Mon Aug  3 17:25:32 2020.
 Initial command:
 /scratch/scicomp/CentOS/7.3.1611/Haswell/software/Gaussian/g16/l1.exe "/scratch/bochen/cyclohexadiene-dimerization/wb97xd-def2tzvp/xp-pcm/meso/Gau-91314.inp" -scrdir="/scratch/bochen/cyclohexadiene-dimerization/wb97xd-def2tzvp/xp-pcm/meso/"
 Entering Link 1 = /scratch/scicomp/CentOS/7.3.1611/Haswell/software/Gaussian/g16/l1.exe PID=     91646.
  
 Copyright (c) 1988-2017, Gaussian, Inc.  All Rights Reserved.
  
 This is part of the Gaussian(R) 16 program.  It is based on
 the Gaussian(R) 09 system (copyright 2009, Gaussian, Inc.),
 the Gaussian(R) 03 system (copyright 2003, Gaussian, Inc.),
 the Gaussian(R) 98 system (copyright 1998, Gaussian, Inc.),
 the Gaussian(R) 94 system (copyright 1995, Gaussian, Inc.),
 the Gaussian 92(TM) system (copyright 1992, Gaussian, Inc.),
 the Gaussian 90(TM) system (copyright 1990, Gaussian, Inc.),
 the Gaussian 88(TM) system (copyright 1988, Gaussian, Inc.),
 the Gaussian 86(TM) system (copyright 1986, Carnegie Mellon
 University), and the Gaussian 82(TM) system (copyright 1983,
 Carnegie Mellon University). Gaussian is a federally registered
 trademark of Gaussian, Inc.
  
 This software contains proprietary and confidential information,
 including trade secrets, belonging to Gaussian, Inc.
  
 This software is provided under written license and may be
 used, copied, transmitted, or stored only in accord with that
 written license.
  
 The following legend is applicable only to US Government
 contracts under FAR:
  
                    RESTRICTED RIGHTS LEGEND
  
 Use, reproduction and disclosure by the US Government is
 subject to restrictions as set forth in subparagraphs (a)
 and (c) of the Commercial Computer Software - Restricted
 Rights clause in FAR 52.227-19.
  
 Gaussian, Inc.
 340 Quinnipiac St., Bldg. 40, Wallingford CT 06492
  
  
 ---------------------------------------------------------------
 Warning -- This program may not be used in any manner that
 competes with the business of Gaussian, Inc. or will provide
 assistance to any competitor of Gaussian, Inc.  The licensee
 of this program is prohibited from giving any competitor of
 Gaussian, Inc. access to this program.  By using this program,
 the user acknowledges that Gaussian, Inc. is engaged in the
 business of creating and licensing software in the field of
 computational chemistry and represents and warrants to the
 licensee that it is not a competitor of Gaussian, Inc. and that
 it will not use this program in any manner prohibited above.
 ---------------------------------------------------------------
  

 Cite this work as:
 Gaussian 16, Revision B.01,
 M. J. Frisch, G. W. Trucks, H. B. Schlegel, G. E. Scuseria, 
 M. A. Robb, J. R. Cheeseman, G. Scalmani, V. Barone, 
 G. A. Petersson, H. Nakatsuji, X. Li, M. Caricato, A. V. Marenich, 
 J. Bloino, B. G. Janesko, R. Gomperts, B. Mennucci, H. P. Hratchian, 
 J. V. Ortiz, A. F. Izmaylov, J. L. Sonnenberg, D. Williams-Young, 
 F. Ding, F. Lipparini, F. Egidi, J. Goings, B. Peng, A. Petrone, 
 T. Henderson, D. Ranasinghe, V. G. Zakrzewski, J. Gao, N. Rega, 
 G. Zheng, W. Liang, M. Hada, M. Ehara, K. Toyota, R. Fukuda, 
 J. Hasegawa, M. Ishida, T. Nakajima, Y. Honda, O. Kitao, H. Nakai, 
 T. Vreven, K. Throssell, J. A. Montgomery, Jr., J. E. Peralta, 
 F. Ogliaro, M. J. Bearpark, J. J. Heyd, E. N. Brothers, K. N. Kudin, 
 V. N. Staroverov, T. A. Keith, R. Kobayashi, J. Normand, 
 K. Raghavachari, A. P. Rendell, J. C. Burant, S. S. Iyengar, 
 J. Tomasi, M. Cossi, J. M. Millam, M. Klene, C. Adamo, R. Cammi, 
 J. W. Ochterski, R. L. Martin, K. Morokuma, O. Farkas, 
 J. B. Foresman, and D. J. Fox, Gaussian, Inc., Wallingford CT, 2016.
 
 ******************************************
 Gaussian 16:  ES64L-G16RevB.01 20-Dec-2017
                 3-Aug-2020 
 ******************************************
 %chk=meso-TS_34_2_xp-110.chk
 %nproc=24
 Will use up to   24 processors via shared memory.
 %mem=48GB
 ----------------------------------------------------------------------
 #p uwb97xd guess=mix def2tzvp # scrf=(iefpcm,solvent=Cyclohexane,read)
  nosym guess=only pop=none
 ----------------------------------------------------------------------
 1/38=1,40=2,172=1/1;
 2/12=2,15=1,17=6,18=5,40=1/2;
 3/5=44,7=101,11=2,25=1,30=1,70=2203,72=17,74=-58,89=1,116=2/1,2;
 4/13=-1/1;
 99/5=2/99;
 Leave Link    1 at Mon Aug  3 17:25:32 2020, MaxMem=  6442450944 cpu:               1.5 elap:               0.1
 (Enter /scratch/scicomp/CentOS/7.3.1611/Haswell/software/Gaussian/g16/l101.exe)
 -----------------------
 endo-2 xp-pcm for eta=3
 -----------------------
 Symbolic Z-matrix:
 Charge =  0 Multiplicity = 1
 6                    -3.1254   -0.44001   0.25208 
 6                    -0.65984  -0.23375  -1.12638 
 1                    -4.0842   -0.54329   0.74694 
 1                     0.30874  -0.14223  -1.59997 
 6                     1.12266   1.41712   0.73456 
 6                     0.65984   0.23375   1.12638 
 1                     0.53029   2.31465   0.8625 
 1                    -0.30874   0.14223   1.59997 
 6                     1.51058  -1.00068   1.04895 
 1                     1.99819  -1.10621   2.02633 
 1                     0.8883   -1.88631   0.92853 
 6                     2.43683   1.52333   0.10525 
 1                     2.84201   2.51025  -0.08409 
 6                     3.1254    0.44001  -0.25208 
 1                     4.0842    0.54329  -0.74694 
 6                     2.58587  -0.94855  -0.04222 
 1                     2.19129  -1.31899  -0.99644 
 1                     3.3991   -1.62877   0.21891 
 6                    -1.12266  -1.41712  -0.73456 
 1                    -0.53029  -2.31465  -0.8625 
 6                    -2.43683  -1.52333  -0.10525 
 1                    -2.84201  -2.51025   0.08409 
 6                    -1.51058   1.00068  -1.04895 
 1                    -0.8883    1.88631  -0.92853 
 1                    -1.99819   1.10621  -2.02633 
 6                    -2.58587   0.94855   0.04222 
 1                    -3.3991    1.62877  -0.21891 
 1                    -2.19129   1.31899   0.99644 
 
 ITRead=  0  0  0  0  0  0  0  0  0  0  0  0  0  0  0  0  0  0  0  0
 ITRead=  0  0  0  0  0  0  0  0
 MicOpt= -1 -1 -1 -1 -1 -1 -1 -1 -1 -1 -1 -1 -1 -1 -1 -1 -1 -1 -1 -1
 MicOpt= -1 -1 -1 -1 -1 -1 -1 -1
 NAtoms=     28 NQM=       28 NQMF=       0 NMMI=      0 NMMIF=      0
                NMic=       0 NMicF=      0.
                    Isotopes and Nuclear Properties:
 (Nuclear quadrupole moments (NQMom) in fm**2, nuclear magnetic moments (NMagM)
  in nuclear magnetons)

  Atom         1           2           3           4           5           6           7           8           9          10
 IAtWgt=          12          12           1           1          12          12           1           1          12           1
 AtmWgt=  12.0000000  12.0000000   1.0078250   1.0078250  12.0000000  12.0000000   1.0078250   1.0078250  12.0000000   1.0078250
 NucSpn=           0           0           1           1           0           0           1           1           0           1
 AtZEff=  -0.0000000  -0.0000000  -0.0000000  -0.0000000  -0.0000000  -0.0000000  -0.0000000  -0.0000000  -0.0000000  -0.0000000
 NQMom=    0.0000000   0.0000000   0.0000000   0.0000000   0.0000000   0.0000000   0.0000000   0.0000000   0.0000000   0.0000000
 NMagM=    0.0000000   0.0000000   2.7928460   2.7928460   0.0000000   0.0000000   2.7928460   2.7928460   0.0000000   2.7928460
 AtZNuc=   6.0000000   6.0000000   1.0000000   1.0000000   6.0000000   6.0000000   1.0000000   1.0000000   6.0000000   1.0000000

  Atom        11          12          13          14          15          16          17          18          19          20
 IAtWgt=           1          12           1          12           1          12           1           1          12           1
 AtmWgt=   1.0078250  12.0000000   1.0078250  12.0000000   1.0078250  12.0000000   1.0078250   1.0078250  12.0000000   1.0078250
 NucSpn=           1           0           1           0           1           0           1           1           0           1
 AtZEff=  -0.0000000  -0.0000000  -0.0000000  -0.0000000  -0.0000000  -0.0000000  -0.0000000  -0.0000000  -0.0000000  -0.0000000
 NQMom=    0.0000000   0.0000000   0.0000000   0.0000000   0.0000000   0.0000000   0.0000000   0.0000000   0.0000000   0.0000000
 NMagM=    2.7928460   0.0000000   2.7928460   0.0000000   2.7928460   0.0000000   2.7928460   2.7928460   0.0000000   2.7928460
 AtZNuc=   1.0000000   6.0000000   1.0000000   6.0000000   1.0000000   6.0000000   1.0000000   1.0000000   6.0000000   1.0000000

  Atom        21          22          23          24          25          26          27          28
 IAtWgt=          12           1          12           1           1          12           1           1
 AtmWgt=  12.0000000   1.0078250  12.0000000   1.0078250   1.0078250  12.0000000   1.0078250   1.0078250
 NucSpn=           0           1           0           1           1           0           1           1
 AtZEff=  -0.0000000  -0.0000000  -0.0000000  -0.0000000  -0.0000000  -0.0000000  -0.0000000  -0.0000000
 NQMom=    0.0000000   0.0000000   0.0000000   0.0000000   0.0000000   0.0000000   0.0000000   0.0000000
 NMagM=    0.0000000   2.7928460   0.0000000   2.7928460   2.7928460   0.0000000   2.7928460   2.7928460
 AtZNuc=   6.0000000   1.0000000   6.0000000   1.0000000   1.0000000   6.0000000   1.0000000   1.0000000
 Leave Link  101 at Mon Aug  3 17:25:32 2020, MaxMem=  6442450944 cpu:               2.4 elap:               0.1
 (Enter /scratch/scicomp/CentOS/7.3.1611/Haswell/software/Gaussian/g16/l202.exe)
                          Input orientation:                          
 ---------------------------------------------------------------------
 Center     Atomic      Atomic             Coordinates (Angstroms)
 Number     Number       Type             X           Y           Z
 ---------------------------------------------------------------------
      1          6           0       -3.125400   -0.440005    0.252083
      2          6           0       -0.659840   -0.233754   -1.126379
      3          1           0       -4.084200   -0.543289    0.746935
      4          1           0        0.308739   -0.142233   -1.599972
      5          6           0        1.122664    1.417123    0.734560
      6          6           0        0.659840    0.233754    1.126379
      7          1           0        0.530286    2.314651    0.862502
      8          1           0       -0.308739    0.142233    1.599972
      9          6           0        1.510582   -1.000676    1.048954
     10          1           0        1.998188   -1.106214    2.026331
     11          1           0        0.888300   -1.886305    0.928530
     12          6           0        2.436831    1.523333    0.105247
     13          1           0        2.842008    2.510246   -0.084086
     14          6           0        3.125400    0.440005   -0.252083
     15          1           0        4.084200    0.543289   -0.746935
     16          6           0        2.585867   -0.948552   -0.042215
     17          1           0        2.191291   -1.318993   -0.996443
     18          1           0        3.399102   -1.628770    0.218906
     19          6           0       -1.122664   -1.417123   -0.734560
     20          1           0       -0.530286   -2.314651   -0.862502
     21          6           0       -2.436831   -1.523333   -0.105247
     22          1           0       -2.842008   -2.510246    0.084086
     23          6           0       -1.510582    1.000676   -1.048954
     24          1           0       -0.888300    1.886305   -0.928530
     25          1           0       -1.998187    1.106214   -2.026331
     26          6           0       -2.585867    0.948552    0.042215
     27          1           0       -3.399102    1.628770   -0.218906
     28          1           0       -2.191291    1.318993    0.996443
 ---------------------------------------------------------------------
                    Distance matrix (angstroms):
                    1          2          3          4          5
     1  C    0.000000
     2  C    2.832258   0.000000
     3  H    1.083902   3.915528   0.000000
     4  H    3.913066   1.082041   4.996672   0.000000
     5  C    4.661304   3.060361   5.563704   2.923030   0.000000
     6  C    3.942891   2.652365   4.822208   2.774460   1.329696
     7  H    4.617876   3.444766   5.429057   3.485562   1.082976
     8  H    3.176379   2.774460   3.930867   3.271367   2.103140
     9  C    4.737266   3.167171   5.621566   3.032847   2.468821
    10  H    5.462870   4.214959   6.240928   4.115042   2.966891
    11  H    4.319624   3.057828   5.153875   3.125860   3.317407
    12  C    5.900396   3.767443   6.870701   3.195412   1.460942
    13  H    6.665354   4.569338   7.614921   3.968754   2.195733
    14  C    6.332543   3.942891   7.344606   3.176379   2.437042
    15  H    7.344606   4.822208   8.374668   3.930867   3.424779
    16  C    5.741411   3.495849   6.728803   2.874382   2.888038
    17  H    5.531604   3.053453   6.559182   2.300655   3.409496
    18  H    6.631997   4.497874   7.580032   3.881811   3.837386
    19  C    2.437042   1.329696   3.424779   2.103140   3.902917
    20  H    3.389869   2.101558   4.284660   2.442790   4.382806
    21  C    1.332446   2.421450   2.097743   3.417571   4.692714
    22  H    2.096290   3.377795   2.418952   4.286111   5.618360
    23  C    2.525054   1.501191   3.497507   2.218060   3.207543
    24  H    3.436594   2.141492   4.350159   2.449225   2.651410
    25  H    2.975327   2.096807   3.842306   2.657501   4.178384
    26  C    1.504404   2.544217   2.228726   3.502190   3.801592
    27  H    2.139293   3.434539   2.473873   4.334960   4.626041
    28  H    2.126195   3.043475   2.667106   3.889306   3.325734
                    6          7          8          9         10
     6  C    0.000000
     7  H    2.101558   0.000000
     8  H    1.082041   2.442790   0.000000
     9  C    1.501191   3.462245   2.218060   0.000000
    10  H    2.096808   3.900199   2.657501   1.097344   0.000000
    11  H    2.141492   4.216701   2.449225   1.089071   1.745153
    12  C    2.421450   2.198757   3.417571   2.849411   3.285953
    13  H    3.377795   2.505663   4.286111   3.922123   4.271379
    14  C    2.832258   3.389869   3.913066   2.525054   2.975327
    15  H    3.915528   4.284660   4.996672   3.497507   3.842305
    16  C    2.544217   3.961366   3.502190   1.532842   2.156179
    17  H    3.043475   4.406584   3.889306   2.179068   3.036400
    18  H    3.434539   4.918830   4.334960   2.156383   2.345722
    19  C    3.060361   4.382806   2.923030   3.207543   4.178385
    20  H    3.444766   5.052810   3.485562   3.089553   4.024780
    21  C    3.767443   4.946761   3.195412   4.145771   4.938320
    22  H    4.569338   5.937839   3.968754   4.706890   5.401029
    23  C    3.167171   3.089553   3.032847   4.187369   5.119358
    24  H    3.057828   2.324578   3.125860   4.242610   5.100803
    25  H    4.214958   4.024780   4.115042   5.119358   6.106547
    26  C    3.495849   3.499930   2.874382   4.646925   5.401142
    27  H    4.497874   4.132792   3.881811   5.711957   6.453833
    28  H    3.053453   2.901078   2.300655   4.368923   4.949145
                   11         12         13         14         15
    11  H    0.000000
    12  C    3.834237   0.000000
    13  H    4.916506   1.083519   0.000000
    14  C    3.436594   1.332446   2.096290   0.000000
    15  H    4.350159   2.097743   2.418952   1.083902   0.000000
    16  C    2.168746   2.480760   3.468522   1.504404   2.228726
    17  H    2.392728   3.058239   3.989850   2.126195   2.667106
    18  H    2.621835   3.297671   4.187316   2.139293   2.473873
    19  C    2.651410   4.692714   5.618360   4.661304   5.563704
    20  H    2.324578   4.946761   5.937839   4.617876   5.429057
    21  C    3.500991   5.751440   6.643519   5.900396   6.870701
    22  H    3.875253   6.643519   7.585622   6.665354   7.614921
    23  C    4.242610   4.145771   4.706890   4.737266   5.621566
    24  H    4.564818   3.500991   3.875253   4.319624   5.153875
    25  H    5.100802   4.938319   5.401029   5.462869   6.240927
    26  C    4.570755   5.055872   5.649484   5.741411   6.728803
    27  H    5.661641   5.845879   6.304493   6.631997   7.580032
    28  H    4.445495   4.717573   5.284007   5.531604   6.559182
                   16         17         18         19         20
    16  C    0.000000
    17  H    1.097027   0.000000
    18  H    1.091894   1.741219   0.000000
    19  C    3.801592   3.325734   4.626041   0.000000
    20  H    3.499930   2.901078   4.132792   1.082976   0.000000
    21  C    5.055872   4.717573   5.845879   1.460942   2.198757
    22  H    5.649484   5.284007   6.304493   2.195733   2.505663
    23  C    4.646925   4.368923   5.711957   2.468821   3.462245
    24  H    4.570755   4.445495   5.661641   3.317407   4.216701
    25  H    5.401142   4.949144   6.453833   2.966891   3.900199
    26  C    5.509352   5.389045   6.518716   2.888038   3.961366
    27  H    6.518716   6.367603   7.551081   3.837386   4.918830
    28  H    5.389045   5.489771   6.367603   3.409496   4.406584
                   21         22         23         24         25
    21  C    0.000000
    22  H    1.083519   0.000000
    23  C    2.849411   3.922123   0.000000
    24  H    3.834237   4.916506   1.089071   0.000000
    25  H    3.285953   4.271379   1.097343   1.745153   0.000000
    26  C    2.480760   3.468522   1.532842   2.168746   2.156179
    27  H    3.297671   4.187316   2.156383   2.621835   2.345722
    28  H    3.058239   3.989850   2.179068   2.392728   3.036400
                   26         27         28
    26  C    0.000000
    27  H    1.091894   0.000000
    28  H    1.097027   1.741219   0.000000
 Symmetry turned off by external request.
 Stoichiometry    C12H16
 Framework group  CI[X(C12H16)]
 Deg. of freedom    39
 Full point group                 CI      NOp   2
 Rotational constants (GHZ):           1.8309195           0.6121209           0.5434251
 Leave Link  202 at Mon Aug  3 17:25:32 2020, MaxMem=  6442450944 cpu:               0.3 elap:               0.0
 (Enter /scratch/scicomp/CentOS/7.3.1611/Haswell/software/Gaussian/g16/l301.exe)
 Standard basis: def2TZVP (5D, 7F)
 Ernie: Thresh=  0.10000D-02 Tol=  0.10000D-05 Strict=F.
   468 basis functions,   740 primitive gaussians,   528 cartesian basis functions
    44 alpha electrons       44 beta electrons
       nuclear repulsion energy       682.5226214968 Hartrees.
 IExCor= 4639 DFT=T Ex+Corr=wB97XD ExCW=0 ScaHFX=  1.000000
 ScaDFX=  1.000000  1.000000  1.000000  1.000000 ScalE2=  1.000000  1.000000
 IRadAn=      5 IRanWt=     -1 IRanGd=            0 ICorTp=0 IEmpDi=121
 HFx  wShort=  0.000000 wLong=  0.200000 cFull=  0.222036 cShort=  0.000000 cLong=  0.777964
 DFx  wShort=  0.000000 wLong=  0.200000 cFull=  0.000000 cShort=  0.000000 cLong=  1.000000
 NAtoms=   28 NActive=   28 NUniq=   28 SFac= 1.00D+00 NAtFMM=   60 NAOKFM=F Big=F
 Integral buffers will be    131072 words long.
 Raffenetti 2 integral format.
 Two-electron integral symmetry is turned off.
 R6Disp:  Grimme-D2 Dispersion energy=       -0.0227943531 Hartrees.
 Nuclear repulsion after empirical dispersion term =      682.4998271437 Hartrees.
 Using the following non-standard input for PCM:
 qrep pcmdoc geomview  nodis nocav g03defaults tsare=0.075
 Warning! Using old PCM defaults because the g03defaults keyword was found.
 These settings can be overridden by following keywords.
 nsfe=28
 NVESolv=36  SolvMW=84.1595   Rsolv=2.815
 eps=2.0165 RhoS=0.7781
 --- end of non-standard input.
 Reading user-defined spheres from input:
 ISph  on   Nord    Re0     Alpha      Xe            Ye            Ze
 --- end of user-defined spheres data.
 ------------------------------------------------------------------------------
 Polarizable Continuum Model (PCM)
 =================================
 Model                : PCM.
 Atomic radii         : UA0 (Simple United Atom Topological Model).
 Polarization charges : Total charges.
 Charge compensation  : None.
 Solution method      : On-the-fly selection.
 Cavity type          : SES (Solvent Excluding Surface) (Alpha=1.000).
 Cavity algorithm     : GePol (RMin=0.200 OFac=0.890).
                        User-defined sphere list used, NSphG=   28.
                        Tesserae with average area of 0.075 Ang**2.
                        Smoothing algorithm: None.
                        Polarization charges: point-like.
                        Self-potential: constant (ISelfS= 1).
                        Self-field    : global E.n sum rule (ISelfD= 3).
 Solvent              : CycloHexane, Eps=   2.016500 Eps(inf)=   2.035188
                        RSolv=   2.815000 Ang.
 ------------------------------------------------------------------------------
 GePol: Number of generator spheres                  =      28
 GePol: Total number of spheres                      =     266
 GePol: Number of exposed spheres                    =     188 ( 70.68%)
 GePol: Number of tesserae                           =    4629
 GePol: Average area of tesserae                     =       0.04 Ang**2
 GePol: Minimum area of tessera                      =   0.10D-02 Ang**2
 GePol: Maximum area of tessera                      =    0.11641 Ang**2
 GePol: Number of small tesserae                     =       0
 GePol: Fraction of small tesserae (<1% of avg)      =       0.00%
 GePol: Total count of vertices                      =   16678
 GePol: Maximum number of vertices in a tessera      =       7
 GePol: Cavity surface area                          =    205.917 Ang**2
 GePol: Cavity volume                                =    220.583 Ang**3
 Leave Link  301 at Mon Aug  3 17:25:33 2020, MaxMem=  6442450944 cpu:               9.1 elap:               0.4
 (Enter /scratch/scicomp/CentOS/7.3.1611/Haswell/software/Gaussian/g16/l302.exe)
 NPDir=0 NMtPBC=     1 NCelOv=     1 NCel=       1 NClECP=     1 NCelD=      1
         NCelK=      1 NCelE2=     1 NClLst=     1 CellRange=     0.0.
 One-electron integrals computed using PRISM.
   1 Symmetry operations used in ECPInt.
 ECPInt:  NShTT=   19306 NPrTT=   56928 LenC2=   18500 LenP2D=   42068.
 LDataN:  DoStor=T MaxTD1= 6 Len=  172
 NBasis=   468 RedAO= T EigKep=  2.29D-05  NBF=   468
 NBsUse=   468 1.00D-06 EigRej= -1.00D+00 NBFU=   468
 Precomputing XC quadrature grid using
 IXCGrd= 4 IRadAn=           5 IRanWt=          -1 IRanGd=           0 AccXCQ= 0.00D+00.
 Generated NRdTot=       0 NPtTot=           0 NUsed=           0 NTot=          32
 NSgBfM=   526   526   526   526   526 MxSgAt=    28 MxSgA2=    28.
 Leave Link  302 at Mon Aug  3 17:25:33 2020, MaxMem=  6442450944 cpu:              11.9 elap:               0.5
 (Enter /scratch/scicomp/CentOS/7.3.1611/Haswell/software/Gaussian/g16/l401.exe)
 ExpMin= 9.52D-02 ExpMax= 1.36D+04 ExpMxC= 4.63D+02 IAcc=3 IRadAn=         5 AccDes= 0.00D+00
 Harris functional with IExCor= 4639 and IRadAn=       5 diagonalized for initial guess.
 HarFok:  IExCor= 4639 AccDes= 0.00D+00 IRadAn=         5 IDoV= 1 UseB2=F ITyADJ=14
 ICtDFT=  3500011 ScaDFX=  1.000000  1.000000  1.000000  1.000000
 FoFCou: FMM=F IPFlag=           0 FMFlag=      100000 FMFlg1=           0
         NFxFlg=           0 DoJE=T BraDBF=F KetDBF=T FulRan=T
         wScrn=  0.000000 ICntrl=       500 IOpCl=  0 I1Cent=   200000004 NGrid=           0
         NMat0=    1 NMatS0=      1 NMatT0=    0 NMatD0=    1 NMtDS0=    0 NMtDT0=    0
 Symmetry not used in FoFCou.
 Harris En= -444.625940511959    
 JPrj=0 DoOrth=F DoCkMO=T.
 Mixing orbitals, IMix= 1 IMixAn=  0 NRI=1 NE=   44 Coef=  7.07106781D-01  7.07106781D-01
 Mixing orbitals, IMix= 1 IMixAn=  0 NRI=1 NE=   44 Coef= -7.07106781D-01  7.07106781D-01
 Initial guess <Sx>= 0.0000 <Sy>= 0.0000 <Sz>= 0.0000 <S**2>= 1.0000 S= 0.6180
 Leave Link  401 at Mon Aug  3 17:25:35 2020, MaxMem=  6442450944 cpu:              47.3 elap:               2.0
 (Enter /scratch/scicomp/CentOS/7.3.1611/Haswell/software/Gaussian/g16/l9999.exe)

 This type of calculation cannot be archived.


 Change starts when someone sees the next step.
                            -- William Drayton
 Job cpu time:       0 days  0 hours  1 minutes 13.4 seconds.
 Elapsed time:       0 days  0 hours  0 minutes  3.3 seconds.
 File lengths (MBytes):  RWF=    392 Int=      0 D2E=      0 Chk=      1 Scr=      1
 Normal termination of Gaussian 16 at Mon Aug  3 17:25:36 2020.
 Initial command:
 /scratch/scicomp/CentOS/7.3.1611/Haswell/software/Gaussian/g16/l1.exe "/scratch/bochen/cyclohexadiene-dimerization/wb97xd-def2tzvp/xp-pcm/meso/Gau-91314.inp" -scrdir="/scratch/bochen/cyclohexadiene-dimerization/wb97xd-def2tzvp/xp-pcm/meso/"
 Entering Link 1 = /scratch/scicomp/CentOS/7.3.1611/Haswell/software/Gaussian/g16/l1.exe PID=     91808.
  
 Copyright (c) 1988-2017, Gaussian, Inc.  All Rights Reserved.
  
 This is part of the Gaussian(R) 16 program.  It is based on
 the Gaussian(R) 09 system (copyright 2009, Gaussian, Inc.),
 the Gaussian(R) 03 system (copyright 2003, Gaussian, Inc.),
 the Gaussian(R) 98 system (copyright 1998, Gaussian, Inc.),
 the Gaussian(R) 94 system (copyright 1995, Gaussian, Inc.),
 the Gaussian 92(TM) system (copyright 1992, Gaussian, Inc.),
 the Gaussian 90(TM) system (copyright 1990, Gaussian, Inc.),
 the Gaussian 88(TM) system (copyright 1988, Gaussian, Inc.),
 the Gaussian 86(TM) system (copyright 1986, Carnegie Mellon
 University), and the Gaussian 82(TM) system (copyright 1983,
 Carnegie Mellon University). Gaussian is a federally registered
 trademark of Gaussian, Inc.
  
 This software contains proprietary and confidential information,
 including trade secrets, belonging to Gaussian, Inc.
  
 This software is provided under written license and may be
 used, copied, transmitted, or stored only in accord with that
 written license.
  
 The following legend is applicable only to US Government
 contracts under FAR:
  
                    RESTRICTED RIGHTS LEGEND
  
 Use, reproduction and disclosure by the US Government is
 subject to restrictions as set forth in subparagraphs (a)
 and (c) of the Commercial Computer Software - Restricted
 Rights clause in FAR 52.227-19.
  
 Gaussian, Inc.
 340 Quinnipiac St., Bldg. 40, Wallingford CT 06492
  
  
 ---------------------------------------------------------------
 Warning -- This program may not be used in any manner that
 competes with the business of Gaussian, Inc. or will provide
 assistance to any competitor of Gaussian, Inc.  The licensee
 of this program is prohibited from giving any competitor of
 Gaussian, Inc. access to this program.  By using this program,
 the user acknowledges that Gaussian, Inc. is engaged in the
 business of creating and licensing software in the field of
 computational chemistry and represents and warrants to the
 licensee that it is not a competitor of Gaussian, Inc. and that
 it will not use this program in any manner prohibited above.
 ---------------------------------------------------------------
  

 Cite this work as:
 Gaussian 16, Revision B.01,
 M. J. Frisch, G. W. Trucks, H. B. Schlegel, G. E. Scuseria, 
 M. A. Robb, J. R. Cheeseman, G. Scalmani, V. Barone, 
 G. A. Petersson, H. Nakatsuji, X. Li, M. Caricato, A. V. Marenich, 
 J. Bloino, B. G. Janesko, R. Gomperts, B. Mennucci, H. P. Hratchian, 
 J. V. Ortiz, A. F. Izmaylov, J. L. Sonnenberg, D. Williams-Young, 
 F. Ding, F. Lipparini, F. Egidi, J. Goings, B. Peng, A. Petrone, 
 T. Henderson, D. Ranasinghe, V. G. Zakrzewski, J. Gao, N. Rega, 
 G. Zheng, W. Liang, M. Hada, M. Ehara, K. Toyota, R. Fukuda, 
 J. Hasegawa, M. Ishida, T. Nakajima, Y. Honda, O. Kitao, H. Nakai, 
 T. Vreven, K. Throssell, J. A. Montgomery, Jr., J. E. Peralta, 
 F. Ogliaro, M. J. Bearpark, J. J. Heyd, E. N. Brothers, K. N. Kudin, 
 V. N. Staroverov, T. A. Keith, R. Kobayashi, J. Normand, 
 K. Raghavachari, A. P. Rendell, J. C. Burant, S. S. Iyengar, 
 J. Tomasi, M. Cossi, J. M. Millam, M. Klene, C. Adamo, R. Cammi, 
 J. W. Ochterski, R. L. Martin, K. Morokuma, O. Farkas, 
 J. B. Foresman, and D. J. Fox, Gaussian, Inc., Wallingford CT, 2016.
 
 ******************************************
 Gaussian 16:  ES64L-G16RevB.01 20-Dec-2017
                 3-Aug-2020 
 ******************************************
 %chk=meso-TS_34_2_xp-105.chk
 %nproc=24
 Will use up to   24 processors via shared memory.
 %mem=48GB
 ----------------------------------------------------------------------
 #p uwb97xd guess=mix def2tzvp # scrf=(iefpcm,solvent=Cyclohexane,read)
  nosym guess=only pop=none
 ----------------------------------------------------------------------
 1/38=1,40=2,172=1/1;
 2/12=2,15=1,17=6,18=5,40=1/2;
 3/5=44,7=101,11=2,25=1,30=1,70=2203,72=17,74=-58,89=1,116=2/1,2;
 4/13=-1/1;
 99/5=2/99;
 Leave Link    1 at Mon Aug  3 17:25:36 2020, MaxMem=  6442450944 cpu:               1.7 elap:               0.1
 (Enter /scratch/scicomp/CentOS/7.3.1611/Haswell/software/Gaussian/g16/l101.exe)
 -----------------------
 endo-2 xp-pcm for eta=3
 -----------------------
 Symbolic Z-matrix:
 Charge =  0 Multiplicity = 1
 6                    -3.1254   -0.44001   0.25208 
 6                    -0.65984  -0.23375  -1.12638 
 1                    -4.0842   -0.54329   0.74694 
 1                     0.30874  -0.14223  -1.59997 
 6                     1.12266   1.41712   0.73456 
 6                     0.65984   0.23375   1.12638 
 1                     0.53029   2.31465   0.8625 
 1                    -0.30874   0.14223   1.59997 
 6                     1.51058  -1.00068   1.04895 
 1                     1.99819  -1.10621   2.02633 
 1                     0.8883   -1.88631   0.92853 
 6                     2.43683   1.52333   0.10525 
 1                     2.84201   2.51025  -0.08409 
 6                     3.1254    0.44001  -0.25208 
 1                     4.0842    0.54329  -0.74694 
 6                     2.58587  -0.94855  -0.04222 
 1                     2.19129  -1.31899  -0.99644 
 1                     3.3991   -1.62877   0.21891 
 6                    -1.12266  -1.41712  -0.73456 
 1                    -0.53029  -2.31465  -0.8625 
[...]
 6                    -0.65984  -0.23375  -1.12638 
 1                    -4.0842   -0.54329   0.74694 
 1                     0.30874  -0.14223  -1.59997 
 6                     1.12266   1.41712   0.73456 
 6                     0.65984   0.23375   1.12638 
 1                     0.53029   2.31465   0.8625 
 1                    -0.30874   0.14223   1.59997 
 6                     1.51058  -1.00068   1.04895 
 1                     1.99819  -1.10621   2.02633 
 1                     0.8883   -1.88631   0.92853 
 6                     2.43683   1.52333   0.10525 
 1                     2.84201   2.51025  -0.08409 
 6                     3.1254    0.44001  -0.25208 
 1                     4.0842    0.54329  -0.74694 
 6                     2.58587  -0.94855  -0.04222 
 1                     2.19129  -1.31899  -0.99644 
 1                     3.3991   -1.62877   0.21891 
 6                    -1.12266  -1.41712  -0.73456 
 1                    -0.53029  -2.31465  -0.8625 
 6                    -2.43683  -1.52333  -0.10525 
 1                    -2.84201  -2.51025   0.08409 
 6                    -1.51058   1.00068  -1.04895 
 1                    -0.8883    1.88631  -0.92853 
 1                    -1.99819   1.10621  -2.02633 
 6                    -2.58587   0.94855   0.04222 
 1                    -3.3991    1.62877  -0.21891 
 1                    -2.19129   1.31899   0.99644 
 
 ITRead=  0  0  0  0  0  0  0  0  0  0  0  0  0  0  0  0  0  0  0  0
 ITRead=  0  0  0  0  0  0  0  0
 MicOpt= -1 -1 -1 -1 -1 -1 -1 -1 -1 -1 -1 -1 -1 -1 -1 -1 -1 -1 -1 -1
 MicOpt= -1 -1 -1 -1 -1 -1 -1 -1
 NAtoms=     28 NQM=       28 NQMF=       0 NMMI=      0 NMMIF=      0
                NMic=       0 NMicF=      0.
                    Isotopes and Nuclear Properties:
 (Nuclear quadrupole moments (NQMom) in fm**2, nuclear magnetic moments (NMagM)
  in nuclear magnetons)

  Atom         1           2           3           4           5           6           7           8           9          10
 IAtWgt=          12          12           1           1          12          12           1           1          12           1
 AtmWgt=  12.0000000  12.0000000   1.0078250   1.0078250  12.0000000  12.0000000   1.0078250   1.0078250  12.0000000   1.0078250
 NucSpn=           0           0           1           1           0           0           1           1           0           1
 AtZEff=  -0.0000000  -0.0000000  -0.0000000  -0.0000000  -0.0000000  -0.0000000  -0.0000000  -0.0000000  -0.0000000  -0.0000000
 NQMom=    0.0000000   0.0000000   0.0000000   0.0000000   0.0000000   0.0000000   0.0000000   0.0000000   0.0000000   0.0000000
 NMagM=    0.0000000   0.0000000   2.7928460   2.7928460   0.0000000   0.0000000   2.7928460   2.7928460   0.0000000   2.7928460
 AtZNuc=   6.0000000   6.0000000   1.0000000   1.0000000   6.0000000   6.0000000   1.0000000   1.0000000   6.0000000   1.0000000

  Atom        11          12          13          14          15          16          17          18          19          20
 IAtWgt=           1          12           1          12           1          12           1           1          12           1
 AtmWgt=   1.0078250  12.0000000   1.0078250  12.0000000   1.0078250  12.0000000   1.0078250   1.0078250  12.0000000   1.0078250
 NucSpn=           1           0           1           0           1           0           1           1           0           1
 AtZEff=  -0.0000000  -0.0000000  -0.0000000  -0.0000000  -0.0000000  -0.0000000  -0.0000000  -0.0000000  -0.0000000  -0.0000000
 NQMom=    0.0000000   0.0000000   0.0000000   0.0000000   0.0000000   0.0000000   0.0000000   0.0000000   0.0000000   0.0000000
 NMagM=    2.7928460   0.0000000   2.7928460   0.0000000   2.7928460   0.0000000   2.7928460   2.7928460   0.0000000   2.7928460
 AtZNuc=   1.0000000   6.0000000   1.0000000   6.0000000   1.0000000   6.0000000   1.0000000   1.0000000   6.0000000   1.0000000

  Atom        21          22          23          24          25          26          27          28
 IAtWgt=          12           1          12           1           1          12           1           1
 AtmWgt=  12.0000000   1.0078250  12.0000000   1.0078250   1.0078250  12.0000000   1.0078250   1.0078250
 NucSpn=           0           1           0           1           1           0           1           1
 AtZEff=  -0.0000000  -0.0000000  -0.0000000  -0.0000000  -0.0000000  -0.0000000  -0.0000000  -0.0000000
 NQMom=    0.0000000   0.0000000   0.0000000   0.0000000   0.0000000   0.0000000   0.0000000   0.0000000
 NMagM=    0.0000000   2.7928460   0.0000000   2.7928460   2.7928460   0.0000000   2.7928460   2.7928460
 AtZNuc=   6.0000000   1.0000000   6.0000000   1.0000000   1.0000000   6.0000000   1.0000000   1.0000000
 Leave Link  101 at Mon Aug  3 17:25:47 2020, MaxMem=  6442450944 cpu:               2.4 elap:               0.1
 (Enter /scratch/scicomp/CentOS/7.3.1611/Haswell/software/Gaussian/g16/l202.exe)
                          Input orientation:                          
 ---------------------------------------------------------------------
 Center     Atomic      Atomic             Coordinates (Angstroms)
 Number     Number       Type             X           Y           Z
 ---------------------------------------------------------------------
      1          6           0       -3.125400   -0.440005    0.252083
      2          6           0       -0.659840   -0.233754   -1.126379
      3          1           0       -4.084200   -0.543289    0.746935
      4          1           0        0.308739   -0.142233   -1.599972
      5          6           0        1.122664    1.417123    0.734560
      6          6           0        0.659840    0.233754    1.126379
      7          1           0        0.530286    2.314651    0.862502
      8          1           0       -0.308739    0.142233    1.599972
      9          6           0        1.510582   -1.000676    1.048954
     10          1           0        1.998188   -1.106214    2.026331
     11          1           0        0.888300   -1.886305    0.928530
     12          6           0        2.436831    1.523333    0.105247
     13          1           0        2.842008    2.510246   -0.084086
     14          6           0        3.125400    0.440005   -0.252083
     15          1           0        4.084200    0.543289   -0.746935
     16          6           0        2.585867   -0.948552   -0.042215
     17          1           0        2.191291   -1.318993   -0.996443
     18          1           0        3.399102   -1.628770    0.218906
     19          6           0       -1.122664   -1.417123   -0.734560
     20          1           0       -0.530286   -2.314651   -0.862502
     21          6           0       -2.436831   -1.523333   -0.105247
     22          1           0       -2.842008   -2.510246    0.084086
     23          6           0       -1.510582    1.000676   -1.048954
     24          1           0       -0.888300    1.886305   -0.928530
     25          1           0       -1.998187    1.106214   -2.026331
     26          6           0       -2.585867    0.948552    0.042215
     27          1           0       -3.399102    1.628770   -0.218906
     28          1           0       -2.191291    1.318993    0.996443
 ---------------------------------------------------------------------
                    Distance matrix (angstroms):
                    1          2          3          4          5
     1  C    0.000000
     2  C    2.832258   0.000000
     3  H    1.083902   3.915528   0.000000
     4  H    3.913066   1.082041   4.996672   0.000000
     5  C    4.661304   3.060361   5.563704   2.923030   0.000000
     6  C    3.942891   2.652365   4.822208   2.774460   1.329696
     7  H    4.617876   3.444766   5.429057   3.485562   1.082976
     8  H    3.176379   2.774460   3.930867   3.271367   2.103140
     9  C    4.737266   3.167171   5.621566   3.032847   2.468821
    10  H    5.462870   4.214959   6.240928   4.115042   2.966891
    11  H    4.319624   3.057828   5.153875   3.125860   3.317407
    12  C    5.900396   3.767443   6.870701   3.195412   1.460942
    13  H    6.665354   4.569338   7.614921   3.968754   2.195733
    14  C    6.332543   3.942891   7.344606   3.176379   2.437042
    15  H    7.344606   4.822208   8.374668   3.930867   3.424779
    16  C    5.741411   3.495849   6.728803   2.874382   2.888038
    17  H    5.531604   3.053453   6.559182   2.300655   3.409496
    18  H    6.631997   4.497874   7.580032   3.881811   3.837386
    19  C    2.437042   1.329696   3.424779   2.103140   3.902917
    20  H    3.389869   2.101558   4.284660   2.442790   4.382806
    21  C    1.332446   2.421450   2.097743   3.417571   4.692714
    22  H    2.096290   3.377795   2.418952   4.286111   5.618360
    23  C    2.525054   1.501191   3.497507   2.218060   3.207543
    24  H    3.436594   2.141492   4.350159   2.449225   2.651410
    25  H    2.975327   2.096807   3.842306   2.657501   4.178384
    26  C    1.504404   2.544217   2.228726   3.502190   3.801592
    27  H    2.139293   3.434539   2.473873   4.334960   4.626041
    28  H    2.126195   3.043475   2.667106   3.889306   3.325734
                    6          7          8          9         10
     6  C    0.000000
     7  H    2.101558   0.000000
     8  H    1.082041   2.442790   0.000000
     9  C    1.501191   3.462245   2.218060   0.000000
    10  H    2.096808   3.900199   2.657501   1.097344   0.000000
    11  H    2.141492   4.216701   2.449225   1.089071   1.745153
    12  C    2.421450   2.198757   3.417571   2.849411   3.285953
    13  H    3.377795   2.505663   4.286111   3.922123   4.271379
    14  C    2.832258   3.389869   3.913066   2.525054   2.975327
    15  H    3.915528   4.284660   4.996672   3.497507   3.842305
    16  C    2.544217   3.961366   3.502190   1.532842   2.156179
    17  H    3.043475   4.406584   3.889306   2.179068   3.036400
    18  H    3.434539   4.918830   4.334960   2.156383   2.345722
    19  C    3.060361   4.382806   2.923030   3.207543   4.178385
    20  H    3.444766   5.052810   3.485562   3.089553   4.024780
    21  C    3.767443   4.946761   3.195412   4.145771   4.938320
    22  H    4.569338   5.937839   3.968754   4.706890   5.401029
    23  C    3.167171   3.089553   3.032847   4.187369   5.119358
    24  H    3.057828   2.324578   3.125860   4.242610   5.100803
    25  H    4.214958   4.024780   4.115042   5.119358   6.106547
    26  C    3.495849   3.499930   2.874382   4.646925   5.401142
    27  H    4.497874   4.132792   3.881811   5.711957   6.453833
    28  H    3.053453   2.901078   2.300655   4.368923   4.949145
                   11         12         13         14         15
    11  H    0.000000
    12  C    3.834237   0.000000
    13  H    4.916506   1.083519   0.000000
    14  C    3.436594   1.332446   2.096290   0.000000
    15  H    4.350159   2.097743   2.418952   1.083902   0.000000
    16  C    2.168746   2.480760   3.468522   1.504404   2.228726
    17  H    2.392728   3.058239   3.989850   2.126195   2.667106
    18  H    2.621835   3.297671   4.187316   2.139293   2.473873
    19  C    2.651410   4.692714   5.618360   4.661304   5.563704
    20  H    2.324578   4.946761   5.937839   4.617876   5.429057
    21  C    3.500991   5.751440   6.643519   5.900396   6.870701
    22  H    3.875253   6.643519   7.585622   6.665354   7.614921
    23  C    4.242610   4.145771   4.706890   4.737266   5.621566
    24  H    4.564818   3.500991   3.875253   4.319624   5.153875
    25  H    5.100802   4.938319   5.401029   5.462869   6.240927
    26  C    4.570755   5.055872   5.649484   5.741411   6.728803
    27  H    5.661641   5.845879   6.304493   6.631997   7.580032
    28  H    4.445495   4.717573   5.284007   5.531604   6.559182
                   16         17         18         19         20
    16  C    0.000000
    17  H    1.097027   0.000000
    18  H    1.091894   1.741219   0.000000
    19  C    3.801592   3.325734   4.626041   0.000000
    20  H    3.499930   2.901078   4.132792   1.082976   0.000000
    21  C    5.055872   4.717573   5.845879   1.460942   2.198757
    22  H    5.649484   5.284007   6.304493   2.195733   2.505663
    23  C    4.646925   4.368923   5.711957   2.468821   3.462245
    24  H    4.570755   4.445495   5.661641   3.317407   4.216701
    25  H    5.401142   4.949144   6.453833   2.966891   3.900199
    26  C    5.509352   5.389045   6.518716   2.888038   3.961366
    27  H    6.518716   6.367603   7.551081   3.837386   4.918830
    28  H    5.389045   5.489771   6.367603   3.409496   4.406584
                   21         22         23         24         25
    21  C    0.000000
    22  H    1.083519   0.000000
    23  C    2.849411   3.922123   0.000000
    24  H    3.834237   4.916506   1.089071   0.000000
    25  H    3.285953   4.271379   1.097343   1.745153   0.000000
    26  C    2.480760   3.468522   1.532842   2.168746   2.156179
    27  H    3.297671   4.187316   2.156383   2.621835   2.345722
    28  H    3.058239   3.989850   2.179068   2.392728   3.036400
                   26         27         28
    26  C    0.000000
    27  H    1.091894   0.000000
    28  H    1.097027   1.741219   0.000000
 Symmetry turned off by external request.
 Stoichiometry    C12H16
 Framework group  CI[X(C12H16)]
 Deg. of freedom    39
 Full point group                 CI      NOp   2
 Rotational constants (GHZ):           1.8309195           0.6121209           0.5434251
 Leave Link  202 at Mon Aug  3 17:25:47 2020, MaxMem=  6442450944 cpu:               0.3 elap:               0.0
 (Enter /scratch/scicomp/CentOS/7.3.1611/Haswell/software/Gaussian/g16/l301.exe)
 Standard basis: def2TZVP (5D, 7F)
 Ernie: Thresh=  0.10000D-02 Tol=  0.10000D-05 Strict=F.
   468 basis functions,   740 primitive gaussians,   528 cartesian basis functions
    44 alpha electrons       44 beta electrons
       nuclear repulsion energy       682.5226214968 Hartrees.
 IExCor= 4639 DFT=T Ex+Corr=wB97XD ExCW=0 ScaHFX=  1.000000
 ScaDFX=  1.000000  1.000000  1.000000  1.000000 ScalE2=  1.000000  1.000000
 IRadAn=      5 IRanWt=     -1 IRanGd=            0 ICorTp=0 IEmpDi=121
 HFx  wShort=  0.000000 wLong=  0.200000 cFull=  0.222036 cShort=  0.000000 cLong=  0.777964
 DFx  wShort=  0.000000 wLong=  0.200000 cFull=  0.000000 cShort=  0.000000 cLong=  1.000000
 NAtoms=   28 NActive=   28 NUniq=   28 SFac= 1.00D+00 NAtFMM=   60 NAOKFM=F Big=F
 Integral buffers will be    131072 words long.
 Raffenetti 2 integral format.
 Two-electron integral symmetry is turned off.
 R6Disp:  Grimme-D2 Dispersion energy=       -0.0227943531 Hartrees.
 Nuclear repulsion after empirical dispersion term =      682.4998271437 Hartrees.
 Using the following non-standard input for PCM:
 qrep pcmdoc geomview  nodis nocav g03defaults tsare=0.075
 Warning! Using old PCM defaults because the g03defaults keyword was found.
 These settings can be overridden by following keywords.
 nsfe=28
 NVESolv=36  SolvMW=84.1595   Rsolv=2.815
 eps=2.0165 RhoS=0.7781
 --- end of non-standard input.
 Reading user-defined spheres from input:
 ISph  on   Nord    Re0     Alpha      Xe            Ye            Ze
 --- end of user-defined spheres data.
 ------------------------------------------------------------------------------
 Polarizable Continuum Model (PCM)
 =================================
 Model                : PCM.
 Atomic radii         : UA0 (Simple United Atom Topological Model).
 Polarization charges : Total charges.
 Charge compensation  : None.
 Solution method      : On-the-fly selection.
 Cavity type          : SES (Solvent Excluding Surface) (Alpha=1.000).
 Cavity algorithm     : GePol (RMin=0.200 OFac=0.890).
                        User-defined sphere list used, NSphG=   28.
                        Tesserae with average area of 0.075 Ang**2.
                        Smoothing algorithm: None.
                        Polarization charges: point-like.
                        Self-potential: constant (ISelfS= 1).
                        Self-field    : global E.n sum rule (ISelfD= 3).
 Solvent              : CycloHexane, Eps=   2.016500 Eps(inf)=   2.035188
                        RSolv=   2.815000 Ang.
 ------------------------------------------------------------------------------
 GePol: Number of generator spheres                  =      28
 GePol: Total number of spheres                      =     429
 GePol: Number of exposed spheres                    =     261 ( 60.84%)
 GePol: Number of tesserae                           =    4420
 GePol: Average area of tesserae                     =       0.04 Ang**2
 GePol: Minimum area of tessera                      =   0.10D-02 Ang**2
 GePol: Maximum area of tessera                      =    0.12578 Ang**2
 GePol: Number of small tesserae                     =       0
 GePol: Fraction of small tesserae (<1% of avg)      =       0.00%
 GePol: Total count of vertices                      =   16499
 GePol: Maximum number of vertices in a tessera      =       8
 GePol: Cavity surface area                          =    185.134 Ang**2
 GePol: Cavity volume                                =    181.747 Ang**3
 Leave Link  301 at Mon Aug  3 17:25:48 2020, MaxMem=  6442450944 cpu:              10.8 elap:               0.5
 (Enter /scratch/scicomp/CentOS/7.3.1611/Haswell/software/Gaussian/g16/l302.exe)
 NPDir=0 NMtPBC=     1 NCelOv=     1 NCel=       1 NClECP=     1 NCelD=      1
         NCelK=      1 NCelE2=     1 NClLst=     1 CellRange=     0.0.
 One-electron integrals computed using PRISM.
   1 Symmetry operations used in ECPInt.
 ECPInt:  NShTT=   19306 NPrTT=   56928 LenC2=   18500 LenP2D=   42068.
 LDataN:  DoStor=T MaxTD1= 6 Len=  172
 NBasis=   468 RedAO= T EigKep=  2.29D-05  NBF=   468
 NBsUse=   468 1.00D-06 EigRej= -1.00D+00 NBFU=   468
 Precomputing XC quadrature grid using
 IXCGrd= 4 IRadAn=           5 IRanWt=          -1 IRanGd=           0 AccXCQ= 0.00D+00.
 Generated NRdTot=       0 NPtTot=           0 NUsed=           0 NTot=          32
 NSgBfM=   526   526   526   526   526 MxSgAt=    28 MxSgA2=    28.
 Leave Link  302 at Mon Aug  3 17:25:48 2020, MaxMem=  6442450944 cpu:              11.8 elap:               0.5
 (Enter /scratch/scicomp/CentOS/7.3.1611/Haswell/software/Gaussian/g16/l401.exe)
 ExpMin= 9.52D-02 ExpMax= 1.36D+04 ExpMxC= 4.63D+02 IAcc=3 IRadAn=         5 AccDes= 0.00D+00
 Harris functional with IExCor= 4639 and IRadAn=       5 diagonalized for initial guess.
 HarFok:  IExCor= 4639 AccDes= 0.00D+00 IRadAn=         5 IDoV= 1 UseB2=F ITyADJ=14
 ICtDFT=  3500011 ScaDFX=  1.000000  1.000000  1.000000  1.000000
 FoFCou: FMM=F IPFlag=           0 FMFlag=      100000 FMFlg1=           0
         NFxFlg=           0 DoJE=T BraDBF=F KetDBF=T FulRan=T
         wScrn=  0.000000 ICntrl=       500 IOpCl=  0 I1Cent=   200000004 NGrid=           0
         NMat0=    1 NMatS0=      1 NMatT0=    0 NMatD0=    1 NMtDS0=    0 NMtDT0=    0
 Symmetry not used in FoFCou.
 Harris En= -444.625940511959    
 JPrj=0 DoOrth=F DoCkMO=T.
 Mixing orbitals, IMix= 1 IMixAn=  0 NRI=1 NE=   44 Coef=  7.07106781D-01  7.07106781D-01
 Mixing orbitals, IMix= 1 IMixAn=  0 NRI=1 NE=   44 Coef= -7.07106781D-01  7.07106781D-01
 Initial guess <Sx>= 0.0000 <Sy>= 0.0000 <Sz>= 0.0000 <S**2>= 1.0000 S= 0.6180
 Leave Link  401 at Mon Aug  3 17:25:50 2020, MaxMem=  6442450944 cpu:              47.3 elap:               2.0
 (Enter /scratch/scicomp/CentOS/7.3.1611/Haswell/software/Gaussian/g16/l9999.exe)

 This type of calculation cannot be archived.


 You never know when you're making a memory.
                        -- Rickie Lee Jones
 Job cpu time:       0 days  0 hours  1 minutes 15.1 seconds.
 Elapsed time:       0 days  0 hours  0 minutes  3.4 seconds.
 File lengths (MBytes):  RWF=    362 Int=      0 D2E=      0 Chk=      1 Scr=      1
 Normal termination of Gaussian 16 at Mon Aug  3 17:25:51 2020.
