 Entering Gaussian System, Link 0=g16
 Input=meso-TS_52_2_pcm.com
 Output=meso-TS_52_2_pcm.log
 Initial command:
 /scratch/scicomp/CentOS/7.3.1611/Haswell/software/Gaussian/g16/l1.exe "/scratch/bochen/cyclohexadiene-dimerization/wb97xd-def2tzvp/xp-pcm/meso/Gau-24844.inp" -scrdir="/scratch/bochen/cyclohexadiene-dimerization/wb97xd-def2tzvp/xp-pcm/meso/"
 Entering Link 1 = /scratch/scicomp/CentOS/7.3.1611/Haswell/software/Gaussian/g16/l1.exe PID=     24845.
  
 Copyright (c) 1988-2017, Gaussian, Inc.  All Rights Reserved.
  
 This is part of the Gaussian(R) 16 program.  It is based on
 the Gaussian(R) 09 system (copyright 2009, Gaussian, Inc.),
 the Gaussian(R) 03 system (copyright 2003, Gaussian, Inc.),
 the Gaussian(R) 98 system (copyright 1998, Gaussian, Inc.),
 the Gaussian(R) 94 system (copyright 1995, Gaussian, Inc.),
 the Gaussian 92(TM) system (copyright 1992, Gaussian, Inc.),
 the Gaussian 90(TM) system (copyright 1990, Gaussian, Inc.),
 the Gaussian 88(TM) system (copyright 1988, Gaussian, Inc.),
 the Gaussian 86(TM) system (copyright 1986, Carnegie Mellon
 University), and the Gaussian 82(TM) system (copyright 1983,
 Carnegie Mellon University). Gaussian is a federally registered
 trademark of Gaussian, Inc.
  
 This software contains proprietary and confidential information,
 including trade secrets, belonging to Gaussian, Inc.
  
 This software is provided under written license and may be
 used, copied, transmitted, or stored only in accord with that
 written license.
  
 The following legend is applicable only to US Government
 contracts under FAR:
  
                    RESTRICTED RIGHTS LEGEND
  
 Use, reproduction and disclosure by the US Government is
 subject to restrictions as set forth in subparagraphs (a)
 and (c) of the Commercial Computer Software - Restricted
 Rights clause in FAR 52.227-19.
  
 Gaussian, Inc.
 340 Quinnipiac St., Bldg. 40, Wallingford CT 06492
  
  
 ---------------------------------------------------------------
 Warning -- This program may not be used in any manner that
 competes with the business of Gaussian, Inc. or will provide
 assistance to any competitor of Gaussian, Inc.  The licensee
 of this program is prohibited from giving any competitor of
 Gaussian, Inc. access to this program.  By using this program,
 the user acknowledges that Gaussian, Inc. is engaged in the
 business of creating and licensing software in the field of
 computational chemistry and represents and warrants to the
 licensee that it is not a competitor of Gaussian, Inc. and that
 it will not use this program in any manner prohibited above.
 ---------------------------------------------------------------
  

 Cite this work as:
 Gaussian 16, Revision B.01,
 M. J. Frisch, G. W. Trucks, H. B. Schlegel, G. E. Scuseria, 
 M. A. Robb, J. R. Cheeseman, G. Scalmani, V. Barone, 
 G. A. Petersson, H. Nakatsuji, X. Li, M. Caricato, A. V. Marenich, 
 J. Bloino, B. G. Janesko, R. Gomperts, B. Mennucci, H. P. Hratchian, 
 J. V. Ortiz, A. F. Izmaylov, J. L. Sonnenberg, D. Williams-Young, 
 F. Ding, F. Lipparini, F. Egidi, J. Goings, B. Peng, A. Petrone, 
 T. Henderson, D. Ranasinghe, V. G. Zakrzewski, J. Gao, N. Rega, 
 G. Zheng, W. Liang, M. Hada, M. Ehara, K. Toyota, R. Fukuda, 
 J. Hasegawa, M. Ishida, T. Nakajima, Y. Honda, O. Kitao, H. Nakai, 
 T. Vreven, K. Throssell, J. A. Montgomery, Jr., J. E. Peralta, 
 F. Ogliaro, M. J. Bearpark, J. J. Heyd, E. N. Brothers, K. N. Kudin, 
 V. N. Staroverov, T. A. Keith, R. Kobayashi, J. Normand, 
 K. Raghavachari, A. P. Rendell, J. C. Burant, S. S. Iyengar, 
 J. Tomasi, M. Cossi, J. M. Millam, M. Klene, C. Adamo, R. Cammi, 
 J. W. Ochterski, R. L. Martin, K. Morokuma, O. Farkas, 
 J. B. Foresman, and D. J. Fox, Gaussian, Inc., Wallingford CT, 2016.
 
 ******************************************
 Gaussian 16:  ES64L-G16RevB.01 20-Dec-2017
                 3-Aug-2020 
 ******************************************
 %nproc=24
 Will use up to   24 processors via shared memory.
 %mem=48GB
 ----------------------------------------------------------------------
 #p uwb97xd guess=mix def2tzvp # scrf=(iefpcm,solvent=Cyclohexane,read)
  nosym 6d 10f
 ----------------------------------------------------------------------
 1/38=1,40=2,172=1/1;
 2/12=2,15=1,17=6,18=5,40=1/2;
 3/5=44,7=101,8=22,11=2,25=1,30=1,70=2203,72=17,74=-58,116=2/1,2,3;
 4/13=-1/1;
 5/5=2,38=5,53=17/2;
 6/7=2,8=2,9=2,10=2,28=1/1;
 99/5=1,9=1/99;
 Leave Link    1 at Mon Aug  3 14:38:24 2020, MaxMem=  6442450944 cpu:               2.9 elap:               0.1
 (Enter /scratch/scicomp/CentOS/7.3.1611/Haswell/software/Gaussian/g16/l101.exe)
 -----------------------
 endo-2 xp-pcm for eta=3
 -----------------------
 Symbolic Z-matrix:
 Charge =  0 Multiplicity = 1
 6                    -3.12757  -0.44149   0.26343 
 6                    -0.73129  -0.25083  -1.23676 
 1                    -4.07021  -0.53339   0.79051 
 1                     0.21957  -0.16851  -1.74848 
 6                     1.16778   1.42576   0.79285 
 6                     0.73129   0.25083   1.23676 
 1                     0.57495   2.3223    0.92928 
 1                    -0.21957   0.16851   1.74848 
 6                     1.56462  -0.9921    1.11581 
 1                     2.0971   -1.12399   2.06641 
 1                     0.92006  -1.865     1.00856 
 6                     2.45725   1.53015   0.10966 
 1                     2.85689   2.51557  -0.09811 
 6                     3.12757   0.44149  -0.26343 
 1                     4.07021   0.53339  -0.79051 
 6                     2.57514  -0.93922  -0.03521 
 1                     2.1064   -1.27978  -0.96668 
 1                     3.38777  -1.64222   0.15785 
 6                    -1.16778  -1.42576  -0.79285 
 1                    -0.57495  -2.3223   -0.92928 
 6                    -2.45725  -1.53015  -0.10966 
 1                    -2.85689  -2.51557   0.09811 
 6                    -1.56462   0.9921   -1.11581 
 1                    -0.92006   1.865    -1.00856 
 1                    -2.0971    1.12399  -2.06641 
 6                    -2.57514   0.93922   0.03521 
 1                    -3.38777   1.64222  -0.15785 
 1                    -2.1064    1.27978   0.96668 
 
 ITRead=  0  0  0  0  0  0  0  0  0  0  0  0  0  0  0  0  0  0  0  0
 ITRead=  0  0  0  0  0  0  0  0
 MicOpt= -1 -1 -1 -1 -1 -1 -1 -1 -1 -1 -1 -1 -1 -1 -1 -1 -1 -1 -1 -1
 MicOpt= -1 -1 -1 -1 -1 -1 -1 -1
 NAtoms=     28 NQM=       28 NQMF=       0 NMMI=      0 NMMIF=      0
                NMic=       0 NMicF=      0.
                    Isotopes and Nuclear Properties:
 (Nuclear quadrupole moments (NQMom) in fm**2, nuclear magnetic moments (NMagM)
  in nuclear magnetons)

  Atom         1           2           3           4           5           6           7           8           9          10
 IAtWgt=          12          12           1           1          12          12           1           1          12           1
 AtmWgt=  12.0000000  12.0000000   1.0078250   1.0078250  12.0000000  12.0000000   1.0078250   1.0078250  12.0000000   1.0078250
 NucSpn=           0           0           1           1           0           0           1           1           0           1
 AtZEff=  -0.0000000  -0.0000000  -0.0000000  -0.0000000  -0.0000000  -0.0000000  -0.0000000  -0.0000000  -0.0000000  -0.0000000
 NQMom=    0.0000000   0.0000000   0.0000000   0.0000000   0.0000000   0.0000000   0.0000000   0.0000000   0.0000000   0.0000000
 NMagM=    0.0000000   0.0000000   2.7928460   2.7928460   0.0000000   0.0000000   2.7928460   2.7928460   0.0000000   2.7928460
 AtZNuc=   6.0000000   6.0000000   1.0000000   1.0000000   6.0000000   6.0000000   1.0000000   1.0000000   6.0000000   1.0000000

  Atom        11          12          13          14          15          16          17          18          19          20
 IAtWgt=           1          12           1          12           1          12           1           1          12           1
 AtmWgt=   1.0078250  12.0000000   1.0078250  12.0000000   1.0078250  12.0000000   1.0078250   1.0078250  12.0000000   1.0078250
 NucSpn=           1           0           1           0           1           0           1           1           0           1
 AtZEff=  -0.0000000  -0.0000000  -0.0000000  -0.0000000  -0.0000000  -0.0000000  -0.0000000  -0.0000000  -0.0000000  -0.0000000
 NQMom=    0.0000000   0.0000000   0.0000000   0.0000000   0.0000000   0.0000000   0.0000000   0.0000000   0.0000000   0.0000000
 NMagM=    2.7928460   0.0000000   2.7928460   0.0000000   2.7928460   0.0000000   2.7928460   2.7928460   0.0000000   2.7928460
 AtZNuc=   1.0000000   6.0000000   1.0000000   6.0000000   1.0000000   6.0000000   1.0000000   1.0000000   6.0000000   1.0000000

  Atom        21          22          23          24          25          26          27          28
 IAtWgt=          12           1          12           1           1          12           1           1
 AtmWgt=  12.0000000   1.0078250  12.0000000   1.0078250   1.0078250  12.0000000   1.0078250   1.0078250
 NucSpn=           0           1           0           1           1           0           1           1
 AtZEff=  -0.0000000  -0.0000000  -0.0000000  -0.0000000  -0.0000000  -0.0000000  -0.0000000  -0.0000000
 NQMom=    0.0000000   0.0000000   0.0000000   0.0000000   0.0000000   0.0000000   0.0000000   0.0000000
 NMagM=    0.0000000   2.7928460   0.0000000   2.7928460   2.7928460   0.0000000   2.7928460   2.7928460
 AtZNuc=   6.0000000   1.0000000   6.0000000   1.0000000   1.0000000   6.0000000   1.0000000   1.0000000
 Leave Link  101 at Mon Aug  3 14:38:24 2020, MaxMem=  6442450944 cpu:               2.4 elap:               0.1
 (Enter /scratch/scicomp/CentOS/7.3.1611/Haswell/software/Gaussian/g16/l202.exe)
                          Input orientation:                          
 ---------------------------------------------------------------------
 Center     Atomic      Atomic             Coordinates (Angstroms)
 Number     Number       Type             X           Y           Z
 ---------------------------------------------------------------------
      1          6           0       -3.127568   -0.441485    0.263433
      2          6           0       -0.731288   -0.250831   -1.236755
      3          1           0       -4.070209   -0.533386    0.790505
      4          1           0        0.219568   -0.168512   -1.748484
      5          6           0        1.167775    1.425763    0.792854
      6          6           0        0.731288    0.250831    1.236755
      7          1           0        0.574947    2.322303    0.929282
      8          1           0       -0.219568    0.168512    1.748484
      9          6           0        1.564621   -0.992103    1.115813
     10          1           0        2.097096   -1.123993    2.066407
     11          1           0        0.920060   -1.865000    1.008560
     12          6           0        2.457254    1.530153    0.109662
     13          1           0        2.856885    2.515574   -0.098107
     14          6           0        3.127568    0.441485   -0.263433
     15          1           0        4.070209    0.533386   -0.790505
     16          6           0        2.575144   -0.939221   -0.035211
     17          1           0        2.106401   -1.279780   -0.966682
     18          1           0        3.387766   -1.642218    0.157850
     19          6           0       -1.167775   -1.425763   -0.792854
     20          1           0       -0.574947   -2.322303   -0.929282
     21          6           0       -2.457254   -1.530153   -0.109662
     22          1           0       -2.856885   -2.515574    0.098107
     23          6           0       -1.564621    0.992103   -1.115813
     24          1           0       -0.920060    1.865000   -1.008560
     25          1           0       -2.097096    1.123993   -2.066407
     26          6           0       -2.575144    0.939221    0.035211
     27          1           0       -3.387766    1.642218   -0.157850
     28          1           0       -2.106402    1.279780    0.966682
 ---------------------------------------------------------------------
                    Distance matrix (angstroms):
                    1          2          3          4          5
     1  C    0.000000
     2  C    2.833562   0.000000
     3  H    1.083892   3.916378   0.000000
     4  H    3.914798   1.082945   4.998178   0.000000
     5  C    4.713478   3.246031   5.592383   3.146301   0.000000
     6  C    4.039483   2.917027   4.885541   3.057672   1.329674
     7  H    4.668029   3.608183   5.454511   3.674355   1.083440
     8  H    3.321737   3.057672   4.029618   3.540510   2.102054
     9  C    4.800663   3.369756   5.662822   3.269811   2.471410
    10  H    5.568990   4.435431   6.325535   4.357918   2.997804
    11  H    4.354871   3.220859   5.169480   3.312107   3.307115
    12  C    5.924630   3.892498   6.879645   3.368295   1.463012
    13  H    6.684952   4.671670   7.620395   4.108954   2.198771
    14  C    6.339081   4.039483   7.339561   3.321737   2.434201
    15  H    7.339561   4.885541   8.360861   4.029618   3.424542
    16  C    5.732177   3.584701   6.708742   3.012978   2.873940
    17  H    5.441540   3.030537   6.464930   2.325139   3.361093
    18  H    6.625895   4.565905   7.566449   3.980377   3.839804
    19  C    2.434201   1.329674   3.424542   2.102054   4.012538
    20  H    3.387613   2.099995   4.286578   2.437450   4.477815
    21  C    1.331810   2.426100   2.098921   3.421283   4.763697
    22  H    2.098201   3.380692   2.425003   4.287559   5.675799
    23  C    2.529881   1.501318   3.498448   2.220502   3.361110
    24  H    3.436703   2.136457   4.348831   2.445692   2.792325
    25  H    2.990108   2.108055   3.847340   2.671811   4.350382
    26  C    1.504529   2.536519   2.230305   3.495577   3.849700
    27  H    2.141728   3.435774   2.469485   4.338400   4.658717
    28  H    2.121342   3.014771   2.678647   3.857436   3.282036
                    6          7          8          9         10
     6  C    0.000000
     7  H    2.099995   0.000000
     8  H    1.082945   2.437450   0.000000
     9  C    1.501318   3.464035   2.220502   0.000000
    10  H    2.108055   3.935346   2.671811   1.097522   0.000000
    11  H    2.136457   4.202249   2.445692   1.090372   1.747440
    12  C    2.426100   2.200536   3.421283   2.858480   3.317085
    13  H    3.380692   2.510005   4.287559   3.930311   4.302191
    14  C    2.833562   3.387613   3.914798   2.529881   2.990108
    15  H    3.916378   4.286578   4.998178   3.498448   3.847340
    16  C    2.536519   3.945703   3.495577   1.532583   2.163208
    17  H    3.014770   4.349142   3.857435   2.170960   3.037101
    18  H    3.435774   4.921838   4.338400   2.159676   2.361562
    19  C    3.246031   4.477815   3.146301   3.361110   4.350382
    20  H    3.608183   5.133116   3.674355   3.244934   4.189262
    21  C    3.892498   5.011493   3.368295   4.238722   5.063827
    22  H    4.671670   5.989439   4.108954   4.786064   5.509322
    23  C    3.369756   3.244934   3.269811   4.325434   5.292689
    24  H    3.220859   2.489860   3.312107   4.341617   5.243351
    25  H    4.435431   4.189262   4.357918   5.292689   6.302764
    26  C    3.584701   3.554624   3.012978   4.694184   5.496584
    27  H    4.565905   4.165029   3.980377   5.752217   6.533219
    28  H    3.030538   2.877131   2.325139   4.319734   4.965573
                   11         12         13         14         15
    11  H    0.000000
    12  C    3.833803   0.000000
    13  H    4.915835   1.083479   0.000000
    14  C    3.436703   1.331810   2.098201   0.000000
    15  H    4.348831   2.098921   2.425003   1.083892   0.000000
    16  C    2.164677   2.476428   3.466835   1.504529   2.230305
    17  H    2.377282   3.029412   3.965143   2.121343   2.678647
    18  H    2.619716   3.306375   4.199355   2.141728   2.469485
    19  C    2.792325   4.763697   5.675799   4.713478   5.592383
    20  H    2.489860   5.011493   5.989439   4.668029   5.454511
    21  C    3.573345   5.793614   6.678931   5.924630   6.879645
    22  H    3.939224   6.678931   7.615650   6.684952   7.620395
    23  C    4.341617   4.238722   4.786064   4.800663   5.662822
    24  H    4.622523   3.573345   3.939224   4.354871   5.169480
    25  H    5.243351   5.063827   5.509322   5.568990   6.325535
    26  C    4.585577   5.067521   5.657703   5.732177   6.708742
    27  H    5.676130   5.852212   6.305711   6.625895   7.566449
    28  H    4.364730   4.650175   5.224479   5.441541   6.464931
                   16         17         18         19         20
    16  C    0.000000
    17  H    1.096968   0.000000
    18  H    1.091711   1.742937   0.000000
    19  C    3.849700   3.282035   4.658717   0.000000
    20  H    3.554624   2.877131   4.165029   1.083440   0.000000
    21  C    5.067521   4.650174   5.852212   1.463012   2.200536
    22  H    5.657703   5.224478   6.305711   2.198771   2.510005
    23  C    4.694184   4.319733   5.752217   2.471410   3.464035
    24  H    4.585577   4.364729   5.676130   3.307115   4.202249
    25  H    5.496584   4.965572   6.533219   2.997804   3.935346
    26  C    5.482606   5.276800   6.498859   2.873940   3.945703
    27  H    6.498859   6.275201   7.536247   3.839804   4.921838
    28  H    5.276801   5.294993   6.275202   3.361094   4.349142
                   21         22         23         24         25
    21  C    0.000000
    22  H    1.083479   0.000000
    23  C    2.858480   3.930311   0.000000
    24  H    3.833803   4.915835   1.090372   0.000000
    25  H    3.317085   4.302191   1.097522   1.747440   0.000000
    26  C    2.476428   3.466835   1.532583   2.164677   2.163208
    27  H    3.306375   4.199355   2.159676   2.619716   2.361562
    28  H    3.029412   3.965143   2.170961   2.377282   3.037101
                   26         27         28
    26  C    0.000000
    27  H    1.091711   0.000000
    28  H    1.096968   1.742936   0.000000
 Symmetry turned off by external request.
 Stoichiometry    C12H16
 Framework group  CI[X(C12H16)]
 Deg. of freedom    39
 Full point group                 CI      NOp   2
 Rotational constants (GHZ):           1.7589074           0.5941991           0.5360154
 Leave Link  202 at Mon Aug  3 14:38:24 2020, MaxMem=  6442450944 cpu:               0.3 elap:               0.0
 (Enter /scratch/scicomp/CentOS/7.3.1611/Haswell/software/Gaussian/g16/l301.exe)
 Standard basis: def2TZVP (6D, 10F)
 Ernie: Thresh=  0.10000D-02 Tol=  0.10000D-05 Strict=F.
   528 basis functions,   740 primitive gaussians,   528 cartesian basis functions
    44 alpha electrons       44 beta electrons
       nuclear repulsion energy       676.2098860829 Hartrees.
 IExCor= 4639 DFT=T Ex+Corr=wB97XD ExCW=0 ScaHFX=  1.000000
 ScaDFX=  1.000000  1.000000  1.000000  1.000000 ScalE2=  1.000000  1.000000
 IRadAn=      5 IRanWt=     -1 IRanGd=            0 ICorTp=0 IEmpDi=121
 HFx  wShort=  0.000000 wLong=  0.200000 cFull=  0.222036 cShort=  0.000000 cLong=  0.777964
 DFx  wShort=  0.000000 wLong=  0.200000 cFull=  0.000000 cShort=  0.000000 cLong=  1.000000
 NAtoms=   28 NActive=   28 NUniq=   28 SFac= 1.00D+00 NAtFMM=   60 NAOKFM=F Big=F
 Integral buffers will be    131072 words long.
 Raffenetti 2 integral format.
 Two-electron integral symmetry is turned off.
 R6Disp:  Grimme-D2 Dispersion energy=       -0.0221783464 Hartrees.
 Nuclear repulsion after empirical dispersion term =      676.1877077365 Hartrees.
 Using the following non-standard input for PCM:
 norep pcmdoc geomview  nodis nocav g03defaults tsare=0.075
 Warning! Using old PCM defaults because the g03defaults keyword was found.
 These settings can be overridden by following keywords.
 nsfe=28
 NVESolv=36  SolvMW=84.1595   Rsolv=2.815
 eps=2.0165 RhoS=0.7781
 --- end of non-standard input.
 Reading user-defined spheres from input:
 ISph  on   Nord    Re0     Alpha      Xe            Ye            Ze
 --- end of user-defined spheres data.
 ------------------------------------------------------------------------------
 Polarizable Continuum Model (PCM)
 =================================
 Model                : PCM.
 Atomic radii         : UA0 (Simple United Atom Topological Model).
 Polarization charges : Total charges.
 Charge compensation  : None.
 Solution method      : On-the-fly selection.
 Cavity type          : SES (Solvent Excluding Surface) (Alpha=1.000).
 Cavity algorithm     : GePol (RMin=0.200 OFac=0.890).
                        User-defined sphere list used, NSphG=   28.
                        Tesserae with average area of 0.075 Ang**2.
                        Smoothing algorithm: None.
                        Polarization charges: point-like.
                        Self-potential: constant (ISelfS= 1).
                        Self-field    : global E.n sum rule (ISelfD= 3).
 Solvent              : CycloHexane, Eps=   2.016500 Eps(inf)=   2.035188
                        RSolv=   2.815000 Ang.
 ------------------------------------------------------------------------------
 GePol: Number of generator spheres                  =      28
 GePol: Total number of spheres                      =     192
 GePol: Number of exposed spheres                    =     136 ( 70.83%)
 GePol: Number of tesserae                           =    4681
 GePol: Average area of tesserae                     =       0.05 Ang**2
 GePol: Minimum area of tessera                      =   0.10D-02 Ang**2
 GePol: Maximum area of tessera                      =    0.12395 Ang**2
 GePol: Number of small tesserae                     =       0
 GePol: Fraction of small tesserae (<1% of avg)      =       0.00%
 GePol: Total count of vertices                      =   16628
 GePol: Maximum number of vertices in a tessera      =       8
 GePol: Cavity surface area                          =    222.213 Ang**2
 GePol: Cavity volume                                =    253.244 Ang**3
 Leave Link  301 at Mon Aug  3 14:38:25 2020, MaxMem=  6442450944 cpu:               8.4 elap:               0.4
 (Enter /scratch/scicomp/CentOS/7.3.1611/Haswell/software/Gaussian/g16/l302.exe)
 NPDir=0 NMtPBC=     1 NCelOv=     1 NCel=       1 NClECP=     1 NCelD=      1
         NCelK=      1 NCelE2=     1 NClLst=     1 CellRange=     0.0.
 One-electron integrals computed using PRISM.
   1 Symmetry operations used in ECPInt.
 ECPInt:  NShTT=   19306 NPrTT=   56928 LenC2=   18474 LenP2D=   41916.
 LDataN:  DoStor=T MaxTD1= 6 Len=  172
 NBasis=   528 RedAO= T EigKep=  1.86D-05  NBF=   528
 NBsUse=   528 1.00D-06 EigRej= -1.00D+00 NBFU=   528
 Precomputing XC quadrature grid using
 IXCGrd= 4 IRadAn=           5 IRanWt=          -1 IRanGd=           0 AccXCQ= 0.00D+00.
 Generated NRdTot=       0 NPtTot=           0 NUsed=           0 NTot=          32
 NSgBfM=   526   525   525   526   526 MxSgAt=    28 MxSgA2=    28.
 Leave Link  302 at Mon Aug  3 14:38:25 2020, MaxMem=  6442450944 cpu:              12.9 elap:               0.6
 (Enter /scratch/scicomp/CentOS/7.3.1611/Haswell/software/Gaussian/g16/l303.exe)
 DipDrv:  MaxL=1.
 Leave Link  303 at Mon Aug  3 14:38:25 2020, MaxMem=  6442450944 cpu:               1.5 elap:               0.1
 (Enter /scratch/scicomp/CentOS/7.3.1611/Haswell/software/Gaussian/g16/l401.exe)
 ExpMin= 9.52D-02 ExpMax= 1.36D+04 ExpMxC= 4.63D+02 IAcc=3 IRadAn=         5 AccDes= 0.00D+00
 Harris functional with IExCor= 4639 and IRadAn=       5 diagonalized for initial guess.
 HarFok:  IExCor= 4639 AccDes= 0.00D+00 IRadAn=         5 IDoV= 1 UseB2=F ITyADJ=14
 ICtDFT=  3500011 ScaDFX=  1.000000  1.000000  1.000000  1.000000
 FoFCou: FMM=F IPFlag=           0 FMFlag=      100000 FMFlg1=           0
         NFxFlg=           0 DoJE=T BraDBF=F KetDBF=T FulRan=T
         wScrn=  0.000000 ICntrl=       500 IOpCl=  0 I1Cent=   200000004 NGrid=           0
         NMat0=    1 NMatS0=      1 NMatT0=    0 NMatD0=    1 NMtDS0=    0 NMtDT0=    0
 Symmetry not used in FoFCou.
 Harris En= -444.656689593853    
 JPrj=0 DoOrth=F DoCkMO=T.
 Mixing orbitals, IMix= 1 IMixAn=  0 NRI=1 NE=   44 Coef=  7.07106781D-01  7.07106781D-01
 Mixing orbitals, IMix= 1 IMixAn=  0 NRI=1 NE=   44 Coef= -7.07106781D-01  7.07106781D-01
 Initial guess <Sx>= 0.0000 <Sy>= 0.0000 <Sz>= 0.0000 <S**2>= 1.0000 S= 0.6180
 Leave Link  401 at Mon Aug  3 14:38:28 2020, MaxMem=  6442450944 cpu:              48.6 elap:               2.1
 (Enter /scratch/scicomp/CentOS/7.3.1611/Haswell/software/Gaussian/g16/l502.exe)
 Two-electron integral symmetry not used.
 UHF open shell SCF:
 Using DIIS extrapolation, IDIIS=  1040.
 NGot=  6442450944 LenX=  6441877030 LenY=  6441597718
 Requested convergence on RMS density matrix=1.00D-08 within 128 cycles.
 Requested convergence on MAX density matrix=1.00D-06.
 Requested convergence on             energy=1.00D-06.
 No special actions if energy rises.
 Fock matrices will be formed incrementally for  20 cycles.

 Cycle   1  Pass 1  IDiag  1:
 FoFJK:  IHMeth= 1 ICntrl=       0 DoSepK=T KAlg= 0 I1Cent=           0 FoldK=F
 IRaf=         1 NMat=       1 IRICut=       1 DoRegI=T DoRafI=F ISym2E= 0 IDoP0=0 IntGTp=1.
 FoFCou: FMM=F IPFlag=           0 FMFlag=      100000 FMFlg1=           0
         NFxFlg=           0 DoJE=T BraDBF=F KetDBF=F FulRan=T
         wScrn=  0.000000 ICntrl=       500 IOpCl=  0 I1Cent=           0 NGrid=           0
         NMat0=    1 NMatS0=      1 NMatT0=    0 NMatD0=    1 NMtDS0=    0 NMtDT0=    0
 Symmetry not used in FoFCou.
 Inv3:  Mode=1 IEnd=    65735283.
 Iteration    1 A*A^-1 deviation from unit magnitude is 3.33D-15 for   4325.
 Iteration    1 A*A^-1 deviation from orthogonality  is 7.99D-15 for   3702   2344.
 Iteration    1 A^-1*A deviation from unit magnitude is 3.55D-15 for   3702.
 Iteration    1 A^-1*A deviation from orthogonality  is 2.11D-15 for   3247   2412.
 E= -466.579156824430    
 DIIS: error= 5.17D-02 at cycle   1 NSaved=   1.
 NSaved= 1 IEnMin= 1 EnMin= -466.579156824430     IErMin= 1 ErrMin= 5.17D-02
 ErrMax= 5.17D-02  0.00D+00 EMaxC= 1.00D-01 BMatC= 4.11D+00 BMatP= 4.11D+00
 IDIUse=3 WtCom= 4.83D-01 WtEn= 5.17D-01
 Coeff-Com:  0.100D+01
 Coeff-En:   0.100D+01
 Coeff:      0.100D+01
 Gap=     0.181 Goal=   None    Shift=    0.000
 Gap=     0.181 Goal=   None    Shift=    0.000
 GapD=    0.181 DampG=1.000 DampE=0.500 DampFc=0.5000 IDamp=-1.
 Damping current iteration by 5.00D-01
 RMSDP=1.64D-03 MaxDP=9.27D-02              OVMax= 3.48D-01

 Cycle   2  Pass 1  IDiag  1:
 RMSU=  7.85D-04    CP:  9.64D-01
 E= -466.690752877027     Delta-E=       -0.111596052597 Rises=F Damp=T
 DIIS: error= 2.47D-02 at cycle   2 NSaved=   2.
 NSaved= 2 IEnMin= 2 EnMin= -466.690752877027     IErMin= 2 ErrMin= 2.47D-02
 ErrMax= 2.47D-02  0.00D+00 EMaxC= 1.00D-01 BMatC= 9.36D-01 BMatP= 4.11D+00
 IDIUse=3 WtCom= 7.53D-01 WtEn= 2.47D-01
 Coeff-Com: -0.868D+00 0.187D+01
 Coeff-En:   0.000D+00 0.100D+01
 Coeff:     -0.654D+00 0.165D+01
 Gap=     0.277 Goal=   None    Shift=    0.000
 Gap=     0.277 Goal=   None    Shift=    0.000
 RMSDP=1.17D-03 MaxDP=5.34D-02 DE=-1.12D-01 OVMax= 1.40D-01

 Cycle   3  Pass 1  IDiag  1:
 RMSU=  6.18D-04    CP:  9.10D-01  2.18D+00
 E= -466.836411941160     Delta-E=       -0.145659064133 Rises=F Damp=F
 DIIS: error= 7.82D-03 at cycle   3 NSaved=   3.
 NSaved= 3 IEnMin= 3 EnMin= -466.836411941160     IErMin= 3 ErrMin= 7.82D-03
 ErrMax= 7.82D-03  0.00D+00 EMaxC= 1.00D-01 BMatC= 2.44D-02 BMatP= 9.36D-01
 IDIUse=3 WtCom= 9.22D-01 WtEn= 7.82D-02
 Coeff-Com: -0.316D+00 0.677D+00 0.639D+00
 Coeff-En:   0.000D+00 0.000D+00 0.100D+01
 Coeff:     -0.291D+00 0.624D+00 0.667D+00
 Gap=     0.299 Goal=   None    Shift=    0.000
 Gap=     0.299 Goal=   None    Shift=    0.000
 RMSDP=2.21D-04 MaxDP=1.13D-02 DE=-1.46D-01 OVMax= 6.50D-02

 Cycle   4  Pass 1  IDiag  1:
 RMSU=  2.02D-04    CP:  9.02D-01  2.28D+00  9.94D-01
 E= -466.847367789828     Delta-E=       -0.010955848668 Rises=F Damp=F
 DIIS: error= 5.17D-03 at cycle   4 NSaved=   4.
 NSaved= 4 IEnMin= 4 EnMin= -466.847367789828     IErMin= 4 ErrMin= 5.17D-03
 ErrMax= 5.17D-03  0.00D+00 EMaxC= 1.00D-01 BMatC= 2.11D-03 BMatP= 2.44D-02
 IDIUse=3 WtCom= 9.48D-01 WtEn= 5.17D-02
 Coeff-Com:  0.143D+00-0.307D+00-0.718D-01 0.124D+01
 Coeff-En:   0.000D+00 0.000D+00 0.000D+00 0.100D+01
 Coeff:      0.136D+00-0.291D+00-0.681D-01 0.122D+01
 Gap=     0.310 Goal=   None    Shift=    0.000
 Gap=     0.310 Goal=   None    Shift=    0.000
 RMSDP=2.17D-04 MaxDP=1.32D-02 DE=-1.10D-02 OVMax= 7.83D-02

 Cycle   5  Pass 1  IDiag  1:
 RMSU=  8.84D-05    CP:  8.95D-01  2.34D+00  1.22D+00  1.63D+00
 E= -466.852127991354     Delta-E=       -0.004760201526 Rises=F Damp=F
 DIIS: error= 2.36D-03 at cycle   5 NSaved=   5.
 NSaved= 5 IEnMin= 5 EnMin= -466.852127991354     IErMin= 5 ErrMin= 2.36D-03
 ErrMax= 2.36D-03  0.00D+00 EMaxC= 1.00D-01 BMatC= 8.78D-04 BMatP= 2.11D-03
 IDIUse=3 WtCom= 9.76D-01 WtEn= 2.36D-02
 Coeff-Com:  0.690D-01-0.148D+00-0.748D-01 0.391D+00 0.763D+00
 Coeff-En:   0.000D+00 0.000D+00 0.000D+00 0.000D+00 0.100D+01
 Coeff:      0.674D-01-0.145D+00-0.731D-01 0.382D+00 0.768D+00
 Gap=     0.313 Goal=   None    Shift=    0.000
 Gap=     0.313 Goal=   None    Shift=    0.000
 RMSDP=7.68D-05 MaxDP=3.29D-03 DE=-4.76D-03 OVMax= 2.82D-02

 Cycle   6  Pass 1  IDiag  1:
 RMSU=  3.25D-05    CP:  8.94D-01  2.35D+00  1.25D+00  1.91D+00  1.38D+00
 E= -466.853495076592     Delta-E=       -0.001367085239 Rises=F Damp=F
 DIIS: error= 1.73D-03 at cycle   6 NSaved=   6.
 NSaved= 6 IEnMin= 6 EnMin= -466.853495076592     IErMin= 6 ErrMin= 1.73D-03
 ErrMax= 1.73D-03  0.00D+00 EMaxC= 1.00D-01 BMatC= 5.30D-04 BMatP= 8.78D-04
 IDIUse=3 WtCom= 9.83D-01 WtEn= 1.73D-02
 Coeff-Com: -0.789D-01 0.169D+00 0.570D-01-0.583D+00 0.448D-01 0.139D+01
 Coeff-En:   0.000D+00 0.000D+00 0.000D+00 0.000D+00 0.000D+00 0.100D+01
 Coeff:     -0.776D-01 0.166D+00 0.560D-01-0.573D+00 0.440D-01 0.138D+01
 Gap=     0.309 Goal=   None    Shift=    0.000
 Gap=     0.309 Goal=   None    Shift=    0.000
 RMSDP=1.02D-04 MaxDP=4.10D-03 DE=-1.37D-03 OVMax= 3.81D-02

 Cycle   7  Pass 1  IDiag  1:
 RMSU=  3.18D-05    CP:  8.92D-01  2.35D+00  1.29D+00  2.20D+00  2.07D+00
                    CP:  2.21D+00
 E= -466.855129183273     Delta-E=       -0.001634106681 Rises=F Damp=F
 DIIS: error= 1.11D-03 at cycle   7 NSaved=   7.
 NSaved= 7 IEnMin= 7 EnMin= -466.855129183273     IErMin= 7 ErrMin= 1.11D-03
 ErrMax= 1.11D-03  0.00D+00 EMaxC= 1.00D-01 BMatC= 2.74D-04 BMatP= 5.30D-04
 IDIUse=3 WtCom= 9.89D-01 WtEn= 1.11D-02
 Coeff-Com: -0.264D-01 0.572D-01 0.444D-01-0.587D-02-0.681D+00-0.570D+00
 Coeff-Com:  0.218D+01
 Coeff-En:   0.000D+00 0.000D+00 0.000D+00 0.000D+00 0.000D+00 0.000D+00
 Coeff-En:   0.100D+01
 Coeff:     -0.261D-01 0.566D-01 0.439D-01-0.580D-02-0.674D+00-0.563D+00
 Coeff:      0.217D+01
 Gap=     0.309 Goal=   None    Shift=    0.000
 Gap=     0.309 Goal=   None    Shift=    0.000
 RMSDP=1.41D-04 MaxDP=6.76D-03 DE=-1.63D-03 OVMax= 5.31D-02

 Cycle   8  Pass 1  IDiag  1:
 RMSU=  5.22D-05    CP:  8.89D-01  2.35D+00  1.33D+00  2.52D+00  2.96D+00
                    CP:  3.00D+00  2.73D+00
 E= -466.856589332685     Delta-E=       -0.001460149411 Rises=F Damp=F
 DIIS: error= 3.97D-04 at cycle   8 NSaved=   8.
 NSaved= 8 IEnMin= 8 EnMin= -466.856589332685     IErMin= 8 ErrMin= 3.97D-04
 ErrMax= 3.97D-04  0.00D+00 EMaxC= 1.00D-01 BMatC= 6.87D-05 BMatP= 2.74D-04
 IDIUse=3 WtCom= 9.96D-01 WtEn= 3.97D-03
 Coeff-Com:  0.251D-01-0.540D-01-0.746D-02 0.270D+00-0.220D+00-0.782D+00
 Coeff-Com:  0.647D+00 0.112D+01
 Coeff-En:   0.000D+00 0.000D+00 0.000D+00 0.000D+00 0.000D+00 0.000D+00
 Coeff-En:   0.000D+00 0.100D+01
 Coeff:      0.250D-01-0.538D-01-0.743D-02 0.268D+00-0.219D+00-0.779D+00
 Coeff:      0.644D+00 0.112D+01
 Gap=     0.311 Goal=   None    Shift=    0.000
 Gap=     0.311 Goal=   None    Shift=    0.000
 RMSDP=6.78D-05 MaxDP=3.37D-03 DE=-1.46D-03 OVMax= 2.53D-02

 Cycle   9  Pass 1  IDiag  1:
 RMSU=  4.00D-05    CP:  8.88D-01  2.35D+00  1.34D+00  2.63D+00  3.00D+00
                    CP:  3.00D+00  3.00D+00  1.77D+00
 E= -466.856864178221     Delta-E=       -0.000274845537 Rises=F Damp=F
 DIIS: error= 1.30D-04 at cycle   9 NSaved=   9.
 NSaved= 9 IEnMin= 9 EnMin= -466.856864178221     IErMin= 9 ErrMin= 1.30D-04
 ErrMax= 1.30D-04  0.00D+00 EMaxC= 1.00D-01 BMatC= 1.20D-05 BMatP= 6.87D-05
 IDIUse=3 WtCom= 9.99D-01 WtEn= 1.30D-03
 Coeff-Com:  0.148D-01-0.318D-01-0.101D-01 0.108D+00 0.278D-01-0.209D+00
 Coeff-Com: -0.110D+00 0.373D+00 0.837D+00
 Coeff-En:   0.000D+00 0.000D+00 0.000D+00 0.000D+00 0.000D+00 0.000D+00
 Coeff-En:   0.000D+00 0.000D+00 0.100D+01
 Coeff:      0.148D-01-0.318D-01-0.101D-01 0.108D+00 0.278D-01-0.209D+00
 Coeff:     -0.109D+00 0.372D+00 0.837D+00
 Gap=     0.310 Goal=   None    Shift=    0.000
 Gap=     0.310 Goal=   None    Shift=    0.000
 RMSDP=1.70D-05 MaxDP=8.51D-04 DE=-2.75D-04 OVMax= 6.37D-03

 Cycle  10  Pass 1  IDiag  1:
 RMSU=  6.60D-06    CP:  8.88D-01  2.35D+00  1.35D+00  2.66D+00  3.00D+00
                    CP:  3.00D+00  3.00D+00  1.95D+00  1.28D+00
 E= -466.856886485997     Delta-E=       -0.000022307776 Rises=F Damp=F
 DIIS: error= 5.97D-05 at cycle  10 NSaved=  10.
 NSaved=10 IEnMin=10 EnMin= -466.856886485997     IErMin=10 ErrMin= 5.97D-05
 ErrMax= 5.97D-05  0.00D+00 EMaxC= 1.00D-01 BMatC= 1.89D-06 BMatP= 1.20D-05
 IDIUse=1 WtCom= 1.00D+00 WtEn= 0.00D+00
 Coeff-Com: -0.112D-02 0.244D-02-0.846D-03-0.264D-01 0.417D-01 0.943D-01
 Coeff-Com: -0.124D+00-0.173D+00 0.154D+00 0.103D+01
 Coeff:     -0.112D-02 0.244D-02-0.846D-03-0.264D-01 0.417D-01 0.943D-01
 Coeff:     -0.124D+00-0.173D+00 0.154D+00 0.103D+01
 Gap=     0.310 Goal=   None    Shift=    0.000
 Gap=     0.310 Goal=   None    Shift=    0.000
 RMSDP=8.62D-06 MaxDP=3.89D-04 DE=-2.23D-05 OVMax= 3.12D-03

 Cycle  11  Pass 1  IDiag  1:
 RMSU=  2.91D-06    CP:  8.88D-01  2.35D+00  1.35D+00  2.67D+00  3.00D+00
                    CP:  3.00D+00  3.00D+00  2.02D+00  1.40D+00  1.61D+00
 E= -466.856889886225     Delta-E=       -0.000003400228 Rises=F Damp=F
 DIIS: error= 2.36D-05 at cycle  11 NSaved=  11.
 NSaved=11 IEnMin=11 EnMin= -466.856889886225     IErMin=11 ErrMin= 2.36D-05
 ErrMax= 2.36D-05  0.00D+00 EMaxC= 1.00D-01 BMatC= 4.35D-07 BMatP= 1.89D-06
 IDIUse=1 WtCom= 1.00D+00 WtEn= 0.00D+00
 Coeff-Com: -0.165D-02 0.355D-02 0.509D-03-0.190D-01 0.122D-01 0.505D-01
 Coeff-Com: -0.305D-01-0.101D+00-0.294D-01 0.412D+00 0.703D+00
 Coeff:     -0.165D-02 0.355D-02 0.509D-03-0.190D-01 0.122D-01 0.505D-01
 Coeff:     -0.305D-01-0.101D+00-0.294D-01 0.412D+00 0.703D+00
 Gap=     0.310 Goal=   None    Shift=    0.000
 Gap=     0.310 Goal=   None    Shift=    0.000
 RMSDP=1.51D-06 MaxDP=7.71D-05 DE=-3.40D-06 OVMax= 4.65D-04

 Cycle  12  Pass 1  IDiag  1:
 RMSU=  8.31D-07    CP:  8.88D-01  2.35D+00  1.35D+00  2.67D+00  3.00D+00
                    CP:  3.00D+00  3.00D+00  2.03D+00  1.42D+00  1.69D+00
                    CP:  1.16D+00
 E= -466.856890131430     Delta-E=       -0.000000245205 Rises=F Damp=F
 DIIS: error= 1.28D-05 at cycle  12 NSaved=  12.
 NSaved=12 IEnMin=12 EnMin= -466.856890131430     IErMin=12 ErrMin= 1.28D-05
 ErrMax= 1.28D-05  0.00D+00 EMaxC= 1.00D-01 BMatC= 6.34D-08 BMatP= 4.35D-07
 IDIUse=1 WtCom= 1.00D+00 WtEn= 0.00D+00
 Coeff-Com:  0.334D-03-0.728D-03-0.444D-04 0.516D-02-0.502D-02-0.170D-01
 Coeff-Com:  0.186D-01 0.297D-01-0.208D-01-0.176D+00 0.582D-01 0.111D+01
 Coeff:      0.334D-03-0.728D-03-0.444D-04 0.516D-02-0.502D-02-0.170D-01
 Coeff:      0.186D-01 0.297D-01-0.208D-01-0.176D+00 0.582D-01 0.111D+01
 Gap=     0.310 Goal=   None    Shift=    0.000
 Gap=     0.310 Goal=   None    Shift=    0.000
 RMSDP=7.52D-07 MaxDP=2.65D-05 DE=-2.45D-07 OVMax= 1.29D-04

 Cycle  13  Pass 1  IDiag  1:
 RMSU=  4.84D-07    CP:  8.88D-01  2.35D+00  1.35D+00  2.67D+00  3.00D+00
                    CP:  3.00D+00  3.00D+00  2.03D+00  1.42D+00  1.68D+00
                    CP:  1.26D+00  1.55D+00
 E= -466.856890213675     Delta-E=       -0.000000082245 Rises=F Damp=F
 DIIS: error= 7.16D-06 at cycle  13 NSaved=  13.
 NSaved=13 IEnMin=13 EnMin= -466.856890213675     IErMin=13 ErrMin= 7.16D-06
 ErrMax= 7.16D-06  0.00D+00 EMaxC= 1.00D-01 BMatC= 1.60D-08 BMatP= 6.34D-08
 IDIUse=1 WtCom= 1.00D+00 WtEn= 0.00D+00
 Coeff-Com: -0.781D-04 0.171D-03 0.798D-04-0.543D-03 0.969D-04 0.144D-02
 Coeff-Com: -0.136D-02 0.624D-04 0.350D-02-0.665D-02-0.118D+00-0.293D+00
 Coeff-Com:  0.141D+01
 Coeff:     -0.781D-04 0.171D-03 0.798D-04-0.543D-03 0.969D-04 0.144D-02
 Coeff:     -0.136D-02 0.624D-04 0.350D-02-0.665D-02-0.118D+00-0.293D+00
 Coeff:      0.141D+01
 Gap=     0.310 Goal=   None    Shift=    0.000
 Gap=     0.310 Goal=   None    Shift=    0.000
 RMSDP=4.24D-07 MaxDP=2.34D-05 DE=-8.22D-08 OVMax= 9.95D-05

 Cycle  14  Pass 1  IDiag  1:
 RMSU=  2.81D-07    CP:  8.88D-01  2.35D+00  1.35D+00  2.67D+00  3.00D+00
                    CP:  3.00D+00  3.00D+00  2.03D+00  1.42D+00  1.69D+00
                    CP:  1.29D+00  1.76D+00  1.50D+00
 E= -466.856890248156     Delta-E=       -0.000000034481 Rises=F Damp=F
 DIIS: error= 3.80D-06 at cycle  14 NSaved=  14.
 NSaved=14 IEnMin=14 EnMin= -466.856890248156     IErMin=14 ErrMin= 3.80D-06
 ErrMax= 3.80D-06  0.00D+00 EMaxC= 1.00D-01 BMatC= 4.87D-09 BMatP= 1.60D-08
 IDIUse=1 WtCom= 1.00D+00 WtEn= 0.00D+00
 Coeff-Com: -0.146D-03 0.314D-03 0.810D-04-0.161D-02 0.106D-02 0.483D-02
 Coeff-Com: -0.477D-02-0.782D-02 0.601D-02 0.480D-01-0.329D-01-0.346D+00
 Coeff-Com:  0.126D+00 0.121D+01
 Coeff:     -0.146D-03 0.314D-03 0.810D-04-0.161D-02 0.106D-02 0.483D-02
 Coeff:     -0.477D-02-0.782D-02 0.601D-02 0.480D-01-0.329D-01-0.346D+00
 Coeff:      0.126D+00 0.121D+01
 Gap=     0.310 Goal=   None    Shift=    0.000
 Gap=     0.310 Goal=   None    Shift=    0.000
 RMSDP=2.79D-07 MaxDP=1.23D-05 DE=-3.45D-08 OVMax= 6.51D-05

 Cycle  15  Pass 1  IDiag  1:
 RMSU=  1.11D-07    CP:  8.88D-01  2.35D+00  1.35D+00  2.67D+00  3.00D+00
                    CP:  3.00D+00  3.00D+00  2.03D+00  1.42D+00  1.69D+00
                    CP:  1.29D+00  1.81D+00  1.77D+00  1.74D+00
 E= -466.856890258669     Delta-E=       -0.000000010514 Rises=F Damp=F
 DIIS: error= 1.53D-06 at cycle  15 NSaved=  15.
 NSaved=15 IEnMin=15 EnMin= -466.856890258669     IErMin=15 ErrMin= 1.53D-06
 ErrMax= 1.53D-06  0.00D+00 EMaxC= 1.00D-01 BMatC= 9.29D-10 BMatP= 4.87D-09
 IDIUse=1 WtCom= 1.00D+00 WtEn= 0.00D+00
 Coeff-Com:  0.325D-04-0.706D-04-0.337D-04 0.220D-03 0.440D-04-0.398D-03
 Coeff-Com: -0.276D-03 0.409D-03 0.116D-02 0.523D-02 0.254D-01 0.404D-01
 Coeff-Com: -0.388D+00 0.144D+00 0.117D+01
 Coeff:      0.325D-04-0.706D-04-0.337D-04 0.220D-03 0.440D-04-0.398D-03
 Coeff:     -0.276D-03 0.409D-03 0.116D-02 0.523D-02 0.254D-01 0.404D-01
 Coeff:     -0.388D+00 0.144D+00 0.117D+01
 Gap=     0.310 Goal=   None    Shift=    0.000
 Gap=     0.310 Goal=   None    Shift=    0.000
 RMSDP=1.61D-07 MaxDP=6.35D-06 DE=-1.05D-08 OVMax= 3.52D-05

 Cycle  16  Pass 1  IDiag  1:
 RMSU=  5.48D-08    CP:  8.88D-01  2.35D+00  1.35D+00  2.67D+00  3.00D+00
                    CP:  3.00D+00  3.00D+00  2.03D+00  1.42D+00  1.69D+00
                    CP:  1.29D+00  1.81D+00  1.87D+00  2.15D+00  1.63D+00
 E= -466.856890260465     Delta-E=       -0.000000001796 Rises=F Damp=F
 DIIS: error= 3.09D-07 at cycle  16 NSaved=  16.
 NSaved=16 IEnMin=16 EnMin= -466.856890260465     IErMin=16 ErrMin= 3.09D-07
 ErrMax= 3.09D-07  0.00D+00 EMaxC= 1.00D-01 BMatC= 8.89D-11 BMatP= 9.29D-10
 IDIUse=1 WtCom= 1.00D+00 WtEn= 0.00D+00
 Coeff-Com:  0.105D-04-0.227D-04-0.873D-05 0.129D-03-0.728D-04-0.363D-03
 Coeff-Com:  0.269D-03 0.699D-03-0.532D-03-0.356D-02 0.102D-01 0.459D-01
 Coeff-Com: -0.108D+00-0.921D-01 0.289D+00 0.858D+00
 Coeff:      0.105D-04-0.227D-04-0.873D-05 0.129D-03-0.728D-04-0.363D-03
 Coeff:      0.269D-03 0.699D-03-0.532D-03-0.356D-02 0.102D-01 0.459D-01
 Coeff:     -0.108D+00-0.921D-01 0.289D+00 0.858D+00
 Gap=     0.310 Goal=   None    Shift=    0.000
 Gap=     0.310 Goal=   None    Shift=    0.000
 RMSDP=3.61D-08 MaxDP=2.07D-06 DE=-1.80D-09 OVMax= 5.94D-06

 Cycle  17  Pass 1  IDiag  1:
 RMSU=  1.40D-08    CP:  8.88D-01  2.35D+00  1.35D+00  2.67D+00  3.00D+00
                    CP:  3.00D+00  3.00D+00  2.03D+00  1.42D+00  1.69D+00
                    CP:  1.29D+00  1.81D+00  1.88D+00  2.20D+00  1.78D+00
                    CP:  1.30D+00
 E= -466.856890260527     Delta-E=       -0.000000000062 Rises=F Damp=F
 DIIS: error= 7.28D-08 at cycle  17 NSaved=  17.
 NSaved=17 IEnMin=17 EnMin= -466.856890260527     IErMin=17 ErrMin= 7.28D-08
 ErrMax= 7.28D-08  0.00D+00 EMaxC= 1.00D-01 BMatC= 9.27D-12 BMatP= 8.89D-11
 IDIUse=1 WtCom= 1.00D+00 WtEn= 0.00D+00
 Coeff-Com: -0.126D-05 0.277D-05 0.119D-05-0.373D-05-0.177D-04 0.121D-04
 Coeff-Com:  0.384D-04 0.751D-04-0.266D-03-0.126D-02-0.839D-03 0.392D-02
 Coeff-Com:  0.248D-01-0.331D-01-0.864D-01 0.156D+00 0.937D+00
 Coeff:     -0.126D-05 0.277D-05 0.119D-05-0.373D-05-0.177D-04 0.121D-04
 Coeff:      0.384D-04 0.751D-04-0.266D-03-0.126D-02-0.839D-03 0.392D-02
 Coeff:      0.248D-01-0.331D-01-0.864D-01 0.156D+00 0.937D+00
 Gap=     0.310 Goal=   None    Shift=    0.000
 Gap=     0.310 Goal=   None    Shift=    0.000
 RMSDP=1.15D-08 MaxDP=4.44D-07 DE=-6.21D-11 OVMax= 1.76D-06

 Cycle  18  Pass 1  IDiag  1:
 RMSU=  5.93D-09    CP:  8.88D-01  2.35D+00  1.35D+00  2.67D+00  3.00D+00
                    CP:  3.00D+00  3.00D+00  2.03D+00  1.42D+00  1.70D+00
                    CP:  1.29D+00  1.81D+00  1.88D+00  2.20D+00  1.82D+00
                    CP:  1.40D+00  1.23D+00
 E= -466.856890260540     Delta-E=       -0.000000000012 Rises=F Damp=F
 DIIS: error= 2.94D-08 at cycle  18 NSaved=  18.
 NSaved=18 IEnMin=18 EnMin= -466.856890260540     IErMin=18 ErrMin= 2.94D-08
 ErrMax= 2.94D-08  0.00D+00 EMaxC= 1.00D-01 BMatC= 9.27D-13 BMatP= 9.27D-12
 IDIUse=1 WtCom= 1.00D+00 WtEn= 0.00D+00
 Coeff-Com:  0.133D-06-0.294D-06 0.461D-06-0.106D-05-0.781D-05 0.124D-04
 Coeff-Com: -0.130D-05-0.154D-04 0.239D-04 0.679D-04-0.107D-02-0.368D-02
 Coeff-Com:  0.137D-01 0.401D-02-0.393D-01-0.674D-01 0.131D+00 0.962D+00
 Coeff:      0.133D-06-0.294D-06 0.461D-06-0.106D-05-0.781D-05 0.124D-04
 Coeff:     -0.130D-05-0.154D-04 0.239D-04 0.679D-04-0.107D-02-0.368D-02
 Coeff:      0.137D-01 0.401D-02-0.393D-01-0.674D-01 0.131D+00 0.962D+00
 Gap=     0.310 Goal=   None    Shift=    0.000
 Gap=     0.310 Goal=   None    Shift=    0.000
 RMSDP=3.63D-09 MaxDP=1.68D-07 DE=-1.24D-11 OVMax= 4.04D-07

 Error on total polarization charges =  0.01179
 SCF Done:  E(UwB97XD) =  -466.856890261     A.U. after   18 cycles
            NFock= 18  Conv=0.36D-08     -V/T= 2.0058
 <Sx>= 0.0000 <Sy>= 0.0000 <Sz>= 0.0000 <S**2>= 0.0000 S= 0.0000
 <L.S>=  0.00000000000    
 KE= 4.641772829458D+02 PE=-2.434132358973D+03 EE= 8.269104780299D+02
 --------------------------------------------------------------------
 Variational PCM results
 =======================
 <psi(f)|   H    |psi(f)>                     (a.u.) =    -466.855361
 <psi(f)|H+V(f)/2|psi(f)>                     (a.u.) =    -466.856890
 (Polarized solute)-Solvent               (kcal/mol) =      -0.96
 --------------------------------------------------------------------
 Partition over spheres:
 Sphere  on Atom  Surface  Charge   GEl     GCav    GDR
    1      C1       7.15   0.010   -0.05    0.00    0.00
    2      C2       4.06   0.006   -0.04    0.00    0.00
    3      H3       7.52  -0.010   -0.04    0.00    0.00
    4      H4       3.60  -0.005   -0.01    0.00    0.00
    5      C5       4.60   0.009   -0.06    0.00    0.00
    6      C6       4.83   0.007   -0.04    0.00    0.00
    7      H7       4.57  -0.006   -0.03    0.00    0.00
    8      H8       3.85  -0.005   -0.01    0.00    0.00
    9      C9       3.15   0.002    0.00    0.00    0.00
   10      H10      6.92  -0.007   -0.01    0.00    0.00
   11      H11      2.65  -0.002   -0.01    0.00    0.00
   12      C12      6.37   0.010   -0.06    0.00    0.00
   13      H13      7.52  -0.010   -0.03    0.00    0.00
   14      C14      7.30   0.011   -0.05    0.00    0.00
   15      H15      7.52  -0.010   -0.04    0.00    0.00
   16      C16      3.74   0.001    0.00    0.00    0.00
   17      H17      3.21  -0.003   -0.01    0.00    0.00
   18      H18      6.96  -0.008   -0.03    0.00    0.00
   19      C19      4.99   0.009   -0.06    0.00    0.00
   20      H20      4.64  -0.007   -0.03    0.00    0.00
   21      C21      6.23   0.010   -0.06    0.00    0.00
   22      H22      7.51  -0.010   -0.03    0.00    0.00
   23      C23      3.64   0.002    0.00    0.00    0.00
   24      H24      4.00  -0.003   -0.01    0.00    0.00
   25      H25      6.91  -0.007   -0.01    0.00    0.00
   26      C26      3.27   0.001    0.00    0.00    0.00
   27      H27      6.96  -0.008   -0.03    0.00    0.00
   28      H28      3.26  -0.003   -0.01    0.00    0.00
 Added spheres:    75.31   0.013   -0.22    0.00    0.00
 --------------------------------------------------------------------
 After PCM corrections, the energy is  -466.856890261     a.u.
 --------------------------------------------------------------------
 Annihilation of the first spin contaminant:
 S**2 before annihilation     0.0000,   after    -0.0000
 Leave Link  502 at Mon Aug  3 14:43:42 2020, MaxMem=  6442450944 cpu:            7470.7 elap:             314.1
 (Enter /scratch/scicomp/CentOS/7.3.1611/Haswell/software/Gaussian/g16/l601.exe)
 Copying SCF densities to generalized density rwf, IOpCl= 1 IROHF=0.

 **********************************************************************

            Population analysis using the SCF Density.

 **********************************************************************

 Alpha  occ. eigenvalues --  -10.28548 -10.28548 -10.28307 -10.28307 -10.28306
 Alpha  occ. eigenvalues --  -10.28305 -10.28213 -10.28212 -10.28021 -10.28020
 Alpha  occ. eigenvalues --  -10.27591 -10.27590  -0.94248  -0.93643  -0.84347
 Alpha  occ. eigenvalues --   -0.84228  -0.83861  -0.83745  -0.71512  -0.71239
 Alpha  occ. eigenvalues --   -0.68063  -0.67972  -0.59819  -0.59674  -0.57441
 Alpha  occ. eigenvalues --   -0.56710  -0.53694  -0.52839  -0.51026  -0.50988
 Alpha  occ. eigenvalues --   -0.49943  -0.49440  -0.47441  -0.46953  -0.45299
 Alpha  occ. eigenvalues --   -0.45094  -0.41361  -0.41060  -0.39802  -0.39341
 Alpha  occ. eigenvalues --   -0.39275  -0.39015  -0.29877  -0.27580
 Alpha virt. eigenvalues --    0.03414   0.04987   0.10513   0.12272   0.13354
 Alpha virt. eigenvalues --    0.14462   0.14838   0.15647   0.15681   0.15845
 Alpha virt. eigenvalues --    0.16769   0.16907   0.17181   0.18206   0.19953
 Alpha virt. eigenvalues --    0.21144   0.21369   0.22856   0.23559   0.23695
 Alpha virt. eigenvalues --    0.24662   0.25472   0.25750   0.26753   0.28052
 Alpha virt. eigenvalues --    0.28140   0.28972   0.29303   0.30029   0.30555
 Alpha virt. eigenvalues --    0.31432   0.31500   0.32275   0.32464   0.33335
 Alpha virt. eigenvalues --    0.33728   0.34225   0.35556   0.35975   0.37264
 Alpha virt. eigenvalues --    0.37763   0.38969   0.39742   0.41196   0.41418
 Alpha virt. eigenvalues --    0.41611   0.43596   0.43993   0.45084   0.45791
 Alpha virt. eigenvalues --    0.46403   0.46657   0.47692   0.47809   0.48387
 Alpha virt. eigenvalues --    0.48573   0.48864   0.49148   0.49569   0.49950
 Alpha virt. eigenvalues --    0.50316   0.50387   0.51736   0.51977   0.52565
 Alpha virt. eigenvalues --    0.53068   0.54004   0.54128   0.54752   0.55031
 Alpha virt. eigenvalues --    0.56849   0.57438   0.57761   0.58729   0.59726
 Alpha virt. eigenvalues --    0.60072   0.60647   0.62261   0.62807   0.64589
 Alpha virt. eigenvalues --    0.65575   0.66827   0.67830   0.68230   0.68535
 Alpha virt. eigenvalues --    0.70185   0.72350   0.72672   0.73526   0.74644
 Alpha virt. eigenvalues --    0.77162   0.78189   0.78291   0.80214   0.80263
 Alpha virt. eigenvalues --    0.81484   0.82297   0.83125   0.87411   0.87791
 Alpha virt. eigenvalues --    0.88893   0.89951   0.90050   0.91542   0.92735
 Alpha virt. eigenvalues --    0.93119   0.94868   0.96250   0.98365   0.98738
 Alpha virt. eigenvalues --    1.00631   1.03535   1.04625   1.04737   1.04814
 Alpha virt. eigenvalues --    1.06468   1.07541   1.07854   1.08810   1.11349
 Alpha virt. eigenvalues --    1.12746   1.13547   1.14015   1.14785   1.15642
 Alpha virt. eigenvalues --    1.15999   1.16868   1.17472   1.18709   1.20237
 Alpha virt. eigenvalues --    1.20523   1.21357   1.24140   1.24292   1.24683
 Alpha virt. eigenvalues --    1.25381   1.25930   1.27208   1.27926   1.28531
 Alpha virt. eigenvalues --    1.29051   1.30896   1.31452   1.32482   1.32587
 Alpha virt. eigenvalues --    1.33966   1.34689   1.37122   1.37253   1.37554
 Alpha virt. eigenvalues --    1.38655   1.38957   1.40521   1.41075   1.41699
 Alpha virt. eigenvalues --    1.42857   1.43379   1.43428   1.43687   1.44946
 Alpha virt. eigenvalues --    1.45810   1.46534   1.46907   1.47640   1.48415
 Alpha virt. eigenvalues --    1.49212   1.50825   1.51649   1.54169   1.55774
 Alpha virt. eigenvalues --    1.57272   1.58044   1.58633   1.59569   1.61147
 Alpha virt. eigenvalues --    1.61773   1.63271   1.63523   1.65836   1.67607
 Alpha virt. eigenvalues --    1.68467   1.70423   1.72515   1.74274   1.78205
 Alpha virt. eigenvalues --    1.78244   1.80563   1.80701   1.83688   1.84282
 Alpha virt. eigenvalues --    1.86630   1.87492   1.90172   1.91136   1.91708
 Alpha virt. eigenvalues --    1.92956   1.97070   1.98350   2.00406   2.00973
 Alpha virt. eigenvalues --    2.03678   2.03693   2.07082   2.08557   2.08832
 Alpha virt. eigenvalues --    2.09911   2.11840   2.12779   2.13770   2.15455
 Alpha virt. eigenvalues --    2.17666   2.20022   2.20478   2.21111   2.22534
 Alpha virt. eigenvalues --    2.23166   2.24737   2.25141   2.26962   2.27057
 Alpha virt. eigenvalues --    2.31268   2.35219   2.37454   2.38698   2.41366
 Alpha virt. eigenvalues --    2.43381   2.45067   2.45511   2.49138   2.49793
 Alpha virt. eigenvalues --    2.49979   2.50629   2.53449   2.54582   2.55267
 Alpha virt. eigenvalues --    2.55965   2.57683   2.58547   2.61065   2.61759
 Alpha virt. eigenvalues --    2.62466   2.64739   2.64769   2.65340   2.66062
 Alpha virt. eigenvalues --    2.66736   2.67706   2.70848   2.72260   2.72737
 Alpha virt. eigenvalues --    2.73171   2.73726   2.74805   2.75831   2.76896
 Alpha virt. eigenvalues --    2.77424   2.78699   2.79675   2.80664   2.81139
 Alpha virt. eigenvalues --    2.81206   2.82732   2.82930   2.83994   2.85138
 Alpha virt. eigenvalues --    2.86091   2.86484   2.87164   2.87622   2.90010
 Alpha virt. eigenvalues --    2.90969   2.91198   2.92491   2.92558   2.94105
 Alpha virt. eigenvalues --    2.94981   2.95508   2.95712   2.96648   3.00684
 Alpha virt. eigenvalues --    3.01238   3.02214   3.03150   3.04702   3.05847
 Alpha virt. eigenvalues --    3.07469   3.09164   3.09804   3.09905   3.10300
 Alpha virt. eigenvalues --    3.11740   3.13014   3.13393   3.14545   3.15180
 Alpha virt. eigenvalues --    3.15384   3.16567   3.17100   3.18597   3.19262
 Alpha virt. eigenvalues --    3.19865   3.20273   3.20547   3.20872   3.21599
 Alpha virt. eigenvalues --    3.21878   3.22767   3.23304   3.23907   3.24295
 Alpha virt. eigenvalues --    3.25741   3.26188   3.26514   3.26793   3.27833
 Alpha virt. eigenvalues --    3.28057   3.30545   3.30589   3.31550   3.31552
 Alpha virt. eigenvalues --    3.32558   3.32605   3.33461   3.34263   3.34275
 Alpha virt. eigenvalues --    3.35857   3.35915   3.36582   3.37682   3.38902
 Alpha virt. eigenvalues --    3.39670   3.41822   3.42782   3.43239   3.43951
 Alpha virt. eigenvalues --    3.45257   3.45448   3.46540   3.46876   3.47070
 Alpha virt. eigenvalues --    3.48171   3.49350   3.49823   3.50694   3.51442
 Alpha virt. eigenvalues --    3.52098   3.53149   3.53483   3.54860   3.54898
 Alpha virt. eigenvalues --    3.57287   3.57477   3.57816   3.60332   3.65003
 Alpha virt. eigenvalues --    3.65255   3.65555   3.65814   3.67638   3.68241
 Alpha virt. eigenvalues --    3.68555   3.69028   3.71759   3.71862   3.73776
 Alpha virt. eigenvalues --    3.76578   3.76674   3.78543   3.80657   3.82333
 Alpha virt. eigenvalues --    3.85036   3.85553   3.85651   3.86464   3.86902
 Alpha virt. eigenvalues --    3.88860   3.91322   3.92040   3.93966   3.94940
 Alpha virt. eigenvalues --    3.96863   3.98108   4.01393   4.01475   4.03919
 Alpha virt. eigenvalues --    4.05707   4.08066   4.08945   4.08991   4.10518
 Alpha virt. eigenvalues --    4.11908   4.12923   4.14484   4.14902   4.18378
 Alpha virt. eigenvalues --    4.18503   4.20286   4.20680   4.23345   4.24704
 Alpha virt. eigenvalues --    4.25326   4.27177   4.30788   4.30968   4.34527
 Alpha virt. eigenvalues --    4.35050   4.38428   4.38452   4.39537   4.41900
 Alpha virt. eigenvalues --    4.43518   4.44263   4.47502   4.48919   4.51484
 Alpha virt. eigenvalues --    4.53250   4.58949   4.61135   4.63798   4.67226
 Alpha virt. eigenvalues --    4.67858   4.68912   4.73192   4.73415   4.76079
 Alpha virt. eigenvalues --    4.76999   4.79516   4.80364   4.83502   4.84549
 Alpha virt. eigenvalues --    4.85286   4.86240   4.91075   4.93663   4.94643
 Alpha virt. eigenvalues --    4.95637   4.97519   4.99610   5.06632   5.07690
 Alpha virt. eigenvalues --    5.13719   5.14772   5.19264   5.20033   5.22609
 Alpha virt. eigenvalues --    5.23262   5.32373   5.32758   5.41180   5.42086
 Alpha virt. eigenvalues --    5.43463   5.44445   5.49997   5.51070   5.69029
 Alpha virt. eigenvalues --    5.71021   5.76217   5.78834   5.94568   6.02015
 Alpha virt. eigenvalues --    7.93952   7.95345   8.00990   8.04624   8.05356
 Alpha virt. eigenvalues --    8.07893   8.09696   8.12064   8.17606   8.18448
 Alpha virt. eigenvalues --    8.35176   8.35732  34.76095  34.77615  34.80960
 Alpha virt. eigenvalues --   34.81703  34.85510  34.88634  34.96360  34.98696
 Alpha virt. eigenvalues --   35.01105  35.01784  35.16236  35.18589
  Beta  occ. eigenvalues --  -10.28548 -10.28548 -10.28307 -10.28307 -10.28306
  Beta  occ. eigenvalues --  -10.28305 -10.28213 -10.28212 -10.28021 -10.28020
  Beta  occ. eigenvalues --  -10.27591 -10.27590  -0.94248  -0.93643  -0.84347
  Beta  occ. eigenvalues --   -0.84228  -0.83861  -0.83745  -0.71512  -0.71239
  Beta  occ. eigenvalues --   -0.68063  -0.67972  -0.59819  -0.59674  -0.57441
  Beta  occ. eigenvalues --   -0.56710  -0.53694  -0.52839  -0.51026  -0.50988
  Beta  occ. eigenvalues --   -0.49943  -0.49440  -0.47441  -0.46953  -0.45299
  Beta  occ. eigenvalues --   -0.45094  -0.41361  -0.41060  -0.39802  -0.39341
  Beta  occ. eigenvalues --   -0.39275  -0.39015  -0.29877  -0.27580
  Beta virt. eigenvalues --    0.03414   0.04987   0.10513   0.12272   0.13354
  Beta virt. eigenvalues --    0.14462   0.14838   0.15647   0.15681   0.15845
  Beta virt. eigenvalues --    0.16769   0.16907   0.17181   0.18206   0.19953
  Beta virt. eigenvalues --    0.21144   0.21369   0.22856   0.23559   0.23695
  Beta virt. eigenvalues --    0.24662   0.25472   0.25750   0.26753   0.28052
  Beta virt. eigenvalues --    0.28140   0.28972   0.29303   0.30029   0.30555
  Beta virt. eigenvalues --    0.31432   0.31500   0.32275   0.32464   0.33335
  Beta virt. eigenvalues --    0.33728   0.34225   0.35556   0.35975   0.37264
  Beta virt. eigenvalues --    0.37763   0.38969   0.39742   0.41196   0.41418
  Beta virt. eigenvalues --    0.41611   0.43596   0.43993   0.45084   0.45791
  Beta virt. eigenvalues --    0.46403   0.46657   0.47692   0.47809   0.48387
  Beta virt. eigenvalues --    0.48573   0.48864   0.49148   0.49569   0.49950
  Beta virt. eigenvalues --    0.50316   0.50387   0.51736   0.51977   0.52565
  Beta virt. eigenvalues --    0.53068   0.54004   0.54128   0.54752   0.55031
  Beta virt. eigenvalues --    0.56849   0.57438   0.57761   0.58729   0.59726
  Beta virt. eigenvalues --    0.60072   0.60647   0.62261   0.62807   0.64589
  Beta virt. eigenvalues --    0.65575   0.66827   0.67830   0.68230   0.68535
  Beta virt. eigenvalues --    0.70185   0.72350   0.72672   0.73526   0.74644
  Beta virt. eigenvalues --    0.77162   0.78189   0.78291   0.80214   0.80263
  Beta virt. eigenvalues --    0.81484   0.82297   0.83125   0.87411   0.87791
  Beta virt. eigenvalues --    0.88893   0.89951   0.90050   0.91542   0.92735
  Beta virt. eigenvalues --    0.93119   0.94868   0.96250   0.98365   0.98738
  Beta virt. eigenvalues --    1.00631   1.03535   1.04625   1.04737   1.04814
  Beta virt. eigenvalues --    1.06468   1.07541   1.07854   1.08810   1.11349
  Beta virt. eigenvalues --    1.12746   1.13547   1.14015   1.14785   1.15642
  Beta virt. eigenvalues --    1.15999   1.16868   1.17472   1.18709   1.20237
  Beta virt. eigenvalues --    1.20523   1.21357   1.24140   1.24292   1.24683
  Beta virt. eigenvalues --    1.25381   1.25930   1.27208   1.27926   1.28531
  Beta virt. eigenvalues --    1.29051   1.30896   1.31452   1.32482   1.32587
  Beta virt. eigenvalues --    1.33966   1.34689   1.37122   1.37253   1.37554
  Beta virt. eigenvalues --    1.38655   1.38957   1.40521   1.41075   1.41699
  Beta virt. eigenvalues --    1.42857   1.43379   1.43428   1.43687   1.44946
  Beta virt. eigenvalues --    1.45810   1.46534   1.46907   1.47640   1.48415
  Beta virt. eigenvalues --    1.49212   1.50825   1.51649   1.54169   1.55774
  Beta virt. eigenvalues --    1.57272   1.58044   1.58633   1.59569   1.61147
  Beta virt. eigenvalues --    1.61773   1.63271   1.63523   1.65836   1.67607
  Beta virt. eigenvalues --    1.68467   1.70423   1.72515   1.74274   1.78205
  Beta virt. eigenvalues --    1.78244   1.80563   1.80701   1.83688   1.84282
  Beta virt. eigenvalues --    1.86630   1.87492   1.90172   1.91136   1.91708
  Beta virt. eigenvalues --    1.92956   1.97070   1.98350   2.00406   2.00973
  Beta virt. eigenvalues --    2.03678   2.03693   2.07082   2.08557   2.08832
  Beta virt. eigenvalues --    2.09911   2.11840   2.12779   2.13770   2.15455
  Beta virt. eigenvalues --    2.17666   2.20022   2.20478   2.21111   2.22534
  Beta virt. eigenvalues --    2.23166   2.24737   2.25141   2.26962   2.27057
  Beta virt. eigenvalues --    2.31268   2.35219   2.37454   2.38698   2.41366
  Beta virt. eigenvalues --    2.43381   2.45067   2.45511   2.49138   2.49793
  Beta virt. eigenvalues --    2.49979   2.50629   2.53449   2.54582   2.55267
  Beta virt. eigenvalues --    2.55965   2.57683   2.58547   2.61065   2.61759
  Beta virt. eigenvalues --    2.62466   2.64739   2.64769   2.65340   2.66062
  Beta virt. eigenvalues --    2.66736   2.67706   2.70848   2.72260   2.72737
  Beta virt. eigenvalues --    2.73171   2.73726   2.74805   2.75831   2.76896
  Beta virt. eigenvalues --    2.77424   2.78699   2.79675   2.80664   2.81139
  Beta virt. eigenvalues --    2.81206   2.82732   2.82930   2.83994   2.85138
  Beta virt. eigenvalues --    2.86091   2.86484   2.87164   2.87622   2.90010
  Beta virt. eigenvalues --    2.90969   2.91198   2.92491   2.92558   2.94105
  Beta virt. eigenvalues --    2.94981   2.95508   2.95712   2.96648   3.00684
  Beta virt. eigenvalues --    3.01238   3.02214   3.03150   3.04702   3.05847
  Beta virt. eigenvalues --    3.07469   3.09164   3.09804   3.09905   3.10300
  Beta virt. eigenvalues --    3.11740   3.13014   3.13393   3.14545   3.15180
  Beta virt. eigenvalues --    3.15384   3.16567   3.17100   3.18597   3.19262
  Beta virt. eigenvalues --    3.19865   3.20273   3.20547   3.20872   3.21599
  Beta virt. eigenvalues --    3.21878   3.22767   3.23304   3.23907   3.24295
  Beta virt. eigenvalues --    3.25741   3.26188   3.26514   3.26793   3.27833
  Beta virt. eigenvalues --    3.28057   3.30545   3.30589   3.31550   3.31552
  Beta virt. eigenvalues --    3.32558   3.32605   3.33461   3.34263   3.34275
  Beta virt. eigenvalues --    3.35857   3.35915   3.36582   3.37682   3.38902
  Beta virt. eigenvalues --    3.39670   3.41822   3.42782   3.43239   3.43951
  Beta virt. eigenvalues --    3.45257   3.45448   3.46540   3.46876   3.47070
  Beta virt. eigenvalues --    3.48171   3.49350   3.49823   3.50694   3.51442
  Beta virt. eigenvalues --    3.52098   3.53149   3.53483   3.54860   3.54898
  Beta virt. eigenvalues --    3.57287   3.57477   3.57816   3.60332   3.65003
  Beta virt. eigenvalues --    3.65255   3.65555   3.65814   3.67638   3.68241
  Beta virt. eigenvalues --    3.68555   3.69028   3.71759   3.71862   3.73776
  Beta virt. eigenvalues --    3.76578   3.76674   3.78543   3.80657   3.82333
  Beta virt. eigenvalues --    3.85036   3.85553   3.85651   3.86464   3.86902
  Beta virt. eigenvalues --    3.88860   3.91322   3.92040   3.93966   3.94940
  Beta virt. eigenvalues --    3.96863   3.98108   4.01393   4.01475   4.03919
  Beta virt. eigenvalues --    4.05707   4.08066   4.08945   4.08991   4.10518
  Beta virt. eigenvalues --    4.11908   4.12923   4.14484   4.14902   4.18378
  Beta virt. eigenvalues --    4.18503   4.20286   4.20680   4.23345   4.24704
  Beta virt. eigenvalues --    4.25326   4.27177   4.30788   4.30968   4.34527
  Beta virt. eigenvalues --    4.35050   4.38428   4.38452   4.39537   4.41900
  Beta virt. eigenvalues --    4.43518   4.44263   4.47502   4.48919   4.51484
  Beta virt. eigenvalues --    4.53250   4.58949   4.61135   4.63798   4.67226
  Beta virt. eigenvalues --    4.67858   4.68912   4.73192   4.73415   4.76079
  Beta virt. eigenvalues --    4.76999   4.79516   4.80364   4.83502   4.84549
  Beta virt. eigenvalues --    4.85286   4.86240   4.91075   4.93663   4.94643
  Beta virt. eigenvalues --    4.95637   4.97519   4.99610   5.06632   5.07690
  Beta virt. eigenvalues --    5.13719   5.14772   5.19264   5.20033   5.22609
  Beta virt. eigenvalues --    5.23262   5.32373   5.32758   5.41180   5.42086
  Beta virt. eigenvalues --    5.43463   5.44445   5.49997   5.51070   5.69029
  Beta virt. eigenvalues --    5.71021   5.76217   5.78834   5.94568   6.02015
  Beta virt. eigenvalues --    7.93952   7.95345   8.00990   8.04624   8.05356
  Beta virt. eigenvalues --    8.07893   8.09696   8.12064   8.17606   8.18448
  Beta virt. eigenvalues --    8.35176   8.35732  34.76095  34.77615  34.80960
  Beta virt. eigenvalues --   34.81703  34.85510  34.88634  34.96360  34.98696
  Beta virt. eigenvalues --   35.01105  35.01784  35.16236  35.18589
          Condensed to atoms (all electrons):
               1          2          3          4          5          6
     1  C    5.122023   0.005081   0.424779  -0.001781   0.000836  -0.004686
     2  C    0.005081   5.306596  -0.002348   0.425612  -0.031594  -0.049961
     3  H    0.424779  -0.002348   0.498186   0.000035  -0.000047   0.000002
     4  H   -0.001781   0.425612   0.000035   0.474573  -0.003861   0.003694
     5  C    0.000836  -0.031594  -0.000047  -0.003861   5.145385   0.526239
     6  C   -0.004686  -0.049961   0.000002   0.003694   0.526239   5.306659
     7  H    0.000309  -0.001580   0.000001  -0.000099   0.425276  -0.028284
     8  H   -0.001423   0.003697  -0.000022   0.000023  -0.042102   0.425594
     9  C    0.001828  -0.002755  -0.000005  -0.001249  -0.064267   0.239854
    10  H   -0.000039   0.000208  -0.000001  -0.000112  -0.004797  -0.034198
    11  H    0.000118  -0.004074   0.000001   0.000123   0.007828  -0.056436
    12  C   -0.000147   0.009242   0.000002   0.001972   0.299959  -0.076380
    13  H   -0.000001   0.000012   0.000000   0.000020  -0.039945   0.005597
    14  C    0.000142  -0.004683  -0.000000  -0.001419  -0.057664   0.005101
    15  H   -0.000000   0.000002  -0.000000  -0.000022   0.007773  -0.002348
    16  C   -0.000598   0.011108   0.000000   0.000285  -0.001649  -0.067501
    17  H   -0.000047  -0.000605  -0.000001  -0.001393   0.010210  -0.000809
    18  H    0.000003   0.000523   0.000000   0.000190  -0.002578   0.011165
    19  C   -0.057620   0.526221   0.007774  -0.042139  -0.008571  -0.031617
    20  H    0.004094  -0.028197  -0.000108  -0.005256   0.000334  -0.001581
    21  C    0.598384  -0.076355  -0.033936   0.005496   0.001082   0.009256
    22  H   -0.028809   0.005605  -0.006618  -0.000073   0.000023   0.000012
    23  C   -0.087653   0.239840   0.005792  -0.015314   0.006230  -0.002759
    24  H    0.012890  -0.056443  -0.000127  -0.004033   0.001164  -0.004077
    25  H    0.004858  -0.034185  -0.000041  -0.000213   0.000540   0.000208
    26  C    0.287256  -0.067471  -0.032241   0.004086  -0.004616   0.011108
    27  H   -0.035967   0.011166  -0.004485  -0.000126   0.000294   0.000523
    28  H   -0.033994  -0.000811   0.001449  -0.000156  -0.003694  -0.000611
               7          8          9         10         11         12
     1  C    0.000309  -0.001423   0.001828  -0.000039   0.000118  -0.000147
     2  C   -0.001580   0.003697  -0.002755   0.000208  -0.004074   0.009242
     3  H    0.000001  -0.000022  -0.000005  -0.000001   0.000001   0.000002
     4  H   -0.000099   0.000023  -0.001249  -0.000112   0.000123   0.001972
     5  C    0.425276  -0.042102  -0.064267  -0.004797   0.007828   0.299959
     6  C   -0.028284   0.425594   0.239854  -0.034198  -0.056436  -0.076380
     7  H    0.483747  -0.005252   0.003576  -0.000305  -0.000055  -0.032323
     8  H   -0.005252   0.474387  -0.015297  -0.000214  -0.004030   0.005489
     9  C    0.003576  -0.015297   4.955598   0.380420   0.455333   0.035662
    10  H   -0.000305  -0.000214   0.380420   0.580469  -0.022328   0.001865
    11  H   -0.000055  -0.004030   0.455333  -0.022328   0.540775  -0.003918
    12  C   -0.032323   0.005489   0.035662   0.001865  -0.003918   4.993865
    13  H   -0.003589  -0.000073  -0.000582  -0.000049   0.000036   0.427813
    14  C    0.004092  -0.001779  -0.087664   0.004863   0.012890   0.598421
    15  H   -0.000108   0.000035   0.005792  -0.000041  -0.000127  -0.033941
    16  C   -0.000921   0.004081   0.363828  -0.023272  -0.053369  -0.060507
    17  H    0.000015  -0.000156  -0.033799   0.007439  -0.009087  -0.015634
    18  H    0.000038  -0.000125  -0.041983  -0.009446  -0.000745   0.005580
    19  C    0.000334  -0.003863   0.006221   0.000539   0.001168   0.001085
    20  H    0.000009  -0.000099   0.002370   0.000206  -0.001011  -0.000170
    21  C   -0.000170   0.001975  -0.001335  -0.000006  -0.000070  -0.000233
    22  H   -0.000001   0.000020  -0.000062  -0.000001   0.000011   0.000000
    23  C    0.002369  -0.001248   0.001002  -0.000032   0.000191  -0.001335
    24  H   -0.001009   0.000123   0.000191  -0.000005  -0.000020  -0.000070
    25  H    0.000206  -0.000112  -0.000032   0.000003  -0.000005  -0.000006
    26  C   -0.001764   0.000283  -0.000956   0.000081  -0.000120   0.000772
    27  H   -0.000026   0.000190  -0.000027   0.000001  -0.000001  -0.000046
    28  H    0.001742  -0.001399   0.000452  -0.000011   0.000013   0.000490
              13         14         15         16         17         18
     1  C   -0.000001   0.000142  -0.000000  -0.000598  -0.000047   0.000003
     2  C    0.000012  -0.004683   0.000002   0.011108  -0.000605   0.000523
     3  H    0.000000  -0.000000  -0.000000   0.000000  -0.000001   0.000000
     4  H    0.000020  -0.001419  -0.000022   0.000285  -0.001393   0.000190
     5  C   -0.039945  -0.057664   0.007773  -0.001649   0.010210  -0.002578
     6  C    0.005597   0.005101  -0.002348  -0.067501  -0.000809   0.011165
     7  H   -0.003589   0.004092  -0.000108  -0.000921   0.000015   0.000038
     8  H   -0.000073  -0.001779   0.000035   0.004081  -0.000156  -0.000125
     9  C   -0.000582  -0.087664   0.005792   0.363828  -0.033799  -0.041983
    10  H   -0.000049   0.004863  -0.000041  -0.023272   0.007439  -0.009446
    11  H    0.000036   0.012890  -0.000127  -0.053369  -0.009087  -0.000745
    12  C    0.427813   0.598421  -0.033941  -0.060507  -0.015634   0.005580
    13  H    0.495935  -0.028835  -0.006618   0.005329  -0.000419  -0.000137
    14  C   -0.028835   5.121886   0.424776   0.287281  -0.034001  -0.035960
    15  H   -0.006618   0.424776   0.498196  -0.032233   0.001450  -0.004486
    16  C    0.005329   0.287281  -0.032233   4.921643   0.397299   0.428870
    17  H   -0.000419  -0.034001   0.001450   0.397299   0.592302  -0.022935
    18  H   -0.000137  -0.035960  -0.004486   0.428870  -0.022935   0.546236
    19  C    0.000023   0.000835  -0.000047  -0.004614  -0.003703   0.000295
    20  H   -0.000001   0.000309   0.000001  -0.001766   0.001741  -0.000026
    21  C    0.000000  -0.000147   0.000002   0.000771   0.000489  -0.000046
    22  H    0.000000  -0.000001   0.000000   0.000015  -0.000002  -0.000001
    23  C   -0.000062   0.001826  -0.000005  -0.000955   0.000454  -0.000027
    24  H    0.000011   0.000118   0.000001  -0.000120   0.000013  -0.000001
    25  H   -0.000001  -0.000039  -0.000001   0.000081  -0.000011   0.000001
    26  C    0.000015  -0.000598   0.000000   0.000876   0.000088  -0.000003
    27  H   -0.000001   0.000003   0.000000  -0.000003   0.000002  -0.000000
    28  H   -0.000002  -0.000047  -0.000001   0.000088  -0.000023   0.000002
              19         20         21         22         23         24
     1  C   -0.057620   0.004094   0.598384  -0.028809  -0.087653   0.012890
     2  C    0.526221  -0.028197  -0.076355   0.005605   0.239840  -0.056443
     3  H    0.007774  -0.000108  -0.033936  -0.006618   0.005792  -0.000127
     4  H   -0.042139  -0.005256   0.005496  -0.000073  -0.015314  -0.004033
     5  C   -0.008571   0.000334   0.001082   0.000023   0.006230   0.001164
     6  C   -0.031617  -0.001581   0.009256   0.000012  -0.002759  -0.004077
     7  H    0.000334   0.000009  -0.000170  -0.000001   0.002369  -0.001009
     8  H   -0.003863  -0.000099   0.001975   0.000020  -0.001248   0.000123
     9  C    0.006221   0.002370  -0.001335  -0.000062   0.001002   0.000191
    10  H    0.000539   0.000206  -0.000006  -0.000001  -0.000032  -0.000005
    11  H    0.001168  -0.001011  -0.000070   0.000011   0.000191  -0.000020
    12  C    0.001085  -0.000170  -0.000233   0.000000  -0.001335  -0.000070
    13  H    0.000023  -0.000001   0.000000   0.000000  -0.000062   0.000011
    14  C    0.000835   0.000309  -0.000147  -0.000001   0.001826   0.000118
    15  H   -0.000047   0.000001   0.000002   0.000000  -0.000005   0.000001
    16  C   -0.004614  -0.001766   0.000771   0.000015  -0.000955  -0.000120
    17  H   -0.003703   0.001741   0.000489  -0.000002   0.000454   0.000013
    18  H    0.000295  -0.000026  -0.000046  -0.000001  -0.000027  -0.000001
    19  C    5.145478   0.425223   0.299858  -0.039974  -0.064271   0.007839
    20  H    0.425223   0.483705  -0.032349  -0.003587   0.003577  -0.000055
    21  C    0.299858  -0.032349   4.993870   0.427804   0.035656  -0.003919
    22  H   -0.039974  -0.003587   0.427804   0.495952  -0.000583   0.000036
    23  C   -0.064271   0.003577   0.035656  -0.000583   4.955694   0.455361
    24  H    0.007839  -0.000055  -0.003919   0.000036   0.455361   0.540663
    25  H   -0.004806  -0.000305   0.001871  -0.000049   0.380386  -0.022318
    26  C   -0.001686  -0.000921  -0.060499   0.005330   0.363813  -0.053375
    27  H   -0.002577   0.000038   0.005580  -0.000137  -0.041980  -0.000745
    28  H    0.010206   0.000015  -0.015619  -0.000419  -0.033800  -0.009085
              25         26         27         28
     1  C    0.004858   0.287256  -0.035967  -0.033994
     2  C   -0.034185  -0.067471   0.011166  -0.000811
     3  H   -0.000041  -0.032241  -0.004485   0.001449
     4  H   -0.000213   0.004086  -0.000126  -0.000156
     5  C    0.000540  -0.004616   0.000294  -0.003694
     6  C    0.000208   0.011108   0.000523  -0.000611
     7  H    0.000206  -0.001764  -0.000026   0.001742
     8  H   -0.000112   0.000283   0.000190  -0.001399
     9  C   -0.000032  -0.000956  -0.000027   0.000452
    10  H    0.000003   0.000081   0.000001  -0.000011
    11  H   -0.000005  -0.000120  -0.000001   0.000013
    12  C   -0.000006   0.000772  -0.000046   0.000490
    13  H   -0.000001   0.000015  -0.000001  -0.000002
    14  C   -0.000039  -0.000598   0.000003  -0.000047
    15  H   -0.000001   0.000000   0.000000  -0.000001
    16  C    0.000081   0.000876  -0.000003   0.000088
    17  H   -0.000011   0.000088   0.000002  -0.000023
    18  H    0.000001  -0.000003  -0.000000   0.000002
    19  C   -0.004806  -0.001686  -0.002577   0.010206
    20  H   -0.000305  -0.000921   0.000038   0.000015
    21  C    0.001871  -0.060499   0.005580  -0.015619
    22  H   -0.000049   0.005330  -0.000137  -0.000419
    23  C    0.380386   0.363813  -0.041980  -0.033800
    24  H   -0.022318  -0.053375  -0.000745  -0.009085
    25  H    0.580502  -0.023259  -0.009446   0.007439
    26  C   -0.023259   4.921673   0.428869   0.397315
    27  H   -0.009446   0.428869   0.546228  -0.022934
    28  H    0.007439   0.397315  -0.022934   0.592232
          Atomic-Atomic Spin Densities.
               1          2          3          4          5          6
     1  C    0.000001   0.000000  -0.000000  -0.000000  -0.000000  -0.000000
     2  C    0.000000  -0.000000  -0.000000  -0.000000   0.000000   0.000000
     3  H   -0.000000  -0.000000  -0.000000   0.000000   0.000000  -0.000000
     4  H   -0.000000  -0.000000   0.000000   0.000000   0.000000   0.000000
     5  C   -0.000000   0.000000   0.000000   0.000000   0.000000  -0.000000
     6  C   -0.000000   0.000000  -0.000000   0.000000  -0.000000  -0.000000
     7  H    0.000000  -0.000000  -0.000000  -0.000000   0.000000   0.000000
     8  H   -0.000000  -0.000000   0.000000   0.000000  -0.000000   0.000000
     9  C    0.000000  -0.000000   0.000000   0.000000  -0.000000  -0.000000
    10  H   -0.000000   0.000000   0.000000  -0.000000   0.000000   0.000000
    11  H   -0.000000   0.000000  -0.000000  -0.000000  -0.000000   0.000000
    12  C    0.000000  -0.000000  -0.000000  -0.000000   0.000000  -0.000000
    13  H    0.000000  -0.000000  -0.000000  -0.000000  -0.000000   0.000000
    14  C    0.000000   0.000000   0.000000   0.000000   0.000000  -0.000000
    15  H   -0.000000   0.000000   0.000000  -0.000000   0.000000   0.000000
    16  C    0.000000  -0.000000  -0.000000  -0.000000   0.000000   0.000000
    17  H   -0.000000   0.000000   0.000000  -0.000000  -0.000000   0.000000
    18  H    0.000000  -0.000000  -0.000000  -0.000000   0.000000   0.000000
    19  C   -0.000000  -0.000000  -0.000000   0.000000   0.000000  -0.000000
    20  H    0.000000  -0.000000  -0.000000  -0.000000   0.000000   0.000000
    21  C   -0.000000   0.000000  -0.000000   0.000000  -0.000000   0.000000
    22  H    0.000000  -0.000000   0.000000   0.000000  -0.000000   0.000000
    23  C    0.000000   0.000000  -0.000000   0.000000   0.000000   0.000000
    24  H    0.000000  -0.000000   0.000000   0.000000  -0.000000  -0.000000
    25  H    0.000000   0.000000  -0.000000  -0.000000   0.000000  -0.000000
    26  C   -0.000000  -0.000000   0.000000   0.000000  -0.000000   0.000000
    27  H   -0.000000  -0.000000   0.000000  -0.000000  -0.000000   0.000000
    28  H   -0.000000  -0.000000  -0.000000  -0.000000   0.000000  -0.000000
               7          8          9         10         11         12
     1  C    0.000000  -0.000000   0.000000  -0.000000  -0.000000   0.000000
     2  C   -0.000000  -0.000000  -0.000000   0.000000   0.000000  -0.000000
     3  H   -0.000000   0.000000   0.000000   0.000000  -0.000000  -0.000000
     4  H   -0.000000   0.000000   0.000000  -0.000000  -0.000000  -0.000000
     5  C    0.000000  -0.000000  -0.000000   0.000000  -0.000000   0.000000
     6  C    0.000000   0.000000  -0.000000   0.000000   0.000000  -0.000000
     7  H   -0.000000   0.000000  -0.000000   0.000000   0.000000   0.000000
     8  H    0.000000  -0.000000  -0.000000   0.000000  -0.000000  -0.000000
     9  C   -0.000000  -0.000000   0.000001   0.000000  -0.000000   0.000000
    10  H    0.000000   0.000000   0.000000  -0.000000   0.000000  -0.000000
    11  H    0.000000  -0.000000  -0.000000   0.000000  -0.000000   0.000000
    12  C    0.000000  -0.000000   0.000000  -0.000000   0.000000  -0.000000
    13  H   -0.000000  -0.000000  -0.000000   0.000000   0.000000   0.000000
    14  C   -0.000000   0.000000  -0.000000  -0.000000  -0.000000   0.000000
    15  H    0.000000  -0.000000   0.000000   0.000000  -0.000000   0.000000
    16  C    0.000000  -0.000000  -0.000000   0.000000   0.000000  -0.000000
    17  H    0.000000   0.000000  -0.000000  -0.000000   0.000000  -0.000000
    18  H   -0.000000   0.000000  -0.000000   0.000000   0.000000   0.000000
    19  C   -0.000000  -0.000000  -0.000000   0.000000   0.000000   0.000000
    20  H   -0.000000  -0.000000  -0.000000  -0.000000  -0.000000  -0.000000
    21  C    0.000000   0.000000   0.000000   0.000000  -0.000000   0.000000
    22  H   -0.000000   0.000000   0.000000  -0.000000  -0.000000  -0.000000
    23  C    0.000000  -0.000000   0.000000   0.000000  -0.000000  -0.000000
    24  H    0.000000   0.000000   0.000000  -0.000000  -0.000000   0.000000
    25  H    0.000000   0.000000  -0.000000   0.000000   0.000000  -0.000000
    26  C    0.000000   0.000000  -0.000000  -0.000000   0.000000   0.000000
    27  H    0.000000   0.000000   0.000000  -0.000000  -0.000000   0.000000
    28  H   -0.000000  -0.000000  -0.000000   0.000000   0.000000  -0.000000
              13         14         15         16         17         18
     1  C    0.000000   0.000000  -0.000000   0.000000  -0.000000   0.000000
     2  C   -0.000000   0.000000   0.000000  -0.000000   0.000000  -0.000000
     3  H   -0.000000   0.000000   0.000000  -0.000000   0.000000  -0.000000
     4  H   -0.000000   0.000000  -0.000000  -0.000000  -0.000000  -0.000000
     5  C   -0.000000   0.000000   0.000000   0.000000  -0.000000   0.000000
     6  C    0.000000  -0.000000   0.000000   0.000000   0.000000   0.000000
     7  H   -0.000000  -0.000000   0.000000   0.000000   0.000000  -0.000000
     8  H   -0.000000   0.000000  -0.000000  -0.000000   0.000000   0.000000
     9  C   -0.000000  -0.000000   0.000000  -0.000000  -0.000000  -0.000000
    10  H    0.000000  -0.000000   0.000000   0.000000  -0.000000   0.000000
    11  H    0.000000  -0.000000  -0.000000   0.000000   0.000000   0.000000
    12  C    0.000000   0.000000   0.000000  -0.000000  -0.000000   0.000000
    13  H    0.000000  -0.000000  -0.000000   0.000000   0.000000  -0.000000
    14  C   -0.000000  -0.000000   0.000000   0.000000  -0.000000   0.000000
    15  H   -0.000000   0.000000   0.000000  -0.000000   0.000000  -0.000000
    16  C    0.000000   0.000000  -0.000000  -0.000000   0.000000   0.000000
    17  H    0.000000  -0.000000   0.000000   0.000000   0.000000  -0.000000
    18  H   -0.000000   0.000000  -0.000000   0.000000  -0.000000   0.000000
    19  C   -0.000000   0.000000  -0.000000   0.000000  -0.000000   0.000000
    20  H   -0.000000  -0.000000   0.000000  -0.000000   0.000000  -0.000000
    21  C    0.000000  -0.000000   0.000000  -0.000000   0.000000  -0.000000
    22  H    0.000000  -0.000000   0.000000  -0.000000   0.000000  -0.000000
    23  C   -0.000000  -0.000000  -0.000000   0.000000   0.000000  -0.000000
    24  H    0.000000   0.000000   0.000000  -0.000000  -0.000000   0.000000
    25  H    0.000000   0.000000  -0.000000   0.000000  -0.000000   0.000000
    26  C    0.000000  -0.000000   0.000000   0.000000  -0.000000  -0.000000
    27  H    0.000000  -0.000000   0.000000   0.000000  -0.000000  -0.000000
    28  H   -0.000000   0.000000  -0.000000   0.000000   0.000000   0.000000
              19         20         21         22         23         24
     1  C   -0.000000   0.000000  -0.000000   0.000000   0.000000   0.000000
     2  C   -0.000000  -0.000000   0.000000  -0.000000   0.000000  -0.000000
     3  H   -0.000000  -0.000000  -0.000000   0.000000  -0.000000   0.000000
     4  H    0.000000  -0.000000   0.000000   0.000000   0.000000   0.000000
[...]
     2  C    0.000000  -0.000000  -0.000000  -0.000000
     3  H   -0.000000   0.000000   0.000000  -0.000000
     4  H   -0.000000   0.000000  -0.000000  -0.000000
     5  C    0.000000  -0.000000  -0.000000   0.000000
     6  C   -0.000000   0.000000   0.000000  -0.000000
     7  H    0.000000   0.000000   0.000000  -0.000000
     8  H    0.000000   0.000000   0.000000  -0.000000
     9  C   -0.000000  -0.000000   0.000000  -0.000000
    10  H    0.000000  -0.000000  -0.000000   0.000000
    11  H    0.000000   0.000000  -0.000000   0.000000
    12  C   -0.000000   0.000000   0.000000  -0.000000
    13  H    0.000000   0.000000   0.000000  -0.000000
    14  C    0.000000  -0.000000  -0.000000   0.000000
    15  H   -0.000000   0.000000   0.000000  -0.000000
    16  C    0.000000   0.000000   0.000000   0.000000
    17  H   -0.000000  -0.000000  -0.000000   0.000000
    18  H    0.000000  -0.000000  -0.000000   0.000000
    19  C   -0.000000  -0.000000  -0.000000   0.000000
    20  H   -0.000000  -0.000000   0.000000  -0.000000
    21  C    0.000000   0.000000  -0.000000   0.000000
    22  H   -0.000000  -0.000000   0.000000  -0.000000
    23  C   -0.000000   0.000000   0.000000   0.000000
    24  H   -0.000000  -0.000000  -0.000000  -0.000000
    25  H    0.000000  -0.000000  -0.000000   0.000000
    26  C   -0.000000   0.000000  -0.000000  -0.000000
    27  H   -0.000000  -0.000000  -0.000000   0.000000
    28  H    0.000000  -0.000000   0.000000   0.000000
 Mulliken charges and spin densities:
               1          2
     1  C   -0.209837   0.000000
     2  C   -0.183851  -0.000000
     3  H    0.141960  -0.000000
     4  H    0.161136   0.000000
     5  C   -0.167787   0.000000
     6  C   -0.183765  -0.000000
     7  H    0.153769  -0.000000
     8  H    0.161295  -0.000000
     9  C   -0.202113   0.000001
    10  H    0.118761  -0.000000
    11  H    0.136911  -0.000000
    12  C   -0.157506  -0.000000
    13  H    0.145526   0.000000
    14  C   -0.209706  -0.000000
    15  H    0.141950   0.000000
    16  C   -0.174044  -0.000000
    17  H    0.111124   0.000000
    18  H    0.125598   0.000000
    19  C   -0.167612   0.000000
    20  H    0.153811   0.000000
    21  C   -0.157408  -0.000000
    22  H    0.145509  -0.000000
    23  C   -0.202168  -0.000001
    24  H    0.136992   0.000000
    25  H    0.118735   0.000000
    26  C   -0.174054   0.000000
    27  H    0.125610  -0.000000
    28  H    0.111164  -0.000000
 Sum of Mulliken charges =  -0.00000   0.00000
 Mulliken charges and spin densities with hydrogens summed into heavy atoms:
               1          2
     1  C   -0.067877   0.000000
     2  C   -0.022715  -0.000000
     5  C   -0.014018   0.000000
     6  C   -0.022470  -0.000000
     9  C    0.053559   0.000000
    12  C   -0.011980   0.000000
    14  C   -0.067756  -0.000000
    16  C    0.062678  -0.000000
    19  C   -0.013801   0.000000
    21  C   -0.011899  -0.000000
    23  C    0.053559  -0.000000
    26  C    0.062720   0.000000
 Electronic spatial extent (au):  <R**2>=           2297.4803
 Charge=              0.0000 electrons
 Dipole moment (field-independent basis, Debye):
    X=             -0.0001    Y=              0.0004    Z=              0.0002  Tot=              0.0005
 Quadrupole moment (field-independent basis, Debye-Ang):
   XX=            -72.4046   YY=            -69.8101   ZZ=            -76.9138
   XY=             -3.3012   XZ=             -3.7560   YZ=             -1.7307
 Traceless Quadrupole moment (field-independent basis, Debye-Ang):
   XX=              0.6382   YY=              3.2327   ZZ=             -3.8709
   XY=             -3.3012   XZ=             -3.7560   YZ=             -1.7307
 Octapole moment (field-independent basis, Debye-Ang**2):
  XXX=             -0.0009  YYY=              0.0040  ZZZ=              0.0015  XYY=              0.0010
  XXY=              0.0008  XXZ=              0.0006  XZZ=             -0.0006  YZZ=             -0.0002
  YYZ=             -0.0006  XYZ=             -0.0005
 Hexadecapole moment (field-independent basis, Debye-Ang**3):
 XXXX=          -2096.6769 YYYY=           -630.0662 ZZZZ=           -412.9164 XXXY=           -114.4061
 XXXZ=           -152.6514 YYYX=            -66.0271 YYYZ=             -6.3126 ZZZX=            -98.2899
 ZZZY=            -18.3069 XXYY=           -451.2985 XXZZ=           -439.6572 YYZZ=           -189.0092
 XXYZ=            -24.5882 YYXZ=            -35.7083 ZZXY=            -46.3470
 N-N= 6.761877077365D+02 E-N=-2.434132360701D+03  KE= 4.641772829458D+02
                          Isotropic Fermi Contact Couplings
        Atom                 a.u.       MegaHertz       Gauss      10(-4) cm-1
     1  C(13)              0.00000       0.00003       0.00001       0.00001
     2  C(13)              0.00000       0.00000       0.00000       0.00000
     3  H(1)              -0.00000      -0.00002      -0.00001      -0.00001
     4  H(1)               0.00000       0.00001       0.00000       0.00000
     5  C(13)              0.00000       0.00005       0.00002       0.00002
     6  C(13)             -0.00000      -0.00003      -0.00001      -0.00001
     7  H(1)              -0.00000      -0.00008      -0.00003      -0.00003
     8  H(1)               0.00000       0.00000       0.00000       0.00000
     9  C(13)              0.00000       0.00015       0.00005       0.00005
    10  H(1)              -0.00000      -0.00008      -0.00003      -0.00003
    11  H(1)              -0.00000      -0.00010      -0.00004      -0.00003
    12  C(13)             -0.00000      -0.00004      -0.00001      -0.00001
    13  H(1)               0.00000       0.00007       0.00002       0.00002
    14  C(13)             -0.00000      -0.00000      -0.00000      -0.00000
    15  H(1)               0.00000       0.00000       0.00000       0.00000
    16  C(13)             -0.00000      -0.00008      -0.00003      -0.00003
    17  H(1)               0.00000       0.00002       0.00001       0.00001
    18  H(1)               0.00000       0.00001       0.00000       0.00000
    19  C(13)             -0.00000      -0.00003      -0.00001      -0.00001
    20  H(1)               0.00000       0.00007       0.00002       0.00002
    21  C(13)              0.00000       0.00001       0.00000       0.00000
    22  H(1)              -0.00000      -0.00006      -0.00002      -0.00002
    23  C(13)             -0.00000      -0.00014      -0.00005      -0.00005
    24  H(1)               0.00000       0.00009       0.00003       0.00003
    25  H(1)               0.00000       0.00006       0.00002       0.00002
    26  C(13)              0.00000       0.00007       0.00002       0.00002
    27  H(1)               0.00000       0.00000       0.00000       0.00000
    28  H(1)               0.00000       0.00000       0.00000       0.00000
 --------------------------------------------------------
       Center         ----  Spin Dipole Couplings  ----
                      3XX-RR        3YY-RR        3ZZ-RR
 --------------------------------------------------------
     1   Atom        0.000000     -0.000000      0.000000
     2   Atom       -0.000000      0.000000     -0.000000
     3   Atom        0.000000     -0.000000      0.000000
     4   Atom       -0.000000      0.000000     -0.000000
     5   Atom        0.000000      0.000000     -0.000000
     6   Atom        0.000000     -0.000000     -0.000000
     7   Atom       -0.000000      0.000000     -0.000000
     8   Atom       -0.000000     -0.000000      0.000000
     9   Atom        0.000000     -0.000000      0.000000
    10   Atom       -0.000000     -0.000000      0.000000
    11   Atom       -0.000000      0.000000     -0.000000
    12   Atom       -0.000000     -0.000000      0.000000
    13   Atom        0.000000     -0.000000      0.000000
    14   Atom       -0.000000      0.000000      0.000000
    15   Atom        0.000000      0.000000     -0.000000
    16   Atom       -0.000000      0.000000     -0.000000
    17   Atom        0.000000      0.000000     -0.000000
    18   Atom       -0.000000     -0.000000      0.000000
    19   Atom       -0.000000     -0.000000      0.000000
    20   Atom        0.000000     -0.000000      0.000000
    21   Atom        0.000000      0.000000     -0.000000
    22   Atom        0.000000      0.000000     -0.000000
    23   Atom       -0.000000      0.000000     -0.000000
    24   Atom        0.000000     -0.000000      0.000000
    25   Atom        0.000000      0.000000     -0.000000
    26   Atom        0.000000     -0.000000      0.000000
    27   Atom       -0.000000      0.000000     -0.000000
    28   Atom       -0.000000     -0.000000      0.000000
 --------------------------------------------------------
                        XY            XZ            YZ
 --------------------------------------------------------
     1   Atom       -0.000000      0.000000     -0.000000
     2   Atom       -0.000000     -0.000000     -0.000000
     3   Atom        0.000000     -0.000000     -0.000000
     4   Atom        0.000000      0.000000     -0.000000
     5   Atom       -0.000000      0.000000      0.000000
     6   Atom        0.000000      0.000000     -0.000000
     7   Atom       -0.000000     -0.000000      0.000000
     8   Atom       -0.000000     -0.000000      0.000000
     9   Atom        0.000000     -0.000000      0.000000
    10   Atom       -0.000000      0.000000     -0.000000
    11   Atom        0.000000      0.000000      0.000000
    12   Atom       -0.000000     -0.000000      0.000000
    13   Atom       -0.000000      0.000000      0.000000
    14   Atom        0.000000     -0.000000      0.000000
    15   Atom        0.000000      0.000000      0.000000
    16   Atom        0.000000      0.000000      0.000000
    17   Atom       -0.000000     -0.000000     -0.000000
    18   Atom        0.000000     -0.000000      0.000000
    19   Atom        0.000000      0.000000      0.000000
    20   Atom        0.000000      0.000000     -0.000000
    21   Atom       -0.000000     -0.000000     -0.000000
    22   Atom       -0.000000     -0.000000     -0.000000
    23   Atom       -0.000000      0.000000     -0.000000
    24   Atom       -0.000000     -0.000000     -0.000000
    25   Atom        0.000000     -0.000000      0.000000
    26   Atom       -0.000000     -0.000000     -0.000000
    27   Atom       -0.000000      0.000000     -0.000000
    28   Atom        0.000000      0.000000      0.000000
 --------------------------------------------------------


 ---------------------------------------------------------------------------------
              Anisotropic Spin Dipole Couplings in Principal Axis System
 ---------------------------------------------------------------------------------

       Atom             a.u.   MegaHertz   Gauss  10(-4) cm-1        Axes

              Baa    -0.0000    -0.000    -0.000    -0.000 -0.4405  0.6872  0.5776
     1 C(13)  Bbb    -0.0000    -0.000    -0.000    -0.000  0.5779  0.7095 -0.4034
              Bcc     0.0000     0.000     0.000     0.000  0.6870 -0.1561  0.7097
 
              Baa    -0.0000    -0.000    -0.000    -0.000  0.6511  0.1896  0.7350
     2 C(13)  Bbb     0.0000     0.000     0.000     0.000 -0.5255 -0.5861  0.6167
              Bcc     0.0000     0.000     0.000     0.000 -0.5477  0.7877  0.2819
 
              Baa    -0.0000    -0.000    -0.000    -0.000 -0.0028  0.9822  0.1877
     3 H(1)   Bbb    -0.0000    -0.000    -0.000    -0.000  0.8662 -0.0914  0.4912
              Bcc     0.0000     0.000     0.000     0.000 -0.4997 -0.1640  0.8506
 
              Baa    -0.0000    -0.000    -0.000    -0.000 -0.6399  0.0851  0.7637
     4 H(1)   Bbb     0.0000     0.000     0.000     0.000  0.7652  0.1615  0.6232
              Bcc     0.0000     0.000     0.000     0.000 -0.0703  0.9832 -0.1685
 
              Baa    -0.0000    -0.000    -0.000    -0.000 -0.1666 -0.1491  0.9747
     5 C(13)  Bbb     0.0000     0.000     0.000     0.000 -0.5503  0.8343  0.0336
              Bcc     0.0000     0.000     0.000     0.000  0.8182  0.5308  0.2211
 
              Baa    -0.0000    -0.000    -0.000    -0.000 -0.4623  0.4628  0.7564
     6 C(13)  Bbb    -0.0000    -0.000    -0.000    -0.000  0.0218  0.8587 -0.5121
              Bcc     0.0000     0.000     0.000     0.000  0.8864  0.2203  0.4071
 
              Baa    -0.0000    -0.000    -0.000    -0.000  0.1060 -0.2011  0.9738
     7 H(1)   Bbb    -0.0000    -0.000    -0.000    -0.000  0.8595  0.5110  0.0120
              Bcc     0.0000     0.000     0.000     0.000 -0.5000  0.8357  0.2270
 
              Baa    -0.0000    -0.000    -0.000    -0.000  0.8583  0.4357  0.2710
     8 H(1)   Bbb    -0.0000    -0.000    -0.000    -0.000 -0.3030  0.8567 -0.4175
              Bcc     0.0000     0.000     0.000     0.000 -0.4140  0.2762  0.8673
 
              Baa    -0.0000    -0.000    -0.000    -0.000 -0.4239  0.8956 -0.1349
     9 C(13)  Bbb     0.0000     0.000     0.000     0.000  0.0046  0.1511  0.9885
              Bcc     0.0000     0.000     0.000     0.000  0.9057  0.4184 -0.0682
 
              Baa    -0.0000    -0.000    -0.000    -0.000  0.6941  0.6740 -0.2529
    10 H(1)   Bbb    -0.0000    -0.000    -0.000    -0.000 -0.5659  0.7280  0.3869
              Bcc     0.0000     0.000     0.000     0.000  0.4449 -0.1254  0.8867
 
              Baa    -0.0000    -0.000    -0.000    -0.000  0.7238 -0.5801  0.3737
    11 H(1)   Bbb    -0.0000    -0.000    -0.000    -0.000 -0.3767  0.1215  0.9183
              Bcc     0.0000     0.000     0.000     0.000  0.5781  0.8054  0.1306
 
              Baa    -0.0000    -0.000    -0.000    -0.000  0.9143 -0.3563  0.1924
    12 C(13)  Bbb    -0.0000    -0.000    -0.000    -0.000  0.3801  0.9191 -0.1041
              Bcc     0.0000     0.000     0.000     0.000 -0.1397  0.1683  0.9758
 
              Baa    -0.0000    -0.000    -0.000    -0.000  0.2514  0.9197 -0.3016
    13 H(1)   Bbb     0.0000     0.000     0.000     0.000  0.9664 -0.2214  0.1305
              Bcc     0.0000     0.000     0.000     0.000 -0.0533  0.3242  0.9445
 
              Baa    -0.0000    -0.000    -0.000    -0.000  0.8436 -0.2803  0.4580
    14 C(13)  Bbb     0.0000     0.000     0.000     0.000  0.4227  0.8727 -0.2445
              Bcc     0.0000     0.000     0.000     0.000 -0.3311  0.3999  0.8547
 
              Baa    -0.0000    -0.000    -0.000    -0.000 -0.3127 -0.1980  0.9290
    15 H(1)   Bbb     0.0000     0.000     0.000     0.000 -0.3502  0.9332  0.0810
              Bcc     0.0000     0.000     0.000     0.000  0.8829  0.3000  0.3612
 
              Baa    -0.0000    -0.000    -0.000    -0.000  0.7331  0.0025 -0.6801
    16 C(13)  Bbb     0.0000     0.000     0.000     0.000  0.6670 -0.1980  0.7183
              Bcc     0.0000     0.000     0.000     0.000  0.1328  0.9802  0.1468
 
              Baa    -0.0000    -0.000    -0.000    -0.000  0.4313  0.3517  0.8308
    17 H(1)   Bbb     0.0000     0.000     0.000     0.000  0.9022 -0.1734 -0.3949
              Bcc     0.0000     0.000     0.000     0.000  0.0052  0.9199 -0.3921
 
              Baa    -0.0000    -0.000    -0.000    -0.000 -0.6429  0.7046 -0.3003
    18 H(1)   Bbb     0.0000     0.000     0.000     0.000 -0.5278 -0.1235  0.8403
              Bcc     0.0000     0.000     0.000     0.000  0.5550  0.6988  0.4513
 
              Baa    -0.0000    -0.000    -0.000    -0.000 -0.2961  0.9548  0.0276
    19 C(13)  Bbb    -0.0000    -0.000    -0.000    -0.000  0.9396  0.2964 -0.1715
              Bcc     0.0000     0.000     0.000     0.000  0.1719  0.0249  0.9848
 
              Baa    -0.0000    -0.000    -0.000    -0.000 -0.3395  0.9195  0.1981
    20 H(1)   Bbb    -0.0000    -0.000    -0.000    -0.000  0.8287  0.3920 -0.3994
              Bcc     0.0000     0.000     0.000     0.000  0.4449 -0.0286  0.8951
 
              Baa    -0.0000    -0.000    -0.000    -0.000  0.1850  0.0739  0.9800
    21 C(13)  Bbb     0.0000     0.000     0.000     0.000  0.9825 -0.0359 -0.1827
              Bcc     0.0000     0.000     0.000     0.000  0.0217  0.9966 -0.0793
 
              Baa    -0.0000    -0.000    -0.000    -0.000  0.3851  0.2421  0.8906
    22 H(1)   Bbb     0.0000     0.000     0.000     0.000  0.8372  0.3145 -0.4475
              Bcc     0.0000     0.000     0.000     0.000 -0.3884  0.9179 -0.0816
 
              Baa    -0.0000    -0.000    -0.000    -0.000  0.9026  0.4216  0.0867
    23 C(13)  Bbb    -0.0000    -0.000    -0.000    -0.000 -0.1289  0.0725  0.9890
              Bcc     0.0000     0.000     0.000     0.000 -0.4107  0.9039 -0.1197
 
              Baa    -0.0000    -0.000    -0.000    -0.000  0.5381  0.8328  0.1303
    24 H(1)   Bbb     0.0000     0.000     0.000     0.000 -0.5746  0.2492  0.7796
              Bcc     0.0000     0.000     0.000     0.000  0.6167 -0.4944  0.6126
 
              Baa    -0.0000    -0.000    -0.000    -0.000  0.4729 -0.1486  0.8685
    25 H(1)   Bbb     0.0000     0.000     0.000     0.000 -0.4562  0.8020  0.3857
              Bcc     0.0000     0.000     0.000     0.000  0.7538  0.5786 -0.3115
 
              Baa    -0.0000    -0.000    -0.000    -0.000  0.1115  0.9844  0.1359
    26 C(13)  Bbb    -0.0000    -0.000    -0.000    -0.000  0.6700 -0.1755  0.7214
              Bcc     0.0000     0.000     0.000     0.000  0.7340  0.0107 -0.6791
 
              Baa    -0.0000    -0.000    -0.000    -0.000  0.3556  0.5664  0.7435
    27 H(1)   Bbb    -0.0000    -0.000    -0.000    -0.000  0.7504  0.3011 -0.5883
              Bcc     0.0000     0.000     0.000     0.000 -0.5571  0.7672 -0.3179
 
              Baa    -0.0000    -0.000    -0.000    -0.000 -0.6790  0.7341  0.0054
    28 H(1)   Bbb    -0.0000    -0.000    -0.000    -0.000 -0.5503 -0.5138  0.6581
              Bcc     0.0000     0.000     0.000     0.000  0.4859  0.4439  0.7529
 

 ---------------------------------------------------------------------------------

 No NMR shielding tensors so no spin-rotation constants.
 Leave Link  601 at Mon Aug  3 14:43:42 2020, MaxMem=  6442450944 cpu:               7.9 elap:               0.4
 (Enter /scratch/scicomp/CentOS/7.3.1611/Haswell/software/Gaussian/g16/l9999.exe)
 1\1\GINC-ATLAS-205\SP\UwB97XD\def2TZVP\C12H16\BOCHEN\03-Aug-2020\0\\#p
  uwb97xd guess=mix def2tzvp # scrf=(iefpcm,solvent=Cyclohexane,read) n
 osym 6d 10f\\endo-2 xp-pcm for eta=3\\0,1\C,0,-3.127568,-0.441485,0.26
 3433\C,0,-0.731288,-0.250831,-1.236755\H,0,-4.070209,-0.533386,0.79050
 5\H,0,0.219568,-0.168512,-1.748484\C,0,1.167775,1.425763,0.792854\C,0,
 0.731288,0.250831,1.236755\H,0,0.574947,2.322303,0.929282\H,0,-0.21956
 8,0.168512,1.748484\C,0,1.564621,-0.992103,1.115813\H,0,2.097096,-1.12
 3993,2.066407\H,0,0.92006,-1.865,1.00856\C,0,2.457254,1.530153,0.10966
 2\H,0,2.856885,2.515574,-0.098107\C,0,3.127568,0.441485,-0.263433\H,0,
 4.070209,0.533386,-0.790505\C,0,2.575144,-0.939221,-0.035211\H,0,2.106
 401,-1.27978,-0.966682\H,0,3.387766,-1.642218,0.15785\C,0,-1.167775,-1
 .425763,-0.792854\H,0,-0.574947,-2.322303,-0.929282\C,0,-2.457254,-1.5
 30153,-0.109662\H,0,-2.856885,-2.515574,0.098107\C,0,-1.564621,0.99210
 3,-1.115813\H,0,-0.92006,1.865,-1.00856\H,0,-2.097096,1.123993,-2.0664
 07\C,0,-2.575144,0.939221,0.035211\H,0,-3.387766,1.642218,-0.15785\H,0
 ,-2.106402,1.27978,0.966682\\Version=ES64L-G16RevB.01\HF=-466.8568903\
 S2=0.\S2-1=0.\S2A=0.\RMSD=3.631e-09\Dipole=-0.0000406,0.0001698,0.0000
 951\Quadrupole=0.4744981,2.403451,-2.8779491,-2.4543763,-2.7925194,-1.
 2867637\PG=CI [X(C12H16)]\\@


 A true friend is someone who is there for
 you when he'd rather be anywhere else.
                               -- Len Wein
 Job cpu time:       0 days  2 hours  5 minutes 57.6 seconds.
 Elapsed time:       0 days  0 hours  5 minutes 18.1 seconds.
 File lengths (MBytes):  RWF=    636 Int=      0 D2E=      0 Chk=     23 Scr=      1
 Normal termination of Gaussian 16 at Mon Aug  3 14:43:42 2020.
