 Entering Gaussian System, Link 0=g16
 Input=meso-TS_82_2_pcm.com
 Output=meso-TS_82_2_pcm.log
 Initial command:
 /scratch/scicomp/CentOS/7.3.1611/Haswell/software/Gaussian/g16/l1.exe "/scratch/bochen/cyclohexadiene-dimerization/wb97xd-def2tzvp/xp-pcm/meso/Gau-11698.inp" -scrdir="/scratch/bochen/cyclohexadiene-dimerization/wb97xd-def2tzvp/xp-pcm/meso/"
 Entering Link 1 = /scratch/scicomp/CentOS/7.3.1611/Haswell/software/Gaussian/g16/l1.exe PID=     11699.
  
 Copyright (c) 1988-2017, Gaussian, Inc.  All Rights Reserved.
  
 This is part of the Gaussian(R) 16 program.  It is based on
 the Gaussian(R) 09 system (copyright 2009, Gaussian, Inc.),
 the Gaussian(R) 03 system (copyright 2003, Gaussian, Inc.),
 the Gaussian(R) 98 system (copyright 1998, Gaussian, Inc.),
 the Gaussian(R) 94 system (copyright 1995, Gaussian, Inc.),
 the Gaussian 92(TM) system (copyright 1992, Gaussian, Inc.),
 the Gaussian 90(TM) system (copyright 1990, Gaussian, Inc.),
 the Gaussian 88(TM) system (copyright 1988, Gaussian, Inc.),
 the Gaussian 86(TM) system (copyright 1986, Carnegie Mellon
 University), and the Gaussian 82(TM) system (copyright 1983,
 Carnegie Mellon University). Gaussian is a federally registered
 trademark of Gaussian, Inc.
  
 This software contains proprietary and confidential information,
 including trade secrets, belonging to Gaussian, Inc.
  
 This software is provided under written license and may be
 used, copied, transmitted, or stored only in accord with that
 written license.
  
 The following legend is applicable only to US Government
 contracts under FAR:
  
                    RESTRICTED RIGHTS LEGEND
  
 Use, reproduction and disclosure by the US Government is
 subject to restrictions as set forth in subparagraphs (a)
 and (c) of the Commercial Computer Software - Restricted
 Rights clause in FAR 52.227-19.
  
 Gaussian, Inc.
 340 Quinnipiac St., Bldg. 40, Wallingford CT 06492
  
  
 ---------------------------------------------------------------
 Warning -- This program may not be used in any manner that
 competes with the business of Gaussian, Inc. or will provide
 assistance to any competitor of Gaussian, Inc.  The licensee
 of this program is prohibited from giving any competitor of
 Gaussian, Inc. access to this program.  By using this program,
 the user acknowledges that Gaussian, Inc. is engaged in the
 business of creating and licensing software in the field of
 computational chemistry and represents and warrants to the
 licensee that it is not a competitor of Gaussian, Inc. and that
 it will not use this program in any manner prohibited above.
 ---------------------------------------------------------------
  

 Cite this work as:
 Gaussian 16, Revision B.01,
 M. J. Frisch, G. W. Trucks, H. B. Schlegel, G. E. Scuseria, 
 M. A. Robb, J. R. Cheeseman, G. Scalmani, V. Barone, 
 G. A. Petersson, H. Nakatsuji, X. Li, M. Caricato, A. V. Marenich, 
 J. Bloino, B. G. Janesko, R. Gomperts, B. Mennucci, H. P. Hratchian, 
 J. V. Ortiz, A. F. Izmaylov, J. L. Sonnenberg, D. Williams-Young, 
 F. Ding, F. Lipparini, F. Egidi, J. Goings, B. Peng, A. Petrone, 
 T. Henderson, D. Ranasinghe, V. G. Zakrzewski, J. Gao, N. Rega, 
 G. Zheng, W. Liang, M. Hada, M. Ehara, K. Toyota, R. Fukuda, 
 J. Hasegawa, M. Ishida, T. Nakajima, Y. Honda, O. Kitao, H. Nakai, 
 T. Vreven, K. Throssell, J. A. Montgomery, Jr., J. E. Peralta, 
 F. Ogliaro, M. J. Bearpark, J. J. Heyd, E. N. Brothers, K. N. Kudin, 
 V. N. Staroverov, T. A. Keith, R. Kobayashi, J. Normand, 
 K. Raghavachari, A. P. Rendell, J. C. Burant, S. S. Iyengar, 
 J. Tomasi, M. Cossi, J. M. Millam, M. Klene, C. Adamo, R. Cammi, 
 J. W. Ochterski, R. L. Martin, K. Morokuma, O. Farkas, 
 J. B. Foresman, and D. J. Fox, Gaussian, Inc., Wallingford CT, 2016.
 
 ******************************************
 Gaussian 16:  ES64L-G16RevB.01 20-Dec-2017
                 3-Aug-2020 
 ******************************************
 %nproc=24
 Will use up to   24 processors via shared memory.
 %mem=48GB
 ----------------------------------------------------------------------
 #p uwb97xd guess=mix def2tzvp # scrf=(iefpcm,solvent=Cyclohexane,read)
  nosym 6d 10f
 ----------------------------------------------------------------------
 1/38=1,40=2,172=1/1;
 2/12=2,15=1,17=6,18=5,40=1/2;
 3/5=44,7=101,8=22,11=2,25=1,30=1,70=2203,72=17,74=-58,116=2/1,2,3;
 4/13=-1/1;
 5/5=2,38=5,53=17/2;
 6/7=2,8=2,9=2,10=2,28=1/1;
 99/5=1,9=1/99;
 Leave Link    1 at Mon Aug  3 13:47:10 2020, MaxMem=  6442450944 cpu:               2.9 elap:               0.1
 (Enter /scratch/scicomp/CentOS/7.3.1611/Haswell/software/Gaussian/g16/l101.exe)
 -----------------------
 endo-2 xp-pcm for eta=3
 -----------------------
 Symbolic Z-matrix:
 Charge =  0 Multiplicity = 1
 6                    -3.11135  -0.43802   0.28848 
 6                    -0.83889  -0.28004  -1.39646 
 1                    -4.01885  -0.51218   0.87639 
 1                     0.07429  -0.21086  -1.9754 
 6                     1.24359   1.44575   0.89871 
 6                     0.83889   0.28004   1.39646 
 1                     0.66168   2.34598   1.05776 
 1                    -0.07429   0.21086   1.9754 
 6                     1.6632   -0.96411   1.22734 
 1                     2.29857  -1.0725    2.11632 
 1                     1.01584  -1.84232   1.20508 
 6                     2.49012   1.53696   0.13628 
 1                     2.89263   2.5174   -0.08862 
 6                     3.11135   0.43802  -0.28848 
 1                     4.01885   0.51218  -0.87639 
 6                     2.53443  -0.92699  -0.03016 
 1                     1.93625  -1.21723  -0.90259 
 1                     3.33118  -1.66882   0.04844 
 6                    -1.24359  -1.44575  -0.89871 
 1                    -0.66168  -2.34598  -1.05776 
 6                    -2.49012  -1.53696  -0.13628 
 1                    -2.89263  -2.5174    0.08862 
 6                    -1.6632    0.96411  -1.22734 
 1                    -1.01584   1.84232  -1.20508 
 1                    -2.29857   1.0725   -2.11632 
 6                    -2.53443   0.92699   0.03016 
 1                    -3.33118   1.66882  -0.04844 
 1                    -1.93625   1.21723   0.90259 
 
 ITRead=  0  0  0  0  0  0  0  0  0  0  0  0  0  0  0  0  0  0  0  0
 ITRead=  0  0  0  0  0  0  0  0
 MicOpt= -1 -1 -1 -1 -1 -1 -1 -1 -1 -1 -1 -1 -1 -1 -1 -1 -1 -1 -1 -1
 MicOpt= -1 -1 -1 -1 -1 -1 -1 -1
 NAtoms=     28 NQM=       28 NQMF=       0 NMMI=      0 NMMIF=      0
                NMic=       0 NMicF=      0.
                    Isotopes and Nuclear Properties:
 (Nuclear quadrupole moments (NQMom) in fm**2, nuclear magnetic moments (NMagM)
  in nuclear magnetons)

  Atom         1           2           3           4           5           6           7           8           9          10
 IAtWgt=          12          12           1           1          12          12           1           1          12           1
 AtmWgt=  12.0000000  12.0000000   1.0078250   1.0078250  12.0000000  12.0000000   1.0078250   1.0078250  12.0000000   1.0078250
 NucSpn=           0           0           1           1           0           0           1           1           0           1
 AtZEff=  -0.0000000  -0.0000000  -0.0000000  -0.0000000  -0.0000000  -0.0000000  -0.0000000  -0.0000000  -0.0000000  -0.0000000
 NQMom=    0.0000000   0.0000000   0.0000000   0.0000000   0.0000000   0.0000000   0.0000000   0.0000000   0.0000000   0.0000000
 NMagM=    0.0000000   0.0000000   2.7928460   2.7928460   0.0000000   0.0000000   2.7928460   2.7928460   0.0000000   2.7928460
 AtZNuc=   6.0000000   6.0000000   1.0000000   1.0000000   6.0000000   6.0000000   1.0000000   1.0000000   6.0000000   1.0000000

  Atom        11          12          13          14          15          16          17          18          19          20
 IAtWgt=           1          12           1          12           1          12           1           1          12           1
 AtmWgt=   1.0078250  12.0000000   1.0078250  12.0000000   1.0078250  12.0000000   1.0078250   1.0078250  12.0000000   1.0078250
 NucSpn=           1           0           1           0           1           0           1           1           0           1
 AtZEff=  -0.0000000  -0.0000000  -0.0000000  -0.0000000  -0.0000000  -0.0000000  -0.0000000  -0.0000000  -0.0000000  -0.0000000
 NQMom=    0.0000000   0.0000000   0.0000000   0.0000000   0.0000000   0.0000000   0.0000000   0.0000000   0.0000000   0.0000000
 NMagM=    2.7928460   0.0000000   2.7928460   0.0000000   2.7928460   0.0000000   2.7928460   2.7928460   0.0000000   2.7928460
 AtZNuc=   1.0000000   6.0000000   1.0000000   6.0000000   1.0000000   6.0000000   1.0000000   1.0000000   6.0000000   1.0000000

  Atom        21          22          23          24          25          26          27          28
 IAtWgt=          12           1          12           1           1          12           1           1
 AtmWgt=  12.0000000   1.0078250  12.0000000   1.0078250   1.0078250  12.0000000   1.0078250   1.0078250
 NucSpn=           0           1           0           1           1           0           1           1
 AtZEff=  -0.0000000  -0.0000000  -0.0000000  -0.0000000  -0.0000000  -0.0000000  -0.0000000  -0.0000000
 NQMom=    0.0000000   0.0000000   0.0000000   0.0000000   0.0000000   0.0000000   0.0000000   0.0000000
 NMagM=    0.0000000   2.7928460   0.0000000   2.7928460   2.7928460   0.0000000   2.7928460   2.7928460
 AtZNuc=   6.0000000   1.0000000   6.0000000   1.0000000   1.0000000   6.0000000   1.0000000   1.0000000
 Leave Link  101 at Mon Aug  3 13:47:10 2020, MaxMem=  6442450944 cpu:               2.4 elap:               0.1
 (Enter /scratch/scicomp/CentOS/7.3.1611/Haswell/software/Gaussian/g16/l202.exe)
                          Input orientation:                          
 ---------------------------------------------------------------------
 Center     Atomic      Atomic             Coordinates (Angstroms)
 Number     Number       Type             X           Y           Z
 ---------------------------------------------------------------------
      1          6           0       -3.111354   -0.438024    0.288476
      2          6           0       -0.838887   -0.280035   -1.396455
      3          1           0       -4.018848   -0.512178    0.876391
      4          1           0        0.074286   -0.210856   -1.975395
      5          6           0        1.243587    1.445746    0.898709
      6          6           0        0.838887    0.280035    1.396455
      7          1           0        0.661682    2.345979    1.057759
      8          1           0       -0.074286    0.210856    1.975395
      9          6           0        1.663200   -0.964107    1.227344
     10          1           0        2.298573   -1.072496    2.116318
     11          1           0        1.015835   -1.842319    1.205078
     12          6           0        2.490124    1.536957    0.136281
     13          1           0        2.892627    2.517404   -0.088621
     14          6           0        3.111354    0.438024   -0.288476
     15          1           0        4.018848    0.512178   -0.876391
     16          6           0        2.534434   -0.926987   -0.030159
     17          1           0        1.936253   -1.217234   -0.902586
     18          1           0        3.331183   -1.668816    0.048441
     19          6           0       -1.243587   -1.445746   -0.898709
     20          1           0       -0.661682   -2.345979   -1.057759
     21          6           0       -2.490124   -1.536957   -0.136281
     22          1           0       -2.892627   -2.517404    0.088621
     23          6           0       -1.663200    0.964107   -1.227344
     24          1           0       -1.015835    1.842319   -1.205078
     25          1           0       -2.298573    1.072496   -2.116318
     26          6           0       -2.534434    0.926987    0.030159
     27          1           0       -3.331183    1.668816   -0.048441
     28          1           0       -1.936253    1.217234    0.902586
 ---------------------------------------------------------------------
                    Distance matrix (angstroms):
                    1          2          3          4          5
     1  C    0.000000
     2  C    2.833383   0.000000
     3  H    1.083830   3.915593   0.000000
     4  H    3.914718   1.083440   4.997722   0.000000
     5  C    4.783982   3.547224   5.614908   3.517395   0.000000
     6  C    4.165049   3.305896   4.949309   3.492128   1.330570
     7  H    4.751660   3.894974   5.487196   4.010295   1.083665
     8  H    3.534193   3.492128   4.158143   3.976010   2.102616
     9  C    4.894344   3.689541   5.710786   3.653707   2.468090
    10  H    5.745509   4.776110   6.462289   4.736242   2.989500
    11  H    4.454873   3.556501   5.217791   3.696430   3.310152
    12  C    5.941403   4.090606   6.863923   3.653806   1.464060
    13  H    6.702577   4.843583   7.607766   4.352742   2.200592
    14  C    6.310501   4.165049   7.286946   3.534193   2.431762
    15  H    7.286946   4.949309   8.290121   4.158143   3.424121
    16  C    5.675873   3.696567   6.628680   3.217004   2.856386
    17  H    5.244438   2.970463   6.255005   2.372896   3.288755
    18  H    6.563440   4.626653   7.486406   4.102309   3.844673
    19  C    2.431762   1.330570   3.424121   2.102616   4.216334
    20  H    3.384307   2.101010   4.286528   2.437715   4.672793
    21  C    1.331916   2.427854   2.100636   3.423022   4.889613
    22  H    2.100382   3.380698   2.431026   4.287528   5.785418
    23  C    2.522069   1.501992   3.486287   2.226876   3.633385
    24  H    3.438294   2.138299   4.346752   2.448934   3.112584
    25  H    2.953865   2.116182   3.798269   2.701354   4.666541
    26  C    1.504267   2.523293   2.234007   3.481717   3.911129
    27  H    2.144904   3.438997   2.466766   4.340914   4.677112
    28  H    2.120819   2.954931   2.707167   3.790050   3.188043
                    6          7          8          9         10
     6  C    0.000000
     7  H    2.101010   0.000000
     8  H    1.083440   2.437715   0.000000
     9  C    1.501992   3.462437   2.226876   0.000000
    10  H    2.116182   3.935217   2.701354   1.098054   0.000000
    11  H    2.138299   4.205825   2.448934   1.091253   1.751686
    12  C    2.427854   2.201554   3.423022   2.851235   3.281232
    13  H    3.380698   2.514098   4.287528   3.919716   4.254649
    14  C    2.833383   3.384307   3.914718   2.522069   2.953865
    15  H    3.915593   4.286528   4.997722   3.486287   3.798269
    16  C    2.523293   3.924675   3.481717   1.530275   2.164294
    17  H    2.954931   4.261921   3.790050   2.162229   3.044012
    18  H    3.438997   4.925803   4.340914   2.160693   2.387048
    19  C    3.547224   4.672793   3.517395   3.633385   4.666541
    20  H    3.894974   5.314243   4.010295   3.540670   4.523233
    21  C    4.090606   5.141673   3.653806   4.408824   5.312395
    22  H    4.843583   6.101216   4.352742   4.946209   5.757419
    23  C    3.689541   3.540670   3.653707   4.561627   5.569872
    24  H    3.556501   2.861498   3.696430   4.579294   5.523868
    25  H    4.776110   4.523233   4.736242   5.569872   6.606811
    26  C    3.696567   3.644812   3.217004   4.757060   5.630981
    27  H    4.626653   4.198238   4.102309   5.788244   6.625340
    28  H    2.970463   2.836796   2.372896   4.221348   4.964852
                   11         12         13         14         15
    11  H    0.000000
    12  C    3.838667   0.000000
    13  H    4.919674   1.083451   0.000000
    14  C    3.438294   1.331916   2.100382   0.000000
    15  H    4.346752   2.100636   2.431026   1.083830   0.000000
    16  C    2.160969   2.469957   3.463459   1.504267   2.234007
    17  H    2.383306   2.995261   3.940141   2.120819   2.707167
    18  H    2.593983   3.315430   4.211360   2.144904   2.466766
    19  C    3.112584   4.889613   5.785418   4.783982   5.614908
    20  H    2.861498   5.141673   6.101216   4.751660   5.487196
    21  C    3.766197   5.858849   6.739000   5.941403   6.863923
    22  H    4.120472   6.739000   7.671367   6.702577   7.607766
    23  C    4.579294   4.408824   4.946209   4.894344   5.710786
    24  H    4.849030   3.766197   4.120472   4.454873   5.217791
    25  H    5.523868   5.312395   5.757419   5.745509   6.462289
    26  C    4.653375   5.062559   5.656547   5.675873   6.628680
    27  H    5.726774   5.825729   6.281523   6.563440   7.486406
    28  H    4.262299   4.503583   5.098138   5.244438   6.255005
                   16         17         18         19         20
    16  C    0.000000
    17  H    1.096901   0.000000
    18  H    1.091466   1.747629   0.000000
    19  C    3.911129   3.188043   4.677112   0.000000
    20  H    3.644812   2.836796   4.198238   1.083665   0.000000
    21  C    5.062559   4.503583   5.825729   1.464060   2.201554
    22  H    5.656547   5.098138   6.281523   2.200592   2.514098
    23  C    4.757060   4.221348   5.788244   2.468090   3.462437
    24  H    4.653375   4.262299   5.726774   3.310152   4.205825
    25  H    5.630981   4.964852   6.625340   2.989500   3.935217
    26  C    5.397618   5.045269   6.414358   2.856386   3.924675
    27  H    6.414358   6.066690   7.452268   3.844673   4.925803
    28  H    5.045269   4.917477   6.066690   3.288755   4.261921
                   21         22         23         24         25
    21  C    0.000000
    22  H    1.083451   0.000000
    23  C    2.851235   3.919716   0.000000
    24  H    3.838667   4.919674   1.091253   0.000000
    25  H    3.281232   4.254649   1.098054   1.751686   0.000000
    26  C    2.469957   3.463459   1.530275   2.160969   2.164294
    27  H    3.315430   4.211360   2.160693   2.593983   2.387048
    28  H    2.995261   3.940141   2.162229   2.383306   3.044012
                   26         27         28
    26  C    0.000000
    27  H    1.091466   0.000000
    28  H    1.096901   1.747629   0.000000
 Symmetry turned off by external request.
 Stoichiometry    C12H16
 Framework group  CI[X(C12H16)]
 Deg. of freedom    39
 Full point group                 CI      NOp   2
 Rotational constants (GHZ):           1.6560474           0.5684855           0.5262131
 Leave Link  202 at Mon Aug  3 13:47:10 2020, MaxMem=  6442450944 cpu:               0.3 elap:               0.1
 (Enter /scratch/scicomp/CentOS/7.3.1611/Haswell/software/Gaussian/g16/l301.exe)
 Standard basis: def2TZVP (6D, 10F)
 Ernie: Thresh=  0.10000D-02 Tol=  0.10000D-05 Strict=F.
   528 basis functions,   740 primitive gaussians,   528 cartesian basis functions
    44 alpha electrons       44 beta electrons
       nuclear repulsion energy       667.8831843297 Hartrees.
 IExCor= 4639 DFT=T Ex+Corr=wB97XD ExCW=0 ScaHFX=  1.000000
 ScaDFX=  1.000000  1.000000  1.000000  1.000000 ScalE2=  1.000000  1.000000
 IRadAn=      5 IRanWt=     -1 IRanGd=            0 ICorTp=0 IEmpDi=121
 HFx  wShort=  0.000000 wLong=  0.200000 cFull=  0.222036 cShort=  0.000000 cLong=  0.777964
 DFx  wShort=  0.000000 wLong=  0.200000 cFull=  0.000000 cShort=  0.000000 cLong=  1.000000
 NAtoms=   28 NActive=   28 NUniq=   28 SFac= 1.00D+00 NAtFMM=   60 NAOKFM=F Big=F
 Integral buffers will be    131072 words long.
 Raffenetti 2 integral format.
 Two-electron integral symmetry is turned off.
 R6Disp:  Grimme-D2 Dispersion energy=       -0.0207030569 Hartrees.
 Nuclear repulsion after empirical dispersion term =      667.8624812728 Hartrees.
 Using the following non-standard input for PCM:
 norep pcmdoc geomview  nodis nocav g03defaults tsare=0.075
 Warning! Using old PCM defaults because the g03defaults keyword was found.
 These settings can be overridden by following keywords.
 nsfe=28
 NVESolv=36  SolvMW=84.1595   Rsolv=2.815
 eps=2.0165 RhoS=0.7781
 --- end of non-standard input.
 Reading user-defined spheres from input:
 ISph  on   Nord    Re0     Alpha      Xe            Ye            Ze
 --- end of user-defined spheres data.
 ------------------------------------------------------------------------------
 Polarizable Continuum Model (PCM)
 =================================
 Model                : PCM.
 Atomic radii         : UA0 (Simple United Atom Topological Model).
 Polarization charges : Total charges.
 Charge compensation  : None.
 Solution method      : On-the-fly selection.
 Cavity type          : SES (Solvent Excluding Surface) (Alpha=1.000).
 Cavity algorithm     : GePol (RMin=0.200 OFac=0.890).
                        User-defined sphere list used, NSphG=   28.
                        Tesserae with average area of 0.075 Ang**2.
                        Smoothing algorithm: None.
                        Polarization charges: point-like.
                        Self-potential: constant (ISelfS= 1).
                        Self-field    : global E.n sum rule (ISelfD= 3).
 Solvent              : CycloHexane, Eps=   2.016500 Eps(inf)=   2.035188
                        RSolv=   2.815000 Ang.
 ------------------------------------------------------------------------------
 GePol: Number of generator spheres                  =      28
 GePol: Total number of spheres                      =     191
 GePol: Number of exposed spheres                    =     129 ( 67.54%)
 GePol: Number of tesserae                           =    4764
 GePol: Average area of tesserae                     =       0.05 Ang**2
 GePol: Minimum area of tessera                      =   0.10D-02 Ang**2
 GePol: Maximum area of tessera                      =    0.12555 Ang**2
 GePol: Number of small tesserae                     =       0
 GePol: Fraction of small tesserae (<1% of avg)      =       0.00%
 GePol: Total count of vertices                      =   16856
 GePol: Maximum number of vertices in a tessera      =       8
 GePol: Cavity surface area                          =    225.602 Ang**2
 GePol: Cavity volume                                =    258.848 Ang**3
 Leave Link  301 at Mon Aug  3 13:47:11 2020, MaxMem=  6442450944 cpu:               8.7 elap:               0.4
 (Enter /scratch/scicomp/CentOS/7.3.1611/Haswell/software/Gaussian/g16/l302.exe)
 NPDir=0 NMtPBC=     1 NCelOv=     1 NCel=       1 NClECP=     1 NCelD=      1
         NCelK=      1 NCelE2=     1 NClLst=     1 CellRange=     0.0.
 One-electron integrals computed using PRISM.
   1 Symmetry operations used in ECPInt.
 ECPInt:  NShTT=   19306 NPrTT=   56928 LenC2=   18446 LenP2D=   41622.
 LDataN:  DoStor=T MaxTD1= 6 Len=  172
 NBasis=   528 RedAO= T EigKep=  2.08D-05  NBF=   528
 NBsUse=   528 1.00D-06 EigRej= -1.00D+00 NBFU=   528
 Precomputing XC quadrature grid using
 IXCGrd= 4 IRadAn=           5 IRanWt=          -1 IRanGd=           0 AccXCQ= 0.00D+00.
 Generated NRdTot=       0 NPtTot=           0 NUsed=           0 NTot=          32
 NSgBfM=   526   526   526   526   526 MxSgAt=    28 MxSgA2=    28.
 Leave Link  302 at Mon Aug  3 13:47:11 2020, MaxMem=  6442450944 cpu:              12.9 elap:               0.6
 (Enter /scratch/scicomp/CentOS/7.3.1611/Haswell/software/Gaussian/g16/l303.exe)
 DipDrv:  MaxL=1.
 Leave Link  303 at Mon Aug  3 13:47:11 2020, MaxMem=  6442450944 cpu:               1.6 elap:               0.1
 (Enter /scratch/scicomp/CentOS/7.3.1611/Haswell/software/Gaussian/g16/l401.exe)
 ExpMin= 9.52D-02 ExpMax= 1.36D+04 ExpMxC= 4.63D+02 IAcc=3 IRadAn=         5 AccDes= 0.00D+00
 Harris functional with IExCor= 4639 and IRadAn=       5 diagonalized for initial guess.
 HarFok:  IExCor= 4639 AccDes= 0.00D+00 IRadAn=         5 IDoV= 1 UseB2=F ITyADJ=14
 ICtDFT=  3500011 ScaDFX=  1.000000  1.000000  1.000000  1.000000
 FoFCou: FMM=F IPFlag=           0 FMFlag=      100000 FMFlg1=           0
         NFxFlg=           0 DoJE=T BraDBF=F KetDBF=T FulRan=T
         wScrn=  0.000000 ICntrl=       500 IOpCl=  0 I1Cent=   200000004 NGrid=           0
         NMat0=    1 NMatS0=      1 NMatT0=    0 NMatD0=    1 NMtDS0=    0 NMtDT0=    0
 Symmetry not used in FoFCou.
 Harris En= -444.661336703175    
 JPrj=0 DoOrth=F DoCkMO=T.
 Mixing orbitals, IMix= 1 IMixAn=  0 NRI=1 NE=   44 Coef=  7.07106781D-01  7.07106781D-01
 Mixing orbitals, IMix= 1 IMixAn=  0 NRI=1 NE=   44 Coef= -7.07106781D-01  7.07106781D-01
 Initial guess <Sx>= 0.0000 <Sy>= 0.0000 <Sz>= 0.0000 <S**2>= 1.0000 S= 0.6180
 Leave Link  401 at Mon Aug  3 13:47:14 2020, MaxMem=  6442450944 cpu:              49.1 elap:               2.1
 (Enter /scratch/scicomp/CentOS/7.3.1611/Haswell/software/Gaussian/g16/l502.exe)
 Two-electron integral symmetry not used.
 UHF open shell SCF:
 Using DIIS extrapolation, IDIIS=  1040.
 NGot=  6442450944 LenX=  6441877030 LenY=  6441597718
 Requested convergence on RMS density matrix=1.00D-08 within 128 cycles.
 Requested convergence on MAX density matrix=1.00D-06.
 Requested convergence on             energy=1.00D-06.
 No special actions if energy rises.
 Fock matrices will be formed incrementally for  20 cycles.

 Cycle   1  Pass 1  IDiag  1:
 FoFJK:  IHMeth= 1 ICntrl=       0 DoSepK=T KAlg= 0 I1Cent=           0 FoldK=F
 IRaf=         1 NMat=       1 IRICut=       1 DoRegI=T DoRafI=F ISym2E= 0 IDoP0=0 IntGTp=1.
 FoFCou: FMM=F IPFlag=           0 FMFlag=      100000 FMFlg1=           0
         NFxFlg=           0 DoJE=T BraDBF=F KetDBF=F FulRan=T
         wScrn=  0.000000 ICntrl=       500 IOpCl=  0 I1Cent=           0 NGrid=           0
         NMat0=    1 NMatS0=      1 NMatT0=    0 NMatD0=    1 NMtDS0=    0 NMtDT0=    0
 Symmetry not used in FoFCou.
 Inv3:  Mode=1 IEnd=    68087088.
 Iteration    1 A*A^-1 deviation from unit magnitude is 3.77D-15 for   1122.
 Iteration    1 A*A^-1 deviation from orthogonality  is 1.92D-15 for   4007   3989.
 Iteration    1 A^-1*A deviation from unit magnitude is 4.00D-15 for   2944.
 Iteration    1 A^-1*A deviation from orthogonality  is 6.22D-15 for   4533    788.
 E= -466.571785268231    
 DIIS: error= 5.37D-02 at cycle   1 NSaved=   1.
 NSaved= 1 IEnMin= 1 EnMin= -466.571785268231     IErMin= 1 ErrMin= 5.37D-02
 ErrMax= 5.37D-02  0.00D+00 EMaxC= 1.00D-01 BMatC= 4.12D+00 BMatP= 4.12D+00
 IDIUse=3 WtCom= 4.63D-01 WtEn= 5.37D-01
 Coeff-Com:  0.100D+01
 Coeff-En:   0.100D+01
 Coeff:      0.100D+01
 Gap=     0.179 Goal=   None    Shift=    0.000
 Gap=     0.179 Goal=   None    Shift=    0.000
 GapD=    0.179 DampG=1.000 DampE=0.500 DampFc=0.5000 IDamp=-1.
 Damping current iteration by 5.00D-01
 RMSDP=1.66D-03 MaxDP=9.33D-02              OVMax= 3.68D-01

 Cycle   2  Pass 1  IDiag  1:
 RMSU=  7.92D-04    CP:  9.60D-01
 E= -466.688132383983     Delta-E=       -0.116347115752 Rises=F Damp=T
 DIIS: error= 2.56D-02 at cycle   2 NSaved=   2.
 NSaved= 2 IEnMin= 2 EnMin= -466.688132383983     IErMin= 2 ErrMin= 2.56D-02
 ErrMax= 2.56D-02  0.00D+00 EMaxC= 1.00D-01 BMatC= 9.38D-01 BMatP= 4.12D+00
 IDIUse=3 WtCom= 7.44D-01 WtEn= 2.56D-01
 Coeff-Com: -0.868D+00 0.187D+01
 Coeff-En:   0.000D+00 0.100D+01
 Coeff:     -0.646D+00 0.165D+01
 Gap=     0.285 Goal=   None    Shift=    0.000
 Gap=     0.285 Goal=   None    Shift=    0.000
 RMSDP=1.19D-03 MaxDP=4.89D-02 DE=-1.16D-01 OVMax= 1.39D-01

 Cycle   3  Pass 1  IDiag  1:
 RMSU=  6.09D-04    CP:  9.01D-01  2.20D+00
 E= -466.840849770090     Delta-E=       -0.152717386108 Rises=F Damp=F
 DIIS: error= 7.82D-03 at cycle   3 NSaved=   3.
 NSaved= 3 IEnMin= 3 EnMin= -466.840849770090     IErMin= 3 ErrMin= 7.82D-03
 ErrMax= 7.82D-03  0.00D+00 EMaxC= 1.00D-01 BMatC= 2.37D-02 BMatP= 9.38D-01
 IDIUse=3 WtCom= 9.22D-01 WtEn= 7.82D-02
 Coeff-Com: -0.310D+00 0.665D+00 0.645D+00
 Coeff-En:   0.000D+00 0.000D+00 0.100D+01
 Coeff:     -0.286D+00 0.613D+00 0.673D+00
 Gap=     0.308 Goal=   None    Shift=    0.000
 Gap=     0.308 Goal=   None    Shift=    0.000
 RMSDP=2.05D-04 MaxDP=9.82D-03 DE=-1.53D-01 OVMax= 6.37D-02

 Cycle   4  Pass 1  IDiag  1:
 RMSU=  1.85D-04    CP:  8.94D-01  2.30D+00  1.01D+00
 E= -466.851448379317     Delta-E=       -0.010598609227 Rises=F Damp=F
 DIIS: error= 5.05D-03 at cycle   4 NSaved=   4.
 NSaved= 4 IEnMin= 4 EnMin= -466.851448379317     IErMin= 4 ErrMin= 5.05D-03
 ErrMax= 5.05D-03  0.00D+00 EMaxC= 1.00D-01 BMatC= 2.01D-03 BMatP= 2.37D-02
 IDIUse=3 WtCom= 9.50D-01 WtEn= 5.05D-02
 Coeff-Com:  0.151D+00-0.323D+00-0.821D-01 0.125D+01
 Coeff-En:   0.000D+00 0.000D+00 0.000D+00 0.100D+01
 Coeff:      0.143D+00-0.306D+00-0.780D-01 0.124D+01
 Gap=     0.319 Goal=   None    Shift=    0.000
 Gap=     0.319 Goal=   None    Shift=    0.000
 RMSDP=2.08D-04 MaxDP=1.13D-02 DE=-1.06D-02 OVMax= 7.54D-02

 Cycle   5  Pass 1  IDiag  1:
 RMSU=  8.08D-05    CP:  8.87D-01  2.35D+00  1.23D+00  1.64D+00
 E= -466.855945776454     Delta-E=       -0.004497397137 Rises=F Damp=F
 DIIS: error= 2.15D-03 at cycle   5 NSaved=   5.
 NSaved= 5 IEnMin= 5 EnMin= -466.855945776454     IErMin= 5 ErrMin= 2.15D-03
 ErrMax= 2.15D-03  0.00D+00 EMaxC= 1.00D-01 BMatC= 7.46D-04 BMatP= 2.01D-03
 IDIUse=3 WtCom= 9.78D-01 WtEn= 2.15D-02
 Coeff-Com:  0.477D-01-0.103D+00-0.553D-01 0.257D+00 0.853D+00
 Coeff-En:   0.000D+00 0.000D+00 0.000D+00 0.000D+00 0.100D+01
 Coeff:      0.467D-01-0.100D+00-0.541D-01 0.251D+00 0.856D+00
 Gap=     0.321 Goal=   None    Shift=    0.000
 Gap=     0.321 Goal=   None    Shift=    0.000
 RMSDP=6.90D-05 MaxDP=2.73D-03 DE=-4.50D-03 OVMax= 2.65D-02

 Cycle   6  Pass 1  IDiag  1:
 RMSU=  3.10D-05    CP:  8.85D-01  2.36D+00  1.26D+00  1.88D+00  1.42D+00
 E= -466.857250122789     Delta-E=       -0.001304346335 Rises=F Damp=F
 DIIS: error= 1.47D-03 at cycle   6 NSaved=   6.
 NSaved= 6 IEnMin= 6 EnMin= -466.857250122789     IErMin= 6 ErrMin= 1.47D-03
 ErrMax= 1.47D-03  0.00D+00 EMaxC= 1.00D-01 BMatC= 5.00D-04 BMatP= 7.46D-04
 IDIUse=3 WtCom= 9.85D-01 WtEn= 1.47D-02
 Coeff-Com: -0.848D-01 0.182D+00 0.568D-01-0.644D+00 0.126D+00 0.136D+01
 Coeff-En:   0.000D+00 0.000D+00 0.000D+00 0.000D+00 0.000D+00 0.100D+01
 Coeff:     -0.836D-01 0.179D+00 0.559D-01-0.635D+00 0.124D+00 0.136D+01
 Gap=     0.317 Goal=   None    Shift=    0.000
 Gap=     0.317 Goal=   None    Shift=    0.000
 RMSDP=9.45D-05 MaxDP=3.88D-03 DE=-1.30D-03 OVMax= 3.61D-02

 Cycle   7  Pass 1  IDiag  1:
 RMSU=  2.92D-05    CP:  8.84D-01  2.37D+00  1.30D+00  2.15D+00  2.13D+00
                    CP:  2.35D+00
 E= -466.858807910366     Delta-E=       -0.001557787578 Rises=F Damp=F
 DIIS: error= 1.04D-03 at cycle   7 NSaved=   7.
 NSaved= 7 IEnMin= 7 EnMin= -466.858807910366     IErMin= 7 ErrMin= 1.04D-03
 ErrMax= 1.04D-03  0.00D+00 EMaxC= 1.00D-01 BMatC= 2.47D-04 BMatP= 5.00D-04
 IDIUse=3 WtCom= 9.90D-01 WtEn= 1.04D-02
 Coeff-Com: -0.252D-01 0.547D-01 0.414D-01-0.157D-01-0.813D+00-0.264D+00
 Coeff-Com:  0.202D+01
 Coeff-En:   0.000D+00 0.000D+00 0.000D+00 0.000D+00 0.000D+00 0.000D+00
 Coeff-En:   0.100D+01
 Coeff:     -0.250D-01 0.541D-01 0.409D-01-0.155D-01-0.805D+00-0.261D+00
 Coeff:      0.201D+01
 Gap=     0.318 Goal=   None    Shift=    0.000
 Gap=     0.318 Goal=   None    Shift=    0.000
 RMSDP=1.29D-04 MaxDP=6.00D-03 DE=-1.56D-03 OVMax= 4.83D-02

 Cycle   8  Pass 1  IDiag  1:
 RMSU=  5.81D-05    CP:  8.82D-01  2.37D+00  1.33D+00  2.45D+00  3.00D+00
                    CP:  3.00D+00  2.49D+00
 E= -466.860086128694     Delta-E=       -0.001278218328 Rises=F Damp=F
 DIIS: error= 3.60D-04 at cycle   8 NSaved=   8.
 NSaved= 8 IEnMin= 8 EnMin= -466.860086128694     IErMin= 8 ErrMin= 3.60D-04
 ErrMax= 3.60D-04  0.00D+00 EMaxC= 1.00D-01 BMatC= 5.31D-05 BMatP= 2.47D-04
 IDIUse=3 WtCom= 9.96D-01 WtEn= 3.60D-03
 Coeff-Com:  0.233D-01-0.501D-01-0.610D-02 0.250D+00-0.268D+00-0.590D+00
 Coeff-Com:  0.547D+00 0.109D+01
 Coeff-En:   0.000D+00 0.000D+00 0.000D+00 0.000D+00 0.000D+00 0.000D+00
 Coeff-En:   0.000D+00 0.100D+01
 Coeff:      0.233D-01-0.499D-01-0.608D-02 0.249D+00-0.267D+00-0.588D+00
 Coeff:      0.545D+00 0.109D+01
 Gap=     0.319 Goal=   None    Shift=    0.000
 Gap=     0.319 Goal=   None    Shift=    0.000
 RMSDP=5.47D-05 MaxDP=2.62D-03 DE=-1.28D-03 OVMax= 2.00D-02

 Cycle   9  Pass 1  IDiag  1:
 RMSU=  2.90D-05    CP:  8.81D-01  2.37D+00  1.35D+00  2.54D+00  3.00D+00
                    CP:  3.00D+00  3.00D+00  1.62D+00
 E= -466.860277780740     Delta-E=       -0.000191652046 Rises=F Damp=F
 DIIS: error= 1.07D-04 at cycle   9 NSaved=   9.
 NSaved= 9 IEnMin= 9 EnMin= -466.860277780740     IErMin= 9 ErrMin= 1.07D-04
 ErrMax= 1.07D-04  0.00D+00 EMaxC= 1.00D-01 BMatC= 7.52D-06 BMatP= 5.31D-05
 IDIUse=3 WtCom= 9.99D-01 WtEn= 1.07D-03
 Coeff-Com:  0.113D-01-0.244D-01-0.780D-02 0.796D-01 0.387D-01-0.138D+00
 Coeff-Com: -0.136D+00 0.276D+00 0.900D+00
 Coeff-En:   0.000D+00 0.000D+00 0.000D+00 0.000D+00 0.000D+00 0.000D+00
 Coeff-En:   0.000D+00 0.000D+00 0.100D+01
 Coeff:      0.113D-01-0.244D-01-0.779D-02 0.795D-01 0.387D-01-0.137D+00
 Coeff:     -0.136D+00 0.276D+00 0.900D+00
 Gap=     0.319 Goal=   None    Shift=    0.000
 Gap=     0.319 Goal=   None    Shift=    0.000
 RMSDP=1.35D-05 MaxDP=6.22D-04 DE=-1.92D-04 OVMax= 4.73D-03

 Cycle  10  Pass 1  IDiag  1:
 RMSU=  6.20D-06    CP:  8.81D-01  2.37D+00  1.35D+00  2.55D+00  3.00D+00
                    CP:  3.00D+00  3.00D+00  1.77D+00  1.26D+00
 E= -466.860290641615     Delta-E=       -0.000012860875 Rises=F Damp=F
 DIIS: error= 4.42D-05 at cycle  10 NSaved=  10.
 NSaved=10 IEnMin=10 EnMin= -466.860290641615     IErMin=10 ErrMin= 4.42D-05
 ErrMax= 4.42D-05  0.00D+00 EMaxC= 1.00D-01 BMatC= 1.08D-06 BMatP= 7.52D-06
 IDIUse=1 WtCom= 1.00D+00 WtEn= 0.00D+00
 Coeff-Com: -0.199D-02 0.429D-02-0.217D-03-0.305D-01 0.455D-01 0.785D-01
 Coeff-Com: -0.982D-01-0.182D+00 0.143D+00 0.104D+01
 Coeff:     -0.199D-02 0.429D-02-0.217D-03-0.305D-01 0.455D-01 0.785D-01
 Coeff:     -0.982D-01-0.182D+00 0.143D+00 0.104D+01
 Gap=     0.319 Goal=   None    Shift=    0.000
 Gap=     0.319 Goal=   None    Shift=    0.000
 RMSDP=5.39D-06 MaxDP=2.41D-04 DE=-1.29D-05 OVMax= 1.93D-03

 Cycle  11  Pass 1  IDiag  1:
 RMSU=  1.78D-06    CP:  8.80D-01  2.37D+00  1.35D+00  2.56D+00  3.00D+00
                    CP:  3.00D+00  3.00D+00  1.81D+00  1.37D+00  1.37D+00
 E= -466.860292153768     Delta-E=       -0.000001512153 Rises=F Damp=F
 DIIS: error= 1.55D-05 at cycle  11 NSaved=  11.
 NSaved=11 IEnMin=11 EnMin= -466.860292153768     IErMin=11 ErrMin= 1.55D-05
 ErrMax= 1.55D-05  0.00D+00 EMaxC= 1.00D-01 BMatC= 1.86D-07 BMatP= 1.08D-06
 IDIUse=1 WtCom= 1.00D+00 WtEn= 0.00D+00
 Coeff-Com: -0.106D-02 0.229D-02 0.191D-03-0.126D-01 0.121D-01 0.294D-01
 Coeff-Com: -0.206D-01-0.705D-01-0.848D-02 0.320D+00 0.749D+00
 Coeff:     -0.106D-02 0.229D-02 0.191D-03-0.126D-01 0.121D-01 0.294D-01
 Coeff:     -0.206D-01-0.705D-01-0.848D-02 0.320D+00 0.749D+00
 Gap=     0.319 Goal=   None    Shift=    0.000
 Gap=     0.319 Goal=   None    Shift=    0.000
 RMSDP=7.67D-07 MaxDP=3.61D-05 DE=-1.51D-06 OVMax= 1.38D-04

 Cycle  12  Pass 1  IDiag  1:
 RMSU=  6.45D-07    CP:  8.80D-01  2.37D+00  1.35D+00  2.56D+00  3.00D+00
                    CP:  3.00D+00  3.00D+00  1.81D+00  1.38D+00  1.36D+00
                    CP:  1.18D+00
 E= -466.860292264662     Delta-E=       -0.000000110894 Rises=F Damp=F
 DIIS: error= 1.10D-05 at cycle  12 NSaved=  12.
 NSaved=12 IEnMin=12 EnMin= -466.860292264662     IErMin=12 ErrMin= 1.10D-05
 ErrMax= 1.10D-05  0.00D+00 EMaxC= 1.00D-01 BMatC= 6.23D-08 BMatP= 1.86D-07
 IDIUse=1 WtCom= 1.00D+00 WtEn= 0.00D+00
 Coeff-Com:  0.379D-03-0.823D-03-0.547D-05 0.595D-02-0.841D-02-0.156D-01
 Coeff-Com:  0.215D-01 0.346D-01-0.411D-01-0.230D+00 0.252D+00 0.981D+00
 Coeff:      0.379D-03-0.823D-03-0.547D-05 0.595D-02-0.841D-02-0.156D-01
 Coeff:      0.215D-01 0.346D-01-0.411D-01-0.230D+00 0.252D+00 0.981D+00
 Gap=     0.319 Goal=   None    Shift=    0.000
 Gap=     0.319 Goal=   None    Shift=    0.000
 RMSDP=7.10D-07 MaxDP=3.12D-05 DE=-1.11D-07 OVMax= 1.29D-04

 Cycle  13  Pass 1  IDiag  1:
 RMSU=  3.60D-07    CP:  8.80D-01  2.37D+00  1.35D+00  2.56D+00  3.00D+00
                    CP:  3.00D+00  3.00D+00  1.81D+00  1.37D+00  1.33D+00
                    CP:  1.37D+00  1.66D+00
 E= -466.860292331028     Delta-E=       -0.000000066366 Rises=F Damp=F
 DIIS: error= 6.17D-06 at cycle  13 NSaved=  13.
 NSaved=13 IEnMin=13 EnMin= -466.860292331028     IErMin=13 ErrMin= 6.17D-06
 ErrMax= 6.17D-06  0.00D+00 EMaxC= 1.00D-01 BMatC= 1.25D-08 BMatP= 6.23D-08
 IDIUse=1 WtCom= 1.00D+00 WtEn= 0.00D+00
 Coeff-Com: -0.478D-04 0.105D-03 0.634D-04-0.387D-03 0.433D-03 0.534D-03
 Coeff-Com: -0.215D-02 0.113D-02 0.644D-02-0.110D-02-0.196D+00-0.187D+00
 Coeff-Com:  0.138D+01
 Coeff:     -0.478D-04 0.105D-03 0.634D-04-0.387D-03 0.433D-03 0.534D-03
 Coeff:     -0.215D-02 0.113D-02 0.644D-02-0.110D-02-0.196D+00-0.187D+00
 Coeff:      0.138D+01
 Gap=     0.319 Goal=   None    Shift=    0.000
 Gap=     0.319 Goal=   None    Shift=    0.000
 RMSDP=3.58D-07 MaxDP=2.02D-05 DE=-6.64D-08 OVMax= 9.00D-05

 Cycle  14  Pass 1  IDiag  1:
 RMSU=  2.31D-07    CP:  8.80D-01  2.37D+00  1.35D+00  2.56D+00  3.00D+00
                    CP:  3.00D+00  3.00D+00  1.81D+00  1.37D+00  1.34D+00
                    CP:  1.43D+00  1.94D+00  1.46D+00
 E= -466.860292357480     Delta-E=       -0.000000026452 Rises=F Damp=F
 DIIS: error= 3.30D-06 at cycle  14 NSaved=  14.
 NSaved=14 IEnMin=14 EnMin= -466.860292357480     IErMin=14 ErrMin= 3.30D-06
 ErrMax= 3.30D-06  0.00D+00 EMaxC= 1.00D-01 BMatC= 3.66D-09 BMatP= 1.25D-08
 IDIUse=1 WtCom= 1.00D+00 WtEn= 0.00D+00
 Coeff-Com: -0.133D-03 0.287D-03 0.495D-04-0.169D-02 0.196D-02 0.413D-02
 Coeff-Com: -0.562D-02-0.869D-02 0.123D-01 0.631D-01-0.101D+00-0.309D+00
 Coeff-Com:  0.120D+00 0.122D+01
 Coeff:     -0.133D-03 0.287D-03 0.495D-04-0.169D-02 0.196D-02 0.413D-02
 Coeff:     -0.562D-02-0.869D-02 0.123D-01 0.631D-01-0.101D+00-0.309D+00
 Coeff:      0.120D+00 0.122D+01
 Gap=     0.319 Goal=   None    Shift=    0.000
 Gap=     0.319 Goal=   None    Shift=    0.000
 RMSDP=2.39D-07 MaxDP=1.18D-05 DE=-2.65D-08 OVMax= 6.21D-05

 Cycle  15  Pass 1  IDiag  1:
 RMSU=  8.47D-08    CP:  8.80D-01  2.37D+00  1.35D+00  2.56D+00  3.00D+00
                    CP:  3.00D+00  3.00D+00  1.81D+00  1.37D+00  1.34D+00
                    CP:  1.45D+00  2.06D+00  1.75D+00  1.77D+00
 E= -466.860292365546     Delta-E=       -0.000000008065 Rises=F Damp=F
 DIIS: error= 1.19D-06 at cycle  15 NSaved=  15.
 NSaved=15 IEnMin=15 EnMin= -466.860292365546     IErMin=15 ErrMin= 1.19D-06
 ErrMax= 1.19D-06  0.00D+00 EMaxC= 1.00D-01 BMatC= 6.20D-10 BMatP= 3.66D-09
 IDIUse=1 WtCom= 1.00D+00 WtEn= 0.00D+00
 Coeff-Com:  0.153D-04-0.333D-04-0.257D-04 0.454D-04 0.108D-03 0.120D-03
 Coeff-Com: -0.350D-03-0.737D-03 0.139D-02 0.867D-02 0.287D-01-0.110D-01
 Coeff-Com: -0.327D+00 0.223D+00 0.108D+01
 Coeff:      0.153D-04-0.333D-04-0.257D-04 0.454D-04 0.108D-03 0.120D-03
 Coeff:     -0.350D-03-0.737D-03 0.139D-02 0.867D-02 0.287D-01-0.110D-01
 Coeff:     -0.327D+00 0.223D+00 0.108D+01
 Gap=     0.319 Goal=   None    Shift=    0.000
 Gap=     0.319 Goal=   None    Shift=    0.000
 RMSDP=1.14D-07 MaxDP=5.10D-06 DE=-8.07D-09 OVMax= 2.73D-05

 Cycle  16  Pass 1  IDiag  1:
 RMSU=  3.94D-08    CP:  8.80D-01  2.37D+00  1.35D+00  2.56D+00  3.00D+00
                    CP:  3.00D+00  3.00D+00  1.81D+00  1.37D+00  1.34D+00
                    CP:  1.45D+00  2.09D+00  1.87D+00  2.12D+00  1.50D+00
 E= -466.860292366610     Delta-E=       -0.000000001065 Rises=F Damp=F
 DIIS: error= 2.13D-07 at cycle  16 NSaved=  16.
 NSaved=16 IEnMin=16 EnMin= -466.860292366610     IErMin=16 ErrMin= 2.13D-07
 ErrMax= 2.13D-07  0.00D+00 EMaxC= 1.00D-01 BMatC= 5.28D-11 BMatP= 6.20D-10
 IDIUse=1 WtCom= 1.00D+00 WtEn= 0.00D+00
 Coeff-Com:  0.781D-05-0.169D-04-0.776D-05 0.881D-04-0.833D-04-0.160D-03
 Coeff-Com:  0.230D-03 0.339D-03-0.702D-03-0.261D-02 0.148D-01 0.212D-01
 Coeff-Com: -0.788D-01-0.575D-01 0.232D+00 0.871D+00
 Coeff:      0.781D-05-0.169D-04-0.776D-05 0.881D-04-0.833D-04-0.160D-03
 Coeff:      0.230D-03 0.339D-03-0.702D-03-0.261D-02 0.148D-01 0.212D-01
 Coeff:     -0.788D-01-0.575D-01 0.232D+00 0.871D+00
 Gap=     0.319 Goal=   None    Shift=    0.000
 Gap=     0.319 Goal=   None    Shift=    0.000
 RMSDP=2.45D-08 MaxDP=1.02D-06 DE=-1.06D-09 OVMax= 4.00D-06

 Cycle  17  Pass 1  IDiag  1:
 RMSU=  1.13D-08    CP:  8.80D-01  2.37D+00  1.35D+00  2.56D+00  3.00D+00
                    CP:  3.00D+00  3.00D+00  1.81D+00  1.37D+00  1.34D+00
                    CP:  1.45D+00  2.10D+00  1.88D+00  2.16D+00  1.62D+00
                    CP:  1.32D+00
 E= -466.860292366655     Delta-E=       -0.000000000045 Rises=F Damp=F
 DIIS: error= 9.12D-08 at cycle  17 NSaved=  17.
 NSaved=17 IEnMin=17 EnMin= -466.860292366655     IErMin=17 ErrMin= 9.12D-08
 ErrMax= 9.12D-08  0.00D+00 EMaxC= 1.00D-01 BMatC= 7.20D-12 BMatP= 5.28D-11
 IDIUse=1 WtCom= 1.00D+00 WtEn= 0.00D+00
 Coeff-Com: -0.448D-06 0.101D-05 0.118D-05 0.294D-05-0.196D-04-0.745D-05
 Coeff-Com:  0.334D-04 0.121D-03-0.294D-03-0.137D-02-0.173D-02 0.400D-02
 Coeff-Com:  0.354D-01-0.404D-01-0.123D+00 0.147D+00 0.980D+00
 Coeff:     -0.448D-06 0.101D-05 0.118D-05 0.294D-05-0.196D-04-0.745D-05
 Coeff:      0.334D-04 0.121D-03-0.294D-03-0.137D-02-0.173D-02 0.400D-02
 Coeff:      0.354D-01-0.404D-01-0.123D+00 0.147D+00 0.980D+00
 Gap=     0.319 Goal=   None    Shift=    0.000
 Gap=     0.319 Goal=   None    Shift=    0.000
 RMSDP=9.16D-09 MaxDP=3.05D-07 DE=-4.47D-11 OVMax= 1.33D-06

 Error on total polarization charges =  0.01176
 SCF Done:  E(UwB97XD) =  -466.860292367     A.U. after   17 cycles
            NFock= 17  Conv=0.92D-08     -V/T= 2.0059
 <Sx>= 0.0000 <Sy>= 0.0000 <Sz>= 0.0000 <S**2>= 0.0000 S= 0.0000
 <L.S>=  0.00000000000    
 KE= 4.641374382913D+02 PE=-2.417461102844D+03 EE= 8.186008909134D+02
 --------------------------------------------------------------------
 Variational PCM results
 =======================
 <psi(f)|   H    |psi(f)>                     (a.u.) =    -466.858799
 <psi(f)|H+V(f)/2|psi(f)>                     (a.u.) =    -466.860292
 (Polarized solute)-Solvent               (kcal/mol) =      -0.94
 --------------------------------------------------------------------
 Partition over spheres:
 Sphere  on Atom  Surface  Charge   GEl     GCav    GDR
    1      C1       6.91   0.010   -0.05    0.00    0.00
    2      C2       4.72   0.007   -0.04    0.00    0.00
    3      H3       7.52  -0.010   -0.04    0.00    0.00
    4      H4       3.70  -0.005   -0.01    0.00    0.00
    5      C5       4.07   0.007   -0.04    0.00    0.00
    6      C6       4.28   0.005   -0.03    0.00    0.00
    7      H7       5.19  -0.007   -0.03    0.00    0.00
    8      H8       4.44  -0.006   -0.02    0.00    0.00
    9      C9       3.59   0.002    0.00    0.00    0.00
   10      H10      7.16  -0.007   -0.01    0.00    0.00
   11      H11      3.38  -0.003   -0.01    0.00    0.00
   12      C12      6.33   0.010   -0.05    0.00    0.00
   13      H13      7.52  -0.010   -0.03    0.00    0.00
   14      C14      6.91   0.010   -0.05    0.00    0.00
   15      H15      7.52  -0.010   -0.04    0.00    0.00
   16      C16      3.60   0.002    0.00    0.00    0.00
   17      H17      2.86  -0.002   -0.01    0.00    0.00
   18      H18      7.33  -0.008   -0.03    0.00    0.00
   19      C19      5.00   0.009   -0.06    0.00    0.00
   20      H20      5.12  -0.007   -0.03    0.00    0.00
   21      C21      6.46   0.010   -0.06    0.00    0.00
   22      H22      7.51  -0.010   -0.03    0.00    0.00
   23      C23      3.60   0.002    0.00    0.00    0.00
   24      H24      3.39  -0.003   -0.01    0.00    0.00
   25      H25      7.16  -0.007   -0.01    0.00    0.00
   26      C26      3.44   0.002    0.00    0.00    0.00
   27      H27      7.44  -0.008   -0.03    0.00    0.00
   28      H28      2.02  -0.002   -0.00    0.00    0.00
 Added spheres:    77.45   0.020   -0.22    0.00    0.00
 --------------------------------------------------------------------
 After PCM corrections, the energy is  -466.860292367     a.u.
 --------------------------------------------------------------------
 Annihilation of the first spin contaminant:
 S**2 before annihilation     0.0000,   after    -0.0000
 Leave Link  502 at Mon Aug  3 13:52:08 2020, MaxMem=  6442450944 cpu:            6998.2 elap:             294.4
 (Enter /scratch/scicomp/CentOS/7.3.1611/Haswell/software/Gaussian/g16/l601.exe)
 Copying SCF densities to generalized density rwf, IOpCl= 1 IROHF=0.

 **********************************************************************

            Population analysis using the SCF Density.

 **********************************************************************

 Alpha  occ. eigenvalues --  -10.28428 -10.28427 -10.28335 -10.28334 -10.28315
 Alpha  occ. eigenvalues --  -10.28314 -10.28245 -10.28244 -10.28023 -10.28022
 Alpha  occ. eigenvalues --  -10.27765 -10.27763  -0.94153  -0.93806  -0.84130
 Alpha  occ. eigenvalues --   -0.84112  -0.83963  -0.83765  -0.71283  -0.71271
 Alpha  occ. eigenvalues --   -0.67973  -0.67949  -0.59786  -0.59652  -0.57499
 Alpha  occ. eigenvalues --   -0.56998  -0.53396  -0.52718  -0.50943  -0.50884
 Alpha  occ. eigenvalues --   -0.50025  -0.49612  -0.47327  -0.47073  -0.45199
 Alpha  occ. eigenvalues --   -0.44994  -0.41244  -0.41112  -0.39658  -0.39300
 Alpha  occ. eigenvalues --   -0.39261  -0.39152  -0.29806  -0.27974
 Alpha virt. eigenvalues --    0.03886   0.04485   0.10528   0.12219   0.13276
 Alpha virt. eigenvalues --    0.14266   0.14556   0.15484   0.15577   0.15932
 Alpha virt. eigenvalues --    0.16877   0.16906   0.17117   0.18221   0.19878
 Alpha virt. eigenvalues --    0.20677   0.21441   0.22550   0.22870   0.23685
 Alpha virt. eigenvalues --    0.24910   0.25665   0.25881   0.26902   0.27683
 Alpha virt. eigenvalues --    0.28084   0.28955   0.29079   0.29673   0.30352
 Alpha virt. eigenvalues --    0.31050   0.31641   0.31702   0.32039   0.32705
 Alpha virt. eigenvalues --    0.33062   0.34179   0.34898   0.35171   0.37226
 Alpha virt. eigenvalues --    0.37359   0.38047   0.39668   0.40859   0.41197
 Alpha virt. eigenvalues --    0.41255   0.42946   0.43740   0.45061   0.45545
 Alpha virt. eigenvalues --    0.45771   0.46214   0.47384   0.47832   0.48012
 Alpha virt. eigenvalues --    0.48397   0.48814   0.49096   0.49572   0.49698
 Alpha virt. eigenvalues --    0.50431   0.50501   0.51095   0.51659   0.52303
 Alpha virt. eigenvalues --    0.52448   0.53042   0.54142   0.54229   0.54914
 Alpha virt. eigenvalues --    0.56877   0.57039   0.57317   0.59087   0.59163
 Alpha virt. eigenvalues --    0.59610   0.61090   0.62344   0.62985   0.64114
 Alpha virt. eigenvalues --    0.64260   0.66252   0.67679   0.68290   0.69293
 Alpha virt. eigenvalues --    0.70424   0.72418   0.72842   0.73340   0.75102
 Alpha virt. eigenvalues --    0.76389   0.78013   0.78206   0.80157   0.81242
 Alpha virt. eigenvalues --    0.81770   0.82070   0.83215   0.86346   0.86370
 Alpha virt. eigenvalues --    0.86457   0.88565   0.90742   0.91116   0.92392
 Alpha virt. eigenvalues --    0.92445   0.95051   0.95881   0.98257   0.98854
 Alpha virt. eigenvalues --    1.00702   1.02849   1.03662   1.03737   1.04087
 Alpha virt. eigenvalues --    1.06382   1.07074   1.08262   1.09688   1.11126
 Alpha virt. eigenvalues --    1.12826   1.13093   1.14138   1.14530   1.15425
 Alpha virt. eigenvalues --    1.15905   1.16057   1.16716   1.18856   1.20197
 Alpha virt. eigenvalues --    1.21245   1.22722   1.22999   1.23413   1.24402
 Alpha virt. eigenvalues --    1.24799   1.25645   1.26535   1.27128   1.28481
 Alpha virt. eigenvalues --    1.28794   1.30130   1.31983   1.32211   1.32772
 Alpha virt. eigenvalues --    1.34433   1.34638   1.35090   1.36814   1.38508
 Alpha virt. eigenvalues --    1.38572   1.39121   1.40377   1.40726   1.41674
 Alpha virt. eigenvalues --    1.41918   1.42356   1.43556   1.45003   1.45275
 Alpha virt. eigenvalues --    1.45594   1.46298   1.46458   1.46765   1.48128
 Alpha virt. eigenvalues --    1.49931   1.50303   1.51543   1.52804   1.55426
 Alpha virt. eigenvalues --    1.55849   1.57290   1.57311   1.58265   1.60416
 Alpha virt. eigenvalues --    1.60791   1.62227   1.62816   1.64679   1.66611
 Alpha virt. eigenvalues --    1.68460   1.69139   1.69661   1.71380   1.75118
 Alpha virt. eigenvalues --    1.75575   1.79582   1.80652   1.82053   1.82902
 Alpha virt. eigenvalues --    1.86888   1.87820   1.88874   1.89305   1.91146
 Alpha virt. eigenvalues --    1.92077   1.95764   2.00025   2.01230   2.01448
 Alpha virt. eigenvalues --    2.03791   2.04690   2.06663   2.07368   2.08789
 Alpha virt. eigenvalues --    2.08855   2.11573   2.12179   2.13188   2.15276
 Alpha virt. eigenvalues --    2.18827   2.19357   2.19918   2.20227   2.22072
 Alpha virt. eigenvalues --    2.22807   2.23073   2.23544   2.25045   2.25914
 Alpha virt. eigenvalues --    2.28489   2.31586   2.37065   2.37828   2.39953
 Alpha virt. eigenvalues --    2.42200   2.45905   2.47104   2.48353   2.49218
 Alpha virt. eigenvalues --    2.49961   2.50078   2.52027   2.53963   2.54812
 Alpha virt. eigenvalues --    2.54938   2.57181   2.57264   2.60118   2.60278
 Alpha virt. eigenvalues --    2.61816   2.63807   2.64256   2.65118   2.66562
 Alpha virt. eigenvalues --    2.67592   2.68675   2.69873   2.72065   2.72215
 Alpha virt. eigenvalues --    2.73091   2.73139   2.74887   2.75857   2.76353
 Alpha virt. eigenvalues --    2.77327   2.77847   2.78719   2.80030   2.80874
 Alpha virt. eigenvalues --    2.81189   2.81621   2.82449   2.83633   2.83947
 Alpha virt. eigenvalues --    2.84786   2.85586   2.86644   2.88662   2.88809
 Alpha virt. eigenvalues --    2.89638   2.89651   2.92049   2.92484   2.92998
 Alpha virt. eigenvalues --    2.94002   2.94541   2.94741   2.95801   2.98604
 Alpha virt. eigenvalues --    3.01399   3.01727   3.02857   3.03682   3.06129
 Alpha virt. eigenvalues --    3.06456   3.07917   3.08493   3.09376   3.10712
 Alpha virt. eigenvalues --    3.11929   3.12143   3.12346   3.13732   3.14644
 Alpha virt. eigenvalues --    3.14829   3.16772   3.17070   3.18291   3.18544
 Alpha virt. eigenvalues --    3.19282   3.19313   3.19877   3.20819   3.20848
 Alpha virt. eigenvalues --    3.22093   3.22311   3.23287   3.23409   3.24068
 Alpha virt. eigenvalues --    3.25244   3.25550   3.26940   3.27847   3.28105
 Alpha virt. eigenvalues --    3.28642   3.29284   3.29645   3.31127   3.31155
 Alpha virt. eigenvalues --    3.32491   3.32894   3.33235   3.33593   3.34318
 Alpha virt. eigenvalues --    3.34608   3.35137   3.35937   3.37801   3.38521
 Alpha virt. eigenvalues --    3.38646   3.39002   3.41561   3.43355   3.43549
 Alpha virt. eigenvalues --    3.44758   3.45657   3.46182   3.46808   3.46973
 Alpha virt. eigenvalues --    3.47829   3.48510   3.49054   3.49264   3.50876
 Alpha virt. eigenvalues --    3.51298   3.51465   3.53043   3.53176   3.53802
 Alpha virt. eigenvalues --    3.54641   3.55467   3.59701   3.59840   3.60867
 Alpha virt. eigenvalues --    3.62928   3.64139   3.64298   3.64543   3.64703
 Alpha virt. eigenvalues --    3.67493   3.68321   3.69588   3.71269   3.71460
 Alpha virt. eigenvalues --    3.73485   3.75804   3.76172   3.77533   3.77898
 Alpha virt. eigenvalues --    3.83714   3.84408   3.84922   3.86043   3.86195
 Alpha virt. eigenvalues --    3.87397   3.88771   3.89733   3.92285   3.93408
 Alpha virt. eigenvalues --    3.93664   3.95175   3.98854   3.98933   4.01359
 Alpha virt. eigenvalues --    4.03669   4.07950   4.09071   4.09292   4.10623
 Alpha virt. eigenvalues --    4.11777   4.12460   4.13022   4.15360   4.18220
 Alpha virt. eigenvalues --    4.19261   4.20143   4.21723   4.22574   4.22623
 Alpha virt. eigenvalues --    4.24556   4.26774   4.30748   4.31031   4.33227
 Alpha virt. eigenvalues --    4.35440   4.36427   4.37088   4.39146   4.39481
 Alpha virt. eigenvalues --    4.43626   4.45211   4.45243   4.46856   4.47780
 Alpha virt. eigenvalues --    4.48132   4.59093   4.60325   4.61190   4.64109
 Alpha virt. eigenvalues --    4.69112   4.69561   4.71417   4.72815   4.74081
 Alpha virt. eigenvalues --    4.74417   4.76348   4.77541   4.78937   4.81527
 Alpha virt. eigenvalues --    4.83396   4.84242   4.88725   4.88969   4.94230
 Alpha virt. eigenvalues --    4.94431   4.94664   4.96322   5.04954   5.08284
 Alpha virt. eigenvalues --    5.08683   5.10391   5.17793   5.18755   5.23022
 Alpha virt. eigenvalues --    5.23746   5.28651   5.31274   5.39489   5.39961
 Alpha virt. eigenvalues --    5.43404   5.44626   5.47741   5.48425   5.65933
 Alpha virt. eigenvalues --    5.69665   5.74450   5.75986   5.91186   5.96120
 Alpha virt. eigenvalues --    7.94003   7.95651   8.01390   8.02167   8.05783
 Alpha virt. eigenvalues --    8.07269   8.10937   8.11140   8.17092   8.17936
 Alpha virt. eigenvalues --    8.33307   8.35518  34.76128  34.77745  34.80934
 Alpha virt. eigenvalues --   34.81880  34.84241  34.86898  34.97301  34.97672
 Alpha virt. eigenvalues --   35.00136  35.01079  35.15095  35.18125
  Beta  occ. eigenvalues --  -10.28428 -10.28427 -10.28335 -10.28334 -10.28315
  Beta  occ. eigenvalues --  -10.28314 -10.28245 -10.28244 -10.28023 -10.28022
  Beta  occ. eigenvalues --  -10.27765 -10.27763  -0.94153  -0.93806  -0.84130
  Beta  occ. eigenvalues --   -0.84112  -0.83963  -0.83765  -0.71283  -0.71271
  Beta  occ. eigenvalues --   -0.67973  -0.67949  -0.59786  -0.59652  -0.57499
  Beta  occ. eigenvalues --   -0.56998  -0.53396  -0.52718  -0.50943  -0.50884
  Beta  occ. eigenvalues --   -0.50025  -0.49612  -0.47327  -0.47073  -0.45199
  Beta  occ. eigenvalues --   -0.44994  -0.41244  -0.41112  -0.39658  -0.39300
  Beta  occ. eigenvalues --   -0.39261  -0.39152  -0.29806  -0.27974
  Beta virt. eigenvalues --    0.03886   0.04485   0.10528   0.12219   0.13276
  Beta virt. eigenvalues --    0.14266   0.14556   0.15484   0.15577   0.15932
  Beta virt. eigenvalues --    0.16877   0.16906   0.17117   0.18221   0.19878
  Beta virt. eigenvalues --    0.20677   0.21441   0.22550   0.22870   0.23685
  Beta virt. eigenvalues --    0.24910   0.25665   0.25881   0.26902   0.27683
  Beta virt. eigenvalues --    0.28084   0.28955   0.29079   0.29673   0.30352
  Beta virt. eigenvalues --    0.31050   0.31641   0.31702   0.32039   0.32705
  Beta virt. eigenvalues --    0.33062   0.34179   0.34898   0.35171   0.37226
  Beta virt. eigenvalues --    0.37359   0.38047   0.39668   0.40859   0.41197
  Beta virt. eigenvalues --    0.41255   0.42946   0.43740   0.45061   0.45545
  Beta virt. eigenvalues --    0.45771   0.46214   0.47384   0.47832   0.48012
  Beta virt. eigenvalues --    0.48397   0.48814   0.49096   0.49572   0.49698
  Beta virt. eigenvalues --    0.50431   0.50501   0.51095   0.51659   0.52303
  Beta virt. eigenvalues --    0.52448   0.53042   0.54142   0.54229   0.54914
  Beta virt. eigenvalues --    0.56877   0.57039   0.57317   0.59087   0.59163
  Beta virt. eigenvalues --    0.59610   0.61090   0.62344   0.62985   0.64114
  Beta virt. eigenvalues --    0.64260   0.66252   0.67679   0.68290   0.69293
  Beta virt. eigenvalues --    0.70424   0.72418   0.72842   0.73340   0.75102
  Beta virt. eigenvalues --    0.76389   0.78013   0.78206   0.80157   0.81242
  Beta virt. eigenvalues --    0.81770   0.82070   0.83215   0.86346   0.86370
  Beta virt. eigenvalues --    0.86457   0.88565   0.90742   0.91116   0.92392
  Beta virt. eigenvalues --    0.92445   0.95051   0.95881   0.98257   0.98854
  Beta virt. eigenvalues --    1.00702   1.02849   1.03662   1.03737   1.04087
  Beta virt. eigenvalues --    1.06382   1.07074   1.08262   1.09688   1.11126
  Beta virt. eigenvalues --    1.12826   1.13093   1.14138   1.14530   1.15425
  Beta virt. eigenvalues --    1.15905   1.16057   1.16716   1.18856   1.20197
  Beta virt. eigenvalues --    1.21245   1.22722   1.22999   1.23413   1.24402
  Beta virt. eigenvalues --    1.24799   1.25645   1.26535   1.27128   1.28481
  Beta virt. eigenvalues --    1.28794   1.30130   1.31983   1.32211   1.32772
  Beta virt. eigenvalues --    1.34433   1.34638   1.35090   1.36814   1.38508
  Beta virt. eigenvalues --    1.38572   1.39121   1.40377   1.40726   1.41674
  Beta virt. eigenvalues --    1.41918   1.42356   1.43556   1.45003   1.45275
  Beta virt. eigenvalues --    1.45594   1.46298   1.46458   1.46765   1.48128
  Beta virt. eigenvalues --    1.49931   1.50303   1.51543   1.52804   1.55426
  Beta virt. eigenvalues --    1.55849   1.57290   1.57311   1.58265   1.60416
  Beta virt. eigenvalues --    1.60791   1.62227   1.62816   1.64679   1.66611
  Beta virt. eigenvalues --    1.68460   1.69139   1.69661   1.71380   1.75118
  Beta virt. eigenvalues --    1.75575   1.79582   1.80652   1.82053   1.82902
  Beta virt. eigenvalues --    1.86888   1.87820   1.88874   1.89305   1.91146
  Beta virt. eigenvalues --    1.92077   1.95764   2.00025   2.01230   2.01448
  Beta virt. eigenvalues --    2.03791   2.04690   2.06663   2.07368   2.08789
  Beta virt. eigenvalues --    2.08855   2.11573   2.12179   2.13188   2.15276
  Beta virt. eigenvalues --    2.18827   2.19357   2.19918   2.20227   2.22072
  Beta virt. eigenvalues --    2.22807   2.23073   2.23544   2.25045   2.25914
  Beta virt. eigenvalues --    2.28489   2.31586   2.37065   2.37828   2.39953
  Beta virt. eigenvalues --    2.42200   2.45905   2.47104   2.48353   2.49218
  Beta virt. eigenvalues --    2.49961   2.50078   2.52027   2.53963   2.54812
  Beta virt. eigenvalues --    2.54938   2.57181   2.57264   2.60118   2.60278
  Beta virt. eigenvalues --    2.61816   2.63807   2.64256   2.65118   2.66562
  Beta virt. eigenvalues --    2.67592   2.68675   2.69873   2.72065   2.72215
  Beta virt. eigenvalues --    2.73091   2.73139   2.74887   2.75857   2.76353
  Beta virt. eigenvalues --    2.77327   2.77847   2.78719   2.80030   2.80874
  Beta virt. eigenvalues --    2.81189   2.81621   2.82449   2.83633   2.83947
  Beta virt. eigenvalues --    2.84786   2.85586   2.86644   2.88662   2.88809
  Beta virt. eigenvalues --    2.89638   2.89651   2.92049   2.92484   2.92998
  Beta virt. eigenvalues --    2.94002   2.94541   2.94741   2.95801   2.98604
  Beta virt. eigenvalues --    3.01399   3.01727   3.02857   3.03682   3.06129
  Beta virt. eigenvalues --    3.06456   3.07917   3.08493   3.09376   3.10712
  Beta virt. eigenvalues --    3.11929   3.12143   3.12346   3.13732   3.14644
  Beta virt. eigenvalues --    3.14829   3.16772   3.17070   3.18291   3.18544
  Beta virt. eigenvalues --    3.19282   3.19313   3.19877   3.20819   3.20848
  Beta virt. eigenvalues --    3.22093   3.22311   3.23287   3.23409   3.24068
  Beta virt. eigenvalues --    3.25244   3.25550   3.26940   3.27847   3.28105
  Beta virt. eigenvalues --    3.28642   3.29284   3.29645   3.31127   3.31155
  Beta virt. eigenvalues --    3.32491   3.32894   3.33235   3.33593   3.34318
  Beta virt. eigenvalues --    3.34608   3.35137   3.35937   3.37801   3.38521
  Beta virt. eigenvalues --    3.38646   3.39002   3.41561   3.43355   3.43549
  Beta virt. eigenvalues --    3.44758   3.45657   3.46182   3.46808   3.46973
  Beta virt. eigenvalues --    3.47829   3.48510   3.49054   3.49264   3.50876
  Beta virt. eigenvalues --    3.51298   3.51465   3.53043   3.53176   3.53802
  Beta virt. eigenvalues --    3.54641   3.55467   3.59701   3.59840   3.60867
  Beta virt. eigenvalues --    3.62928   3.64139   3.64298   3.64543   3.64703
  Beta virt. eigenvalues --    3.67493   3.68321   3.69588   3.71269   3.71460
  Beta virt. eigenvalues --    3.73485   3.75804   3.76172   3.77533   3.77898
  Beta virt. eigenvalues --    3.83714   3.84408   3.84922   3.86043   3.86195
  Beta virt. eigenvalues --    3.87397   3.88771   3.89733   3.92285   3.93408
  Beta virt. eigenvalues --    3.93664   3.95175   3.98854   3.98933   4.01359
  Beta virt. eigenvalues --    4.03669   4.07950   4.09071   4.09292   4.10623
  Beta virt. eigenvalues --    4.11777   4.12460   4.13022   4.15360   4.18220
  Beta virt. eigenvalues --    4.19261   4.20143   4.21723   4.22574   4.22623
  Beta virt. eigenvalues --    4.24556   4.26774   4.30748   4.31031   4.33227
  Beta virt. eigenvalues --    4.35440   4.36427   4.37088   4.39146   4.39481
  Beta virt. eigenvalues --    4.43626   4.45211   4.45243   4.46856   4.47780
  Beta virt. eigenvalues --    4.48132   4.59093   4.60325   4.61190   4.64109
  Beta virt. eigenvalues --    4.69112   4.69561   4.71417   4.72815   4.74081
  Beta virt. eigenvalues --    4.74417   4.76348   4.77541   4.78937   4.81527
  Beta virt. eigenvalues --    4.83396   4.84242   4.88725   4.88969   4.94230
  Beta virt. eigenvalues --    4.94431   4.94664   4.96322   5.04954   5.08284
  Beta virt. eigenvalues --    5.08683   5.10391   5.17793   5.18755   5.23022
  Beta virt. eigenvalues --    5.23746   5.28651   5.31274   5.39489   5.39961
  Beta virt. eigenvalues --    5.43404   5.44626   5.47741   5.48425   5.65933
  Beta virt. eigenvalues --    5.69665   5.74450   5.75986   5.91186   5.96120
  Beta virt. eigenvalues --    7.94003   7.95651   8.01390   8.02167   8.05783
  Beta virt. eigenvalues --    8.07269   8.10937   8.11140   8.17092   8.17936
  Beta virt. eigenvalues --    8.33307   8.35518  34.76128  34.77745  34.80934
  Beta virt. eigenvalues --   34.81880  34.84241  34.86898  34.97301  34.97672
  Beta virt. eigenvalues --   35.00136  35.01079  35.15095  35.18125
          Condensed to atoms (all electrons):
               1          2          3          4          5          6
     1  C    5.121681   0.013808   0.422459  -0.001794   0.000055  -0.002994
     2  C    0.013808   5.209391  -0.001858   0.422712  -0.016109  -0.040001
     3  H    0.422459  -0.001858   0.497206   0.000036  -0.000044  -0.000049
     4  H   -0.001794   0.422712   0.000036   0.481782  -0.001373   0.001191
     5  C    0.000055  -0.016109  -0.000044  -0.001373   5.076585   0.561839
     6  C   -0.002994  -0.040001  -0.000049   0.001191   0.561839   5.209397
     7  H    0.000184  -0.000630  -0.000000  -0.000062   0.423218  -0.028825
     8  H   -0.000207   0.001190   0.000011   0.000019  -0.041758   0.422721
     9  C    0.000961   0.000659  -0.000001  -0.000528  -0.074971   0.280253
    10  H   -0.000011  -0.000297  -0.000001  -0.000041  -0.003615  -0.033553
    11  H    0.000100  -0.000949   0.000000  -0.000007   0.006471  -0.047898
    12  C   -0.000091   0.005502   0.000002   0.001042   0.317129  -0.078386
    13  H   -0.000001   0.000015   0.000000  -0.000006  -0.037165   0.004761
    14  C    0.000104  -0.002995  -0.000000  -0.000207  -0.069231   0.013784
    15  H   -0.000000  -0.000049  -0.000000   0.000011   0.007147  -0.001856
    16  C   -0.000485   0.005824  -0.000001   0.000419   0.006564  -0.077947
    17  H   -0.000076  -0.001293  -0.000001  -0.000811   0.011206  -0.000913
    18  H    0.000001   0.000614   0.000000   0.000068  -0.002164   0.010829
    19  C   -0.069221   0.561861   0.007151  -0.041748   0.001176  -0.016105
    20  H    0.003765  -0.028793  -0.000126  -0.005825   0.000105  -0.000631
    21  C    0.599746  -0.078407  -0.032957   0.005890   0.000320   0.005502
    22  H   -0.027327   0.004770  -0.006307  -0.000089   0.000009   0.000015
    23  C   -0.089647   0.280284   0.005313  -0.016372   0.000274   0.000660
    24  H    0.012127  -0.047905  -0.000144  -0.004129   0.002943  -0.000948
    25  H    0.006330  -0.033557   0.000027   0.000171   0.000190  -0.000297
    26  C    0.291311  -0.077931  -0.030056   0.004169  -0.001281   0.005824
    27  H   -0.036354   0.010824  -0.004651  -0.000148   0.000369   0.000614
    28  H   -0.034671  -0.000909   0.001523  -0.000149  -0.002281  -0.001296
               7          8          9         10         11         12
     1  C    0.000184  -0.000207   0.000961  -0.000011   0.000100  -0.000091
     2  C   -0.000630   0.001190   0.000659  -0.000297  -0.000949   0.005502
     3  H   -0.000000   0.000011  -0.000001  -0.000001   0.000000   0.000002
     4  H   -0.000062   0.000019  -0.000528  -0.000041  -0.000007   0.001042
     5  C    0.423218  -0.041758  -0.074971  -0.003615   0.006471   0.317129
     6  C   -0.028825   0.422721   0.280253  -0.033553  -0.047898  -0.078386
     7  H    0.488434  -0.005825   0.003815  -0.000305  -0.000075  -0.031353
     8  H   -0.005825   0.481818  -0.016378   0.000170  -0.004128   0.005891
     9  C    0.003815  -0.016378   4.911639   0.381012   0.440283   0.033608
    10  H   -0.000305   0.000170   0.381012   0.581238  -0.021814   0.001888
    11  H   -0.000075  -0.004128   0.440283  -0.021814   0.544797  -0.003156
    12  C   -0.031353   0.005891   0.033608   0.001888  -0.003156   4.990746
    13  H   -0.003444  -0.000089  -0.000486  -0.000054   0.000039   0.424967
    14  C    0.003759  -0.001794  -0.089637   0.006334   0.012127   0.599802
    15  H   -0.000126   0.000036   0.005313   0.000027  -0.000144  -0.032924
    16  C   -0.000720   0.004169   0.380599  -0.028129  -0.046919  -0.066846
    17  H    0.000025  -0.000149  -0.036450   0.007931  -0.008606  -0.015772
    18  H    0.000040  -0.000148  -0.042406  -0.008178  -0.001582   0.005727
    19  C    0.000105  -0.001373   0.000271   0.000189   0.002944   0.000321
    20  H    0.000006  -0.000062   0.001150   0.000068  -0.000139  -0.000088
    21  C   -0.000088   0.001042  -0.000121   0.000024  -0.000491  -0.000155
    22  H   -0.000000  -0.000006  -0.000036  -0.000000  -0.000007   0.000000
    23  C    0.001150  -0.000528   0.000159  -0.000009   0.000026  -0.000120
    24  H   -0.000139  -0.000007   0.000026   0.000004  -0.000014  -0.000491
    25  H    0.000068  -0.000041  -0.000009   0.000000   0.000004   0.000024
    26  C   -0.000974   0.000419  -0.000545   0.000032  -0.000043   0.000479
    27  H   -0.000016   0.000067  -0.000026   0.000001  -0.000001  -0.000050
    28  H    0.001440  -0.000811   0.000226  -0.000010   0.000027   0.000512
              13         14         15         16         17         18
     1  C   -0.000001   0.000104  -0.000000  -0.000485  -0.000076   0.000001
     2  C    0.000015  -0.002995  -0.000049   0.005824  -0.001293   0.000614
     3  H    0.000000  -0.000000  -0.000000  -0.000001  -0.000001   0.000000
     4  H   -0.000006  -0.000207   0.000011   0.000419  -0.000811   0.000068
     5  C   -0.037165  -0.069231   0.007147   0.006564   0.011206  -0.002164
     6  C    0.004761   0.013784  -0.001856  -0.077947  -0.000913   0.010829
     7  H   -0.003444   0.003759  -0.000126  -0.000720   0.000025   0.000040
     8  H   -0.000089  -0.001794   0.000036   0.004169  -0.000149  -0.000148
     9  C   -0.000486  -0.089637   0.005313   0.380599  -0.036450  -0.042406
    10  H   -0.000054   0.006334   0.000027  -0.028129   0.007931  -0.008178
    11  H    0.000039   0.012127  -0.000144  -0.046919  -0.008606  -0.001582
    12  C    0.424967   0.599802  -0.032924  -0.066846  -0.015772   0.005727
    13  H    0.495205  -0.027348  -0.006306   0.004797  -0.000396  -0.000136
    14  C   -0.027348   5.121579   0.422430   0.291307  -0.034657  -0.036381
    15  H   -0.006306   0.422430   0.497235  -0.030065   0.001523  -0.004653
    16  C    0.004797   0.291307  -0.030065   4.908532   0.396644   0.428181
    17  H   -0.000396  -0.034657   0.001523   0.396644   0.596652  -0.022022
    18  H   -0.000136  -0.036381  -0.004653   0.428181  -0.022022   0.547404
    19  C    0.000009   0.000054  -0.000044  -0.001277  -0.002284   0.000369
    20  H   -0.000000   0.000184  -0.000000  -0.000973   0.001439  -0.000016
    21  C    0.000000  -0.000091   0.000002   0.000479   0.000512  -0.000050
    22  H    0.000000  -0.000001   0.000000   0.000007  -0.000006  -0.000001
    23  C   -0.000036   0.000960  -0.000001  -0.000545   0.000226  -0.000026
    24  H   -0.000007   0.000100   0.000000  -0.000043   0.000027  -0.000001
    25  H   -0.000000  -0.000011  -0.000001   0.000032  -0.000010   0.000001
    26  C    0.000007  -0.000485  -0.000001   0.000893   0.000144  -0.000001
    27  H   -0.000001   0.000001   0.000000  -0.000001   0.000003  -0.000000
    28  H   -0.000006  -0.000076  -0.000001   0.000144  -0.000027   0.000003
              19         20         21         22         23         24
     1  C   -0.069221   0.003765   0.599746  -0.027327  -0.089647   0.012127
     2  C    0.561861  -0.028793  -0.078407   0.004770   0.280284  -0.047905
     3  H    0.007151  -0.000126  -0.032957  -0.006307   0.005313  -0.000144
     4  H   -0.041748  -0.005825   0.005890  -0.000089  -0.016372  -0.004129
     5  C    0.001176   0.000105   0.000320   0.000009   0.000274   0.002943
     6  C   -0.016105  -0.000631   0.005502   0.000015   0.000660  -0.000948
     7  H    0.000105   0.000006  -0.000088  -0.000000   0.001150  -0.000139
     8  H   -0.001373  -0.000062   0.001042  -0.000006  -0.000528  -0.000007
     9  C    0.000271   0.001150  -0.000121  -0.000036   0.000159   0.000026
    10  H    0.000189   0.000068   0.000024  -0.000000  -0.000009   0.000004
    11  H    0.002944  -0.000139  -0.000491  -0.000007   0.000026  -0.000014
    12  C    0.000321  -0.000088  -0.000155   0.000000  -0.000120  -0.000491
    13  H    0.000009  -0.000000   0.000000   0.000000  -0.000036  -0.000007
    14  C    0.000054   0.000184  -0.000091  -0.000001   0.000960   0.000100
    15  H   -0.000044  -0.000000   0.000002   0.000000  -0.000001   0.000000
    16  C   -0.001277  -0.000973   0.000479   0.000007  -0.000545  -0.000043
    17  H   -0.002284   0.001439   0.000512  -0.000006   0.000226   0.000027
    18  H    0.000369  -0.000016  -0.000050  -0.000001  -0.000026  -0.000001
    19  C    5.076556   0.423210   0.317069  -0.037199  -0.074997   0.006473
    20  H    0.423210   0.488524  -0.031387  -0.003446   0.003815  -0.000075
    21  C    0.317069  -0.031387   4.990780   0.424971   0.033627  -0.003156
    22  H   -0.037199  -0.003446   0.424971   0.495226  -0.000486   0.000039
    23  C   -0.074997   0.003815   0.033627  -0.000486   4.911618   0.440284
    24  H    0.006473  -0.000075  -0.003156   0.000039   0.440284   0.544836
    25  H   -0.003614  -0.000305   0.001889  -0.000054   0.381023  -0.021814
    26  C    0.006547  -0.000723  -0.066841   0.004799   0.380601  -0.046921
    27  H   -0.002159   0.000040   0.005713  -0.000136  -0.042402  -0.001581
    28  H    0.011203   0.000025  -0.015761  -0.000396  -0.036463  -0.008607
              25         26         27         28
     1  C    0.006330   0.291311  -0.036354  -0.034671
     2  C   -0.033557  -0.077931   0.010824  -0.000909
     3  H    0.000027  -0.030056  -0.004651   0.001523
     4  H    0.000171   0.004169  -0.000148  -0.000149
     5  C    0.000190  -0.001281   0.000369  -0.002281
     6  C   -0.000297   0.005824   0.000614  -0.001296
     7  H    0.000068  -0.000974  -0.000016   0.001440
     8  H   -0.000041   0.000419   0.000067  -0.000811
     9  C   -0.000009  -0.000545  -0.000026   0.000226
    10  H    0.000000   0.000032   0.000001  -0.000010
    11  H    0.000004  -0.000043  -0.000001   0.000027
    12  C    0.000024   0.000479  -0.000050   0.000512
    13  H   -0.000000   0.000007  -0.000001  -0.000006
    14  C   -0.000011  -0.000485   0.000001  -0.000076
    15  H   -0.000001  -0.000001   0.000000  -0.000001
    16  C    0.000032   0.000893  -0.000001   0.000144
    17  H   -0.000010   0.000144   0.000003  -0.000027
    18  H    0.000001  -0.000001  -0.000000   0.000003
    19  C   -0.003614   0.006547  -0.002159   0.011203
    20  H   -0.000305  -0.000723   0.000040   0.000025
    21  C    0.001889  -0.066841   0.005713  -0.015761
    22  H   -0.000054   0.004799  -0.000136  -0.000396
    23  C    0.381023   0.380601  -0.042402  -0.036463
    24  H   -0.021814  -0.046921  -0.001581  -0.008607
    25  H    0.581221  -0.028131  -0.008180   0.007931
    26  C   -0.028131   4.908469   0.428168   0.396641
    27  H   -0.008180   0.428168   0.547391  -0.022026
    28  H    0.007931   0.396641  -0.022026   0.596729
          Atomic-Atomic Spin Densities.
               1          2          3          4          5          6
     1  C   -0.000001  -0.000000   0.000000   0.000000   0.000000  -0.000000
     2  C   -0.000000  -0.000000   0.000000   0.000000  -0.000000   0.000000
     3  H    0.000000   0.000000   0.000000  -0.000000  -0.000000   0.000000
     4  H    0.000000   0.000000  -0.000000   0.000000   0.000000  -0.000000
     5  C    0.000000  -0.000000  -0.000000   0.000000  -0.000000   0.000000
     6  C   -0.000000   0.000000   0.000000  -0.000000   0.000000  -0.000000
     7  H   -0.000000   0.000000   0.000000  -0.000000  -0.000000  -0.000000
     8  H    0.000000   0.000000  -0.000000   0.000000  -0.000000  -0.000000
     9  C   -0.000000   0.000000  -0.000000  -0.000000  -0.000000   0.000000
    10  H   -0.000000  -0.000000  -0.000000   0.000000  -0.000000   0.000000
    11  H    0.000000  -0.000000   0.000000   0.000000   0.000000  -0.000000
    12  C   -0.000000   0.000000   0.000000  -0.000000   0.000000   0.000000
    13  H    0.000000   0.000000   0.000000   0.000000   0.000000  -0.000000
    14  C   -0.000000   0.000000  -0.000000  -0.000000  -0.000000   0.000000
    15  H    0.000000  -0.000000  -0.000000   0.000000  -0.000000  -0.000000
    16  C   -0.000000  -0.000000   0.000000   0.000000  -0.000000  -0.000000
    17  H   -0.000000  -0.000000  -0.000000   0.000000   0.000000   0.000000
    18  H   -0.000000  -0.000000   0.000000   0.000000   0.000000  -0.000000
    19  C   -0.000000  -0.000000   0.000000   0.000000   0.000000   0.000000
    20  H   -0.000000   0.000000   0.000000   0.000000  -0.000000  -0.000000
    21  C    0.000000   0.000000  -0.000000  -0.000000   0.000000  -0.000000
    22  H   -0.000000   0.000000  -0.000000  -0.000000   0.000000  -0.000000
    23  C   -0.000000  -0.000000   0.000000  -0.000000   0.000000  -0.000000
    24  H   -0.000000   0.000000  -0.000000   0.000000   0.000000   0.000000
    25  H   -0.000000  -0.000000   0.000000   0.000000  -0.000000   0.000000
    26  C    0.000000   0.000000  -0.000000  -0.000000   0.000000   0.000000
    27  H    0.000000   0.000000  -0.000000   0.000000   0.000000   0.000000
    28  H    0.000000  -0.000000  -0.000000   0.000000  -0.000000   0.000000
               7          8          9         10         11         12
     1  C   -0.000000   0.000000  -0.000000  -0.000000   0.000000  -0.000000
     2  C    0.000000   0.000000   0.000000  -0.000000  -0.000000   0.000000
     3  H    0.000000  -0.000000  -0.000000  -0.000000   0.000000   0.000000
     4  H   -0.000000   0.000000  -0.000000   0.000000   0.000000  -0.000000
     5  C   -0.000000  -0.000000  -0.000000  -0.000000   0.000000   0.000000
     6  C   -0.000000  -0.000000   0.000000   0.000000  -0.000000   0.000000
     7  H    0.000000  -0.000000   0.000000  -0.000000  -0.000000  -0.000000
     8  H   -0.000000  -0.000000   0.000000  -0.000000  -0.000000   0.000000
     9  C    0.000000   0.000000  -0.000001  -0.000000   0.000000  -0.000000
    10  H   -0.000000  -0.000000  -0.000000   0.000000  -0.000000   0.000000
    11  H   -0.000000  -0.000000   0.000000  -0.000000   0.000000  -0.000000
    12  C   -0.000000   0.000000  -0.000000   0.000000  -0.000000  -0.000000
    13  H    0.000000   0.000000   0.000000  -0.000000  -0.000000  -0.000000
    14  C    0.000000  -0.000000   0.000000   0.000000   0.000000  -0.000000
    15  H   -0.000000   0.000000  -0.000000  -0.000000   0.000000   0.000000
    16  C   -0.000000   0.000000   0.000000  -0.000000  -0.000000   0.000000
    17  H   -0.000000  -0.000000   0.000000   0.000000  -0.000000   0.000000
    18  H    0.000000  -0.000000   0.000000   0.000000  -0.000000  -0.000000
    19  C    0.000000  -0.000000  -0.000000   0.000000  -0.000000  -0.000000
    20  H   -0.000000   0.000000  -0.000000  -0.000000   0.000000   0.000000
    21  C   -0.000000   0.000000  -0.000000   0.000000   0.000000   0.000000
    22  H    0.000000  -0.000000  -0.000000  -0.000000   0.000000   0.000000
    23  C    0.000000   0.000000   0.000000   0.000000   0.000000   0.000000
    24  H   -0.000000  -0.000000  -0.000000   0.000000   0.000000  -0.000000
    25  H    0.000000  -0.000000  -0.000000   0.000000  -0.000000  -0.000000
    26  C   -0.000000  -0.000000   0.000000   0.000000  -0.000000  -0.000000
    27  H   -0.000000  -0.000000  -0.000000   0.000000  -0.000000  -0.000000
    28  H    0.000000  -0.000000   0.000000   0.000000  -0.000000  -0.000000
              13         14         15         16         17         18
     1  C    0.000000  -0.000000   0.000000  -0.000000  -0.000000  -0.000000
     2  C    0.000000   0.000000  -0.000000  -0.000000  -0.000000  -0.000000
     3  H    0.000000  -0.000000  -0.000000   0.000000  -0.000000   0.000000
     4  H    0.000000  -0.000000   0.000000   0.000000   0.000000   0.000000
     5  C    0.000000  -0.000000  -0.000000  -0.000000   0.000000   0.000000
     6  C   -0.000000   0.000000  -0.000000  -0.000000   0.000000  -0.000000
     7  H    0.000000   0.000000  -0.000000  -0.000000  -0.000000   0.000000
     8  H    0.000000  -0.000000   0.000000   0.000000  -0.000000  -0.000000
     9  C    0.000000   0.000000  -0.000000   0.000000   0.000000   0.000000
    10  H   -0.000000   0.000000  -0.000000  -0.000000   0.000000   0.000000
    11  H   -0.000000   0.000000   0.000000  -0.000000  -0.000000  -0.000000
    12  C   -0.000000  -0.000000   0.000000   0.000000   0.000000  -0.000000
    13  H   -0.000000   0.000000   0.000000  -0.000000  -0.000000   0.000000
    14  C    0.000000   0.000001  -0.000000  -0.000000  -0.000000  -0.000000
    15  H    0.000000  -0.000000  -0.000000   0.000000   0.000000   0.000000
    16  C   -0.000000  -0.000000   0.000000   0.000001  -0.000000  -0.000000
    17  H   -0.000000  -0.000000   0.000000  -0.000000   0.000000   0.000000
    18  H    0.000000  -0.000000   0.000000  -0.000000   0.000000  -0.000000
    19  C   -0.000000  -0.000000   0.000000  -0.000000   0.000000  -0.000000
    20  H   -0.000000   0.000000  -0.000000   0.000000  -0.000000   0.000000
    21  C   -0.000000   0.000000  -0.000000   0.000000   0.000000   0.000000
    22  H    0.000000  -0.000000  -0.000000   0.000000  -0.000000   0.000000
    23  C    0.000000   0.000000   0.000000  -0.000000  -0.000000   0.000000
    24  H   -0.000000  -0.000000  -0.000000   0.000000   0.000000   0.000000
    25  H    0.000000   0.000000   0.000000  -0.000000  -0.000000  -0.000000
    26  C   -0.000000   0.000000  -0.000000   0.000000   0.000000   0.000000
    27  H   -0.000000   0.000000  -0.000000  -0.000000   0.000000  -0.000000
    28  H    0.000000   0.000000   0.000000  -0.000000  -0.000000  -0.000000
              19         20         21         22         23         24
     1  C   -0.000000  -0.000000   0.000000  -0.000000  -0.000000  -0.000000
     2  C   -0.000000   0.000000   0.000000   0.000000  -0.000000   0.000000
     3  H    0.000000   0.000000  -0.000000  -0.000000   0.000000  -0.000000
     4  H    0.000000   0.000000  -0.000000  -0.000000  -0.000000   0.000000
     5  C    0.000000  -0.000000   0.000000   0.000000   0.000000   0.000000
     6  C    0.000000  -0.000000  -0.000000  -0.000000  -0.000000   0.000000
     7  H    0.000000  -0.000000  -0.000000   0.000000   0.000000  -0.000000
     8  H   -0.000000   0.000000   0.000000  -0.000000   0.000000  -0.000000
     9  C   -0.000000  -0.000000  -0.000000  -0.000000   0.000000  -0.000000
    10  H    0.000000  -0.000000   0.000000  -0.000000   0.000000   0.000000
    11  H   -0.000000   0.000000   0.000000   0.000000   0.000000   0.000000
    12  C   -0.000000   0.000000   0.000000   0.000000   0.000000  -0.000000
    13  H   -0.000000  -0.000000  -0.000000   0.000000   0.000000  -0.000000
    14  C   -0.000000   0.000000   0.000000  -0.000000   0.000000  -0.000000
    15  H    0.000000  -0.000000  -0.000000  -0.000000   0.000000  -0.000000
    16  C   -0.000000   0.000000   0.000000   0.000000  -0.000000   0.000000
    17  H    0.000000  -0.000000   0.000000  -0.000000  -0.000000   0.000000
    18  H   -0.000000   0.000000   0.000000   0.000000   0.000000   0.000000
    19  C    0.000001   0.000000  -0.000000  -0.000000   0.000000  -0.000000
[...]
     1  C   -0.000000   0.000000   0.000000   0.000000
     2  C   -0.000000   0.000000   0.000000  -0.000000
     3  H    0.000000  -0.000000  -0.000000  -0.000000
     4  H    0.000000  -0.000000   0.000000   0.000000
     5  C   -0.000000   0.000000   0.000000  -0.000000
     6  C    0.000000   0.000000   0.000000   0.000000
     7  H    0.000000  -0.000000  -0.000000   0.000000
     8  H   -0.000000  -0.000000  -0.000000  -0.000000
     9  C   -0.000000   0.000000  -0.000000   0.000000
    10  H    0.000000   0.000000   0.000000   0.000000
    11  H   -0.000000  -0.000000  -0.000000  -0.000000
    12  C   -0.000000  -0.000000  -0.000000  -0.000000
    13  H    0.000000  -0.000000  -0.000000   0.000000
    14  C    0.000000   0.000000   0.000000   0.000000
    15  H    0.000000  -0.000000  -0.000000   0.000000
    16  C   -0.000000   0.000000  -0.000000  -0.000000
    17  H   -0.000000   0.000000   0.000000  -0.000000
    18  H   -0.000000   0.000000  -0.000000  -0.000000
    19  C    0.000000   0.000000  -0.000000  -0.000000
    20  H    0.000000   0.000000  -0.000000   0.000000
    21  C   -0.000000  -0.000000   0.000000  -0.000000
    22  H    0.000000   0.000000  -0.000000   0.000000
    23  C    0.000000  -0.000000  -0.000000  -0.000000
    24  H    0.000000   0.000000   0.000000   0.000000
    25  H   -0.000000   0.000000  -0.000000  -0.000000
    26  C    0.000000  -0.000001   0.000000   0.000000
    27  H   -0.000000   0.000000   0.000000  -0.000000
    28  H   -0.000000   0.000000  -0.000000  -0.000000
 Mulliken charges and spin densities:
               1          2
     1  C   -0.209754  -0.000000
     2  C   -0.185774  -0.000000
     3  H    0.142467   0.000000
     4  H    0.155781   0.000000
     5  C   -0.165606  -0.000000
     6  C   -0.185692  -0.000000
     7  H    0.150341   0.000000
     8  H    0.155753  -0.000000
     9  C   -0.178379  -0.000001
    10  H    0.117098   0.000000
    11  H    0.129157   0.000000
    12  C   -0.158208  -0.000000
    13  H    0.145679  -0.000000
    14  C   -0.209613   0.000001
    15  H    0.142446  -0.000000
    16  C   -0.174642   0.000000
    17  H    0.107142   0.000000
    18  H    0.124531  -0.000000
    19  C   -0.165487   0.000001
    20  H    0.150260  -0.000000
    21  C   -0.158061  -0.000000
    22  H    0.145661   0.000000
    23  C   -0.178387   0.000001
    24  H    0.129124  -0.000000
    25  H    0.117111  -0.000000
    26  C   -0.174572  -0.000000
    27  H    0.124544   0.000000
    28  H    0.107082   0.000000
 Sum of Mulliken charges =  -0.00000   0.00000
 Mulliken charges and spin densities with hydrogens summed into heavy atoms:
               1          2
     1  C   -0.067287  -0.000000
     2  C   -0.029993  -0.000000
     5  C   -0.015265   0.000000
     6  C   -0.029939  -0.000000
     9  C    0.067875  -0.000000
    12  C   -0.012528  -0.000000
    14  C   -0.067167   0.000001
    16  C    0.057030   0.000000
    19  C   -0.015228   0.000000
    21  C   -0.012400   0.000000
    23  C    0.067848   0.000000
    26  C    0.057054  -0.000000
 Electronic spatial extent (au):  <R**2>=           2368.4614
 Charge=             -0.0000 electrons
 Dipole moment (field-independent basis, Debye):
    X=             -0.0005    Y=              0.0007    Z=              0.0002  Tot=              0.0009
 Quadrupole moment (field-independent basis, Debye-Ang):
   XX=            -72.9395   YY=            -69.7231   ZZ=            -76.3171
   XY=             -3.1723   XZ=             -4.1097   YZ=             -1.6700
 Traceless Quadrupole moment (field-independent basis, Debye-Ang):
   XX=              0.0537   YY=              3.2701   ZZ=             -3.3239
   XY=             -3.1723   XZ=             -4.1097   YZ=             -1.6700
 Octapole moment (field-independent basis, Debye-Ang**2):
  XXX=             -0.0175  YYY=              0.0054  ZZZ=             -0.0002  XYY=              0.0018
  XXY=              0.0034  XXZ=              0.0020  XZZ=             -0.0001  YZZ=              0.0004
  YYZ=              0.0012  XYZ=              0.0008
 Hexadecapole moment (field-independent basis, Debye-Ang**3):
 XXXX=          -2147.7429 YYYY=           -627.7014 ZZZZ=           -483.8447 XXXY=           -125.4765
 XXXZ=           -187.0267 YYYX=            -74.4180 YYYZ=            -12.5918 ZZZX=           -129.5144
 ZZZY=            -26.4881 XXYY=           -455.8088 XXZZ=           -454.6080 YYZZ=           -200.4039
 XXYZ=            -27.7070 YYXZ=            -45.6798 ZZXY=            -49.2710
 N-N= 6.678624812728D+02 E-N=-2.417461097712D+03  KE= 4.641374382913D+02
                          Isotropic Fermi Contact Couplings
        Atom                 a.u.       MegaHertz       Gauss      10(-4) cm-1
     1  C(13)             -0.00000      -0.00002      -0.00001      -0.00001
     2  C(13)             -0.00000      -0.00007      -0.00002      -0.00002
     3  H(1)              -0.00000      -0.00000      -0.00000      -0.00000
     4  H(1)               0.00000       0.00008       0.00003       0.00003
     5  C(13)             -0.00000      -0.00017      -0.00006      -0.00006
     6  C(13)              0.00000       0.00005       0.00002       0.00002
     7  H(1)               0.00000       0.00026       0.00009       0.00009
     8  H(1)              -0.00000      -0.00007      -0.00002      -0.00002
     9  C(13)             -0.00000      -0.00022      -0.00008      -0.00007
    10  H(1)               0.00000       0.00009       0.00003       0.00003
    11  H(1)               0.00000       0.00011       0.00004       0.00004
    12  C(13)              0.00000       0.00011       0.00004       0.00004
    13  H(1)              -0.00000      -0.00022      -0.00008      -0.00007
    14  C(13)              0.00000       0.00004       0.00001       0.00001
    15  H(1)              -0.00000      -0.00001      -0.00000      -0.00000
    16  C(13)              0.00000       0.00012       0.00004       0.00004
    17  H(1)              -0.00000      -0.00003      -0.00001      -0.00001
    18  H(1)              -0.00000      -0.00005      -0.00002      -0.00002
    19  C(13)              0.00000       0.00018       0.00006       0.00006
    20  H(1)              -0.00000      -0.00027      -0.00010      -0.00009
    21  C(13)             -0.00000      -0.00013      -0.00005      -0.00004
    22  H(1)               0.00000       0.00023       0.00008       0.00008
    23  C(13)              0.00000       0.00023       0.00008       0.00008
    24  H(1)              -0.00000      -0.00011      -0.00004      -0.00004
    25  H(1)              -0.00000      -0.00011      -0.00004      -0.00004
    26  C(13)             -0.00000      -0.00013      -0.00005      -0.00004
    27  H(1)               0.00000       0.00005       0.00002       0.00002
    28  H(1)               0.00000       0.00004       0.00001       0.00001
 --------------------------------------------------------
       Center         ----  Spin Dipole Couplings  ----
                      3XX-RR        3YY-RR        3ZZ-RR
 --------------------------------------------------------
     1   Atom       -0.000000      0.000000      0.000000
     2   Atom        0.000000     -0.000000     -0.000000
     3   Atom        0.000000      0.000000     -0.000000
     4   Atom       -0.000000      0.000000      0.000000
     5   Atom       -0.000000     -0.000000      0.000001
     6   Atom       -0.000000      0.000000      0.000000
     7   Atom        0.000000     -0.000000      0.000000
     8   Atom        0.000000      0.000000     -0.000000
     9   Atom       -0.000000      0.000000     -0.000000
    10   Atom        0.000000      0.000000     -0.000000
    11   Atom        0.000000     -0.000000      0.000000
    12   Atom        0.000000      0.000001     -0.000001
    13   Atom       -0.000000      0.000000     -0.000000
    14   Atom        0.000000     -0.000000     -0.000000
    15   Atom       -0.000000     -0.000000      0.000000
    16   Atom        0.000000     -0.000000      0.000000
    17   Atom        0.000000     -0.000000     -0.000000
    18   Atom       -0.000000      0.000000     -0.000000
    19   Atom        0.000000      0.000000     -0.000001
    20   Atom       -0.000000      0.000000     -0.000000
    21   Atom       -0.000000     -0.000001      0.000001
    22   Atom        0.000000     -0.000000      0.000000
    23   Atom        0.000000     -0.000000      0.000000
    24   Atom       -0.000000      0.000000     -0.000000
    25   Atom       -0.000000     -0.000000      0.000000
    26   Atom       -0.000000      0.000000     -0.000000
    27   Atom       -0.000000     -0.000000      0.000000
    28   Atom       -0.000000      0.000000     -0.000000
 --------------------------------------------------------
                        XY            XZ            YZ
 --------------------------------------------------------
     1   Atom        0.000000     -0.000001      0.000000
     2   Atom        0.000000      0.000000     -0.000000
     3   Atom       -0.000000      0.000000      0.000000
     4   Atom       -0.000000     -0.000000      0.000000
     5   Atom        0.000000     -0.000000     -0.000000
     6   Atom       -0.000000     -0.000000     -0.000000
     7   Atom        0.000000      0.000000     -0.000000
     8   Atom        0.000000      0.000000     -0.000000
     9   Atom       -0.000000      0.000000     -0.000000
    10   Atom        0.000000     -0.000000      0.000000
    11   Atom       -0.000000     -0.000000     -0.000000
    12   Atom        0.000000     -0.000000     -0.000000
    13   Atom        0.000000     -0.000000     -0.000000
    14   Atom       -0.000000      0.000001     -0.000000
    15   Atom        0.000000     -0.000000     -0.000000
    16   Atom       -0.000000     -0.000000     -0.000000
    17   Atom        0.000000      0.000000      0.000000
    18   Atom       -0.000000      0.000000     -0.000000
    19   Atom       -0.000000      0.000000      0.000000
    20   Atom       -0.000000     -0.000000      0.000000
    21   Atom       -0.000000      0.000000      0.000000
    22   Atom       -0.000000      0.000000      0.000000
    23   Atom        0.000000     -0.000000      0.000000
    24   Atom        0.000000      0.000000      0.000000
    25   Atom       -0.000000      0.000000     -0.000000
    26   Atom        0.000000      0.000000      0.000000
    27   Atom        0.000000     -0.000000      0.000000
    28   Atom       -0.000000     -0.000000     -0.000000
 --------------------------------------------------------


 ---------------------------------------------------------------------------------
              Anisotropic Spin Dipole Couplings in Principal Axis System
 ---------------------------------------------------------------------------------

       Atom             a.u.   MegaHertz   Gauss  10(-4) cm-1        Axes

              Baa    -0.0000    -0.000    -0.000    -0.000  0.8377 -0.1552  0.5236
     1 C(13)  Bbb     0.0000     0.000     0.000     0.000  0.1399  0.9878  0.0691
              Bcc     0.0000     0.000     0.000     0.000 -0.5279  0.0154  0.8492
 
              Baa    -0.0000    -0.000    -0.000    -0.000 -0.3828  0.2138  0.8987
     2 C(13)  Bbb    -0.0000    -0.000    -0.000    -0.000 -0.2555  0.9104 -0.3254
              Bcc     0.0000     0.000     0.000     0.000  0.8878  0.3543  0.2939
 
              Baa    -0.0000    -0.000    -0.000    -0.000 -0.2686 -0.1937  0.9436
     3 H(1)   Bbb     0.0000     0.000     0.000     0.000  0.2187  0.9417  0.2555
              Bcc     0.0000     0.000     0.000     0.000  0.9381 -0.2750  0.2106
 
              Baa    -0.0000    -0.000    -0.000    -0.000  0.9822  0.1722  0.0748
     4 H(1)   Bbb     0.0000     0.000     0.000     0.000 -0.1402  0.9377 -0.3178
              Bcc     0.0000     0.000     0.000     0.000 -0.1249  0.3016  0.9452
 
              Baa    -0.0000    -0.000    -0.000    -0.000 -0.6379  0.7683  0.0521
     5 C(13)  Bbb    -0.0000    -0.000    -0.000    -0.000  0.7697  0.6339  0.0763
              Bcc     0.0000     0.000     0.000     0.000 -0.0256 -0.0888  0.9957
 
              Baa    -0.0000    -0.000    -0.000    -0.000  0.8364  0.3042  0.4560
     6 C(13)  Bbb     0.0000     0.000     0.000     0.000 -0.1266  0.9166 -0.3791
              Bcc     0.0000     0.000     0.000     0.000 -0.5334  0.2594  0.8052
 
              Baa    -0.0000    -0.000    -0.000    -0.000 -0.4801  0.8394  0.2549
     7 H(1)   Bbb     0.0000     0.000     0.000     0.000  0.7983  0.5385 -0.2697
              Bcc     0.0000     0.000     0.000     0.000  0.3637 -0.0740  0.9286
 
              Baa    -0.0000    -0.000    -0.000    -0.000 -0.1775  0.2495  0.9520
     8 H(1)   Bbb     0.0000     0.000     0.000     0.000 -0.1442  0.9503 -0.2760
              Bcc     0.0000     0.000     0.000     0.000  0.9735  0.1863  0.1327
 
              Baa    -0.0000    -0.000    -0.000    -0.000  0.7626  0.0998 -0.6392
     9 C(13)  Bbb    -0.0000    -0.000    -0.000    -0.000  0.4831  0.5692  0.6653
              Bcc     0.0000     0.000     0.000     0.000 -0.4302  0.8161 -0.3858
 
              Baa    -0.0000    -0.000    -0.000    -0.000  0.5411 -0.2048  0.8156
    10 H(1)   Bbb     0.0000     0.000     0.000     0.000 -0.5287  0.6714  0.5194
              Bcc     0.0000     0.000     0.000     0.000  0.6540  0.7122 -0.2550
 
              Baa    -0.0000    -0.000    -0.000    -0.000  0.5575  0.8277  0.0644
    11 H(1)   Bbb     0.0000     0.000     0.000     0.000 -0.4939  0.2683  0.8271
              Bcc     0.0000     0.000     0.000     0.000  0.6673 -0.4929  0.5583
 
              Baa    -0.0000    -0.000    -0.000    -0.000  0.2045  0.0454  0.9778
    12 C(13)  Bbb     0.0000     0.000     0.000     0.000  0.8817 -0.4425 -0.1639
              Bcc     0.0000     0.000     0.000     0.000  0.4252  0.8956 -0.1305
 
              Baa    -0.0000    -0.000    -0.000    -0.000  0.3883  0.1881  0.9021
    13 H(1)   Bbb    -0.0000    -0.000    -0.000    -0.000  0.9023 -0.2766 -0.3307
              Bcc     0.0000     0.000     0.000     0.000  0.1873  0.9424 -0.2771
 
              Baa    -0.0000    -0.000    -0.000    -0.000 -0.5986 -0.0135  0.8009
    14 C(13)  Bbb    -0.0000    -0.000    -0.000    -0.000  0.1001  0.9908  0.0915
              Bcc     0.0000     0.000     0.000     0.000  0.7947 -0.1349  0.5918
 
              Baa    -0.0000    -0.000    -0.000    -0.000 -0.1477  0.9787  0.1429
    15 H(1)   Bbb    -0.0000    -0.000    -0.000    -0.000  0.9350  0.0911  0.3428
              Bcc     0.0000     0.000     0.000     0.000 -0.3224 -0.1842  0.9285
 
              Baa    -0.0000    -0.000    -0.000    -0.000  0.3557  0.8754  0.3274
    16 C(13)  Bbb    -0.0000    -0.000    -0.000    -0.000  0.6629 -0.4833  0.5719
              Bcc     0.0000     0.000     0.000     0.000 -0.6588 -0.0136  0.7522
 
              Baa    -0.0000    -0.000    -0.000    -0.000 -0.5212  0.8047 -0.2841
    17 H(1)   Bbb    -0.0000    -0.000    -0.000    -0.000 -0.5642 -0.0751  0.8222
              Bcc     0.0000     0.000     0.000     0.000  0.6404  0.5889  0.4931
 
              Baa    -0.0000    -0.000    -0.000    -0.000  0.6005  0.5826  0.5477
    18 H(1)   Bbb    -0.0000    -0.000    -0.000    -0.000 -0.5559 -0.1882  0.8097
              Bcc     0.0000     0.000     0.000     0.000 -0.5748  0.7907 -0.2108
 
              Baa    -0.0000    -0.000    -0.000    -0.000 -0.1379 -0.1547  0.9783
    19 C(13)  Bbb     0.0000     0.000     0.000     0.000  0.5247  0.8264  0.2046
              Bcc     0.0000     0.000     0.000     0.000  0.8401 -0.5415  0.0328
 
              Baa    -0.0000    -0.000    -0.000    -0.000  0.1502 -0.2058  0.9670
    20 H(1)   Bbb    -0.0000    -0.000    -0.000    -0.000  0.8588  0.5117 -0.0245
              Bcc     0.0000     0.000     0.000     0.000 -0.4897  0.8342  0.2536
 
              Baa    -0.0000    -0.000    -0.000    -0.000  0.4763  0.8703 -0.1251
    21 C(13)  Bbb    -0.0000    -0.000    -0.000    -0.000  0.8677 -0.4882 -0.0931
              Bcc     0.0000     0.000     0.000     0.000  0.1421  0.0642  0.9878
 
              Baa    -0.0000    -0.000    -0.000    -0.000  0.2243  0.9313 -0.2869
    22 H(1)   Bbb     0.0000     0.000     0.000     0.000  0.9211 -0.2988 -0.2498
              Bcc     0.0000     0.000     0.000     0.000  0.3183  0.2082  0.9248
 
              Baa    -0.0000    -0.000    -0.000    -0.000 -0.4368  0.8105 -0.3904
    23 C(13)  Bbb     0.0000     0.000     0.000     0.000  0.4787  0.5768  0.6620
              Bcc     0.0000     0.000     0.000     0.000  0.7617  0.1023 -0.6399
 
              Baa    -0.0000    -0.000    -0.000    -0.000  0.6858 -0.5175  0.5118
    24 H(1)   Bbb    -0.0000    -0.000    -0.000    -0.000 -0.4512  0.2494  0.8568
              Bcc     0.0000     0.000     0.000     0.000  0.5710  0.8185  0.0625
 
              Baa    -0.0000    -0.000    -0.000    -0.000  0.5945  0.7796 -0.1967
    25 H(1)   Bbb    -0.0000    -0.000    -0.000    -0.000  0.6074 -0.5958 -0.5255
              Bcc     0.0000     0.000     0.000     0.000  0.5269 -0.1930  0.8277
 
              Baa    -0.0000    -0.000    -0.000    -0.000 -0.6587 -0.0115  0.7523
    26 C(13)  Bbb     0.0000     0.000     0.000     0.000  0.6587 -0.4921  0.5692
              Bcc     0.0000     0.000     0.000     0.000  0.3636  0.8705  0.3317
 
              Baa    -0.0000    -0.000    -0.000    -0.000 -0.5987  0.7746 -0.2038
    27 H(1)   Bbb     0.0000     0.000     0.000     0.000 -0.4984 -0.1611  0.8519
              Bcc     0.0000     0.000     0.000     0.000  0.6270  0.6116  0.4825
 
              Baa    -0.0000    -0.000    -0.000    -0.000  0.6318  0.5543  0.5418
    28 H(1)   Bbb     0.0000     0.000     0.000     0.000 -0.6655  0.0297  0.7458
              Bcc     0.0000     0.000     0.000     0.000 -0.3973  0.8318 -0.3877
 

 ---------------------------------------------------------------------------------

 No NMR shielding tensors so no spin-rotation constants.
 Leave Link  601 at Mon Aug  3 13:52:09 2020, MaxMem=  6442450944 cpu:               8.0 elap:               0.4
 (Enter /scratch/scicomp/CentOS/7.3.1611/Haswell/software/Gaussian/g16/l9999.exe)
 1\1\GINC-ATLAS-205\SP\UwB97XD\def2TZVP\C12H16\BOCHEN\03-Aug-2020\0\\#p
  uwb97xd guess=mix def2tzvp # scrf=(iefpcm,solvent=Cyclohexane,read) n
 osym 6d 10f\\endo-2 xp-pcm for eta=3\\0,1\C,0,-3.111354,-0.438024,0.28
 8476\C,0,-0.838887,-0.280035,-1.396455\H,0,-4.018848,-0.512178,0.87639
 1\H,0,0.074286,-0.210856,-1.975395\C,0,1.243587,1.445746,0.898709\C,0,
 0.838887,0.280035,1.396455\H,0,0.661682,2.345979,1.057759\H,0,-0.07428
 6,0.210856,1.975395\C,0,1.6632,-0.964107,1.227344\H,0,2.298573,-1.0724
 96,2.116318\H,0,1.015835,-1.842319,1.205078\C,0,2.490124,1.536957,0.13
 6281\H,0,2.892627,2.517404,-0.088621\C,0,3.111354,0.438024,-0.288476\H
 ,0,4.018848,0.512178,-0.876391\C,0,2.534434,-0.926987,-0.030159\H,0,1.
 936253,-1.217234,-0.902586\H,0,3.331183,-1.668816,0.048441\C,0,-1.2435
 87,-1.445746,-0.898709\H,0,-0.661682,-2.345979,-1.057759\C,0,-2.490124
 ,-1.536957,-0.136281\H,0,-2.892627,-2.517404,0.088621\C,0,-1.6632,0.96
 4107,-1.227344\H,0,-1.015835,1.842319,-1.205078\H,0,-2.298573,1.072496
 ,-2.116318\C,0,-2.534434,0.926987,0.030159\H,0,-3.331183,1.668816,-0.0
 48441\H,0,-1.936253,1.217234,0.902586\\Version=ES64L-G16RevB.01\HF=-46
 6.8602924\S2=0.\S2-1=0.\S2A=0.\RMSD=9.162e-09\Dipole=-0.0002064,0.0002
 871,0.0000683\Quadrupole=0.0399493,2.4312624,-2.4712117,-2.3585025,-3.
 0554438,-1.2415737\PG=CI [X(C12H16)]\\@


 ON A CLEAR DISK YOU CAN SEEK FOREVER.
 Job cpu time:       0 days  1 hours 58 minutes  6.3 seconds.
 Elapsed time:       0 days  0 hours  4 minutes 58.5 seconds.
 File lengths (MBytes):  RWF=    651 Int=      0 D2E=      0 Chk=     24 Scr=      1
 Normal termination of Gaussian 16 at Mon Aug  3 13:52:09 2020.
