 Entering Gaussian System, Link 0=g16
 Input=meso-TS_0_1_pcm.com
 Output=meso-TS_0_1_pcm.log
 Initial command:
 /scratch/scicomp/CentOS/7.3.1611/Haswell/software/Gaussian/g16/l1.exe "/scratch/bochen/cyclohexadiene-dimerization/wb97xd-def2tzvp/xp-pcm/meso/Gau-50678.inp" -scrdir="/scratch/bochen/cyclohexadiene-dimerization/wb97xd-def2tzvp/xp-pcm/meso/"
 Entering Link 1 = /scratch/scicomp/CentOS/7.3.1611/Haswell/software/Gaussian/g16/l1.exe PID=     50679.
  
 Copyright (c) 1988-2017, Gaussian, Inc.  All Rights Reserved.
  
 This is part of the Gaussian(R) 16 program.  It is based on
 the Gaussian(R) 09 system (copyright 2009, Gaussian, Inc.),
 the Gaussian(R) 03 system (copyright 2003, Gaussian, Inc.),
 the Gaussian(R) 98 system (copyright 1998, Gaussian, Inc.),
 the Gaussian(R) 94 system (copyright 1995, Gaussian, Inc.),
 the Gaussian 92(TM) system (copyright 1992, Gaussian, Inc.),
 the Gaussian 90(TM) system (copyright 1990, Gaussian, Inc.),
 the Gaussian 88(TM) system (copyright 1988, Gaussian, Inc.),
 the Gaussian 86(TM) system (copyright 1986, Carnegie Mellon
 University), and the Gaussian 82(TM) system (copyright 1983,
 Carnegie Mellon University). Gaussian is a federally registered
 trademark of Gaussian, Inc.
  
 This software contains proprietary and confidential information,
 including trade secrets, belonging to Gaussian, Inc.
  
 This software is provided under written license and may be
 used, copied, transmitted, or stored only in accord with that
 written license.
  
 The following legend is applicable only to US Government
 contracts under FAR:
  
                    RESTRICTED RIGHTS LEGEND
  
 Use, reproduction and disclosure by the US Government is
 subject to restrictions as set forth in subparagraphs (a)
 and (c) of the Commercial Computer Software - Restricted
 Rights clause in FAR 52.227-19.
  
 Gaussian, Inc.
 340 Quinnipiac St., Bldg. 40, Wallingford CT 06492
  
  
 ---------------------------------------------------------------
 Warning -- This program may not be used in any manner that
 competes with the business of Gaussian, Inc. or will provide
 assistance to any competitor of Gaussian, Inc.  The licensee
 of this program is prohibited from giving any competitor of
 Gaussian, Inc. access to this program.  By using this program,
 the user acknowledges that Gaussian, Inc. is engaged in the
 business of creating and licensing software in the field of
 computational chemistry and represents and warrants to the
 licensee that it is not a competitor of Gaussian, Inc. and that
 it will not use this program in any manner prohibited above.
 ---------------------------------------------------------------
  

 Cite this work as:
 Gaussian 16, Revision B.01,
 M. J. Frisch, G. W. Trucks, H. B. Schlegel, G. E. Scuseria, 
 M. A. Robb, J. R. Cheeseman, G. Scalmani, V. Barone, 
 G. A. Petersson, H. Nakatsuji, X. Li, M. Caricato, A. V. Marenich, 
 J. Bloino, B. G. Janesko, R. Gomperts, B. Mennucci, H. P. Hratchian, 
 J. V. Ortiz, A. F. Izmaylov, J. L. Sonnenberg, D. Williams-Young, 
 F. Ding, F. Lipparini, F. Egidi, J. Goings, B. Peng, A. Petrone, 
 T. Henderson, D. Ranasinghe, V. G. Zakrzewski, J. Gao, N. Rega, 
 G. Zheng, W. Liang, M. Hada, M. Ehara, K. Toyota, R. Fukuda, 
 J. Hasegawa, M. Ishida, T. Nakajima, Y. Honda, O. Kitao, H. Nakai, 
 T. Vreven, K. Throssell, J. A. Montgomery, Jr., J. E. Peralta, 
 F. Ogliaro, M. J. Bearpark, J. J. Heyd, E. N. Brothers, K. N. Kudin, 
 V. N. Staroverov, T. A. Keith, R. Kobayashi, J. Normand, 
 K. Raghavachari, A. P. Rendell, J. C. Burant, S. S. Iyengar, 
 J. Tomasi, M. Cossi, J. M. Millam, M. Klene, C. Adamo, R. Cammi, 
 J. W. Ochterski, R. L. Martin, K. Morokuma, O. Farkas, 
 J. B. Foresman, and D. J. Fox, Gaussian, Inc., Wallingford CT, 2016.
 
 ******************************************
 Gaussian 16:  ES64L-G16RevB.01 20-Dec-2017
                 3-Aug-2020 
 ******************************************
 %nproc=24
 Will use up to   24 processors via shared memory.
 %mem=48GB
 ----------------------------------------------------------------------
 #p uwb97xd guess=mix def2tzvp # scrf=(iefpcm,solvent=Cyclohexane,read)
  nosym 6d 10f
 ----------------------------------------------------------------------
 1/38=1,40=2,172=1/1;
 2/12=2,15=1,17=6,18=5,40=1/2;
 3/5=44,7=101,8=22,11=2,25=1,30=1,70=2203,72=17,74=-58,116=2/1,2,3;
 4/13=-1/1;
 5/5=2,38=5,53=17/2;
 6/7=2,8=2,9=2,10=2,28=1/1;
 99/5=1,9=1/99;
 Leave Link    1 at Mon Aug  3 16:19:43 2020, MaxMem=  6442450944 cpu:               1.9 elap:               0.1
 (Enter /scratch/scicomp/CentOS/7.3.1611/Haswell/software/Gaussian/g16/l101.exe)
 -----------------------
 endo-2 xp-pcm for eta=3
 -----------------------
 Symbolic Z-matrix:
 Charge =  0 Multiplicity = 1
 6                    -3.11898  -0.43166   0.24744 
 6                    -0.49894  -0.16093  -0.8422 
 1                    -4.08399  -0.5488    0.72595 
 1                     0.35393  -0.11577  -1.5118 
 6                     1.10479   1.41914   0.68092 
 6                     0.49894   0.16093   0.8422 
 1                     0.54437   2.32226   0.88638 
 1                    -0.35393   0.11577   1.5118 
 6                     1.46264  -0.99981   0.98751 
 1                     1.8988   -0.93753   1.99037 
 1                     0.92959  -1.9497    0.93613 
 6                     2.40634   1.52255   0.11811 
 1                     2.82445   2.50921  -0.04557 
 6                     3.11898   0.43166  -0.24744 
 1                     4.08399   0.5488   -0.72595 
 6                     2.59228  -0.95858  -0.04339 
 1                     2.24859  -1.35703  -1.0065 
 1                     3.40126  -1.62252   0.27102 
 6                    -1.10479  -1.41914  -0.68092 
 1                    -0.54437  -2.32226  -0.88638 
 6                    -2.40634  -1.52255  -0.11811 
 1                    -2.82445  -2.50921   0.04557 
 6                    -1.46264   0.99981  -0.98751 
 1                    -0.92959   1.9497   -0.93613 
 1                    -1.8988    0.93753  -1.99037 
 6                    -2.59228   0.95858   0.04339 
 1                    -3.40126   1.62252  -0.27102 
 1                    -2.24859   1.35703   1.0065 
 
 ITRead=  0  0  0  0  0  0  0  0  0  0  0  0  0  0  0  0  0  0  0  0
 ITRead=  0  0  0  0  0  0  0  0
 MicOpt= -1 -1 -1 -1 -1 -1 -1 -1 -1 -1 -1 -1 -1 -1 -1 -1 -1 -1 -1 -1
 MicOpt= -1 -1 -1 -1 -1 -1 -1 -1
 NAtoms=     28 NQM=       28 NQMF=       0 NMMI=      0 NMMIF=      0
                NMic=       0 NMicF=      0.
                    Isotopes and Nuclear Properties:
 (Nuclear quadrupole moments (NQMom) in fm**2, nuclear magnetic moments (NMagM)
  in nuclear magnetons)

  Atom         1           2           3           4           5           6           7           8           9          10
 IAtWgt=          12          12           1           1          12          12           1           1          12           1
 AtmWgt=  12.0000000  12.0000000   1.0078250   1.0078250  12.0000000  12.0000000   1.0078250   1.0078250  12.0000000   1.0078250
 NucSpn=           0           0           1           1           0           0           1           1           0           1
 AtZEff=  -0.0000000  -0.0000000  -0.0000000  -0.0000000  -0.0000000  -0.0000000  -0.0000000  -0.0000000  -0.0000000  -0.0000000
 NQMom=    0.0000000   0.0000000   0.0000000   0.0000000   0.0000000   0.0000000   0.0000000   0.0000000   0.0000000   0.0000000
 NMagM=    0.0000000   0.0000000   2.7928460   2.7928460   0.0000000   0.0000000   2.7928460   2.7928460   0.0000000   2.7928460
 AtZNuc=   6.0000000   6.0000000   1.0000000   1.0000000   6.0000000   6.0000000   1.0000000   1.0000000   6.0000000   1.0000000

  Atom        11          12          13          14          15          16          17          18          19          20
 IAtWgt=           1          12           1          12           1          12           1           1          12           1
 AtmWgt=   1.0078250  12.0000000   1.0078250  12.0000000   1.0078250  12.0000000   1.0078250   1.0078250  12.0000000   1.0078250
 NucSpn=           1           0           1           0           1           0           1           1           0           1
 AtZEff=  -0.0000000  -0.0000000  -0.0000000  -0.0000000  -0.0000000  -0.0000000  -0.0000000  -0.0000000  -0.0000000  -0.0000000
 NQMom=    0.0000000   0.0000000   0.0000000   0.0000000   0.0000000   0.0000000   0.0000000   0.0000000   0.0000000   0.0000000
 NMagM=    2.7928460   0.0000000   2.7928460   0.0000000   2.7928460   0.0000000   2.7928460   2.7928460   0.0000000   2.7928460
 AtZNuc=   1.0000000   6.0000000   1.0000000   6.0000000   1.0000000   6.0000000   1.0000000   1.0000000   6.0000000   1.0000000

  Atom        21          22          23          24          25          26          27          28
 IAtWgt=          12           1          12           1           1          12           1           1
 AtmWgt=  12.0000000   1.0078250  12.0000000   1.0078250   1.0078250  12.0000000   1.0078250   1.0078250
 NucSpn=           0           1           0           1           1           0           1           1
 AtZEff=  -0.0000000  -0.0000000  -0.0000000  -0.0000000  -0.0000000  -0.0000000  -0.0000000  -0.0000000
 NQMom=    0.0000000   0.0000000   0.0000000   0.0000000   0.0000000   0.0000000   0.0000000   0.0000000
 NMagM=    0.0000000   2.7928460   0.0000000   2.7928460   2.7928460   0.0000000   2.7928460   2.7928460
 AtZNuc=   6.0000000   1.0000000   6.0000000   1.0000000   1.0000000   6.0000000   1.0000000   1.0000000
 Leave Link  101 at Mon Aug  3 16:19:43 2020, MaxMem=  6442450944 cpu:               2.4 elap:               0.1
 (Enter /scratch/scicomp/CentOS/7.3.1611/Haswell/software/Gaussian/g16/l202.exe)
                          Input orientation:                          
 ---------------------------------------------------------------------
 Center     Atomic      Atomic             Coordinates (Angstroms)
 Number     Number       Type             X           Y           Z
 ---------------------------------------------------------------------
      1          6           0       -3.118984   -0.431661    0.247435
      2          6           0       -0.498940   -0.160927   -0.842197
      3          1           0       -4.083986   -0.548798    0.725945
      4          1           0        0.353927   -0.115768   -1.511796
      5          6           0        1.104795    1.419144    0.680915
      6          6           0        0.498940    0.160927    0.842197
      7          1           0        0.544367    2.322264    0.886379
      8          1           0       -0.353927    0.115768    1.511797
      9          6           0        1.462637   -0.999808    0.987512
     10          1           0        1.898804   -0.937531    1.990366
     11          1           0        0.929588   -1.949702    0.936130
     12          6           0        2.406337    1.522553    0.118110
     13          1           0        2.824446    2.509213   -0.045570
     14          6           0        3.118984    0.431661   -0.247435
     15          1           0        4.083986    0.548798   -0.725945
     16          6           0        2.592283   -0.958575   -0.043388
     17          1           0        2.248595   -1.357032   -1.006499
     18          1           0        3.401257   -1.622519    0.271019
     19          6           0       -1.104795   -1.419144   -0.680915
     20          1           0       -0.544367   -2.322264   -0.886379
     21          6           0       -2.406337   -1.522553   -0.118110
     22          1           0       -2.824445   -2.509213    0.045570
     23          6           0       -1.462637    0.999808   -0.987512
     24          1           0       -0.929588    1.949702   -0.936130
     25          1           0       -1.898804    0.937531   -1.990366
     26          6           0       -2.592283    0.958575    0.043388
     27          1           0       -3.401256    1.622519   -0.271019
     28          1           0       -2.248595    1.357032    1.006498
 ---------------------------------------------------------------------
                    Distance matrix (angstroms):
                    1          2          3          4          5
     1  C    0.000000
     2  C    2.850478   0.000000
     3  H    1.083477   3.932184   0.000000
     4  H    3.905866   1.085258   4.988995   0.000000
     5  C    4.631813   2.718172   5.549619   2.779881   0.000000
     6  C    3.714065   1.984071   4.639012   2.374631   1.405767
     7  H    4.627363   3.200422   5.448889   3.425129   1.082553
     8  H    3.089309   2.374632   3.869438   3.113965   2.125329
     9  C    4.675656   2.810577   5.571073   2.873553   2.464423
    10  H    5.335908   3.791530   6.127287   3.914981   2.810521
    11  H    4.378320   2.898768   5.209859   3.112401   3.383039
    12  C    5.862154   3.492410   6.839901   3.090805   1.421779
    13  H    6.637692   4.336952   7.594281   3.891505   2.161766
    14  C    6.316840   3.714065   7.334272   3.089309   2.427738
    15  H    7.334272   4.639012   8.368301   3.869438   3.407688
    16  C    5.742890   3.290896   6.732931   2.806561   2.896685
    17  H    5.589237   3.001102   6.614846   2.320739   3.444241
    18  H    6.628140   4.311269   7.575533   3.838613   3.833206
    19  C    2.427738   1.405767   3.407688   2.125329   3.846134
    20  H    3.389479   2.162266   4.274772   2.463068   4.378845
    21  C    1.353342   2.452854   2.115451   3.397126   4.649739
    22  H    2.108014   3.422068   2.427464   4.272706   5.592368
    23  C    2.513500   1.515630   3.493649   2.195288   3.090501
    24  H    3.444586   2.156162   4.353760   2.498993   2.652365
    25  H    2.893316   2.117669   3.789794   2.532442   4.048370
    26  C    1.500602   2.533699   2.227832   3.500423   3.779808
    27  H    2.137318   3.454036   2.484889   4.320020   4.609993
    28  H    2.129126   2.963641   2.660744   3.909484   3.369731
                    6          7          8          9         10
     6  C    0.000000
     7  H    2.162266   0.000000
     8  H    1.085258   2.463068   0.000000
     9  C    1.515630   3.448131   2.195288   0.000000
    10  H    2.117669   3.698588   2.532442   1.095370   0.000000
    11  H    2.156162   4.289588   2.498994   1.090449   1.753649
    12  C    2.452854   2.167189   3.397126   2.829971   3.132881
    13  H    3.422069   2.470271   4.272707   3.903205   4.108758
    14  C    2.850478   3.389479   3.905867   2.513500   2.893316
    15  H    3.932184   4.274772   4.988995   3.493649   3.789794
    16  C    2.533699   3.977729   3.500424   1.529887   2.148840
    17  H    2.963641   4.474885   3.909485   2.172883   3.046233
    18  H    3.454036   4.909359   4.320021   2.158559   2.383847
    19  C    2.718172   4.378845   2.779882   3.090501   4.048370
    20  H    3.200422   5.089170   3.425130   3.047691   4.020228
    21  C    3.492410   4.949573   3.090806   4.057662   4.829302
    22  H    4.336952   5.949708   3.891504   4.641619   5.344296
    23  C    2.810577   3.047691   2.873554   4.056650   4.890841
    24  H    2.898768   2.373370   3.112402   4.257082   4.990019
    25  H    3.791530   4.020228   3.914982   4.890841   5.812393
    26  C    3.290896   3.522620   2.806561   4.600979   5.249362
    27  H    4.311268   4.170990   3.838612   5.667270   6.305423
    28  H    3.001102   2.957488   2.320739   4.396396   4.840861
                   11         12         13         14         15
    11  H    0.000000
    12  C    3.860894   0.000000
    13  H    4.943293   1.084022   0.000000
    14  C    3.444586   1.353342   2.108014   0.000000
    15  H    4.353760   2.115451   2.427463   1.083477   0.000000
    16  C    2.169411   2.493322   3.475551   1.500602   2.227832
    17  H    2.421744   3.095422   4.025275   2.129126   2.660744
    18  H    2.580420   3.302230   4.183796   2.137318   2.484889
    19  C    2.652365   4.649739   5.592369   4.631813   5.549619
    20  H    2.373370   4.949573   5.949708   4.627363   5.448889
    21  C    3.524525   5.700026   6.604657   5.862154   6.839901
    22  H    3.898578   6.604656   7.556644   6.637691   7.594280
    23  C    4.257082   4.057662   4.641620   4.675656   5.571073
    24  H    4.708210   3.524525   3.898579   4.378320   5.209859
    25  H    4.990019   4.829302   5.344297   5.335908   6.127287
    26  C    4.653884   5.030890   5.635011   5.742890   6.732931
    27  H    5.742315   5.821473   6.292569   6.628139   7.575532
    28  H    4.586969   4.741837   5.307552   5.589236   6.614846
                   16         17         18         19         20
    16  C    0.000000
    17  H    1.097484   0.000000
    18  H    1.092754   1.741024   0.000000
    19  C    3.779808   3.369731   4.609994   0.000000
    20  H    3.522620   2.957489   4.170991   1.082553   0.000000
    21  C    5.030890   4.741838   5.821474   1.421779   2.167189
    22  H    5.635010   5.307552   6.292569   2.161765   2.470270
    23  C    4.600979   4.396396   5.667271   2.464423   3.448131
    24  H    4.653884   4.586969   5.742316   3.383039   4.289588
    25  H    5.249362   4.840861   6.305423   2.810521   3.698588
    26  C    5.528356   5.467943   6.529654   2.896685   3.977729
    27  H    6.529653   6.429578   7.556339   3.833205   4.909358
    28  H    5.467943   5.625213   6.429579   3.444241   4.474885
                   21         22         23         24         25
    21  C    0.000000
    22  H    1.084022   0.000000
    23  C    2.829971   3.903205   0.000000
    24  H    3.860894   4.943293   1.090449   0.000000
    25  H    3.132881   4.108758   1.095370   1.753649   0.000000
    26  C    2.493322   3.475551   1.529887   2.169411   2.148840
    27  H    3.302230   4.183796   2.158559   2.580419   2.383847
    28  H    3.095422   4.025275   2.172882   2.421743   3.046232
                   26         27         28
    26  C    0.000000
    27  H    1.092754   0.000000
    28  H    1.097484   1.741023   0.000000
 Symmetry turned off by external request.
 Stoichiometry    C12H16
 Framework group  CI[X(C12H16)]
 Deg. of freedom    39
 Full point group                 CI      NOp   2
 Rotational constants (GHZ):           1.9482755           0.6370860           0.5524142
 Leave Link  202 at Mon Aug  3 16:19:43 2020, MaxMem=  6442450944 cpu:               0.3 elap:               0.0
 (Enter /scratch/scicomp/CentOS/7.3.1611/Haswell/software/Gaussian/g16/l301.exe)
 Standard basis: def2TZVP (6D, 10F)
 Ernie: Thresh=  0.10000D-02 Tol=  0.10000D-05 Strict=F.
   528 basis functions,   740 primitive gaussians,   528 cartesian basis functions
    44 alpha electrons       44 beta electrons
       nuclear repulsion energy       691.7044051845 Hartrees.
 IExCor= 4639 DFT=T Ex+Corr=wB97XD ExCW=0 ScaHFX=  1.000000
 ScaDFX=  1.000000  1.000000  1.000000  1.000000 ScalE2=  1.000000  1.000000
 IRadAn=      5 IRanWt=     -1 IRanGd=            0 ICorTp=0 IEmpDi=121
 HFx  wShort=  0.000000 wLong=  0.200000 cFull=  0.222036 cShort=  0.000000 cLong=  0.777964
 DFx  wShort=  0.000000 wLong=  0.200000 cFull=  0.000000 cShort=  0.000000 cLong=  1.000000
 NAtoms=   28 NActive=   28 NUniq=   28 SFac= 1.00D+00 NAtFMM=   60 NAOKFM=F Big=F
 Integral buffers will be    131072 words long.
 Raffenetti 2 integral format.
 Two-electron integral symmetry is turned off.
 R6Disp:  Grimme-D2 Dispersion energy=       -0.0229093159 Hartrees.
 Nuclear repulsion after empirical dispersion term =      691.6814958685 Hartrees.
 Using the following non-standard input for PCM:
 norep pcmdoc geomview  nodis nocav g03defaults tsare=0.075
 Warning! Using old PCM defaults because the g03defaults keyword was found.
 These settings can be overridden by following keywords.
 nsfe=28
 NVESolv=36  SolvMW=84.1595   Rsolv=2.815
 eps=2.0165 RhoS=0.7781
 --- end of non-standard input.
 Reading user-defined spheres from input:
 ISph  on   Nord    Re0     Alpha      Xe            Ye            Ze
 --- end of user-defined spheres data.
 ------------------------------------------------------------------------------
 Polarizable Continuum Model (PCM)
 =================================
 Model                : PCM.
 Atomic radii         : UA0 (Simple United Atom Topological Model).
 Polarization charges : Total charges.
 Charge compensation  : None.
 Solution method      : On-the-fly selection.
 Cavity type          : SES (Solvent Excluding Surface) (Alpha=1.000).
 Cavity algorithm     : GePol (RMin=0.200 OFac=0.890).
                        User-defined sphere list used, NSphG=   28.
                        Tesserae with average area of 0.075 Ang**2.
                        Smoothing algorithm: None.
                        Polarization charges: point-like.
                        Self-potential: constant (ISelfS= 1).
                        Self-field    : global E.n sum rule (ISelfD= 3).
 Solvent              : CycloHexane, Eps=   2.016500 Eps(inf)=   2.035188
                        RSolv=   2.815000 Ang.
 ------------------------------------------------------------------------------
 GePol: Number of generator spheres                  =      28
 GePol: Total number of spheres                      =     173
 GePol: Number of exposed spheres                    =     125 ( 72.25%)
 GePol: Number of tesserae                           =    4595
 GePol: Average area of tesserae                     =       0.05 Ang**2
 GePol: Minimum area of tessera                      =   0.10D-02 Ang**2
 GePol: Maximum area of tessera                      =    0.12623 Ang**2
 GePol: Number of small tesserae                     =       0
 GePol: Fraction of small tesserae (<1% of avg)      =       0.00%
 GePol: Total count of vertices                      =   16239
 GePol: Maximum number of vertices in a tessera      =       7
 GePol: Cavity surface area                          =    218.732 Ang**2
 GePol: Cavity volume                                =    245.980 Ang**3
 Leave Link  301 at Mon Aug  3 16:19:43 2020, MaxMem=  6442450944 cpu:               7.6 elap:               0.4
 (Enter /scratch/scicomp/CentOS/7.3.1611/Haswell/software/Gaussian/g16/l302.exe)
 NPDir=0 NMtPBC=     1 NCelOv=     1 NCel=       1 NClECP=     1 NCelD=      1
         NCelK=      1 NCelE2=     1 NClLst=     1 CellRange=     0.0.
 One-electron integrals computed using PRISM.
   1 Symmetry operations used in ECPInt.
 ECPInt:  NShTT=   19306 NPrTT=   56928 LenC2=   18528 LenP2D=   42284.
 LDataN:  DoStor=T MaxTD1= 6 Len=  172
 NBasis=   528 RedAO= T EigKep=  2.53D-05  NBF=   528
 NBsUse=   528 1.00D-06 EigRej= -1.00D+00 NBFU=   528
 Precomputing XC quadrature grid using
 IXCGrd= 4 IRadAn=           5 IRanWt=          -1 IRanGd=           0 AccXCQ= 0.00D+00.
 Generated NRdTot=       0 NPtTot=           0 NUsed=           0 NTot=          32
 NSgBfM=   526   526   526   526   526 MxSgAt=    28 MxSgA2=    28.
 Leave Link  302 at Mon Aug  3 16:19:44 2020, MaxMem=  6442450944 cpu:              12.8 elap:               0.6
 (Enter /scratch/scicomp/CentOS/7.3.1611/Haswell/software/Gaussian/g16/l303.exe)
 DipDrv:  MaxL=1.
 Leave Link  303 at Mon Aug  3 16:19:44 2020, MaxMem=  6442450944 cpu:               1.5 elap:               0.1
 (Enter /scratch/scicomp/CentOS/7.3.1611/Haswell/software/Gaussian/g16/l401.exe)
 ExpMin= 9.52D-02 ExpMax= 1.36D+04 ExpMxC= 4.63D+02 IAcc=3 IRadAn=         5 AccDes= 0.00D+00
 Harris functional with IExCor= 4639 and IRadAn=       5 diagonalized for initial guess.
 HarFok:  IExCor= 4639 AccDes= 0.00D+00 IRadAn=         5 IDoV= 1 UseB2=F ITyADJ=14
 ICtDFT=  3500011 ScaDFX=  1.000000  1.000000  1.000000  1.000000
 FoFCou: FMM=F IPFlag=           0 FMFlag=      100000 FMFlg1=           0
         NFxFlg=           0 DoJE=T BraDBF=F KetDBF=T FulRan=T
         wScrn=  0.000000 ICntrl=       500 IOpCl=  0 I1Cent=   200000004 NGrid=           0
         NMat0=    1 NMatS0=      1 NMatT0=    0 NMatD0=    1 NMtDS0=    0 NMtDT0=    0
 Symmetry not used in FoFCou.
 Harris En= -444.617727485145    
 JPrj=0 DoOrth=F DoCkMO=T.
 Mixing orbitals, IMix= 1 IMixAn=  0 NRI=1 NE=   44 Coef=  7.07106781D-01  7.07106781D-01
 Mixing orbitals, IMix= 1 IMixAn=  0 NRI=1 NE=   44 Coef= -7.07106781D-01  7.07106781D-01
 Initial guess <Sx>= 0.0000 <Sy>= 0.0000 <Sz>= 0.0000 <S**2>= 1.0000 S= 0.6180
 Leave Link  401 at Mon Aug  3 16:19:47 2020, MaxMem=  6442450944 cpu:              59.9 elap:               2.6
 (Enter /scratch/scicomp/CentOS/7.3.1611/Haswell/software/Gaussian/g16/l502.exe)
 Two-electron integral symmetry not used.
 UHF open shell SCF:
 Using DIIS extrapolation, IDIIS=  1040.
 NGot=  6442450944 LenX=  6441877030 LenY=  6441597718
 Requested convergence on RMS density matrix=1.00D-08 within 128 cycles.
 Requested convergence on MAX density matrix=1.00D-06.
 Requested convergence on             energy=1.00D-06.
 No special actions if energy rises.
 Fock matrices will be formed incrementally for  20 cycles.

 Cycle   1  Pass 1  IDiag  1:
 FoFJK:  IHMeth= 1 ICntrl=       0 DoSepK=T KAlg= 0 I1Cent=           0 FoldK=F
 IRaf=         1 NMat=       1 IRICut=       1 DoRegI=T DoRafI=F ISym2E= 0 IDoP0=0 IntGTp=1.
 FoFCou: FMM=F IPFlag=           0 FMFlag=      100000 FMFlg1=           0
         NFxFlg=           0 DoJE=T BraDBF=F KetDBF=F FulRan=T
         wScrn=  0.000000 ICntrl=       500 IOpCl=  0 I1Cent=           0 NGrid=           0
         NMat0=    1 NMatS0=      1 NMatT0=    0 NMatD0=    1 NMtDS0=    0 NMtDT0=    0
 Symmetry not used in FoFCou.
 Inv3:  Mode=1 IEnd=    63342075.
 Iteration    1 A*A^-1 deviation from unit magnitude is 4.55D-15 for   1809.
 Iteration    1 A*A^-1 deviation from orthogonality  is 1.49D-14 for   1809    143.
 Iteration    1 A^-1*A deviation from unit magnitude is 3.66D-15 for   3913.
 Iteration    1 A^-1*A deviation from orthogonality  is 3.28D-15 for   1809    143.
 E= -466.651345101565    
 DIIS: error= 5.57D-02 at cycle   1 NSaved=   1.
 NSaved= 1 IEnMin= 1 EnMin= -466.651345101565     IErMin= 1 ErrMin= 5.57D-02
 ErrMax= 5.57D-02  0.00D+00 EMaxC= 1.00D-01 BMatC= 4.10D+00 BMatP= 4.10D+00
 IDIUse=3 WtCom= 4.43D-01 WtEn= 5.57D-01
 Coeff-Com:  0.100D+01
 Coeff-En:   0.100D+01
 Coeff:      0.100D+01
 Gap=     0.214 Goal=   None    Shift=    0.000
 Gap=     0.214 Goal=   None    Shift=    0.000
 GapD=    0.214 DampG=1.000 DampE=0.500 DampFc=0.5000 IDamp=-1.
 Damping current iteration by 5.00D-01
 RMSDP=1.41D-03 MaxDP=9.22D-02              OVMax= 1.46D-01

 Cycle   2  Pass 1  IDiag  1:
 RMSU=  6.88D-04    CP:  9.75D-01
 E= -466.728022314102     Delta-E=       -0.076677212537 Rises=F Damp=T
 DIIS: error= 2.64D-02 at cycle   2 NSaved=   2.
 NSaved= 2 IEnMin= 2 EnMin= -466.728022314102     IErMin= 2 ErrMin= 2.64D-02
 ErrMax= 2.64D-02  0.00D+00 EMaxC= 1.00D-01 BMatC= 9.22D-01 BMatP= 4.10D+00
 IDIUse=3 WtCom= 7.36D-01 WtEn= 2.64D-01
 Coeff-Com: -0.864D+00 0.186D+01
 Coeff-En:   0.000D+00 0.100D+01
 Coeff:     -0.635D+00 0.164D+01
 Gap=     0.233 Goal=   None    Shift=    0.000
 Gap=     0.233 Goal=   None    Shift=    0.000
 RMSDP=8.79D-04 MaxDP=4.81D-02 DE=-7.67D-02 OVMax= 6.34D-02

 Cycle   3  Pass 1  IDiag  1:
 RMSU=  4.74D-04    CP:  9.43D-01  2.04D+00
 E= -466.807854431601     Delta-E=       -0.079832117499 Rises=F Damp=F
 DIIS: error= 3.48D-03 at cycle   3 NSaved=   3.
 NSaved= 3 IEnMin= 3 EnMin= -466.807854431601     IErMin= 3 ErrMin= 3.48D-03
 ErrMax= 3.48D-03  0.00D+00 EMaxC= 1.00D-01 BMatC= 1.84D-02 BMatP= 9.22D-01
 IDIUse=3 WtCom= 9.65D-01 WtEn= 3.48D-02
 Coeff-Com: -0.311D+00 0.671D+00 0.640D+00
 Coeff-En:   0.000D+00 0.000D+00 0.100D+01
 Coeff:     -0.300D+00 0.648D+00 0.652D+00
 Gap=     0.238 Goal=   None    Shift=    0.000
 Gap=     0.238 Goal=   None    Shift=    0.000
 RMSDP=1.41D-04 MaxDP=7.47D-03 DE=-7.98D-02 OVMax= 3.12D-02

 Cycle   4  Pass 1  IDiag  1:
 RMSU=  1.23D-04    CP:  9.39D-01  2.12D+00  9.37D-01
 E= -466.813453636169     Delta-E=       -0.005599204568 Rises=F Damp=F
 DIIS: error= 2.35D-03 at cycle   4 NSaved=   4.
 NSaved= 4 IEnMin= 4 EnMin= -466.813453636169     IErMin= 4 ErrMin= 2.35D-03
 ErrMax= 2.35D-03  0.00D+00 EMaxC= 1.00D-01 BMatC= 7.04D-04 BMatP= 1.84D-02
 IDIUse=3 WtCom= 9.77D-01 WtEn= 2.35D-02
 Coeff-Com:  0.113D+00-0.244D+00-0.118D+00 0.125D+01
 Coeff-En:   0.000D+00 0.000D+00 0.000D+00 0.100D+01
 Coeff:      0.110D+00-0.238D+00-0.115D+00 0.124D+01
 Gap=     0.241 Goal=   None    Shift=    0.000
 Gap=     0.241 Goal=   None    Shift=    0.000
 RMSDP=1.29D-04 MaxDP=7.00D-03 DE=-5.60D-03 OVMax= 4.01D-02

 Cycle   5  Pass 1  IDiag  1:
 RMSU=  5.20D-05    CP:  9.36D-01  2.16D+00  1.10D+00  1.65D+00
 E= -466.814840108097     Delta-E=       -0.001386471928 Rises=F Damp=F
 DIIS: error= 1.13D-03 at cycle   5 NSaved=   5.
 NSaved= 5 IEnMin= 5 EnMin= -466.814840108097     IErMin= 5 ErrMin= 1.13D-03
 ErrMax= 1.13D-03  0.00D+00 EMaxC= 1.00D-01 BMatC= 1.85D-04 BMatP= 7.04D-04
 IDIUse=3 WtCom= 9.89D-01 WtEn= 1.13D-02
 Coeff-Com:  0.422D-01-0.912D-01-0.760D-01 0.126D+00 0.999D+00
 Coeff-En:   0.000D+00 0.000D+00 0.000D+00 0.000D+00 0.100D+01
 Coeff:      0.417D-01-0.902D-01-0.752D-01 0.125D+00 0.999D+00
 Gap=     0.242 Goal=   None    Shift=    0.000
 Gap=     0.242 Goal=   None    Shift=    0.000
 RMSDP=6.08D-05 MaxDP=4.26D-03 DE=-1.39D-03 OVMax= 2.03D-02

 Cycle   6  Pass 1  IDiag  1:
 RMSU=  2.09D-05    CP:  9.35D-01  2.17D+00  1.14D+00  1.99D+00  1.63D+00
 E= -466.815218800499     Delta-E=       -0.000378692402 Rises=F Damp=F
 DIIS: error= 6.63D-04 at cycle   6 NSaved=   6.
 NSaved= 6 IEnMin= 6 EnMin= -466.815218800499     IErMin= 6 ErrMin= 6.63D-04
 ErrMax= 6.63D-04  0.00D+00 EMaxC= 1.00D-01 BMatC= 9.41D-05 BMatP= 1.85D-04
 IDIUse=3 WtCom= 9.93D-01 WtEn= 6.63D-03
 Coeff-Com: -0.315D-01 0.676D-01 0.246D-01-0.427D+00 0.413D+00 0.953D+00
 Coeff-En:   0.000D+00 0.000D+00 0.000D+00 0.000D+00 0.000D+00 0.100D+01
 Coeff:     -0.313D-01 0.672D-01 0.244D-01-0.424D+00 0.411D+00 0.953D+00
 Gap=     0.241 Goal=   None    Shift=    0.000
 Gap=     0.241 Goal=   None    Shift=    0.000
 RMSDP=4.66D-05 MaxDP=2.90D-03 DE=-3.79D-04 OVMax= 1.68D-02

 Cycle   7  Pass 1  IDiag  1:
 RMSU=  1.36D-05    CP:  9.34D-01  2.18D+00  1.16D+00  2.21D+00  2.23D+00
                    CP:  1.46D+00
 E= -466.815406844024     Delta-E=       -0.000188043525 Rises=F Damp=F
 DIIS: error= 3.50D-04 at cycle   7 NSaved=   7.
 NSaved= 7 IEnMin= 7 EnMin= -466.815406844024     IErMin= 7 ErrMin= 3.50D-04
 ErrMax= 3.50D-04  0.00D+00 EMaxC= 1.00D-01 BMatC= 2.18D-05 BMatP= 9.41D-05
 IDIUse=3 WtCom= 9.97D-01 WtEn= 3.50D-03
 Coeff-Com: -0.128D-01 0.278D-01 0.222D-01-0.283D-01-0.217D+00-0.238D-01
 Coeff-Com:  0.123D+01
 Coeff-En:   0.000D+00 0.000D+00 0.000D+00 0.000D+00 0.000D+00 0.000D+00
 Coeff-En:   0.100D+01
 Coeff:     -0.127D-01 0.277D-01 0.221D-01-0.282D-01-0.217D+00-0.237D-01
 Coeff:      0.123D+01
 Gap=     0.241 Goal=   None    Shift=    0.000
 Gap=     0.241 Goal=   None    Shift=    0.000
 RMSDP=2.84D-05 MaxDP=1.68D-03 DE=-1.88D-04 OVMax= 1.01D-02

 Cycle   8  Pass 1  IDiag  1:
 RMSU=  6.54D-06    CP:  9.34D-01  2.18D+00  1.17D+00  2.33D+00  2.59D+00
                    CP:  2.03D+00  1.70D+00
 E= -466.815475450832     Delta-E=       -0.000068606808 Rises=F Damp=F
 DIIS: error= 2.35D-04 at cycle   8 NSaved=   8.
 NSaved= 8 IEnMin= 8 EnMin= -466.815475450832     IErMin= 8 ErrMin= 2.35D-04
 ErrMax= 2.35D-04  0.00D+00 EMaxC= 1.00D-01 BMatC= 9.12D-06 BMatP= 2.18D-05
 IDIUse=3 WtCom= 9.98D-01 WtEn= 2.35D-03
 Coeff-Com:  0.980D-02-0.211D-01-0.464D-02 0.170D+00-0.158D+00-0.408D+00
 Coeff-Com:  0.160D+00 0.125D+01
 Coeff-En:   0.000D+00 0.000D+00 0.000D+00 0.000D+00 0.000D+00 0.000D+00
 Coeff-En:   0.000D+00 0.100D+01
 Coeff:      0.978D-02-0.211D-01-0.463D-02 0.169D+00-0.158D+00-0.407D+00
 Coeff:      0.160D+00 0.125D+01
 Gap=     0.240 Goal=   None    Shift=    0.000
 Gap=     0.240 Goal=   None    Shift=    0.000
 RMSDP=1.92D-05 MaxDP=8.39D-04 DE=-6.86D-05 OVMax= 7.51D-03

 Cycle   9  Pass 1  IDiag  1:
 RMSU=  3.76D-06    CP:  9.34D-01  2.18D+00  1.17D+00  2.39D+00  2.80D+00
                    CP:  2.35D+00  2.39D+00  1.82D+00
 E= -466.815506830860     Delta-E=       -0.000031380028 Rises=F Damp=F
 DIIS: error= 1.58D-04 at cycle   9 NSaved=   9.
 NSaved= 9 IEnMin= 9 EnMin= -466.815506830860     IErMin= 9 ErrMin= 1.58D-04
 ErrMax= 1.58D-04  0.00D+00 EMaxC= 1.00D-01 BMatC= 3.28D-06 BMatP= 9.12D-06
 IDIUse=3 WtCom= 9.98D-01 WtEn= 1.58D-03
 Coeff-Com:  0.740D-02-0.160D-01-0.933D-02 0.568D-01 0.555D-01-0.104D+00
 Coeff-Com: -0.425D+00 0.263D+00 0.117D+01
 Coeff-En:   0.000D+00 0.000D+00 0.000D+00 0.000D+00 0.000D+00 0.000D+00
 Coeff-En:   0.000D+00 0.000D+00 0.100D+01
 Coeff:      0.738D-02-0.160D-01-0.932D-02 0.567D-01 0.554D-01-0.104D+00
 Coeff:     -0.425D+00 0.263D+00 0.117D+01
 Gap=     0.239 Goal=   None    Shift=    0.000
 Gap=     0.239 Goal=   None    Shift=    0.000
 RMSDP=1.25D-05 MaxDP=5.28D-04 DE=-3.14D-05 OVMax= 5.17D-03

 Cycle  10  Pass 1  IDiag  1:
 RMSU=  2.25D-06    CP:  9.34D-01  2.18D+00  1.17D+00  2.44D+00  2.92D+00
                    CP:  2.53D+00  2.78D+00  2.59D+00  1.80D+00
 E= -466.815519264605     Delta-E=       -0.000012433745 Rises=F Damp=F
 DIIS: error= 9.67D-05 at cycle  10 NSaved=  10.
 NSaved=10 IEnMin=10 EnMin= -466.815519264605     IErMin=10 ErrMin= 9.67D-05
 ErrMax= 9.67D-05  0.00D+00 EMaxC= 1.00D-01 BMatC= 9.06D-07 BMatP= 3.28D-06
 IDIUse=1 WtCom= 1.00D+00 WtEn= 0.00D+00
 Coeff-Com: -0.456D-02 0.986D-02 0.308D-02-0.680D-01 0.628D-01 0.164D+00
 Coeff-Com: -0.460D-01-0.554D+00-0.158D+00 0.159D+01
 Coeff:     -0.456D-02 0.986D-02 0.308D-02-0.680D-01 0.628D-01 0.164D+00
 Coeff:     -0.460D-01-0.554D+00-0.158D+00 0.159D+01
 Gap=     0.239 Goal=   None    Shift=    0.000
 Gap=     0.239 Goal=   None    Shift=    0.000
 RMSDP=1.07D-05 MaxDP=4.66D-04 DE=-1.24D-05 OVMax= 4.54D-03

 Cycle  11  Pass 1  IDiag  1:
 RMSU=  1.94D-06    CP:  9.33D-01  2.18D+00  1.18D+00  2.48D+00  3.00D+00
                    CP:  2.64D+00  3.00D+00  3.00D+00  2.81D+00  2.23D+00
 E= -466.815524326610     Delta-E=       -0.000005062005 Rises=F Damp=F
 DIIS: error= 3.10D-05 at cycle  11 NSaved=  11.
 NSaved=11 IEnMin=11 EnMin= -466.815524326610     IErMin=11 ErrMin= 3.10D-05
 ErrMax= 3.10D-05  0.00D+00 EMaxC= 1.00D-01 BMatC= 1.45D-07 BMatP= 9.06D-07
 IDIUse=1 WtCom= 1.00D+00 WtEn= 0.00D+00
 Coeff-Com: -0.931D-03 0.201D-02 0.126D-02-0.595D-02-0.684D-02 0.138D-01
 Coeff-Com:  0.506D-01-0.398D-01-0.164D+00-0.158D-01 0.117D+01
 Coeff:     -0.931D-03 0.201D-02 0.126D-02-0.595D-02-0.684D-02 0.138D-01
 Coeff:      0.506D-01-0.398D-01-0.164D+00-0.158D-01 0.117D+01
 Gap=     0.239 Goal=   None    Shift=    0.000
 Gap=     0.239 Goal=   None    Shift=    0.000
 RMSDP=3.03D-06 MaxDP=1.45D-04 DE=-5.06D-06 OVMax= 1.23D-03

 Cycle  12  Pass 1  IDiag  1:
 RMSU=  1.13D-06    CP:  9.33D-01  2.18D+00  1.18D+00  2.49D+00  3.00D+00
                    CP:  2.67D+00  3.00D+00  3.00D+00  3.00D+00  2.77D+00
                    CP:  1.81D+00
 E= -466.815524820490     Delta-E=       -0.000000493879 Rises=F Damp=F
 DIIS: error= 1.08D-05 at cycle  12 NSaved=  12.
 NSaved=12 IEnMin=12 EnMin= -466.815524820490     IErMin=12 ErrMin= 1.08D-05
 ErrMax= 1.08D-05  0.00D+00 EMaxC= 1.00D-01 BMatC= 5.16D-08 BMatP= 1.45D-07
 IDIUse=1 WtCom= 1.00D+00 WtEn= 0.00D+00
 Coeff-Com:  0.131D-02-0.283D-02-0.648D-03 0.225D-01-0.237D-01-0.536D-01
 Coeff-Com:  0.288D-01 0.181D+00 0.557D-02-0.570D+00 0.440D+00 0.971D+00
 Coeff:      0.131D-02-0.283D-02-0.648D-03 0.225D-01-0.237D-01-0.536D-01
 Coeff:      0.288D-01 0.181D+00 0.557D-02-0.570D+00 0.440D+00 0.971D+00
 Gap=     0.239 Goal=   None    Shift=    0.000
 Gap=     0.239 Goal=   None    Shift=    0.000
 RMSDP=1.44D-06 MaxDP=7.46D-05 DE=-4.94D-07 OVMax= 5.50D-04

 Cycle  13  Pass 1  IDiag  1:
 RMSU=  4.16D-07    CP:  9.33D-01  2.18D+00  1.18D+00  2.50D+00  3.00D+00
                    CP:  2.68D+00  3.00D+00  3.00D+00  3.00D+00  3.00D+00
                    CP:  2.22D+00  1.51D+00
 E= -466.815524912974     Delta-E=       -0.000000092484 Rises=F Damp=F
 DIIS: error= 3.45D-06 at cycle  13 NSaved=  13.
 NSaved=13 IEnMin=13 EnMin= -466.815524912974     IErMin=13 ErrMin= 3.45D-06
 ErrMax= 3.45D-06  0.00D+00 EMaxC= 1.00D-01 BMatC= 5.49D-09 BMatP= 5.16D-08
 IDIUse=1 WtCom= 1.00D+00 WtEn= 0.00D+00
 Coeff-Com:  0.209D-03-0.449D-03-0.203D-03 0.219D-02-0.125D-03-0.563D-02
 Coeff-Com: -0.690D-02 0.176D-01 0.287D-01-0.315D-01-0.155D+00 0.776D-01
 Coeff-Com:  0.107D+01
 Coeff:      0.209D-03-0.449D-03-0.203D-03 0.219D-02-0.125D-03-0.563D-02
 Coeff:     -0.690D-02 0.176D-01 0.287D-01-0.315D-01-0.155D+00 0.776D-01
 Coeff:      0.107D+01
 Gap=     0.239 Goal=   None    Shift=    0.000
 Gap=     0.239 Goal=   None    Shift=    0.000
 RMSDP=2.67D-07 MaxDP=1.43D-05 DE=-9.25D-08 OVMax= 8.83D-05

 Cycle  14  Pass 1  IDiag  1:
 RMSU=  1.56D-07    CP:  9.33D-01  2.18D+00  1.18D+00  2.50D+00  3.00D+00
                    CP:  2.69D+00  3.00D+00  3.00D+00  3.00D+00  3.00D+00
                    CP:  2.28D+00  1.62D+00  1.23D+00
 E= -466.815524919822     Delta-E=       -0.000000006849 Rises=F Damp=F
 DIIS: error= 1.05D-06 at cycle  14 NSaved=  14.
 NSaved=14 IEnMin=14 EnMin= -466.815524919822     IErMin=14 ErrMin= 1.05D-06
 ErrMax= 1.05D-06  0.00D+00 EMaxC= 1.00D-01 BMatC= 1.52D-09 BMatP= 5.49D-09
 IDIUse=1 WtCom= 1.00D+00 WtEn= 0.00D+00
 Coeff-Com: -0.198D-03 0.430D-03 0.670D-04-0.385D-02 0.488D-02 0.887D-02
 Coeff-Com: -0.923D-02-0.307D-01 0.995D-02 0.105D+00-0.144D+00-0.165D+00
 Coeff-Com:  0.390D+00 0.834D+00
 Coeff:     -0.198D-03 0.430D-03 0.670D-04-0.385D-02 0.488D-02 0.887D-02
 Coeff:     -0.923D-02-0.307D-01 0.995D-02 0.105D+00-0.144D+00-0.165D+00
 Coeff:      0.390D+00 0.834D+00
 Gap=     0.239 Goal=   None    Shift=    0.000
 Gap=     0.239 Goal=   None    Shift=    0.000
 RMSDP=1.15D-07 MaxDP=4.21D-06 DE=-6.85D-09 OVMax= 3.46D-05

 Cycle  15  Pass 1  IDiag  1:
 RMSU=  6.68D-08    CP:  9.33D-01  2.18D+00  1.18D+00  2.50D+00  3.00D+00
                    CP:  2.69D+00  3.00D+00  3.00D+00  3.00D+00  3.00D+00
                    CP:  2.30D+00  1.67D+00  1.27D+00  1.30D+00
 E= -466.815524920913     Delta-E=       -0.000000001090 Rises=F Damp=F
 DIIS: error= 2.94D-07 at cycle  15 NSaved=  15.
 NSaved=15 IEnMin=15 EnMin= -466.815524920913     IErMin=15 ErrMin= 2.94D-07
 ErrMax= 2.94D-07  0.00D+00 EMaxC= 1.00D-01 BMatC= 1.47D-10 BMatP= 1.52D-09
 IDIUse=1 WtCom= 1.00D+00 WtEn= 0.00D+00
 Coeff-Com: -0.734D-04 0.158D-03 0.368D-04-0.122D-02 0.123D-02 0.296D-02
 Coeff-Com: -0.149D-02-0.994D-02-0.181D-02 0.305D-01-0.137D-01-0.543D-01
 Coeff-Com: -0.662D-01 0.215D+00 0.898D+00
 Coeff:     -0.734D-04 0.158D-03 0.368D-04-0.122D-02 0.123D-02 0.296D-02
 Coeff:     -0.149D-02-0.994D-02-0.181D-02 0.305D-01-0.137D-01-0.543D-01
 Coeff:     -0.662D-01 0.215D+00 0.898D+00
 Gap=     0.239 Goal=   None    Shift=    0.000
 Gap=     0.239 Goal=   None    Shift=    0.000
 RMSDP=4.07D-08 MaxDP=1.83D-06 DE=-1.09D-09 OVMax= 1.15D-05

 Cycle  16  Pass 1  IDiag  1:
 RMSU=  1.99D-08    CP:  9.33D-01  2.18D+00  1.18D+00  2.50D+00  3.00D+00
                    CP:  2.69D+00  3.00D+00  3.00D+00  3.00D+00  3.00D+00
                    CP:  2.31D+00  1.68D+00  1.27D+00  1.42D+00  1.32D+00
 E= -466.815524921024     Delta-E=       -0.000000000112 Rises=F Damp=F
 DIIS: error= 7.95D-08 at cycle  16 NSaved=  16.
 NSaved=16 IEnMin=16 EnMin= -466.815524921024     IErMin=16 ErrMin= 7.95D-08
 ErrMax= 7.95D-08  0.00D+00 EMaxC= 1.00D-01 BMatC= 1.08D-11 BMatP= 1.47D-10
 IDIUse=1 WtCom= 1.00D+00 WtEn= 0.00D+00
 Coeff-Com:  0.740D-05-0.163D-04-0.199D-05 0.176D-03-0.234D-03-0.397D-03
 Coeff-Com:  0.611D-03 0.145D-02-0.129D-02-0.515D-02 0.112D-01 0.769D-02
 Coeff-Com: -0.434D-01-0.513D-01 0.115D+00 0.965D+00
 Coeff:      0.740D-05-0.163D-04-0.199D-05 0.176D-03-0.234D-03-0.397D-03
 Coeff:      0.611D-03 0.145D-02-0.129D-02-0.515D-02 0.112D-01 0.769D-02
 Coeff:     -0.434D-01-0.513D-01 0.115D+00 0.965D+00
 Gap=     0.239 Goal=   None    Shift=    0.000
 Gap=     0.239 Goal=   None    Shift=    0.000
 RMSDP=1.16D-08 MaxDP=5.16D-07 DE=-1.12D-10 OVMax= 1.22D-06

 Cycle  17  Pass 1  IDiag  1:
 RMSU=  7.29D-09    CP:  9.33D-01  2.18D+00  1.18D+00  2.50D+00  3.00D+00
                    CP:  2.69D+00  3.00D+00  3.00D+00  3.00D+00  3.00D+00
                    CP:  2.31D+00  1.68D+00  1.27D+00  1.43D+00  1.40D+00
                    CP:  1.35D+00
 E= -466.815524921024     Delta-E=        0.000000000000 Rises=F Damp=F
 DIIS: error= 4.22D-08 at cycle  17 NSaved=  17.
 NSaved=17 IEnMin=16 EnMin= -466.815524921024     IErMin=17 ErrMin= 4.22D-08
 ErrMax= 4.22D-08  0.00D+00 EMaxC= 1.00D-01 BMatC= 1.53D-12 BMatP= 1.08D-11
 IDIUse=1 WtCom= 1.00D+00 WtEn= 0.00D+00
 Coeff-Com:  0.748D-05-0.161D-04-0.353D-05 0.127D-03-0.128D-03-0.337D-03
 Coeff-Com:  0.203D-03 0.106D-02 0.546D-04-0.326D-02 0.208D-02 0.600D-02
 Coeff-Com:  0.494D-02-0.291D-01-0.873D-01 0.686D-01 0.104D+01
 Coeff:      0.748D-05-0.161D-04-0.353D-05 0.127D-03-0.128D-03-0.337D-03
 Coeff:      0.203D-03 0.106D-02 0.546D-04-0.326D-02 0.208D-02 0.600D-02
 Coeff:      0.494D-02-0.291D-01-0.873D-01 0.686D-01 0.104D+01
 Gap=     0.239 Goal=   None    Shift=    0.000
 Gap=     0.239 Goal=   None    Shift=    0.000
 RMSDP=4.65D-09 MaxDP=1.79D-07 DE= 3.41D-13 OVMax= 1.00D-06

 Error on total polarization charges =  0.01172
 SCF Done:  E(UwB97XD) =  -466.815524921     A.U. after   17 cycles
            NFock= 17  Conv=0.47D-08     -V/T= 2.0059
 <Sx>= 0.0000 <Sy>= 0.0000 <Sz>= 0.0000 <S**2>= 0.6955 S= 0.4724
 <L.S>=  0.00000000000    
 KE= 4.640557523266D+02 PE=-2.464904853954D+03 EE= 8.423520808378D+02
 --------------------------------------------------------------------
 Variational PCM results
 =======================
 <psi(f)|   H    |psi(f)>                     (a.u.) =    -466.814197
 <psi(f)|H+V(f)/2|psi(f)>                     (a.u.) =    -466.815525
 (Polarized solute)-Solvent               (kcal/mol) =      -0.83
 --------------------------------------------------------------------
 Partition over spheres:
 Sphere  on Atom  Surface  Charge   GEl     GCav    GDR
    1      C1       7.44   0.011   -0.05    0.00    0.00
    2      C2       0.78   0.001   -0.00    0.00    0.00
    3      H3       7.51  -0.010   -0.03    0.00    0.00
    4      H4       3.04  -0.004   -0.01    0.00    0.00
    5      C5       4.82   0.009   -0.05    0.00    0.00
    6      C6       1.11   0.001   -0.00    0.00    0.00
    7      H7       4.90  -0.007   -0.03    0.00    0.00
    8      H8       3.55  -0.004   -0.01    0.00    0.00
    9      C9       3.06   0.002   -0.00    0.00    0.00
   10      H10      6.87  -0.006   -0.01    0.00    0.00
   11      H11      3.67  -0.003   -0.01    0.00    0.00
   12      C12      6.69   0.011   -0.06    0.00    0.00
   13      H13      7.50  -0.010   -0.03    0.00    0.00
   14      C14      7.38   0.011   -0.05    0.00    0.00
   15      H15      7.51  -0.010   -0.03    0.00    0.00
   16      C16      3.40   0.001    0.00    0.00    0.00
   17      H17      4.02  -0.004   -0.02    0.00    0.00
   18      H18      7.47  -0.008   -0.03    0.00    0.00
   19      C19      4.60   0.008   -0.05    0.00    0.00
   20      H20      5.28  -0.007   -0.03    0.00    0.00
   21      C21      6.68   0.011   -0.06    0.00    0.00
   22      H22      7.50  -0.010   -0.03    0.00    0.00
   23      C23      3.02   0.002   -0.00    0.00    0.00
   24      H24      3.86  -0.003   -0.01    0.00    0.00
   25      H25      6.89  -0.006   -0.01    0.00    0.00
   26      C26      3.24   0.001    0.00    0.00    0.00
   27      H27      7.40  -0.008   -0.03    0.00    0.00
   28      H28      4.18  -0.004   -0.02    0.00    0.00
 Added spheres:    75.35   0.022   -0.19    0.00    0.00
 --------------------------------------------------------------------
 After PCM corrections, the energy is  -466.815524921     a.u.
 --------------------------------------------------------------------
 Annihilation of the first spin contaminant:
 S**2 before annihilation     0.6955,   after     0.2347
 Leave Link  502 at Mon Aug  3 16:24:56 2020, MaxMem=  6442450944 cpu:            7348.8 elap:             309.0
 (Enter /scratch/scicomp/CentOS/7.3.1611/Haswell/software/Gaussian/g16/l601.exe)
 Copying SCF densities to generalized density rwf, IOpCl= 1 IROHF=0.

 **********************************************************************

            Population analysis using the SCF Density.

 **********************************************************************

 Alpha  occ. eigenvalues --  -10.29868 -10.29513 -10.28619 -10.28533 -10.28497
 Alpha  occ. eigenvalues --  -10.28200 -10.28184 -10.28120 -10.28116 -10.28088
 Alpha  occ. eigenvalues --  -10.27916 -10.27591  -0.94973  -0.93187  -0.85109
 Alpha  occ. eigenvalues --   -0.84479  -0.83659  -0.82444  -0.71319  -0.70293
 Alpha  occ. eigenvalues --   -0.69433  -0.67866  -0.60050  -0.59518  -0.58233
 Alpha  occ. eigenvalues --   -0.56372  -0.53379  -0.53116  -0.50898  -0.50055
 Alpha  occ. eigenvalues --   -0.49354  -0.48237  -0.47960  -0.47413  -0.46497
 Alpha  occ. eigenvalues --   -0.44726  -0.41476  -0.41060  -0.39897  -0.39694
 Alpha  occ. eigenvalues --   -0.39077  -0.37500  -0.32242  -0.24268
 Alpha virt. eigenvalues --   -0.00406   0.08824   0.10449   0.12495   0.13153
 Alpha virt. eigenvalues --    0.14207   0.14519   0.15469   0.15969   0.16306
 Alpha virt. eigenvalues --    0.16578   0.17151   0.18184   0.19581   0.20287
 Alpha virt. eigenvalues --    0.20668   0.21402   0.22639   0.23203   0.23660
 Alpha virt. eigenvalues --    0.24658   0.25132   0.26345   0.26506   0.27274
 Alpha virt. eigenvalues --    0.28537   0.28649   0.29904   0.30291   0.30533
 Alpha virt. eigenvalues --    0.31213   0.31826   0.31891   0.32834   0.33924
 Alpha virt. eigenvalues --    0.34342   0.35461   0.36014   0.36409   0.37163
 Alpha virt. eigenvalues --    0.37594   0.38734   0.40982   0.41399   0.42045
 Alpha virt. eigenvalues --    0.43363   0.43866   0.44661   0.45257   0.45564
 Alpha virt. eigenvalues --    0.46382   0.47064   0.48337   0.48449   0.48572
 Alpha virt. eigenvalues --    0.48604   0.49062   0.49234   0.49987   0.50206
 Alpha virt. eigenvalues --    0.50369   0.50909   0.51506   0.52041   0.52859
 Alpha virt. eigenvalues --    0.52910   0.54175   0.54400   0.54752   0.55785
 Alpha virt. eigenvalues --    0.56511   0.56823   0.57962   0.58610   0.58971
 Alpha virt. eigenvalues --    0.59115   0.60540   0.60808   0.63156   0.64909
 Alpha virt. eigenvalues --    0.66470   0.67340   0.67813   0.68678   0.68742
 Alpha virt. eigenvalues --    0.70711   0.71865   0.73192   0.75836   0.75949
 Alpha virt. eigenvalues --    0.77851   0.78798   0.79063   0.81476   0.81939
 Alpha virt. eigenvalues --    0.83003   0.84234   0.85733   0.87644   0.87799
 Alpha virt. eigenvalues --    0.88090   0.89401   0.93120   0.93915   0.94852
 Alpha virt. eigenvalues --    0.96010   0.97274   0.98074   0.98547   0.99499
 Alpha virt. eigenvalues --    1.01810   1.02033   1.03965   1.04424   1.05627
 Alpha virt. eigenvalues --    1.07151   1.07916   1.07929   1.09791   1.09955
 Alpha virt. eigenvalues --    1.12214   1.14026   1.15512   1.16694   1.17331
 Alpha virt. eigenvalues --    1.18303   1.18789   1.19323   1.19595   1.19759
 Alpha virt. eigenvalues --    1.20972   1.22428   1.24141   1.25727   1.25950
 Alpha virt. eigenvalues --    1.26887   1.27584   1.28013   1.28845   1.29166
 Alpha virt. eigenvalues --    1.30208   1.30543   1.33067   1.34132   1.34784
 Alpha virt. eigenvalues --    1.34952   1.35360   1.35743   1.38132   1.39118
 Alpha virt. eigenvalues --    1.39244   1.39600   1.40056   1.41561   1.42344
 Alpha virt. eigenvalues --    1.42992   1.43604   1.44127   1.44390   1.45346
 Alpha virt. eigenvalues --    1.46092   1.46738   1.47306   1.48234   1.49157
 Alpha virt. eigenvalues --    1.50649   1.53554   1.54927   1.56613   1.57606
 Alpha virt. eigenvalues --    1.59262   1.59809   1.59900   1.61890   1.63112
 Alpha virt. eigenvalues --    1.63782   1.65873   1.66218   1.67524   1.68451
 Alpha virt. eigenvalues --    1.72356   1.73632   1.75500   1.77435   1.78613
 Alpha virt. eigenvalues --    1.79023   1.80909   1.81789   1.85291   1.85410
 Alpha virt. eigenvalues --    1.87762   1.89769   1.90957   1.92908   1.94161
 Alpha virt. eigenvalues --    1.97188   1.97638   2.00902   2.02905   2.04022
 Alpha virt. eigenvalues --    2.06312   2.06689   2.08639   2.10342   2.10941
 Alpha virt. eigenvalues --    2.12616   2.15500   2.16454   2.16819   2.18126
 Alpha virt. eigenvalues --    2.18822   2.19325   2.20126   2.21259   2.23978
 Alpha virt. eigenvalues --    2.24899   2.25436   2.28305   2.30338   2.31880
 Alpha virt. eigenvalues --    2.34727   2.36646   2.37802   2.39240   2.44219
 Alpha virt. eigenvalues --    2.45322   2.47171   2.47319   2.48324   2.49782
 Alpha virt. eigenvalues --    2.50753   2.54630   2.54904   2.57014   2.57783
 Alpha virt. eigenvalues --    2.58709   2.59389   2.61461   2.62052   2.63242
 Alpha virt. eigenvalues --    2.64048   2.64525   2.67332   2.68092   2.68595
 Alpha virt. eigenvalues --    2.69089   2.71637   2.72953   2.73108   2.73993
 Alpha virt. eigenvalues --    2.74384   2.75910   2.76277   2.77647   2.77726
 Alpha virt. eigenvalues --    2.79220   2.80630   2.80672   2.82150   2.83106
 Alpha virt. eigenvalues --    2.83383   2.84208   2.84750   2.85806   2.86733
 Alpha virt. eigenvalues --    2.87099   2.88089   2.89613   2.90084   2.90838
 Alpha virt. eigenvalues --    2.92688   2.92954   2.93579   2.94793   2.96197
 Alpha virt. eigenvalues --    2.96367   2.98860   2.99880   3.01253   3.02003
 Alpha virt. eigenvalues --    3.03225   3.03659   3.05443   3.06022   3.06745
 Alpha virt. eigenvalues --    3.08200   3.08750   3.09668   3.10545   3.11318
 Alpha virt. eigenvalues --    3.12267   3.12785   3.13131   3.14577   3.14633
 Alpha virt. eigenvalues --    3.15457   3.15964   3.17849   3.19250   3.19689
 Alpha virt. eigenvalues --    3.20294   3.20874   3.21425   3.22324   3.22566
 Alpha virt. eigenvalues --    3.23236   3.24214   3.24980   3.25346   3.26317
 Alpha virt. eigenvalues --    3.26574   3.26970   3.27985   3.29570   3.30125
 Alpha virt. eigenvalues --    3.30432   3.31102   3.32085   3.32420   3.34742
 Alpha virt. eigenvalues --    3.35484   3.35850   3.36390   3.36629   3.37111
 Alpha virt. eigenvalues --    3.38693   3.39812   3.40291   3.40569   3.41846
 Alpha virt. eigenvalues --    3.42433   3.45169   3.45742   3.46393   3.46865
 Alpha virt. eigenvalues --    3.48213   3.48820   3.49527   3.50498   3.51365
 Alpha virt. eigenvalues --    3.52583   3.52851   3.53169   3.56225   3.57534
 Alpha virt. eigenvalues --    3.57624   3.58096   3.58682   3.59827   3.60094
 Alpha virt. eigenvalues --    3.61166   3.62194   3.62848   3.64465   3.66089
 Alpha virt. eigenvalues --    3.66212   3.66977   3.68952   3.69903   3.72306
 Alpha virt. eigenvalues --    3.72648   3.76291   3.78117   3.78499   3.80433
 Alpha virt. eigenvalues --    3.81087   3.82067   3.82157   3.82941   3.83972
 Alpha virt. eigenvalues --    3.85174   3.87942   3.90797   3.91859   3.92187
 Alpha virt. eigenvalues --    3.93510   3.95360   3.96299   3.99792   4.02032
 Alpha virt. eigenvalues --    4.02868   4.03538   4.06703   4.09694   4.10003
 Alpha virt. eigenvalues --    4.11245   4.11674   4.12837   4.15235   4.15395
 Alpha virt. eigenvalues --    4.17237   4.18484   4.20072   4.20720   4.21665
 Alpha virt. eigenvalues --    4.22887   4.24770   4.25361   4.27798   4.29464
 Alpha virt. eigenvalues --    4.32273   4.32985   4.34633   4.36325   4.36528
 Alpha virt. eigenvalues --    4.38375   4.44790   4.44997   4.47110   4.47470
 Alpha virt. eigenvalues --    4.49970   4.50927   4.51964   4.54691   4.54815
 Alpha virt. eigenvalues --    4.56460   4.58959   4.62010   4.64823   4.66793
 Alpha virt. eigenvalues --    4.68601   4.71366   4.74314   4.75355   4.76598
 Alpha virt. eigenvalues --    4.77052   4.79165   4.83568   4.87873   4.89304
 Alpha virt. eigenvalues --    4.92180   4.92308   4.92979   4.95589   4.96915
 Alpha virt. eigenvalues --    4.98221   5.02505   5.06645   5.09444   5.10391
 Alpha virt. eigenvalues --    5.16794   5.20708   5.21959   5.25831   5.26903
 Alpha virt. eigenvalues --    5.29688   5.36346   5.38401   5.38820   5.39675
 Alpha virt. eigenvalues --    5.41468   5.41687   5.52055   5.53244   5.60587
 Alpha virt. eigenvalues --    5.64861   5.71149   5.73803   5.83299   5.90098
 Alpha virt. eigenvalues --    7.94249   7.94990   8.02695   8.04221   8.06111
 Alpha virt. eigenvalues --    8.09808   8.10968   8.14627   8.18752   8.19438
 Alpha virt. eigenvalues --    8.34043   8.39358  34.76012  34.76430  34.80984
 Alpha virt. eigenvalues --   34.81639  34.84045  34.89104  34.98212  35.00390
 Alpha virt. eigenvalues --   35.00743  35.02568  35.17587  35.23333
  Beta  occ. eigenvalues --  -10.29868 -10.29513 -10.28619 -10.28533 -10.28497
  Beta  occ. eigenvalues --  -10.28200 -10.28184 -10.28120 -10.28116 -10.28088
  Beta  occ. eigenvalues --  -10.27916 -10.27590  -0.94973  -0.93187  -0.85109
  Beta  occ. eigenvalues --   -0.84479  -0.83659  -0.82444  -0.71319  -0.70292
  Beta  occ. eigenvalues --   -0.69433  -0.67866  -0.60050  -0.59518  -0.58233
  Beta  occ. eigenvalues --   -0.56372  -0.53380  -0.53116  -0.50898  -0.50055
  Beta  occ. eigenvalues --   -0.49354  -0.48237  -0.47960  -0.47413  -0.46497
  Beta  occ. eigenvalues --   -0.44726  -0.41476  -0.41060  -0.39897  -0.39694
  Beta  occ. eigenvalues --   -0.39077  -0.37500  -0.32242  -0.24268
  Beta virt. eigenvalues --   -0.00406   0.08824   0.10449   0.12495   0.13153
  Beta virt. eigenvalues --    0.14207   0.14519   0.15469   0.15969   0.16306
  Beta virt. eigenvalues --    0.16578   0.17151   0.18184   0.19581   0.20287
  Beta virt. eigenvalues --    0.20668   0.21402   0.22639   0.23203   0.23661
  Beta virt. eigenvalues --    0.24658   0.25132   0.26345   0.26506   0.27274
  Beta virt. eigenvalues --    0.28537   0.28649   0.29904   0.30291   0.30533
  Beta virt. eigenvalues --    0.31213   0.31826   0.31891   0.32834   0.33924
  Beta virt. eigenvalues --    0.34342   0.35461   0.36014   0.36409   0.37163
  Beta virt. eigenvalues --    0.37594   0.38734   0.40982   0.41399   0.42045
  Beta virt. eigenvalues --    0.43363   0.43866   0.44661   0.45257   0.45564
  Beta virt. eigenvalues --    0.46382   0.47064   0.48337   0.48449   0.48571
  Beta virt. eigenvalues --    0.48604   0.49062   0.49234   0.49987   0.50206
  Beta virt. eigenvalues --    0.50370   0.50909   0.51506   0.52041   0.52859
  Beta virt. eigenvalues --    0.52910   0.54175   0.54400   0.54752   0.55786
  Beta virt. eigenvalues --    0.56511   0.56823   0.57962   0.58610   0.58971
  Beta virt. eigenvalues --    0.59114   0.60540   0.60808   0.63156   0.64909
  Beta virt. eigenvalues --    0.66470   0.67340   0.67813   0.68678   0.68742
  Beta virt. eigenvalues --    0.70711   0.71865   0.73192   0.75836   0.75949
  Beta virt. eigenvalues --    0.77851   0.78798   0.79063   0.81476   0.81939
  Beta virt. eigenvalues --    0.83003   0.84234   0.85733   0.87644   0.87799
  Beta virt. eigenvalues --    0.88090   0.89401   0.93120   0.93915   0.94852
  Beta virt. eigenvalues --    0.96010   0.97274   0.98074   0.98547   0.99499
  Beta virt. eigenvalues --    1.01810   1.02033   1.03965   1.04424   1.05627
  Beta virt. eigenvalues --    1.07151   1.07916   1.07929   1.09791   1.09955
  Beta virt. eigenvalues --    1.12214   1.14026   1.15512   1.16694   1.17331
  Beta virt. eigenvalues --    1.18303   1.18789   1.19323   1.19595   1.19759
  Beta virt. eigenvalues --    1.20972   1.22428   1.24141   1.25727   1.25950
  Beta virt. eigenvalues --    1.26887   1.27584   1.28013   1.28845   1.29166
  Beta virt. eigenvalues --    1.30208   1.30544   1.33067   1.34132   1.34784
  Beta virt. eigenvalues --    1.34952   1.35360   1.35743   1.38132   1.39118
  Beta virt. eigenvalues --    1.39244   1.39600   1.40056   1.41561   1.42344
  Beta virt. eigenvalues --    1.42992   1.43604   1.44127   1.44390   1.45346
  Beta virt. eigenvalues --    1.46092   1.46738   1.47306   1.48234   1.49157
  Beta virt. eigenvalues --    1.50649   1.53554   1.54927   1.56613   1.57606
  Beta virt. eigenvalues --    1.59262   1.59809   1.59900   1.61890   1.63112
  Beta virt. eigenvalues --    1.63782   1.65874   1.66218   1.67524   1.68451
  Beta virt. eigenvalues --    1.72356   1.73632   1.75500   1.77435   1.78613
  Beta virt. eigenvalues --    1.79023   1.80909   1.81789   1.85291   1.85410
  Beta virt. eigenvalues --    1.87762   1.89769   1.90957   1.92908   1.94161
  Beta virt. eigenvalues --    1.97188   1.97639   2.00902   2.02905   2.04022
  Beta virt. eigenvalues --    2.06312   2.06689   2.08639   2.10342   2.10941
  Beta virt. eigenvalues --    2.12616   2.15500   2.16454   2.16819   2.18126
  Beta virt. eigenvalues --    2.18822   2.19325   2.20126   2.21259   2.23978
  Beta virt. eigenvalues --    2.24899   2.25436   2.28305   2.30338   2.31880
  Beta virt. eigenvalues --    2.34727   2.36646   2.37802   2.39240   2.44219
  Beta virt. eigenvalues --    2.45322   2.47171   2.47319   2.48324   2.49782
  Beta virt. eigenvalues --    2.50753   2.54630   2.54904   2.57014   2.57783
  Beta virt. eigenvalues --    2.58709   2.59389   2.61461   2.62052   2.63242
  Beta virt. eigenvalues --    2.64048   2.64525   2.67332   2.68092   2.68595
  Beta virt. eigenvalues --    2.69089   2.71637   2.72953   2.73108   2.73993
  Beta virt. eigenvalues --    2.74384   2.75910   2.76277   2.77647   2.77726
  Beta virt. eigenvalues --    2.79220   2.80630   2.80672   2.82150   2.83106
  Beta virt. eigenvalues --    2.83383   2.84208   2.84750   2.85806   2.86733
  Beta virt. eigenvalues --    2.87099   2.88089   2.89613   2.90084   2.90838
  Beta virt. eigenvalues --    2.92688   2.92954   2.93579   2.94793   2.96197
  Beta virt. eigenvalues --    2.96367   2.98860   2.99880   3.01253   3.02003
  Beta virt. eigenvalues --    3.03225   3.03659   3.05443   3.06022   3.06745
  Beta virt. eigenvalues --    3.08200   3.08750   3.09668   3.10546   3.11318
  Beta virt. eigenvalues --    3.12267   3.12785   3.13131   3.14577   3.14633
  Beta virt. eigenvalues --    3.15457   3.15964   3.17849   3.19250   3.19689
  Beta virt. eigenvalues --    3.20294   3.20874   3.21425   3.22324   3.22566
  Beta virt. eigenvalues --    3.23236   3.24214   3.24980   3.25346   3.26317
  Beta virt. eigenvalues --    3.26574   3.26970   3.27985   3.29570   3.30125
  Beta virt. eigenvalues --    3.30432   3.31102   3.32085   3.32420   3.34742
  Beta virt. eigenvalues --    3.35484   3.35850   3.36390   3.36629   3.37111
  Beta virt. eigenvalues --    3.38694   3.39812   3.40291   3.40569   3.41846
  Beta virt. eigenvalues --    3.42433   3.45169   3.45742   3.46393   3.46865
  Beta virt. eigenvalues --    3.48213   3.48820   3.49527   3.50498   3.51365
  Beta virt. eigenvalues --    3.52583   3.52851   3.53169   3.56225   3.57534
  Beta virt. eigenvalues --    3.57624   3.58096   3.58682   3.59827   3.60094
  Beta virt. eigenvalues --    3.61166   3.62194   3.62848   3.64465   3.66089
  Beta virt. eigenvalues --    3.66212   3.66977   3.68952   3.69903   3.72306
  Beta virt. eigenvalues --    3.72648   3.76291   3.78117   3.78499   3.80433
  Beta virt. eigenvalues --    3.81087   3.82067   3.82157   3.82941   3.83972
  Beta virt. eigenvalues --    3.85174   3.87942   3.90797   3.91859   3.92187
  Beta virt. eigenvalues --    3.93510   3.95360   3.96299   3.99792   4.02032
  Beta virt. eigenvalues --    4.02868   4.03538   4.06703   4.09694   4.10003
  Beta virt. eigenvalues --    4.11245   4.11674   4.12837   4.15235   4.15395
  Beta virt. eigenvalues --    4.17237   4.18484   4.20072   4.20720   4.21665
  Beta virt. eigenvalues --    4.22887   4.24770   4.25361   4.27798   4.29464
  Beta virt. eigenvalues --    4.32273   4.32985   4.34633   4.36325   4.36528
  Beta virt. eigenvalues --    4.38375   4.44790   4.44997   4.47110   4.47470
  Beta virt. eigenvalues --    4.49970   4.50927   4.51964   4.54691   4.54815
  Beta virt. eigenvalues --    4.56460   4.58959   4.62010   4.64823   4.66793
  Beta virt. eigenvalues --    4.68601   4.71366   4.74314   4.75355   4.76598
  Beta virt. eigenvalues --    4.77052   4.79165   4.83568   4.87873   4.89304
  Beta virt. eigenvalues --    4.92180   4.92309   4.92979   4.95589   4.96915
  Beta virt. eigenvalues --    4.98221   5.02505   5.06645   5.09444   5.10391
  Beta virt. eigenvalues --    5.16794   5.20708   5.21959   5.25831   5.26903
  Beta virt. eigenvalues --    5.29688   5.36346   5.38401   5.38820   5.39675
  Beta virt. eigenvalues --    5.41468   5.41687   5.52055   5.53244   5.60587
  Beta virt. eigenvalues --    5.64861   5.71149   5.73803   5.83299   5.90098
  Beta virt. eigenvalues --    7.94249   7.94990   8.02695   8.04221   8.06111
  Beta virt. eigenvalues --    8.09808   8.10968   8.14627   8.18752   8.19438
  Beta virt. eigenvalues --    8.34043   8.39359  34.76012  34.76430  34.80984
  Beta virt. eigenvalues --   34.81639  34.84045  34.89104  34.98212  35.00390
  Beta virt. eigenvalues --   35.00743  35.02568  35.17587  35.23333
          Condensed to atoms (all electrons):
               1          2          3          4          5          6
     1  C    5.207615   0.007161   0.427119  -0.003133   0.001660  -0.006815
     2  C    0.007161   5.357627  -0.001764   0.432035  -0.113164   0.182875
     3  H    0.427119  -0.001764   0.493914   0.000045  -0.000019   0.000126
     4  H   -0.003133   0.432035   0.000045   0.504780  -0.008332  -0.015282
     5  C    0.001660  -0.113164  -0.000019  -0.008332   5.278593   0.378442
     6  C   -0.006815   0.182875   0.000126  -0.015282   0.378442   5.357697
     7  H    0.000081  -0.001717   0.000003   0.000114   0.439487  -0.035819
     8  H    0.000334  -0.015267  -0.000113   0.001000  -0.044758   0.432034
     9  C    0.002535  -0.051787  -0.000005  -0.004371  -0.052693   0.253047
    10  H   -0.000024   0.006855  -0.000001  -0.000527  -0.004526  -0.047178
    11  H   -0.000211  -0.008140   0.000004   0.001083   0.011301  -0.059120
    12  C   -0.000240   0.013879  -0.000000   0.006143   0.351844  -0.066362
    13  H   -0.000001   0.000098   0.000000   0.000040  -0.033572   0.003839
    14  C    0.000094  -0.006815  -0.000000   0.000337  -0.052201   0.007162
    15  H   -0.000000   0.000126  -0.000000  -0.000113   0.005078  -0.001766
    16  C   -0.000370   0.014086   0.000000  -0.001091   0.000002  -0.075965
    17  H    0.000033   0.001746  -0.000000  -0.004714   0.008955  -0.006281
    18  H    0.000001   0.000044   0.000000   0.000433  -0.002895   0.012684
    19  C   -0.052218   0.378498   0.005074  -0.044777  -0.014091  -0.113131
    20  H    0.005067  -0.035759  -0.000149  -0.006307  -0.000336  -0.001717
    21  C    0.516779  -0.066390  -0.033120   0.007152   0.002732   0.013877
    22  H   -0.029396   0.003836  -0.006057  -0.000093   0.000059   0.000098
    23  C   -0.090803   0.253064   0.005414  -0.018041   0.009376  -0.051773
    24  H    0.013252  -0.059111  -0.000085  -0.003520   0.007055  -0.008139
    25  H    0.002394  -0.047177  -0.000077  -0.004492  -0.000202   0.006854
    26  C    0.273683  -0.075982  -0.030647   0.007812  -0.010204   0.014082
    27  H   -0.031828   0.012685  -0.004318  -0.000130   0.000286   0.000044
    28  H   -0.035141  -0.006278   0.000943  -0.000177  -0.003677   0.001744
               7          8          9         10         11         12
     1  C    0.000081   0.000334   0.002535  -0.000024  -0.000211  -0.000240
     2  C   -0.001717  -0.015267  -0.051787   0.006855  -0.008140   0.013879
     3  H    0.000003  -0.000113  -0.000005  -0.000001   0.000004  -0.000000
     4  H    0.000114   0.001000  -0.004371  -0.000527   0.001083   0.006143
     5  C    0.439487  -0.044758  -0.052693  -0.004526   0.011301   0.351844
     6  C   -0.035819   0.432034   0.253047  -0.047178  -0.059120  -0.066362
     7  H    0.483446  -0.006307   0.003837   0.000056  -0.000045  -0.038357
     8  H   -0.006307   0.504715  -0.018049  -0.004492  -0.003520   0.007149
     9  C    0.003837  -0.018049   4.981717   0.405303   0.456684   0.028786
    10  H    0.000056  -0.004492   0.405303   0.570783  -0.019748   0.001425
    11  H   -0.000045  -0.003520   0.456684  -0.019748   0.533742  -0.005004
    12  C   -0.038357   0.007149   0.028786   0.001425  -0.005004   5.023197
    13  H   -0.004226  -0.000093   0.000372  -0.000135   0.000038   0.423737
    14  C    0.005066  -0.003131  -0.090814   0.002382   0.013255   0.516740
    15  H   -0.000149   0.000045   0.005414  -0.000077  -0.000085  -0.033164
    16  C   -0.001425   0.007810   0.342184  -0.026490  -0.054142  -0.050689
    17  H    0.000005  -0.000177  -0.030007   0.006030  -0.006211  -0.010990
    18  H    0.000048  -0.000130  -0.040703  -0.008177  -0.001708   0.005142
    19  C   -0.000337  -0.008344   0.009356  -0.000201   0.007059   0.002733
    20  H    0.000002   0.000113   0.002592   0.000364  -0.002862  -0.000082
    21  C   -0.000082   0.006148  -0.002425  -0.000206   0.000081  -0.000222
    22  H   -0.000001   0.000040  -0.000073  -0.000002  -0.000025  -0.000001
    23  C    0.002589  -0.004370   0.006490  -0.000291   0.000326  -0.002426
    24  H   -0.002863   0.001082   0.000326  -0.000036  -0.000010   0.000081
    25  H    0.000364  -0.000526  -0.000291   0.000020  -0.000036  -0.000205
    26  C   -0.001348  -0.001092  -0.001666   0.000065  -0.000055   0.001339
    27  H   -0.000026   0.000434   0.000018  -0.000000  -0.000003  -0.000028
    28  H    0.002225  -0.004716   0.000595   0.000010   0.000020   0.000176
              13         14         15         16         17         18
     1  C   -0.000001   0.000094  -0.000000  -0.000370   0.000033   0.000001
     2  C    0.000098  -0.006815   0.000126   0.014086   0.001746   0.000044
     3  H    0.000000  -0.000000  -0.000000   0.000000  -0.000000   0.000000
     4  H    0.000040   0.000337  -0.000113  -0.001091  -0.004714   0.000433
     5  C   -0.033572  -0.052201   0.005078   0.000002   0.008955  -0.002895
     6  C    0.003839   0.007162  -0.001766  -0.075965  -0.006281   0.012684
     7  H   -0.004226   0.005066  -0.000149  -0.001425   0.000005   0.000048
     8  H   -0.000093  -0.003131   0.000045   0.007810  -0.000177  -0.000130
     9  C    0.000372  -0.090814   0.005414   0.342184  -0.030007  -0.040703
    10  H   -0.000135   0.002382  -0.000077  -0.026490   0.006030  -0.008177
    11  H    0.000038   0.013255  -0.000085  -0.054142  -0.006211  -0.001708
    12  C    0.423737   0.516740  -0.033164  -0.050689  -0.010990   0.005142
    13  H    0.497334  -0.029405  -0.006057   0.004720  -0.000441  -0.000135
    14  C   -0.029405   5.207641   0.427146   0.273682  -0.035146  -0.031820
    15  H   -0.006057   0.427146   0.493913  -0.030635   0.000943  -0.004317
    16  C    0.004720   0.273682  -0.030635   4.969460   0.399839   0.420519
    17  H   -0.000441  -0.035146   0.000943   0.399839   0.583120  -0.023141
    18  H   -0.000135  -0.031820  -0.004317   0.420519  -0.023141   0.546375
    19  C    0.000059   0.001661  -0.000019  -0.010208  -0.003679   0.000286
    20  H   -0.000001   0.000081   0.000003  -0.001348   0.002224  -0.000026
    21  C   -0.000001  -0.000240  -0.000000   0.001339   0.000176  -0.000028
    22  H    0.000000  -0.000001   0.000000   0.000005  -0.000002  -0.000001
    23  C   -0.000073   0.002535  -0.000005  -0.001665   0.000595   0.000018
    24  H   -0.000025  -0.000211   0.000004  -0.000056   0.000020  -0.000003
    25  H   -0.000002  -0.000024  -0.000001   0.000066   0.000010  -0.000000
    26  C    0.000005  -0.000370   0.000000   0.000366  -0.000034  -0.000001
    27  H   -0.000001   0.000001   0.000000  -0.000001   0.000001  -0.000000
    28  H   -0.000002   0.000033  -0.000000  -0.000034  -0.000010   0.000001
              19         20         21         22         23         24
     1  C   -0.052218   0.005067   0.516779  -0.029396  -0.090803   0.013252
     2  C    0.378498  -0.035759  -0.066390   0.003836   0.253064  -0.059111
     3  H    0.005074  -0.000149  -0.033120  -0.006057   0.005414  -0.000085
     4  H   -0.044777  -0.006307   0.007152  -0.000093  -0.018041  -0.003520
     5  C   -0.014091  -0.000336   0.002732   0.000059   0.009376   0.007055
     6  C   -0.113131  -0.001717   0.013877   0.000098  -0.051773  -0.008139
     7  H   -0.000337   0.000002  -0.000082  -0.000001   0.002589  -0.002863
     8  H   -0.008344   0.000113   0.006148   0.000040  -0.004370   0.001082
     9  C    0.009356   0.002592  -0.002425  -0.000073   0.006490   0.000326
    10  H   -0.000201   0.000364  -0.000206  -0.000002  -0.000291  -0.000036
    11  H    0.007059  -0.002862   0.000081  -0.000025   0.000326  -0.000010
    12  C    0.002733  -0.000082  -0.000222  -0.000001  -0.002426   0.000081
    13  H    0.000059  -0.000001  -0.000001   0.000000  -0.000073  -0.000025
    14  C    0.001661   0.000081  -0.000240  -0.000001   0.002535  -0.000211
    15  H   -0.000019   0.000003  -0.000000   0.000000  -0.000005   0.000004
    16  C   -0.010208  -0.001348   0.001339   0.000005  -0.001665  -0.000056
    17  H   -0.003679   0.002224   0.000176  -0.000002   0.000595   0.000020
    18  H    0.000286  -0.000026  -0.000028  -0.000001   0.000018  -0.000003
    19  C    5.278663   0.439479   0.351847  -0.033578  -0.052709   0.011301
    20  H    0.439479   0.483332  -0.038391  -0.004224   0.003836  -0.000045
    21  C    0.351847  -0.038391   5.023153   0.423737   0.028789  -0.005003
    22  H   -0.033578  -0.004224   0.423737   0.497336   0.000372   0.000038
    23  C   -0.052709   0.003836   0.028789   0.000372   4.981707   0.456675
    24  H    0.011301  -0.000045  -0.005003   0.000038   0.456675   0.533713
    25  H   -0.004523   0.000056   0.001419  -0.000135   0.405313  -0.019751
    26  C    0.000016  -0.001426  -0.050704   0.004721   0.342187  -0.054133
    27  H   -0.002895   0.000048   0.005146  -0.000135  -0.040693  -0.001709
    28  H    0.008951   0.000005  -0.010988  -0.000441  -0.030010  -0.006212
              25         26         27         28
     1  C    0.002394   0.273683  -0.031828  -0.035141
     2  C   -0.047177  -0.075982   0.012685  -0.006278
     3  H   -0.000077  -0.030647  -0.004318   0.000943
     4  H   -0.004492   0.007812  -0.000130  -0.000177
     5  C   -0.000202  -0.010204   0.000286  -0.003677
     6  C    0.006854   0.014082   0.000044   0.001744
     7  H    0.000364  -0.001348  -0.000026   0.002225
     8  H   -0.000526  -0.001092   0.000434  -0.004716
     9  C   -0.000291  -0.001666   0.000018   0.000595
    10  H    0.000020   0.000065  -0.000000   0.000010
    11  H   -0.000036  -0.000055  -0.000003   0.000020
    12  C   -0.000205   0.001339  -0.000028   0.000176
    13  H   -0.000002   0.000005  -0.000001  -0.000002
    14  C   -0.000024  -0.000370   0.000001   0.000033
    15  H   -0.000001   0.000000   0.000000  -0.000000
    16  C    0.000066   0.000366  -0.000001  -0.000034
    17  H    0.000010  -0.000034   0.000001  -0.000010
    18  H   -0.000000  -0.000001  -0.000000   0.000001
    19  C   -0.004523   0.000016  -0.002895   0.008951
    20  H    0.000056  -0.001426   0.000048   0.000005
    21  C    0.001419  -0.050704   0.005146  -0.010988
    22  H   -0.000135   0.004721  -0.000135  -0.000441
    23  C    0.405313   0.342187  -0.040693  -0.030010
    24  H   -0.019751  -0.054133  -0.001709  -0.006212
    25  H    0.570742  -0.026501  -0.008174   0.006029
    26  C   -0.026501   4.969488   0.420515   0.399836
    27  H   -0.008174   0.420515   0.546364  -0.023144
    28  H    0.006029   0.399836  -0.023144   0.583120
          Atomic-Atomic Spin Densities.
               1          2          3          4          5          6
     1  C    0.459086   0.000724  -0.000383   0.000205   0.000283   0.005627
     2  C    0.000724  -0.343471   0.000083   0.007910   0.083656  -0.000014
     3  H   -0.000383   0.000083  -0.016839  -0.000000  -0.000001  -0.000040
     4  H    0.000205   0.007910  -0.000000   0.016799  -0.006609  -0.014355
     5  C    0.000283   0.083656  -0.000001  -0.006609  -0.644798   0.030405
     6  C    0.005627  -0.000014  -0.000040  -0.014355   0.030405   0.343443
     7  H   -0.000001  -0.000488  -0.000000  -0.000014   0.001899   0.000091
     8  H   -0.001948   0.014356   0.000004  -0.000000  -0.002004  -0.007903
     9  C   -0.000040   0.015799   0.000001   0.001651  -0.002409  -0.019961
    10  H    0.000068  -0.001042   0.000000  -0.000102   0.001626  -0.003806
    11  H   -0.000286  -0.000538   0.000001   0.000279  -0.000331  -0.004000
    12  C   -0.000100  -0.012522   0.000000   0.003523   0.017728  -0.020509
    13  H   -0.000000  -0.000186   0.000000   0.000051   0.000964  -0.000378
    14  C   -0.000000  -0.005629   0.000000   0.001950   0.040463  -0.000725
    15  H   -0.000000   0.000040   0.000000  -0.000004   0.000104  -0.000083
    16  C   -0.000026   0.000702  -0.000000  -0.000808  -0.002867   0.000496
    17  H    0.000019   0.004181   0.000000  -0.001480  -0.004528   0.003543
    18  H   -0.000001  -0.000386  -0.000000   0.000077   0.000552  -0.000740
    19  C   -0.040463  -0.030401  -0.000103   0.002004   0.000002  -0.083631
    20  H   -0.000263  -0.000092   0.000005   0.000280   0.000105   0.000491
    21  C    0.005754   0.020504   0.000054  -0.001723  -0.001769   0.012516
    22  H   -0.000431   0.000378   0.000168  -0.000029  -0.000016   0.000186
    23  C    0.003245   0.019984  -0.000205   0.003364  -0.005191  -0.015785
    24  H    0.000220   0.003999   0.000003  -0.000512  -0.005133   0.000538
    25  H   -0.001228   0.003803  -0.000001   0.000231   0.001451   0.001041
    26  C   -0.021960  -0.000497   0.000756  -0.000063  -0.001017  -0.000703
    27  H   -0.005660   0.000739   0.000080  -0.000050   0.000027   0.000385
    28  H   -0.013299  -0.003541   0.000041   0.000229   0.000343  -0.004181
               7          8          9         10         11         12
     1  C   -0.000001  -0.001948  -0.000040   0.000068  -0.000286  -0.000100
     2  C   -0.000488   0.014356   0.015799  -0.001042  -0.000538  -0.012522
     3  H   -0.000000   0.000004   0.000001   0.000000   0.000001   0.000000
     4  H   -0.000014  -0.000000   0.001651  -0.000102   0.000279   0.003523
     5  C    0.001899  -0.002004  -0.002409   0.001626  -0.000331   0.017728
     6  C    0.000091  -0.007903  -0.019961  -0.003806  -0.004000  -0.020509
     7  H    0.021299  -0.000280   0.000211   0.000027  -0.000008  -0.001926
     8  H   -0.000280  -0.016798  -0.003367  -0.000230   0.000512   0.001723
     9  C    0.000211  -0.003367  -0.011072   0.004144   0.000991   0.005583
    10  H    0.000027  -0.000230   0.004144   0.010733  -0.002288  -0.000822
    11  H   -0.000008   0.000512   0.000991  -0.002288   0.003785   0.000255
    12  C   -0.001926   0.001723   0.005583  -0.000822   0.000255   0.203053
    13  H   -0.000217   0.000029   0.000143  -0.000030   0.000003  -0.001059
    14  C    0.000262  -0.000205  -0.003248   0.001229  -0.000220  -0.005758
    15  H   -0.000005   0.000000   0.000205   0.000001  -0.000003  -0.000056
    16  C   -0.000062   0.000063  -0.003030  -0.001922   0.000513  -0.003882
    17  H    0.000015  -0.000228   0.000925   0.000188  -0.000210   0.001408
    18  H   -0.000000   0.000050  -0.001725   0.000167  -0.000034  -0.000916
    19  C   -0.000105   0.006604   0.005180  -0.001451   0.005136   0.001768
    20  H    0.000000   0.000013  -0.000176  -0.000007   0.000133  -0.000034
    21  C    0.000034  -0.003522  -0.000830   0.000171  -0.000551   0.000000
    22  H    0.000000  -0.000051  -0.000010   0.000002  -0.000022   0.000000
    23  C    0.000175  -0.001652  -0.000001  -0.000006   0.000199   0.000831
    24  H   -0.000134  -0.000279  -0.000199   0.000006  -0.000000   0.000551
    25  H    0.000007   0.000102   0.000006  -0.000000  -0.000006  -0.000171
    26  C   -0.000098   0.000808  -0.000010  -0.000016   0.000025   0.000218
    27  H   -0.000002  -0.000076  -0.000008   0.000000  -0.000002  -0.000014
    28  H    0.000022   0.001479   0.000194  -0.000027   0.000046   0.000145
              13         14         15         16         17         18
     1  C   -0.000000  -0.000000  -0.000000  -0.000026   0.000019  -0.000001
     2  C   -0.000186  -0.005629   0.000040   0.000702   0.004181  -0.000386
     3  H    0.000000   0.000000   0.000000  -0.000000   0.000000  -0.000000
     4  H    0.000051   0.001950  -0.000004  -0.000808  -0.001480   0.000077
     5  C    0.000964   0.040463   0.000104  -0.002867  -0.004528   0.000552
     6  C   -0.000378  -0.000725  -0.000083   0.000496   0.003543  -0.000740
     7  H   -0.000217   0.000262  -0.000005  -0.000062   0.000015  -0.000000
     8  H    0.000029  -0.000205   0.000000   0.000063  -0.000228   0.000050
     9  C    0.000143  -0.003248   0.000205  -0.003030   0.000925  -0.001725
    10  H   -0.000030   0.001229   0.000001  -0.001922   0.000188   0.000167
    11  H    0.000003  -0.000220  -0.000003   0.000513  -0.000210  -0.000034
    12  C   -0.001059  -0.005758  -0.000056  -0.003882   0.001408  -0.000916
    13  H   -0.007019   0.000431  -0.000168  -0.000067   0.000031  -0.000015
    14  C    0.000431  -0.459076   0.000385   0.021958   0.013302   0.005659
    15  H   -0.000168   0.000385   0.016839  -0.000756  -0.000040  -0.000080
    16  C   -0.000067   0.021958  -0.000756   0.025583  -0.007585  -0.003326
    17  H    0.000031   0.013302  -0.000040  -0.007585  -0.035741   0.005921
    18  H   -0.000015   0.005659  -0.000080  -0.003326   0.005921  -0.014613
    19  C    0.000016  -0.000283   0.000001   0.001019  -0.000343  -0.000027
    20  H   -0.000000   0.000001   0.000000   0.000098  -0.000022   0.000002
    21  C   -0.000000   0.000100  -0.000000  -0.000218  -0.000145   0.000014
    22  H    0.000000   0.000000  -0.000000  -0.000003  -0.000002   0.000000
    23  C    0.000011   0.000041  -0.000001   0.000011  -0.000194   0.000008
    24  H    0.000022   0.000286  -0.000001  -0.000025  -0.000046   0.000002
    25  H   -0.000002  -0.000068  -0.000000   0.000016   0.000027  -0.000000
    26  C    0.000003   0.000026   0.000000  -0.000000  -0.000016   0.000000
    27  H   -0.000000   0.000001   0.000000  -0.000000   0.000000  -0.000000
    28  H    0.000002  -0.000019  -0.000000   0.000016  -0.000000  -0.000000
              19         20         21         22         23         24
     1  C   -0.040463  -0.000263   0.005754  -0.000431   0.003245   0.000220
     2  C   -0.030401  -0.000092   0.020504   0.000378   0.019984   0.003999
     3  H   -0.000103   0.000005   0.000054   0.000168  -0.000205   0.000003
     4  H    0.002004   0.000280  -0.001723  -0.000029   0.003364  -0.000512
     5  C    0.000002   0.000105  -0.001769  -0.000016  -0.005191  -0.005133
     6  C   -0.083631   0.000491   0.012516   0.000186  -0.015785   0.000538
     7  H   -0.000105   0.000000   0.000034   0.000000   0.000175  -0.000134
     8  H    0.006604   0.000013  -0.003522  -0.000051  -0.001652  -0.000279
     9  C    0.005180  -0.000176  -0.000830  -0.000010  -0.000001  -0.000199
    10  H   -0.001451  -0.000007   0.000171   0.000002  -0.000006   0.000006
    11  H    0.005136   0.000133  -0.000551  -0.000022   0.000199  -0.000000
    12  C    0.001768  -0.000034   0.000000   0.000000   0.000831   0.000551
    13  H    0.000016  -0.000000  -0.000000   0.000000   0.000011   0.000022
    14  C   -0.000283   0.000001   0.000100   0.000000   0.000041   0.000286
    15  H    0.000001   0.000000  -0.000000  -0.000000  -0.000001  -0.000001
    16  C    0.001019   0.000098  -0.000218  -0.000003   0.000011  -0.000025
    17  H   -0.000343  -0.000022  -0.000145  -0.000002  -0.000194  -0.000046
    18  H   -0.000027   0.000002   0.000014   0.000000   0.000008   0.000002
    19  C    0.644775  -0.001904  -0.017714  -0.000964   0.002402   0.000332
    20  H   -0.001904  -0.021294   0.001929   0.000217  -0.000212   0.000008
[...]
     6  C    0.001041  -0.000703   0.000385  -0.004181
     7  H    0.000007  -0.000098  -0.000002   0.000022
     8  H    0.000102   0.000808  -0.000076   0.001479
     9  C    0.000006  -0.000010  -0.000008   0.000194
    10  H   -0.000000  -0.000016   0.000000  -0.000027
    11  H   -0.000006   0.000025  -0.000002   0.000046
    12  C   -0.000171   0.000218  -0.000014   0.000145
    13  H   -0.000002   0.000003  -0.000000   0.000002
    14  C   -0.000068   0.000026   0.000001  -0.000019
    15  H   -0.000000   0.000000   0.000000  -0.000000
    16  C    0.000016  -0.000000  -0.000000   0.000016
    17  H    0.000027  -0.000016   0.000000  -0.000000
    18  H   -0.000000   0.000000  -0.000000  -0.000000
    19  C   -0.001626   0.002867  -0.000551   0.004526
    20  H   -0.000027   0.000062   0.000000  -0.000015
    21  C    0.000822   0.003883   0.000916  -0.001407
    22  H    0.000030   0.000067   0.000015  -0.000031
    23  C   -0.004139   0.003033   0.001726  -0.000927
    24  H    0.002287  -0.000513   0.000034   0.000210
    25  H   -0.010734   0.001921  -0.000168  -0.000188
    26  C    0.001921  -0.025583   0.003328   0.007582
    27  H   -0.000168   0.003328   0.014613  -0.005921
    28  H   -0.000188   0.007582  -0.005921   0.035743
 Mulliken charges and spin densities:
               1          2
     1  C   -0.207629   0.389141
     2  C   -0.175265  -0.221951
     3  H    0.143715  -0.016379
     4  H    0.154125   0.012802
     5  C   -0.154203  -0.497066
     6  C   -0.175256   0.221946
     7  H    0.155380   0.020702
     8  H    0.154181  -0.012803
     9  C   -0.206372  -0.011056
    10  H    0.118819   0.006614
    11  H    0.137330   0.003379
    12  C   -0.174601   0.189019
    13  H    0.143928  -0.007437
    14  C   -0.207638  -0.389136
    15  H    0.143717   0.016379
    16  C   -0.179960   0.025897
    17  H    0.117138  -0.021019
    18  H    0.127531  -0.009412
    19  C   -0.154274   0.497064
    20  H    0.155472  -0.020699
    21  C   -0.174577  -0.189021
    22  H    0.143922   0.007437
    23  C   -0.206426   0.011056
    24  H    0.137364  -0.003378
    25  H    0.118851  -0.006614
    26  C   -0.179953  -0.025897
    27  H    0.127541   0.009412
    28  H    0.117142   0.021020
 Sum of Mulliken charges =  -0.00000   0.00000
 Mulliken charges and spin densities with hydrogens summed into heavy atoms:
               1          2
     1  C   -0.063915   0.372763
     2  C   -0.021139  -0.209149
     5  C    0.001177  -0.476364
     6  C   -0.021076   0.209144
     9  C    0.049777  -0.001063
    12  C   -0.030673   0.181582
    14  C   -0.063921  -0.372758
    16  C    0.064708  -0.004534
    19  C    0.001198   0.476365
    21  C   -0.030655  -0.181584
    23  C    0.049789   0.001063
    26  C    0.064729   0.004535
 Electronic spatial extent (au):  <R**2>=           2192.2205
 Charge=             -0.0000 electrons
 Dipole moment (field-independent basis, Debye):
    X=              0.0003    Y=             -0.0002    Z=             -0.0001  Tot=              0.0004
 Quadrupole moment (field-independent basis, Debye-Ang):
   XX=            -72.4584   YY=            -70.6975   ZZ=            -76.5936
   XY=             -2.9630   XZ=             -3.1342   YZ=             -0.7107
 Traceless Quadrupole moment (field-independent basis, Debye-Ang):
   XX=              0.7915   YY=              2.5523   ZZ=             -3.3438
   XY=             -2.9630   XZ=             -3.1342   YZ=             -0.7107
 Octapole moment (field-independent basis, Debye-Ang**2):
  XXX=              0.0092  YYY=             -0.0017  ZZZ=             -0.0005  XYY=             -0.0002
  XXY=             -0.0015  XXZ=             -0.0003  XZZ=             -0.0008  YZZ=             -0.0000
  YYZ=             -0.0012  XYZ=              0.0007
 Hexadecapole moment (field-independent basis, Debye-Ang**3):
 XXXX=          -2029.5366 YYYY=           -633.7490 ZZZZ=           -315.1337 XXXY=            -95.7757
 XXXZ=           -116.0666 YYYX=            -59.1159 YYYZ=             -0.0847 ZZZX=            -65.5421
 ZZZY=             -8.0088 XXYY=           -442.4964 XXZZ=           -417.4033 YYZZ=           -173.2435
 XXYZ=            -20.0655 YYXZ=            -25.2248 ZZXY=            -41.2605
 N-N= 6.916814958685D+02 E-N=-2.464904852014D+03  KE= 4.640557523266D+02
                          Isotropic Fermi Contact Couplings
        Atom                 a.u.       MegaHertz       Gauss      10(-4) cm-1
     1  C(13)              0.02955      16.61044       5.92702       5.54065
     2  C(13)             -0.07577     -42.58793     -15.19643     -14.20581
     3  H(1)              -0.00585     -13.07949      -4.66709      -4.36285
     4  H(1)               0.00705      15.75371       5.62132       5.25487
     5  C(13)             -0.03895     -21.89610      -7.81307      -7.30375
     6  C(13)              0.07577      42.58799      15.19645      14.20582
     7  H(1)               0.00750      16.75298       5.97788       5.58819
     8  H(1)              -0.00705     -15.75405      -5.62144      -5.25499
     9  C(13)             -0.00911      -5.12147      -1.82747      -1.70834
    10  H(1)               0.00361       8.05728       2.87504       2.68762
    11  H(1)               0.00084       1.88046       0.67099       0.62725
    12  C(13)              0.03317      18.64675       6.65362       6.21989
    13  H(1)              -0.00243      -5.43433      -1.93911      -1.81270
    14  C(13)             -0.02955     -16.61010      -5.92690      -5.54053
    15  H(1)               0.00585      13.07945       4.66707       4.36283
    16  C(13)              0.01383       7.77570       2.77456       2.59370
    17  H(1)              -0.01022     -22.83902      -8.14953      -7.61828
    18  H(1)              -0.00449     -10.04095      -3.58286      -3.34930
    19  C(13)              0.03895      21.89542       7.81283       7.30353
    20  H(1)              -0.00750     -16.75298      -5.97788      -5.58819
    21  C(13)             -0.03317     -18.64675      -6.65362      -6.21989
    22  H(1)               0.00243       5.43434       1.93911       1.81270
    23  C(13)              0.00911       5.12138       1.82743       1.70831
    24  H(1)              -0.00084      -1.88051      -0.67101      -0.62727
    25  H(1)              -0.00361      -8.05751      -2.87512      -2.68770
    26  C(13)             -0.01383      -7.77575      -2.77458      -2.59371
    27  H(1)               0.00449      10.04106       3.58290       3.34934
    28  H(1)               0.01022      22.83952       8.14971       7.61844
 --------------------------------------------------------
       Center         ----  Spin Dipole Couplings  ----
                      3XX-RR        3YY-RR        3ZZ-RR
 --------------------------------------------------------
     1   Atom       -0.080634     -0.228472      0.309106
     2   Atom        0.048580      0.127055     -0.175634
     3   Atom        0.022179     -0.028923      0.006743
     4   Atom       -0.006774      0.014889     -0.008115
     5   Atom        0.172491      0.296973     -0.469465
     6   Atom       -0.048580     -0.127054      0.175634
     7   Atom        0.011260     -0.010463     -0.000796
     8   Atom        0.006774     -0.014889      0.008115
     9   Atom       -0.000240     -0.004894      0.005134
    10   Atom        0.003171     -0.002269     -0.000902
    11   Atom        0.003572     -0.003466     -0.000106
    12   Atom       -0.055434     -0.086659      0.142093
    13   Atom       -0.006876      0.003622      0.003253
    14   Atom        0.080633      0.228469     -0.309102
    15   Atom       -0.022179      0.028922     -0.006743
    16   Atom        0.003296     -0.002724     -0.000572
    17   Atom        0.004988     -0.005994      0.001006
    18   Atom        0.004432     -0.006958      0.002526
    19   Atom       -0.172492     -0.296970      0.469461
    20   Atom       -0.011259      0.010463      0.000796
    21   Atom        0.055434      0.086660     -0.142094
    22   Atom        0.006876     -0.003623     -0.003253
    23   Atom        0.000240      0.004895     -0.005134
    24   Atom       -0.003572      0.003466      0.000106
    25   Atom       -0.003171      0.002269      0.000902
    26   Atom       -0.003296      0.002724      0.000572
    27   Atom       -0.004432      0.006958     -0.002526
    28   Atom       -0.004988      0.005994     -0.001006
 --------------------------------------------------------
                        XY            XZ            YZ
 --------------------------------------------------------
     1   Atom       -0.003520      0.271426     -0.010505
     2   Atom       -0.027755     -0.158261     -0.069907
     3   Atom        0.005442     -0.011366     -0.003376
     4   Atom        0.001838      0.005631     -0.006860
     5   Atom        0.007541     -0.299023     -0.014704
     6   Atom        0.027755      0.158259      0.069907
     7   Atom        0.034355     -0.006212     -0.011725
     8   Atom       -0.001838     -0.005630      0.006860
     9   Atom        0.008279      0.007567     -0.003262
    10   Atom       -0.000632      0.003381      0.003150
    11   Atom       -0.003514      0.005884      0.000567
    12   Atom        0.008325      0.107743     -0.015350
    13   Atom        0.006319      0.006129     -0.002715
    14   Atom        0.003520     -0.271422      0.010504
    15   Atom       -0.005442      0.011366      0.003376
    16   Atom       -0.001602     -0.007029      0.000645
    17   Atom       -0.002649     -0.001690     -0.002947
    18   Atom        0.001259      0.000222      0.001858
    19   Atom       -0.007539      0.299016      0.014708
    20   Atom       -0.034355      0.006212      0.011725
    21   Atom       -0.008325     -0.107743      0.015350
    22   Atom       -0.006319     -0.006129      0.002715
    23   Atom       -0.008279     -0.007567      0.003262
    24   Atom        0.003514     -0.005884     -0.000567
    25   Atom        0.000632     -0.003381     -0.003150
    26   Atom        0.001603      0.007029     -0.000645
    27   Atom       -0.001259     -0.000222     -0.001858
    28   Atom        0.002649      0.001690      0.002947
 --------------------------------------------------------


 ---------------------------------------------------------------------------------
              Anisotropic Spin Dipole Couplings in Principal Axis System
 ---------------------------------------------------------------------------------

       Atom             a.u.   MegaHertz   Gauss  10(-4) cm-1        Axes

              Baa    -0.2290   -30.724   -10.963   -10.248 -0.1535  0.9834  0.0966
     1 C(13)  Bbb    -0.2196   -29.467   -10.515    -9.829  0.8764  0.1807 -0.4464
              Bcc     0.4485    60.191    21.478    20.078  0.4564 -0.0162  0.8896
 
              Baa    -0.2715   -36.437   -13.002   -12.154  0.4484  0.1846  0.8746
     2 C(13)  Bbb     0.1267    17.001     6.067     5.671  0.8316 -0.4449 -0.3325
              Bcc     0.1448    19.435     6.935     6.483  0.3277  0.8764 -0.3530
 
              Baa    -0.0296   -15.812    -5.642    -5.274 -0.0903  0.9939  0.0640
     3 H(1)   Bbb     0.0007     0.389     0.139     0.130  0.4709 -0.0140  0.8821
              Bcc     0.0289    15.423     5.503     5.145  0.8775  0.1098 -0.4668
 
              Baa    -0.0145    -7.749    -2.765    -2.585 -0.6070  0.2163  0.7647
     4 H(1)   Bbb    -0.0023    -1.205    -0.430    -0.402  0.7946  0.1501  0.5882
              Bcc     0.0168     8.954     3.195     2.987  0.0124  0.9647 -0.2630
 
              Baa    -0.5873   -78.810   -28.122   -26.288  0.3661  0.0124  0.9305
     5 C(13)  Bbb     0.2808    37.678    13.444    12.568  0.7438 -0.6047 -0.2846
              Bcc     0.3065    41.133    14.677    13.720  0.5592  0.7963 -0.2306
 
              Baa    -0.1448   -19.435    -6.935    -6.483  0.3277  0.8764 -0.3530
     6 C(13)  Bbb    -0.1267   -17.001    -6.066    -5.671  0.8316 -0.4449 -0.3325
              Bcc     0.2715    36.437    13.001    12.154  0.4484  0.1846  0.8746
 
              Baa    -0.0366   -19.539    -6.972    -6.518 -0.5601  0.8111  0.1683
     7 H(1)   Bbb    -0.0033    -1.784    -0.637    -0.595  0.3286  0.0310  0.9440
              Bcc     0.0400    21.324     7.609     7.113  0.7604  0.5841 -0.2839
 
              Baa    -0.0168    -8.954    -3.195    -2.987  0.0124  0.9647 -0.2630
     8 H(1)   Bbb     0.0023     1.205     0.430     0.402  0.7946  0.1501  0.5882
              Bcc     0.0145     7.749     2.765     2.585 -0.6070  0.2163  0.7647
 
              Baa    -0.0140    -1.876    -0.669    -0.626 -0.6196  0.6954  0.3640
     9 C(13)  Bbb     0.0031     0.417     0.149     0.139  0.4500  0.6947 -0.5612
              Bcc     0.0109     1.459     0.521     0.487  0.6431  0.1839  0.7434
 
              Baa    -0.0056    -3.014    -1.075    -1.005  0.3047  0.6792 -0.6677
    10 H(1)   Bbb     0.0004     0.219     0.078     0.073 -0.4680  0.7174  0.5161
              Bcc     0.0052     2.795     0.997     0.932  0.8296  0.1552  0.5364
 
              Baa    -0.0067    -3.582    -1.278    -1.195  0.5290  0.6644 -0.5279
    11 H(1)   Bbb    -0.0017    -0.923    -0.329    -0.308 -0.2489  0.7162  0.6520
              Bcc     0.0084     4.505     1.607     1.503  0.8113 -0.2135  0.5442
 
              Baa    -0.1108   -14.873    -5.307    -4.961  0.7845 -0.5016 -0.3646
    12 C(13)  Bbb    -0.0791   -10.610    -3.786    -3.539  0.4733  0.8642 -0.1706
              Bcc     0.1899    25.483     9.093     8.500  0.4007 -0.0387  0.9154
 
              Baa    -0.0127    -6.757    -2.411    -2.254  0.8355 -0.3889 -0.3881
    13 H(1)   Bbb     0.0060     3.224     1.150     1.075  0.2401 -0.3770  0.8946
              Bcc     0.0066     3.533     1.261     1.178  0.4942  0.8406  0.2216
 
              Baa    -0.4485   -60.190   -21.477   -20.077  0.4564 -0.0162  0.8896
    14 C(13)  Bbb     0.2196    29.467    10.515     9.829  0.8764  0.1806 -0.4464
              Bcc     0.2290    30.723    10.963    10.248 -0.1535  0.9834  0.0966
 
              Baa    -0.0289   -15.423    -5.503    -5.144  0.8775  0.1098 -0.4668
    15 H(1)   Bbb    -0.0007    -0.389    -0.139    -0.130  0.4709 -0.0140  0.8821
              Bcc     0.0296    15.811     5.642     5.274 -0.0903  0.9939  0.0640
 
              Baa    -0.0060    -0.805    -0.287    -0.268  0.6127  0.1471  0.7765
    16 C(13)  Bbb    -0.0029    -0.388    -0.139    -0.130  0.0226  0.9789 -0.2032
              Bcc     0.0089     1.193     0.426     0.398  0.7900 -0.1421 -0.5964
 
              Baa    -0.0078    -4.166    -1.486    -1.390  0.2339  0.9077  0.3483
    17 H(1)   Bbb     0.0020     1.050     0.375     0.350  0.1648 -0.3901  0.9059
              Bcc     0.0058     3.116     1.112     1.039  0.9582 -0.1545 -0.2409
 
              Baa    -0.0074    -3.964    -1.415    -1.322 -0.1005  0.9785 -0.1804
    18 H(1)   Bbb     0.0028     1.475     0.526     0.492 -0.2419  0.1518  0.9584
              Bcc     0.0047     2.489     0.888     0.830  0.9651  0.1399  0.2214
 
              Baa    -0.3065   -41.132   -14.677   -13.720  0.5592  0.7963 -0.2306
    19 C(13)  Bbb    -0.2808   -37.677   -13.444   -12.568  0.7438 -0.6047 -0.2846
              Bcc     0.5873    78.809    28.121    26.288  0.3661  0.0124  0.9305
 
              Baa    -0.0400   -21.323    -7.609    -7.113  0.7604  0.5841 -0.2839
    20 H(1)   Bbb     0.0033     1.784     0.637     0.595  0.3286  0.0310  0.9440
              Bcc     0.0366    19.539     6.972     6.518 -0.5601  0.8111  0.1683
 
              Baa    -0.1899   -25.483    -9.093    -8.500  0.4007 -0.0387  0.9154
    21 C(13)  Bbb     0.0791    10.610     3.786     3.539  0.4733  0.8642 -0.1706
              Bcc     0.1108    14.873     5.307     4.961  0.7845 -0.5016 -0.3646
 
              Baa    -0.0066    -3.533    -1.261    -1.178  0.4942  0.8406  0.2216
    22 H(1)   Bbb    -0.0060    -3.224    -1.150    -1.075  0.2401 -0.3769  0.8946
              Bcc     0.0127     6.757     2.411     2.254  0.8355 -0.3889 -0.3881
 
              Baa    -0.0109    -1.459    -0.521    -0.487  0.6431  0.1838  0.7434
    23 C(13)  Bbb    -0.0031    -0.416    -0.149    -0.139  0.4501  0.6947 -0.5611
              Bcc     0.0140     1.876     0.669     0.626 -0.6196  0.6954  0.3640
 
              Baa    -0.0084    -4.505    -1.607    -1.503  0.8113 -0.2135  0.5442
    24 H(1)   Bbb     0.0017     0.923     0.329     0.308 -0.2489  0.7162  0.6520
              Bcc     0.0067     3.582     1.278     1.195  0.5290  0.6644 -0.5279
 
              Baa    -0.0052    -2.795    -0.997    -0.932  0.8296  0.1552  0.5364
    25 H(1)   Bbb    -0.0004    -0.219    -0.078    -0.073 -0.4680  0.7173  0.5161
              Bcc     0.0056     3.014     1.075     1.005  0.3047  0.6792 -0.6677
 
              Baa    -0.0089    -1.193    -0.426    -0.398  0.7900 -0.1421 -0.5964
    26 C(13)  Bbb     0.0029     0.388     0.139     0.130  0.0226  0.9789 -0.2033
              Bcc     0.0060     0.805     0.287     0.268  0.6127  0.1471  0.7765
 
              Baa    -0.0047    -2.489    -0.888    -0.830  0.9651  0.1399  0.2214
    27 H(1)   Bbb    -0.0028    -1.475    -0.526    -0.492 -0.2419  0.1518  0.9584
              Bcc     0.0074     3.964     1.415     1.322 -0.1005  0.9785 -0.1804
 
              Baa    -0.0058    -3.116    -1.112    -1.039  0.9582 -0.1545 -0.2409
    28 H(1)   Bbb    -0.0020    -1.050    -0.375    -0.350  0.1648 -0.3901  0.9059
              Bcc     0.0078     4.166     1.486     1.390  0.2339  0.9077  0.3483
 

 ---------------------------------------------------------------------------------

 No NMR shielding tensors so no spin-rotation constants.
 Leave Link  601 at Mon Aug  3 16:24:56 2020, MaxMem=  6442450944 cpu:               8.1 elap:               0.4
 (Enter /scratch/scicomp/CentOS/7.3.1611/Haswell/software/Gaussian/g16/l9999.exe)
 1\1\GINC-ATLAS-205\SP\UwB97XD\def2TZVP\C12H16\BOCHEN\03-Aug-2020\0\\#p
  uwb97xd guess=mix def2tzvp # scrf=(iefpcm,solvent=Cyclohexane,read) n
 osym 6d 10f\\endo-2 xp-pcm for eta=3\\0,1\C,0,-3.118984,-0.431661,0.24
 7435\C,0,-0.49894,-0.160927,-0.842197\H,0,-4.083986,-0.548798,0.725945
 \H,0,0.353927,-0.115768,-1.511796\C,0,1.104795,1.419144,0.680915\C,0,0
 .49894,0.160927,0.842197\H,0,0.544367,2.322264,0.886379\H,0,-0.353927,
 0.115768,1.511797\C,0,1.462637,-0.999808,0.987512\H,0,1.898804,-0.9375
 31,1.990366\H,0,0.929588,-1.949702,0.93613\C,0,2.406337,1.522553,0.118
 11\H,0,2.824446,2.509213,-0.04557\C,0,3.118984,0.431661,-0.247435\H,0,
 4.083986,0.548798,-0.725945\C,0,2.592283,-0.958575,-0.043388\H,0,2.248
 595,-1.357032,-1.006499\H,0,3.401257,-1.622519,0.271019\C,0,-1.104795,
 -1.419144,-0.680915\H,0,-0.544367,-2.322264,-0.886379\C,0,-2.406337,-1
 .522553,-0.11811\H,0,-2.824445,-2.509213,0.04557\C,0,-1.462637,0.99980
 8,-0.987512\H,0,-0.929588,1.949702,-0.93613\H,0,-1.898804,0.937531,-1.
 990366\C,0,-2.592283,0.958575,0.043388\H,0,-3.401256,1.622519,-0.27101
 9\H,0,-2.248595,1.357032,1.006498\\Version=ES64L-G16RevB.01\HF=-466.81
 55249\S2=0.695532\S2-1=0.\S2A=0.234651\RMSD=4.650e-09\Dipole=0.0001365
 ,-0.0000896,-0.0000285\Quadrupole=0.5884253,1.8975719,-2.4859972,-2.20
 28831,-2.3302303,-0.5283624\PG=CI [X(C12H16)]\\@


 KNIGHT- SIRE, I'VE JUST RETURNED FROM THE FRONT
 KING-   HOW GOES THE BATTLE                    
 KNIGHT- THE SITUATION IS QUITE FLUID           
 KING-   WHAT DOES *THAT* MEAN                  
 KNIGHT- WE'RE UP THE CREEK                     
                THE WIZARD OF ID                
 Job cpu time:       0 days  2 hours  4 minutes  5.6 seconds.
 Elapsed time:       0 days  0 hours  5 minutes 13.5 seconds.
 File lengths (MBytes):  RWF=    622 Int=      0 D2E=      0 Chk=     23 Scr=      1
 Normal termination of Gaussian 16 at Mon Aug  3 16:24:57 2020.
